nqpoint: 300    
npath: 3      
segment_nqpoint:
- 100
- 100
- 100
labels:
- [ 'G', 'M' ]
- [ 'M', 'K' ]
- [ 'K', 'G' ]
reciprocal_lattice:
- [   0.29393335,   0.16970250,   0.00000000 ] # a*
- [   0.00000000,   0.33940499,   0.00000000 ] # b*
- [   0.00000000,   0.00000000,   0.03852170 ] # c*
natom: 7      
lattice:
- [     3.402131865964052,     0.000000000000000,     0.000000000000000 ] # a
- [    -1.701065932982026,     2.946332622932429,     0.000000000000000 ] # b
- [     0.000000000000000,     0.000000000000000,    25.959394277470707 ] # c
points:
- symbol: C # 1
  coordinates: [  0.000000000000000,  0.000000000000000,  0.442895253775388 ]
  mass: 12.010700
- symbol: C # 2
  coordinates: [  0.333332985432215,  0.666666983183674,  0.593445591373002 ]
  mass: 12.010700
- symbol: F # 3
  coordinates: [  0.666666984744047,  0.333332985985145,  0.346695300506715 ]
  mass: 18.998403
- symbol: N # 4
  coordinates: [  0.333332985432215,  0.666666983183674,  0.545194882641318 ]
  mass: 14.006700
- symbol: S # 5
  coordinates: [  0.333332985432215,  0.666666983183674,  0.653304699493285 ]
  mass: 32.065000
- symbol: Zr # 6
  coordinates: [  0.333332985432215,  0.666666983183674,  0.397126190168325 ]
  mass: 91.224000
- symbol: Zr # 7
  coordinates: [  0.666666984744047,  0.333332985985145,  0.491622413436325 ]
  mass: 91.224000

phonon:
- q-position: [    0.0000000,    0.0000000,    0.0000000 ]
  distance:    0.0000000
  band:
  - # 1
    frequency:   -0.0000235252
  - # 2
    frequency:   -0.0000002763
  - # 3
    frequency:    0.0000190398
  - # 4
    frequency:    1.2589813323
  - # 5
    frequency:    1.2589813325
  - # 6
    frequency:    4.5719368958
  - # 7
    frequency:    4.5719368959
  - # 8
    frequency:    5.1757059041
  - # 9
    frequency:    5.1757059041
  - # 10
    frequency:    5.7043480859
  - # 11
    frequency:    7.0479546084
  - # 12
    frequency:    7.0479546085
  - # 13
    frequency:    7.9745988596
  - # 14
    frequency:   11.1814687041
  - # 15
    frequency:   14.0097781118
  - # 16
    frequency:   14.0097781118
  - # 17
    frequency:   16.1895238437
  - # 18
    frequency:   16.9453143810
  - # 19
    frequency:   16.9453143811
  - # 20
    frequency:   27.1108164011
  - # 21
    frequency:   57.7293678525

- q-position: [    0.0050505,    0.0000000,    0.0000000 ]
  distance:    0.0017142
  band:
  - # 1
    frequency:    0.0021601526
  - # 2
    frequency:    0.0569711414
  - # 3
    frequency:    0.1118865030
  - # 4
    frequency:    1.2594310361
  - # 5
    frequency:    1.2620587891
  - # 6
    frequency:    4.5717056086
  - # 7
    frequency:    4.5725062891
  - # 8
    frequency:    5.1762915313
  - # 9
    frequency:    5.1767720796
  - # 10
    frequency:    5.7038828960
  - # 11
    frequency:    7.0477371300
  - # 12
    frequency:    7.0481492078
  - # 13
    frequency:    7.9742418293
  - # 14
    frequency:   11.1811023585
  - # 15
    frequency:   14.0098284858
  - # 16
    frequency:   14.0099893501
  - # 17
    frequency:   16.1892265694
  - # 18
    frequency:   16.9449685890
  - # 19
    frequency:   16.9454857307
  - # 20
    frequency:   27.1107217506
  - # 21
    frequency:   57.7284530046

- q-position: [    0.0101010,    0.0000000,    0.0000000 ]
  distance:    0.0034283
  band:
  - # 1
    frequency:    0.0085971555
  - # 2
    frequency:    0.1139588652
  - # 3
    frequency:    0.2236679901
  - # 4
    frequency:    1.2607820878
  - # 5
    frequency:    1.2712414196
  - # 6
    frequency:    4.5710134487
  - # 7
    frequency:    4.5742125436
  - # 8
    frequency:    5.1780453748
  - # 9
    frequency:    5.1799641372
  - # 10
    frequency:    5.7024904233
  - # 11
    frequency:    7.0470855670
  - # 12
    frequency:    7.0487325570
  - # 13
    frequency:    7.9731711254
  - # 14
    frequency:   11.1800027671
  - # 15
    frequency:   14.0099795475
  - # 16
    frequency:   14.0106227267
  - # 17
    frequency:   16.1883358969
  - # 18
    frequency:   16.9439324394
  - # 19
    frequency:   16.9459971872
  - # 20
    frequency:   27.1104379507
  - # 21
    frequency:   57.7257100299

- q-position: [    0.0151515,    0.0000000,    0.0000000 ]
  distance:    0.0051425
  band:
  - # 1
    frequency:    0.0191857304
  - # 2
    frequency:    0.1709784759
  - # 3
    frequency:    0.3352346543
  - # 4
    frequency:    1.2630403723
  - # 5
    frequency:    1.2863867204
  - # 6
    frequency:    4.5698654880
  - # 7
    frequency:    4.5770498114
  - # 8
    frequency:    5.1809583726
  - # 9
    frequency:    5.1852627468
  - # 10
    frequency:    5.7001799761
  - # 11
    frequency:    7.0460025366
  - # 12
    frequency:    7.0497033104
  - # 13
    frequency:    7.9713879127
  - # 14
    frequency:   11.1781682801
  - # 15
    frequency:   14.0102311173
  - # 16
    frequency:   14.0116772292
  - # 17
    frequency:   16.1868552538
  - # 18
    frequency:   16.9422096092
  - # 19
    frequency:   16.9468410125
  - # 20
    frequency:   27.1099654557
  - # 21
    frequency:   57.7211436304

- q-position: [    0.0202020,    0.0000000,    0.0000000 ]
  distance:    0.0068567
  band:
  - # 1
    frequency:    0.0337340267
  - # 2
    frequency:    0.2280426866
  - # 3
    frequency:    0.4464666225
  - # 4
    frequency:    1.2662159093
  - # 5
    frequency:    1.3072781846
  - # 6
    frequency:    4.5682700711
  - # 7
    frequency:    4.5810081113
  - # 8
    frequency:    5.1850155936
  - # 9
    frequency:    5.1926359382
  - # 10
    frequency:    5.6969671297
  - # 11
    frequency:    7.0444923984
  - # 12
    frequency:    7.0510592262
  - # 13
    frequency:    7.9688941444
  - # 14
    frequency:   11.1755961952
  - # 15
    frequency:   14.0105828965
  - # 16
    frequency:   14.0131511798
  - # 17
    frequency:   16.1847902736
  - # 18
    frequency:   16.9398062166
  - # 19
    frequency:   16.9480044368
  - # 20
    frequency:   27.1093050229
  - # 21
    frequency:   57.7147616302

- q-position: [    0.0252525,    0.0000000,    0.0000000 ]
  distance:    0.0085708
  band:
  - # 1
    frequency:    0.0520044844
  - # 2
    frequency:    0.2851602568
  - # 3
    frequency:    0.5572276093
  - # 4
    frequency:    1.2703231931
  - # 5
    frequency:    1.3336525833
  - # 6
    frequency:    4.5662386645
  - # 7
    frequency:    4.5860729979
  - # 8
    frequency:    5.1901964824
  - # 9
    frequency:    5.2020394431
  - # 10
    frequency:    5.6928738293
  - # 11
    frequency:    7.0425612521
  - # 12
    frequency:    7.0527971694
  - # 13
    frequency:    7.9656925799
  - # 14
    frequency:   11.1722828268
  - # 15
    frequency:   14.0110344692
  - # 16
    frequency:   14.0150422490
  - # 17
    frequency:   16.1821486815
  - # 18
    frequency:   16.9367308066
  - # 19
    frequency:   16.9494698464
  - # 20
    frequency:   27.1084577130
  - # 21
    frequency:   57.7065749557

- q-position: [    0.0303030,    0.0000000,    0.0000000 ]
  distance:    0.0102850
  band:
  - # 1
    frequency:    0.0737361099
  - # 2
    frequency:    0.3423345362
  - # 3
    frequency:    0.6673568266
  - # 4
    frequency:    1.2753817096
  - # 5
    frequency:    1.3652316083
  - # 6
    frequency:    4.5637856634
  - # 7
    frequency:    4.5922251357
  - # 8
    frequency:    5.1964751785
  - # 9
    frequency:    5.2134171212
  - # 10
    frequency:    5.6879285567
  - # 11
    frequency:    7.0402169321
  - # 12
    frequency:    7.0549131129
  - # 13
    frequency:    7.9617868105
  - # 14
    frequency:   11.1682236024
  - # 15
    frequency:   14.0115853046
  - # 16
    frequency:   14.0173474749
  - # 17
    frequency:   16.1789401416
  - # 18
    frequency:   16.9329943301
  - # 19
    frequency:   16.9512150351
  - # 20
    frequency:   27.1074248900
  - # 21
    frequency:   57.6965976087

- q-position: [    0.0353535,    0.0000000,    0.0000000 ]
  distance:    0.0119992
  band:
  - # 1
    frequency:    0.0986643372
  - # 2
    frequency:    0.3995618653
  - # 3
    frequency:    0.7766582867
  - # 4
    frequency:    1.2814166789
  - # 5
    frequency:    1.4017546011
  - # 6
    frequency:    4.5609281751
  - # 7
    frequency:    4.5994398116
  - # 8
    frequency:    5.2038208905
  - # 9
    frequency:    5.2267014162
  - # 10
    frequency:    5.6821665908
  - # 11
    frequency:    7.0374689999
  - # 12
    frequency:    7.0574021400
  - # 13
    frequency:    7.9571812909
  - # 14
    frequency:   11.1634131826
  - # 15
    frequency:   14.0122347594
  - # 16
    frequency:   14.0200632858
  - # 17
    frequency:   16.1751760723
  - # 18
    frequency:   16.9286101182
  - # 19
    frequency:   16.9532135151
  - # 20
    frequency:   27.1062082211
  - # 21
    frequency:   57.6848466316

- q-position: [    0.0404040,    0.0000000,    0.0000000 ]
  distance:    0.0137133
  band:
  - # 1
    frequency:    0.1265362068
  - # 2
    frequency:    0.4568297699
  - # 3
    frequency:    0.8848865240
  - # 4
    frequency:    1.2884600877
  - # 5
    frequency:    1.4430107603
  - # 6
    frequency:    4.5576857941
  - # 7
    frequency:    4.6076864182
  - # 8
    frequency:    5.2121983028
  - # 9
    frequency:    5.2418137705
  - # 10
    frequency:    5.6756304046
  - # 11
    frequency:    7.0343287338
  - # 12
    frequency:    7.0602584442
  - # 13
    frequency:    7.9518813782
  - # 14
    frequency:   11.1578456038
  - # 15
    frequency:   14.0129820811
  - # 16
    frequency:   14.0231855286
  - # 17
    frequency:   16.1708694391
  - # 18
    frequency:   16.9235938509
  - # 19
    frequency:   16.9554348742
  - # 20
    frequency:   27.1048096774
  - # 21
    frequency:   57.6713420651

- q-position: [    0.0454545,    0.0000000,    0.0000000 ]
  distance:    0.0154275
  band:
  - # 1
    frequency:    0.1571201891
  - # 2
    frequency:    0.5141148631
  - # 3
    frequency:    0.9917279619
  - # 4
    frequency:    1.2965521004
  - # 5
    frequency:    1.4888706359
  - # 6
    frequency:    4.5540803839
  - # 7
    frequency:    4.6169279407
  - # 8
    frequency:    5.2215679957
  - # 9
    frequency:    5.2586649009
  - # 10
    frequency:    5.6683702751
  - # 11
    frequency:    7.0308091138
  - # 12
    frequency:    7.0634753286
  - # 13
    frequency:    7.9458933782
  - # 14
    frequency:   11.1515144402
  - # 15
    frequency:   14.0138264119
  - # 16
    frequency:   14.0267094990
  - # 17
    frequency:   16.1660345303
  - # 18
    frequency:   16.9179635205
  - # 19
    frequency:   16.9578451719
  - # 20
    frequency:   27.1032315333
  - # 21
    frequency:   57.6561068986

- q-position: [    0.0505051,    0.0000000,    0.0000000 ]
  distance:    0.0171417
  band:
  - # 1
    frequency:    0.1902111275
  - # 2
    frequency:    0.5713803391
  - # 3
    frequency:    1.0967784139
  - # 4
    frequency:    1.3057429635
  - # 5
    frequency:    1.5393166551
  - # 6
    frequency:    4.5501358776
  - # 7
    frequency:    4.6271204731
  - # 8
    frequency:    5.2318868619
  - # 9
    frequency:    5.2771547934
  - # 10
    frequency:    5.6604452285
  - # 11
    frequency:    7.0269248013
  - # 12
    frequency:    7.0670452018
  - # 13
    frequency:    7.9392245972
  - # 14
    frequency:   11.1444129839
  - # 15
    frequency:   14.0147667922
  - # 16
    frequency:   14.0306299745
  - # 17
    frequency:   16.1606867267
  - # 18
    frequency:   16.9117393910
  - # 19
    frequency:   16.9604073625
  - # 20
    frequency:   27.1014763666
  - # 21
    frequency:   57.6391670131

- q-position: [    0.0555556,    0.0000000,    0.0000000 ]
  distance:    0.0188558
  band:
  - # 1
    frequency:    0.2256313695
  - # 2
    frequency:    0.6285729169
  - # 3
    frequency:    1.1995211425
  - # 4
    frequency:    1.3160955495
  - # 5
    frequency:    1.5944691246
  - # 6
    frequency:    4.5458781050
  - # 7
    frequency:    4.6382127837
  - # 8
    frequency:    5.2431085047
  - # 9
    frequency:    5.2971721832
  - # 10
    frequency:    5.6519245390
  - # 11
    frequency:    7.0226921139
  - # 12
    frequency:    7.0709595720
  - # 13
    frequency:    7.9318834010
  - # 14
    frequency:   11.1365344371
  - # 15
    frequency:   14.0158021650
  - # 16
    frequency:   14.0349412494
  - # 17
    frequency:   16.1548422709
  - # 18
    frequency:   16.9049439519
  - # 19
    frequency:   16.9630817352
  - # 20
    frequency:   27.0995470577
  - # 21
    frequency:   57.6205511174

- q-position: [    0.0606061,    0.0000000,    0.0000000 ]
  distance:    0.0205700
  band:
  - # 1
    frequency:    0.2632292898
  - # 2
    frequency:    0.6856190573
  - # 3
    frequency:    1.2993191123
  - # 4
    frequency:    1.3276887163
  - # 5
    frequency:    1.6545951307
  - # 6
    frequency:    4.5413346498
  - # 7
    frequency:    4.6501459413
  - # 8
    frequency:    5.2551836086
  - # 9
    frequency:    5.3185931109
  - # 10
    frequency:    5.6428901874
  - # 11
    frequency:    7.0181289915
  - # 12
    frequency:    7.0752090370
  - # 13
    frequency:    7.9238792801
  - # 14
    frequency:   11.1278721164
  - # 15
    frequency:   14.0169313805
  - # 16
    frequency:   14.0396371700
  - # 17
    frequency:   16.1485180434
  - # 18
    frequency:   16.8976018690
  - # 19
    frequency:   16.9658263627
  - # 20
    frequency:   27.0974467892
  - # 21
    frequency:   57.6002906766

- q-position: [    0.0656566,    0.0000000,    0.0000000 ]
  distance:    0.0222842
  band:
  - # 1
    frequency:    0.3028762758
  - # 2
    frequency:    0.7424202671
  - # 3
    frequency:    1.3406216673
  - # 4
    frequency:    1.3954503213
  - # 5
    frequency:    1.7200724226
  - # 6
    frequency:    4.5365347372
  - # 7
    frequency:    4.6628530052
  - # 8
    frequency:    5.2680602782
  - # 9
    frequency:    5.3412777570
  - # 10
    frequency:    5.6334410728
  - # 11
    frequency:    7.0132549565
  - # 12
    frequency:    7.0797832714
  - # 13
    frequency:    7.9152229208
  - # 14
    frequency:   11.1184196633
  - # 15
    frequency:   14.0181532000
  - # 16
    frequency:   14.0447111696
  - # 17
    frequency:   16.1417313523
  - # 18
    frequency:   16.8897399299
  - # 19
    frequency:   16.9685975490
  - # 20
    frequency:   27.0951790439
  - # 21
    frequency:   57.5784198347

- q-position: [    0.0707071,    0.0000000,    0.0000000 ]
  distance:    0.0239983
  band:
  - # 1
    frequency:    0.3444630022
  - # 2
    frequency:    0.7988473351
  - # 3
    frequency:    1.3550194656
  - # 4
    frequency:    1.4872247207
  - # 5
    frequency:    1.7912705417
  - # 6
    frequency:    4.5315091476
  - # 7
    frequency:    4.6762587788
  - # 8
    frequency:    5.2816843411
  - # 9
    frequency:    5.3650638905
  - # 10
    frequency:    5.6237006471
  - # 11
    frequency:    7.0080910637
  - # 12
    frequency:    7.0846710099
  - # 13
    frequency:    7.9059262815
  - # 14
    frequency:   11.1081712583
  - # 15
    frequency:   14.0194663012
  - # 16
    frequency:   14.0501563026
  - # 17
    frequency:   16.1344997397
  - # 18
    frequency:   16.8813869871
  - # 19
    frequency:   16.9713502691
  - # 20
    frequency:   27.0927476035
  - # 21
    frequency:   57.5549753298

- q-position: [    0.0757576,    0.0000000,    0.0000000 ]
  distance:    0.0257125
  band:
  - # 1
    frequency:    0.3878955676
  - # 2
    frequency:    0.8547334990
  - # 3
    frequency:    1.3710397003
  - # 4
    frequency:    1.5741892197
  - # 5
    frequency:    1.8683432485
  - # 6
    frequency:    4.5262901511
  - # 7
    frequency:    4.6902796205
  - # 8
    frequency:    5.2959996173
  - # 9
    frequency:    5.3897531659
  - # 10
    frequency:    5.6138317403
  - # 11
    frequency:    7.0026598419
  - # 12
    frequency:    7.0898600270
  - # 13
    frequency:    7.8960026759
  - # 14
    frequency:   11.0971218354
  - # 15
    frequency:   14.0208692817
  - # 16
    frequency:   14.0559652757
  - # 17
    frequency:   16.1268408106
  - # 18
    frequency:   16.8725738962
  - # 19
    frequency:   16.9740385954
  - # 20
    frequency:   27.0901565458
  - # 21
    frequency:   57.5299964038

- q-position: [    0.0808081,    0.0000000,    0.0000000 ]
  distance:    0.0274267
  band:
  - # 1
    frequency:    0.4330918534
  - # 2
    frequency:    0.9098669386
  - # 3
    frequency:    1.3888799047
  - # 4
    frequency:    1.6563307040
  - # 5
    frequency:    1.9510226880
  - # 6
    frequency:    4.5209114560
  - # 7
    frequency:    4.7048233071
  - # 8
    frequency:    5.3109481573
  - # 9
    frequency:    5.4150810349
  - # 10
    frequency:    5.6040678155
  - # 11
    frequency:    6.9969852248
  - # 12
    frequency:    7.0953371134
  - # 13
    frequency:    7.8854668598
  - # 14
    frequency:   11.0852672925
  - # 15
    frequency:   14.0223606639
  - # 16
    frequency:   14.0621304764
  - # 17
    frequency:   16.1187720839
  - # 18
    frequency:   16.8633334516
  - # 19
    frequency:   16.9766161043
  - # 20
    frequency:   27.0874102417
  - # 21
    frequency:   57.5035247050

- q-position: [    0.0858586,    0.0000000,    0.0000000 ]
  distance:    0.0291408
  band:
  - # 1
    frequency:    0.4799783013
  - # 2
    frequency:    0.9639838422
  - # 3
    frequency:    1.4087844747
  - # 4
    frequency:    1.7341195677
  - # 5
    frequency:    2.0385730160
  - # 6
    frequency:    4.5154081620
  - # 7
    frequency:    4.7197889517
  - # 8
    frequency:    5.3264704531
  - # 9
    frequency:    5.4406455315
  - # 10
    frequency:    5.5947853876
  - # 11
    frequency:    6.9910924723
  - # 12
    frequency:    7.1010880479
  - # 13
    frequency:    7.8743351240
  - # 14
    frequency:   11.0726046960
  - # 15
    frequency:   14.0239388988
  - # 16
    frequency:   14.0686439980
  - # 17
    frequency:   16.1103108698
  - # 18
    frequency:   16.8537003175
  - # 19
    frequency:   16.9790362603
  - # 20
    frequency:   27.0845133509
  - # 21
    frequency:   57.4756041860

- q-position: [    0.0909091,    0.0000000,    0.0000000 ]
  distance:    0.0308550
  band:
  - # 1
    frequency:    0.5284871950
  - # 2
    frequency:    1.0167648462
  - # 3
    frequency:    1.4310482790
  - # 4
    frequency:    1.8083428639
  - # 5
    frequency:    2.1299545065
  - # 6
    frequency:    4.5098167106
  - # 7
    frequency:    4.7350669864
  - # 8
    frequency:    5.3425056278
  - # 9
    frequency:    5.4657237741
  - # 10
    frequency:    5.5866887497
  - # 11
    frequency:    6.9850080799
  - # 12
    frequency:    7.1070975662
  - # 13
    frequency:    7.8626253918
  - # 14
    frequency:   11.0591324744
  - # 15
    frequency:   14.0256023694
  - # 16
    frequency:   14.0754976593
  - # 17
    frequency:   16.1014741737
  - # 18
    frequency:   16.8437109563
  - # 19
    frequency:   16.9812527730
  - # 20
    frequency:   27.0814708167
  - # 21
    frequency:   57.4462809953

- q-position: [    0.0959596,    0.0000000,    0.0000000 ]
  distance:    0.0325692
  band:
  - # 1
    frequency:    0.5785544599
  - # 2
    frequency:    1.0678399402
  - # 3
    frequency:    1.4560118650
  - # 4
    frequency:    1.8798576065
  - # 5
    frequency:    2.2240676672
  - # 6
    frequency:    4.5041748254
  - # 7
    frequency:    4.7505392401
  - # 8
    frequency:    5.3589916081
  - # 9
    frequency:    5.4887818045
  - # 10
    frequency:    5.5813013518
  - # 11
    frequency:    6.9787596779
  - # 12
    frequency:    7.1133493236
  - # 13
    frequency:    7.8503573209
  - # 14
    frequency:   11.0448505999
  - # 15
    frequency:   14.0273493947
  - # 16
    frequency:   14.0826830195
  - # 17
    frequency:   16.0922786251
  - # 18
    frequency:   16.8334035526
  - # 19
    frequency:   16.9832199261
  - # 20
    frequency:   27.0782878603
  - # 21
    frequency:   57.4156033639

- q-position: [    0.1010101,    0.0000000,    0.0000000 ]
  distance:    0.0342833
  band:
  - # 1
    frequency:    0.6301179517
  - # 2
    frequency:    1.1168091133
  - # 3
    frequency:    1.4840409740
  - # 4
    frequency:    1.9494154188
  - # 5
    frequency:    2.3199261911
  - # 6
    frequency:    4.4985214331
  - # 7
    frequency:    4.7660791691
  - # 8
    frequency:    5.3758652873
  - # 9
    frequency:    5.5065100020
  - # 10
    frequency:    5.5819315321
  - # 11
    frequency:    6.9723759188
  - # 12
    frequency:    7.1198258528
  - # 13
    frequency:    7.8375524103
  - # 14
    frequency:   11.0297607542
  - # 15
    frequency:   14.0291782323
  - # 16
    frequency:   14.0901913871
  - # 17
    frequency:   16.0827404336
  - # 18
    frequency:   16.8228179333
  - # 19
    frequency:   16.9848928760
  - # 20
    frequency:   27.0749699734
  - # 21
    frequency:   57.3836214870

- q-position: [    0.1060606,    0.0000000,    0.0000000 ]
  distance:    0.0359975
  band:
  - # 1
    frequency:    0.6831161821
  - # 2
    frequency:    1.1632854175
  - # 3
    frequency:    1.5154836861
  - # 4
    frequency:    2.0175973042
  - # 5
    frequency:    2.4167199622
  - # 6
    frequency:    4.4928965610
  - # 7
    frequency:    4.7815523323
  - # 8
    frequency:    5.3930626822
  - # 9
    frequency:    5.5147529593
  - # 10
    frequency:    5.5927436189
  - # 11
    frequency:    6.9658863534
  - # 12
    frequency:    7.1265085123
  - # 13
    frequency:    7.8242341131
  - # 14
    frequency:   11.0138664769
  - # 15
    frequency:   14.0310870807
  - # 16
    frequency:   14.0980138234
  - # 17
    frequency:   16.0728753691
  - # 18
    frequency:   16.8119954828
  - # 19
    frequency:   16.9862279187
  - # 20
    frequency:   27.0715229095
  - # 21
    frequency:   57.3503874013

- q-position: [    0.1111111,    0.0000000,    0.0000000 ]
  distance:    0.0377117
  band:
  - # 1
    frequency:    0.7374874208
  - # 2
    frequency:    1.2069595571
  - # 3
    frequency:    1.5506060756
  - # 4
    frequency:    2.0848196271
  - # 5
    frequency:    2.5138070171
  - # 6
    frequency:    4.4873412044
  - # 7
    frequency:    4.7968172492
  - # 8
    frequency:    5.4105190917
  - # 9
    frequency:    5.5143422719
  - # 10
    frequency:    5.6129258101
  - # 11
    frequency:    6.9593212953
  - # 12
    frequency:    7.1333774241
  - # 13
    frequency:    7.8104279546
  - # 14
    frequency:   10.9971732945
  - # 15
    frequency:   14.0330740824
  - # 16
    frequency:   14.1061411389
  - # 17
    frequency:   16.0626987656
  - # 18
    frequency:   16.8009790542
  - # 19
    frequency:   16.9871827255
  - # 20
    frequency:   27.0679526745
  - # 21
    frequency:   57.3159548580

- q-position: [    0.1161616,    0.0000000,    0.0000000 ]
  distance:    0.0394258
  band:
  - # 1
    frequency:    0.7931691099
  - # 2
    frequency:    1.2476696140
  - # 3
    frequency:    1.5895227620
  - # 4
    frequency:    2.1513668169
  - # 5
    frequency:    2.6106789273
  - # 6
    frequency:    4.4818971600
  - # 7
    frequency:    4.8117268286
  - # 8
    frequency:    5.4281692603
  - # 9
    frequency:    5.5097016928
  - # 10
    frequency:    5.6380851847
  - # 11
    frequency:    6.9527116733
  - # 12
    frequency:    7.1404113951
  - # 13
    frequency:    7.7961616594
  - # 14
    frequency:   10.9796888278
  - # 15
    frequency:   14.0351373246
  - # 16
    frequency:   14.1145638850
  - # 17
    frequency:   16.0522255462
  - # 18
    frequency:   16.7898128737
  - # 19
    frequency:   16.9877165462
  - # 20
    frequency:   27.0642655151
  - # 21
    frequency:   57.2803791918

- q-position: [    0.1212121,    0.0000000,    0.0000000 ]
  distance:    0.0411400
  band:
  - # 1
    frequency:    0.8500975331
  - # 2
    frequency:    1.2854458799
  - # 3
    frequency:    1.6321523792
  - # 4
    frequency:    2.2174263334
  - # 5
    frequency:    2.7069240486
  - # 6
    frequency:    4.4766068223
  - # 7
    frequency:    4.8261306022
  - # 8
    frequency:    5.4459475525
  - # 9
    frequency:    5.5036657714
  - # 10
    frequency:    5.6654284924
  - # 11
    frequency:    6.9460888720
  - # 12
    frequency:    7.1475878171
  - # 13
    frequency:    7.7814652889
  - # 14
    frequency:   10.9614228774
  - # 15
    frequency:   14.0372748414
  - # 16
    frequency:   14.1232723383
  - # 17
    frequency:   16.0414702677
  - # 18
    frequency:   16.7785424402
  - # 19
    frequency:   16.9877903818
  - # 20
    frequency:   27.0604679068
  - # 21
    frequency:   57.2437171868

- q-position: [    0.1262626,    0.0000000,    0.0000000 ]
  distance:    0.0428542
  band:
  - # 1
    frequency:    0.9082076834
  - # 2
    frequency:    1.3205060379
  - # 3
    frequency:    1.6782227129
  - # 4
    frequency:    2.2831172779
  - # 5
    frequency:    2.8021972357
  - # 6
    frequency:    4.4715129420
  - # 7
    frequency:    4.8398780234
  - # 8
    frequency:    5.4637881428
  - # 9
    frequency:    5.4975409584
  - # 10
    frequency:    5.6936994686
  - # 11
    frequency:    6.9394845594
  - # 12
    frequency:    7.1548825353
  - # 13
    frequency:    7.7663713946
  - # 14
    frequency:   10.9423874867
  - # 15
    frequency:   14.0394846143
  - # 16
    frequency:   14.1322564804
  - # 17
    frequency:   16.0304471818
  - # 18
    frequency:   16.7672144172
  - # 19
    frequency:   16.9873671266
  - # 20
    frequency:   27.0565665395
  - # 21
    frequency:   57.2060269390

- q-position: [    0.1313131,    0.0000000,    0.0000000 ]
  distance:    0.0445683
  band:
  - # 1
    frequency:    0.9674332845
  - # 2
    frequency:    1.3532025640
  - # 3
    frequency:    1.7273236330
  - # 4
    frequency:    2.3485114782
  - # 5
    frequency:    2.8961971885
  - # 6
    frequency:    4.4666583448
  - # 7
    frequency:    4.8528230695
  - # 8
    frequency:    5.4816252249
  - # 9
    frequency:    5.4919911562
  - # 10
    frequency:    5.7222904484
  - # 11
    frequency:    6.9329305016
  - # 12
    frequency:    7.1622696765
  - # 13
    frequency:    7.7509151933
  - # 14
    frequency:   10.9225969811
  - # 15
    frequency:   14.0417645733
  - # 16
    frequency:   14.1415059723
  - # 17
    frequency:   16.0191703105
  - # 18
    frequency:   16.7558765176
  - # 19
    frequency:   16.9864116808
  - # 20
    frequency:   27.0525683022
  - # 21
    frequency:   57.1673677169

- q-position: [    0.1363636,    0.0000000,    0.0000000 ]
  distance:    0.0462825
  band:
  - # 1
    frequency:    1.0277069225
  - # 2
    frequency:    1.3839495198
  - # 3
    frequency:    1.7789806426
  - # 4
    frequency:    2.4136483206
  - # 5
    frequency:    2.9886501588
  - # 6
    frequency:    4.4620856123
  - # 7
    frequency:    4.8648302855
  - # 8
    frequency:    5.4874211882
  - # 9
    frequency:    5.4993932442
  - # 10
    frequency:    5.7508546454
  - # 11
    frequency:    6.9264583643
  - # 12
    frequency:    7.1697214206
  - # 13
    frequency:    7.7351347747
  - # 14
    frequency:   10.9020679842
  - # 15
    frequency:   14.0441125971
  - # 16
    frequency:   14.1510101246
  - # 17
    frequency:   16.0076535312
  - # 18
    frequency:   16.7445773800
  - # 19
    frequency:   16.9848910369
  - # 20
    frequency:   27.0484802661
  - # 21
    frequency:   57.1277998188

- q-position: [    0.1414141,    0.0000000,    0.0000000 ]
  distance:    0.0479967
  band:
  - # 1
    frequency:    1.0889602570
  - # 2
    frequency:    1.4131586256
  - # 3
    frequency:    1.8327191519
  - # 4
    frequency:    2.4785449761
  - # 5
    frequency:    3.0792983863
  - # 6
    frequency:    4.4578367274
  - # 7
    frequency:    4.8757821971
  - # 8
    frequency:    5.4841155282
  - # 9
    frequency:    5.5170271571
  - # 10
    frequency:    5.7791618015
  - # 11
    frequency:    6.9200994987
  - # 12
    frequency:    7.1772076985
  - # 13
    frequency:    7.7190713540
  - # 14
    frequency:   10.8808194116
  - # 15
    frequency:   14.0465265136
  - # 16
    frequency:   14.1607578638
  - # 17
    frequency:   15.9959106694
  - # 18
    frequency:   16.7333664361
  - # 19
    frequency:   16.9827743399
  - # 20
    frequency:   27.0443096660
  - # 21
    frequency:   57.0873844296

- q-position: [    0.1464646,    0.0000000,    0.0000000 ]
  distance:    0.0497108
  band:
  - # 1
    frequency:    1.1511242805
  - # 2
    frequency:    1.4411992860
  - # 3
    frequency:    1.8881048013
  - # 4
    frequency:    2.5432034060
  - # 5
    frequency:    3.1678919198
  - # 6
    frequency:    4.4539526865
  - # 7
    frequency:    4.8855876965
  - # 8
    frequency:    5.4822885748
  - # 9
    frequency:    5.5344627185
  - # 10
    frequency:    5.8070412630
  - # 11
    frequency:    6.9138847137
  - # 12
    frequency:    7.1846957922
  - # 13
    frequency:    7.7027695909
  - # 14
    frequency:   10.8588724419
  - # 15
    frequency:   14.0490040998
  - # 16
    frequency:   14.1707376967
  - # 17
    frequency:   15.9839555948
  - # 18
    frequency:   16.7222937687
  - # 19
    frequency:   16.9800329256
  - # 20
    frequency:   27.0400638809
  - # 21
    frequency:   57.0461834754

- q-position: [    0.1515152,    0.0000000,    0.0000000 ]
  distance:    0.0514250
  band:
  - # 1
    frequency:    1.2141296054
  - # 2
    frequency:    1.4683817148
  - # 3
    frequency:    1.9447606824
  - # 4
    frequency:    2.6076151593
  - # 5
    frequency:    3.2541828706
  - # 6
    frequency:    4.4504730856
  - # 7
    frequency:    4.8941906102
  - # 8
    frequency:    5.4821020156
  - # 9
    frequency:    5.5516368004
  - # 10
    frequency:    5.8343576608
  - # 11
    frequency:    6.9078440323
  - # 12
    frequency:    7.1921498075
  - # 13
    frequency:    7.6862779987
  - # 14
    frequency:   10.8362504669
  - # 15
    frequency:   14.0515430822
  - # 16
    frequency:   14.1809376723
  - # 17
    frequency:   15.9718023164
  - # 18
    frequency:   16.7114099583
  - # 19
    frequency:   16.9766403389
  - # 20
    frequency:   27.0357504125
  - # 21
    frequency:   57.0042594779