nqpoint: 300    
npath: 3      
segment_nqpoint:
- 100
- 100
- 100
labels:
- [ 'G', 'M' ]
- [ 'M', 'K' ]
- [ 'K', 'G' ]
reciprocal_lattice:
- [   0.31211354,   0.18019883,   0.00000000 ] # a*
- [   0.00000000,   0.36039767,   0.00000000 ] # b*
- [   0.00000000,   0.00000000,   0.04221570 ] # c*
natom: 6      
lattice:
- [     3.203962275350167,     0.000000000000000,     0.000000000000000 ] # a
- [    -1.601981137675083,     2.774712723220588,     0.000000000000000 ] # b
- [     0.000000000000000,     0.000000000000000,    23.687867406627085 ] # c
points:
- symbol: C # 1
  coordinates: [  0.000000000000000,  0.000000000000000,  0.521608667246153 ]
  mass: 12.010700
- symbol: F # 2
  coordinates: [  0.333332985432215,  0.666666983183674,  0.620058663555247 ]
  mass: 18.998403
- symbol: H # 3
  coordinates: [  0.666666984744048,  0.333332985985144,  0.379941336444753 ]
  mass: 1.007940
- symbol: O # 4
  coordinates: [  0.666666984744048,  0.333332985985144,  0.421555903725099 ]
  mass: 15.999400
- symbol: Ti # 5
  coordinates: [  0.333332985432215,  0.666666983183674,  0.474146184126931 ]
  mass: 47.867000
- symbol: Ti # 6
  coordinates: [  0.666666984744048,  0.333332985985144,  0.567984313221849 ]
  mass: 47.867000

phonon:
- q-position: [    0.0000000,    0.0000000,    0.0000000 ]
  distance:    0.0000000
  band:
  - # 1
    frequency:   -0.0000004213
  - # 2
    frequency:    0.0000003973
  - # 3
    frequency:    0.0000008837
  - # 4
    frequency:    5.0825799419
  - # 5
    frequency:    5.0825799419
  - # 6
    frequency:    5.9210154089
  - # 7
    frequency:    5.9210154089
  - # 8
    frequency:    7.5961330959
  - # 9
    frequency:    7.5961330959
  - # 10
    frequency:    8.5065883048
  - # 11
    frequency:   13.0798699570
  - # 12
    frequency:   13.2560724548
  - # 13
    frequency:   13.2560724548
  - # 14
    frequency:   14.0933258181
  - # 15
    frequency:   17.4655599031
  - # 16
    frequency:   17.4655599031
  - # 17
    frequency:   17.8942860892
  - # 18
    frequency:  112.6632541151

- q-position: [    0.0050505,    0.0000000,    0.0000000 ]
  distance:    0.0018202
  band:
  - # 1
    frequency:   -0.0752811728
  - # 2
    frequency:    0.0867744371
  - # 3
    frequency:    0.1545599945
  - # 4
    frequency:    5.0829182391
  - # 5
    frequency:    5.0835497004
  - # 6
    frequency:    5.9217301979
  - # 7
    frequency:    5.9225380566
  - # 8
    frequency:    7.5963538367
  - # 9
    frequency:    7.5965665011
  - # 10
    frequency:    8.5068793831
  - # 11
    frequency:   13.0725334547
  - # 12
    frequency:   13.2567804503
  - # 13
    frequency:   13.2601118413
  - # 14
    frequency:   14.0981784098
  - # 15
    frequency:   17.4665626059
  - # 16
    frequency:   17.4673469070
  - # 17
    frequency:   17.8941585518
  - # 18
    frequency:  112.6634356340

- q-position: [    0.0101010,    0.0000000,    0.0000000 ]
  distance:    0.0036404
  band:
  - # 1
    frequency:   -0.0701725760
  - # 2
    frequency:    0.1735407794
  - # 3
    frequency:    0.2789891626
  - # 4
    frequency:    5.0839282645
  - # 5
    frequency:    5.0864554625
  - # 6
    frequency:    5.9238681205
  - # 7
    frequency:    5.9270967228
  - # 8
    frequency:    7.5970161102
  - # 9
    frequency:    7.5978602636
  - # 10
    frequency:    8.5077560837
  - # 11
    frequency:   13.0527112410
  - # 12
    frequency:   13.2589004823
  - # 13
    frequency:   13.2701264334
  - # 14
    frequency:   14.1126410279
  - # 15
    frequency:   17.4695616146
  - # 16
    frequency:   17.4726910365
  - # 17
    frequency:   17.8937770076
  - # 18
    frequency:  112.6639746604

- q-position: [    0.0151515,    0.0000000,    0.0000000 ]
  distance:    0.0054606
  band:
  - # 1
    frequency:   -0.0387165917
  - # 2
    frequency:    0.2602905918
  - # 3
    frequency:    0.4069887682
  - # 4
    frequency:    5.0855955641
  - # 5
    frequency:    5.0912866947
  - # 6
    frequency:    5.9274098997
  - # 7
    frequency:    5.9346636794
  - # 8
    frequency:    7.5981200288
  - # 9
    frequency:    7.5999952401
  - # 10
    frequency:    8.5092286432
  - # 11
    frequency:   13.0245709571
  - # 12
    frequency:   13.2624207337
  - # 13
    frequency:   13.2821991672
  - # 14
    frequency:   14.1364289184
  - # 15
    frequency:   17.4745297185
  - # 16
    frequency:   17.4815416185
  - # 17
    frequency:   17.8931448470
  - # 18
    frequency:  112.6648546669

- q-position: [    0.0202020,    0.0000000,    0.0000000 ]
  distance:    0.0072808
  band:
  - # 1
    frequency:    0.0635570618
  - # 2
    frequency:    0.3470147688
  - # 3
    frequency:    0.5366491274
  - # 4
    frequency:    5.0878965204
  - # 5
    frequency:    5.0980258684
  - # 6
    frequency:    5.9323235948
  - # 7
    frequency:    5.9451930546
  - # 8
    frequency:    7.5996656476
  - # 9
    frequency:    7.6029402386
  - # 10
    frequency:    8.5113135875
  - # 11
    frequency:   12.9914716325
  - # 12
    frequency:   13.2673216633
  - # 13
    frequency:   13.2933811457
  - # 14
    frequency:   14.1690753752
  - # 15
    frequency:   17.4814218596
  - # 16
    frequency:   17.4938140661
  - # 17
    frequency:   17.8922683826
  - # 18
    frequency:  112.6660483182

- q-position: [    0.0252525,    0.0000000,    0.0000000 ]
  distance:    0.0091010
  band:
  - # 1
    frequency:    0.1085623324
  - # 2
    frequency:    0.4337032223
  - # 3
    frequency:    0.6670540310
  - # 4
    frequency:    5.0907990356
  - # 5
    frequency:    5.1066485061
  - # 6
    frequency:    5.9385648922
  - # 7
    frequency:    5.9586213365
  - # 8
    frequency:    7.6016527684
  - # 9
    frequency:    7.6066530670
  - # 10
    frequency:    8.5140329461
  - # 11
    frequency:   12.9555703454
  - # 12
    frequency:   13.2735762319
  - # 13
    frequency:   13.3020609070
  - # 14
    frequency:   14.2099563852
  - # 15
    frequency:   17.4901755690
  - # 16
    frequency:   17.5093895151
  - # 17
    frequency:   17.8911580001
  - # 18
    frequency:  112.6675177850

- q-position: [    0.0303030,    0.0000000,    0.0000000 ]
  distance:    0.0109211
  band:
  - # 1
    frequency:    0.1484333045
  - # 2
    frequency:    0.5203445974
  - # 3
    frequency:    0.7977819960
  - # 4
    frequency:    5.0942634339
  - # 5
    frequency:    5.1171232585
  - # 6
    frequency:    5.9460775280
  - # 7
    frequency:    5.9748680628
  - # 8
    frequency:    7.6040806730
  - # 9
    frequency:    7.6110819591
  - # 10
    frequency:    8.5174131802
  - # 11
    frequency:   12.9182295474
  - # 12
    frequency:   13.2811502122
  - # 13
    frequency:   13.3075133390
  - # 14
    frequency:   14.2583351742
  - # 15
    frequency:   17.5007115735
  - # 16
    frequency:   17.5281139243
  - # 17
    frequency:   17.8898301436
  - # 18
    frequency:  112.6692151783

- q-position: [    0.0353535,    0.0000000,    0.0000000 ]
  distance:    0.0127413
  band:
  - # 1
    frequency:    0.1875527379
  - # 2
    frequency:    0.6069260222
  - # 3
    frequency:    0.9286100896
  - # 4
    frequency:    5.0982435400
  - # 5
    frequency:    5.1294120228
  - # 6
    frequency:    5.9547938539
  - # 7
    frequency:    5.9938366810
  - # 8
    frequency:    7.6069477927
  - # 9
    frequency:    7.6161673312
  - # 10
    frequency:    8.5214838606
  - # 11
    frequency:   12.8803465688
  - # 12
    frequency:   13.2900025736
  - # 13
    frequency:   13.3095152384
  - # 14
    frequency:   14.3134181294
  - # 15
    frequency:   17.5129345649
  - # 16
    frequency:   17.5497960774
  - # 17
    frequency:   17.8883106794
  - # 18
    frequency:  112.6710831003

- q-position: [    0.0404040,    0.0000000,    0.0000000 ]
  distance:    0.0145615
  band:
  - # 1
    frequency:    0.2273537572
  - # 2
    frequency:    0.6934328972
  - # 3
    frequency:    1.0594017196
  - # 4
    frequency:    5.1026878769
  - # 5
    frequency:    5.1434701114
  - # 6
    frequency:    5.9646355581
  - # 7
    frequency:    6.0154155620
  - # 8
    frequency:    7.6102513216
  - # 9
    frequency:    7.6218438158
  - # 10
    frequency:    8.5262761351
  - # 11
    frequency:   12.8425370700
  - # 12
    frequency:   13.3000859342
  - # 13
    frequency:   13.3081095570
  - # 14
    frequency:   14.3744082652
  - # 15
    frequency:   17.5267341266
  - # 16
    frequency:   17.5742034159
  - # 17
    frequency:   17.8866406925
  - # 18
    frequency:  112.6730553071

- q-position: [    0.0454545,    0.0000000,    0.0000000 ]
  distance:    0.0163817
  band:
  - # 1
    frequency:    0.2685348750
  - # 2
    frequency:    0.7798487279
  - # 3
    frequency:    1.1900611199
  - # 4
    frequency:    5.1075409307
  - # 5
    frequency:    5.1592464803
  - # 6
    frequency:    5.9755145478
  - # 7
    frequency:    6.0394791448
  - # 8
    frequency:    7.6139867876
  - # 9
    frequency:    7.6280424985
  - # 10
    frequency:    8.5318210430
  - # 11
    frequency:   12.8052338189
  - # 12
    frequency:   13.3034674651
  - # 13
    frequency:   13.3113470701
  - # 14
    frequency:   14.4405457072
  - # 15
    frequency:   17.5419858075
  - # 16
    frequency:   17.6010535704
  - # 17
    frequency:   17.8848868220
  - # 18
    frequency:  112.6750574746

- q-position: [    0.0505051,    0.0000000,    0.0000000 ]
  distance:    0.0182019
  band:
  - # 1
    frequency:    0.3115008126
  - # 2
    frequency:    0.8661550027
  - # 3
    frequency:    1.3205129296
  - # 4
    frequency:    5.1127444266
  - # 5
    frequency:    5.1766840246
  - # 6
    frequency:    5.9873339931
  - # 7
    frequency:    6.0658891930
  - # 8
    frequency:    7.6181475923
  - # 9
    frequency:    7.6346932779
  - # 10
    frequency:    8.5381477398
  - # 11
    frequency:   12.7687427466
  - # 12
    frequency:   13.2958097154
  - # 13
    frequency:   13.3237274701
  - # 14
    frequency:   14.5111317336
  - # 15
    frequency:   17.5585523343
  - # 16
    frequency:   17.6299971542
  - # 17
    frequency:   17.8831605472
  - # 18
    frequency:  112.6770080618

- q-position: [    0.0555556,    0.0000000,    0.0000000 ]
  distance:    0.0200221
  band:
  - # 1
    frequency:    0.3565049969
  - # 2
    frequency:    0.9523311171
  - # 3
    frequency:    1.4506921362
  - # 4
    frequency:    5.1182385683
  - # 5
    frequency:    5.1957199439
  - # 6
    frequency:    5.9999895267
  - # 7
    frequency:    6.0944961382
  - # 8
    frequency:    7.6227245371
  - # 9
    frequency:    7.6417272543
  - # 10
    frequency:    8.5452817108
  - # 11
    frequency:   12.7332771277
  - # 12
    frequency:   13.2853643087
  - # 13
    frequency:   13.3371639268
  - # 14
    frequency:   14.5855385037
  - # 15
    frequency:   17.5762849487
  - # 16
    frequency:   17.6605820867
  - # 17
    frequency:   17.8816561287
  - # 18
    frequency:  112.6788192614

- q-position: [    0.0606061,    0.0000000,    0.0000000 ]
  distance:    0.0218423
  band:
  - # 1
    frequency:    0.4037089860
  - # 2
    frequency:    1.0383543415
  - # 3
    frequency:    1.5805386961
  - # 4
    frequency:    5.1239631993
  - # 5
    frequency:    5.2162861778
  - # 6
    frequency:    6.0133705833
  - # 7
    frequency:    6.1251404897
  - # 8
    frequency:    7.6277053523
  - # 9
    frequency:    7.6490790490
  - # 10
    frequency:    8.5532430522
  - # 11
    frequency:   12.6989798685
  - # 12
    frequency:   13.2723459975
  - # 13
    frequency:   13.3515891518
  - # 14
    frequency:   14.6632089290
  - # 15
    frequency:   17.5950248573
  - # 16
    frequency:   17.6921773059
  - # 17
    frequency:   17.8807293177
  - # 18
    frequency:  112.6803980295

- q-position: [    0.0656566,    0.0000000,    0.0000000 ]
  distance:    0.0236625
  band:
  - # 1
    frequency:    0.4532120084
  - # 2
    frequency:    1.1241998312
  - # 3
    frequency:    1.7099944367
  - # 4
    frequency:    5.1298588541
  - # 5
    frequency:    5.2383099073
  - # 6
    frequency:    6.0273618523
  - # 7
    frequency:    6.1576542896
  - # 8
    frequency:    7.6330742468
  - # 9
    frequency:    7.6566889530
  - # 10
    frequency:    8.5620449063
  - # 11
    frequency:   12.6659388721
  - # 12
    frequency:   13.2569482981
  - # 13
    frequency:   13.3669324058
  - # 14
    frequency:   14.7436510245
  - # 15
    frequency:   17.6146047801
  - # 16
    frequency:   17.7238064345
  - # 17
    frequency:   17.8810662375
  - # 18
    frequency:  112.6816471826

- q-position: [    0.0707071,    0.0000000,    0.0000000 ]
  distance:    0.0254827
  band:
  - # 1
    frequency:    0.5050677882
  - # 2
    frequency:    1.2098406750
  - # 3
    frequency:    1.8390011435
  - # 4
    frequency:    5.1358676777
  - # 5
    frequency:    5.2617141149
  - # 6
    frequency:    6.0418448143
  - # 7
    frequency:    6.1918625931
  - # 8
    frequency:    7.6388115008
  - # 9
    frequency:    7.6645048092
  - # 10
    frequency:    8.5716921303
  - # 11
    frequency:   12.6341981091
  - # 12
    frequency:   13.2393421665
  - # 13
    frequency:   13.3831201324
  - # 14
    frequency:   14.8264299345
  - # 15
    frequency:   17.6348505804
  - # 16
    frequency:   17.7538066501
  - # 17
    frequency:   17.8840271609
  - # 18
    frequency:  112.6824665520

- q-position: [    0.0757576,    0.0000000,    0.0000000 ]
  distance:    0.0273029
  band:
  - # 1
    frequency:    0.5592952355
  - # 2
    frequency:    1.2952479765
  - # 3
    frequency:    1.9674993001
  - # 4
    frequency:    5.1419342008
  - # 5
    frequency:    5.2864181931
  - # 6
    frequency:    6.0566993212
  - # 7
    frequency:    6.2275849590
  - # 8
    frequency:    7.6448931191
  - # 9
    frequency:    7.6724835425
  - # 10
    frequency:    8.5821802666
  - # 11
    frequency:   12.6037658852
  - # 12
    frequency:   13.2196778674
  - # 13
    frequency:   13.4000765890
  - # 14
    frequency:   14.9111595877
  - # 15
    frequency:   17.6555829611
  - # 16
    frequency:   17.7793768368
  - # 17
    frequency:   17.8921010752
  - # 18
    frequency:  112.6827541837

- q-position: [    0.0808081,    0.0000000,    0.0000000 ]
  distance:    0.0291230
  band:
  - # 1
    frequency:    0.6158858474
  - # 2
    frequency:    1.3803909664
  - # 3
    frequency:    2.0954272047
  - # 4
    frequency:    5.1480059668
  - # 5
    frequency:    5.3123385887
  - # 6
    frequency:    6.0718051782
  - # 7
    frequency:    6.2646369361
  - # 8
    frequency:    7.6512905647
  - # 9
    frequency:    7.6805922736
  - # 10
    frequency:    8.5934948674
  - # 11
    frequency:   12.5746212051
  - # 12
    frequency:   13.1980881003
  - # 13
    frequency:   13.4177244657
  - # 14
    frequency:   14.9974950005
  - # 15
    frequency:   17.6766192088
  - # 16
    frequency:   17.7971374716
  - # 17
    frequency:   17.9083485557
  - # 18
    frequency:  112.6824075717

- q-position: [    0.0858586,    0.0000000,    0.0000000 ]
  distance:    0.0309432
  band:
  - # 1
    frequency:    0.6748091774
  - # 2
    frequency:    1.4652371373
  - # 3
    frequency:    2.2227203148
  - # 4
    frequency:    5.1540340130
  - # 5
    frequency:    5.3393894691
  - # 6
    frequency:    6.0870436859
  - # 7
    frequency:    6.3028315372
  - # 8
    frequency:    7.6579705908
  - # 9
    frequency:    7.6888089719
  - # 10
    frequency:    8.6056112014
  - # 11
    frequency:   12.5467188029
  - # 12
    frequency:   13.1746913811
  - # 13
    frequency:   13.4359854863
  - # 14
    frequency:   15.0851256404
  - # 15
    frequency:   17.6977749691
  - # 16
    frequency:   17.8060607457
  - # 17
    frequency:   17.9334744227
  - # 18
    frequency:  112.6813249124

- q-position: [    0.0909091,    0.0000000,    0.0000000 ]
  distance:    0.0327634
  band:
  - # 1
    frequency:    0.7360170764
  - # 2
    frequency:    1.5497523985
  - # 3
    frequency:    2.3493107359
  - # 4
    frequency:    5.1599732158
  - # 5
    frequency:    5.3674833965
  - # 6
    frequency:    6.1022991019
  - # 7
    frequency:    6.3419806944
  - # 8
    frequency:    7.6648951860
  - # 9
    frequency:    7.6971226305
  - # 10
    frequency:    8.6184943469
  - # 11
    frequency:   12.5199932164
  - # 12
    frequency:   13.1495952061
  - # 13
    frequency:   13.4547809864
  - # 14
    frequency:   15.1737699284
  - # 15
    frequency:   17.7188660344
  - # 16
    frequency:   17.8083941778
  - # 17
    frequency:   17.9649069003
  - # 18
    frequency:  112.6794063682

- q-position: [    0.0959596,    0.0000000,    0.0000000 ]
  distance:    0.0345836
  band:
  - # 1
    frequency:    0.7994470951
  - # 2
    frequency:    1.6339012456
  - # 3
    frequency:    2.4751268066
  - # 4
    frequency:    5.1657825095
  - # 5
    frequency:    5.3965319950
  - # 6
    frequency:    6.1174599844
  - # 7
    frequency:    6.3818966937
  - # 8
    frequency:    7.6720216432
  - # 9
    frequency:    7.7055329749
  - # 10
    frequency:    8.6320996474
  - # 11
    frequency:   12.4943621609
  - # 12
    frequency:   13.1228988143
  - # 13
    frequency:   13.4740324654
  - # 14
    frequency:   15.2631707934
  - # 15
    frequency:   17.7397101269
  - # 16
    frequency:   17.8067457059
  - # 17
    frequency:   17.9997152696
  - # 18
    frequency:  112.6765553263

- q-position: [    0.1010101,    0.0000000,    0.0000000 ]
  distance:    0.0364038
  band:
  - # 1
    frequency:    0.8650252811
  - # 2
    frequency:    1.7176469397
  - # 3
    frequency:    2.6000927517
  - # 4
    frequency:    5.1714249955
  - # 5
    frequency:    5.4264465968
  - # 6
    frequency:    6.1324203887
  - # 7
    frequency:    6.4223935914
  - # 8
    frequency:    7.6793027596
  - # 9
    frequency:    7.7140497382
  - # 10
    frequency:    8.6463734830
  - # 11
    frequency:   12.4697293822
  - # 12
    frequency:   13.0946955086
  - # 13
    frequency:   13.4936621076
  - # 14
    frequency:   15.3530921248
  - # 15
    frequency:   17.7601286585
  - # 16
    frequency:   17.8026941318
  - # 17
    frequency:   18.0360021237
  - # 18
    frequency:  112.6726796424

- q-position: [    0.1060606,    0.0000000,    0.0000000 ]
  distance:    0.0382240
  band:
  - # 1
    frequency:    0.9326685157
  - # 2
    frequency:    1.8009516936
  - # 3
    frequency:    2.7241283881
  - # 4
    frequency:    5.1768679542
  - # 5
    frequency:    5.4571388541
  - # 6
    frequency:    6.1470808953
  - # 7
    frequency:    6.4632886167
  - # 8
    frequency:    7.6866871688
  - # 9
    frequency:    7.7226915557
  - # 10
    frequency:    8.6612542963
  - # 11
    frequency:   12.4459871139
  - # 12
    frequency:   13.0650745632
  - # 13
    frequency:   13.5135932726
  - # 14
    frequency:   15.4433159600
  - # 15
    frequency:   17.7799484524
  - # 16
    frequency:   17.7970509469
  - # 17
    frequency:   18.0726441786
  - # 18
    frequency:  112.6676928539

- q-position: [    0.1111111,    0.0000000,    0.0000000 ]
  distance:    0.0400442
  band:
  - # 1
    frequency:    1.0022864895
  - # 2
    frequency:    1.8837768606
  - # 3
    frequency:    2.8471488769
  - # 4
    frequency:    5.1820827758
  - # 5
    frequency:    5.4885213047
  - # 6
    frequency:    6.1613494556
  - # 7
    frequency:    6.5044035673
  - # 8
    frequency:    7.6941198015
  - # 9
    frequency:    7.7314845435
  - # 10
    frequency:    8.6766737955
  - # 11
    frequency:   12.4230182284
  - # 12
    frequency:   13.0341227691
  - # 13
    frequency:   13.5337509532
  - # 14
    frequency:   15.5336402520
  - # 15
    frequency:   17.7902332065
  - # 16
    frequency:   17.7990034077
  - # 17
    frequency:   18.1089219582
  - # 18
    frequency:  112.6615153536

- q-position: [    0.1161616,    0.0000000,    0.0000000 ]
  distance:    0.0418644
  band:
  - # 1
    frequency:    1.0737833835
  - # 2
    frequency:    1.9660831236
  - # 3
    frequency:    2.9690645166
  - # 4
    frequency:    5.1870448250
  - # 5
    frequency:    5.5205078777
  - # 6
    frequency:    6.1751420497
  - # 7
    frequency:    6.5455662069
  - # 8
    frequency:    7.7015424649
  - # 9
    frequency:    7.7404606347
  - # 10
    frequency:    8.6925582587
  - # 11
    frequency:   12.4006981465
  - # 12
    frequency:   13.0019256764
  - # 13
    frequency:   13.5540621999
  - # 14
    frequency:   15.6238770844
  - # 15
    frequency:   17.7824646720
  - # 16
    frequency:   17.8171360946
  - # 17
    frequency:   18.1443211237
  - # 18
    frequency:  112.6540755092

- q-position: [    0.1212121,    0.0000000,    0.0000000 ]
  distance:    0.0436846
  band:
  - # 1
    frequency:    1.1470593064
  - # 2
    frequency:    2.0478306821
  - # 3
    frequency:    3.0897805832
  - # 4
    frequency:    5.1917332508
  - # 5
    frequency:    5.5530143298
  - # 6
    frequency:    6.1883831631
  - # 7
    frequency:    6.5866116699
  - # 8
    frequency:    7.7088945264
  - # 9
    frequency:    7.7496557417
  - # 10
    frequency:    8.7088298638
  - # 11
    frequency:   12.3788965537
  - # 12
    frequency:   12.9685685862
  - # 13
    frequency:   13.5744565134
  - # 14
    frequency:   15.7138512240
  - # 15
    frequency:   17.7738710653
  - # 16
    frequency:   17.8341992642
  - # 17
    frequency:   18.1784395925
  - # 18
    frequency:  112.6453107198

- q-position: [    0.1262626,    0.0000000,    0.0000000 ]
  distance:    0.0455048
  band:
  - # 1
    frequency:    1.2220115242
  - # 2
    frequency:    2.1289794346
  - # 3
    frequency:    3.2091972186
  - # 4
    frequency:    5.1961307560
  - # 5
    frequency:    5.5859585987
  - # 6
    frequency:    6.2010060887
  - # 7
    frequency:    6.6273838790
  - # 8
    frequency:    7.7161136821
  - # 9
    frequency:    7.7591078156
  - # 10
    frequency:    8.7254079803
  - # 11
    frequency:   12.3574789570
  - # 12
    frequency:   12.9341373368
  - # 13
    frequency:   13.5948662042
  - # 14
    frequency:   15.8033989191
  - # 15
    frequency:   17.7645258283
  - # 16
    frequency:   17.8500572595
  - # 17
    frequency:   18.2109440488
  - # 18
    frequency:  112.6351683965

- q-position: [    0.1313131,    0.0000000,    0.0000000 ]
  distance:    0.0473249
  band:
  - # 1
    frequency:    1.2985355129
  - # 2
    frequency:    2.2094891548
  - # 3
    frequency:    3.3272093781
  - # 4
    frequency:    5.2002233370
  - # 5
    frequency:    5.6192610626
  - # 6
    frequency:    6.2129530754
  - # 7
    frequency:    6.6677369752
  - # 8
    frequency:    7.7231367880
  - # 9
    frequency:    7.7688548634
  - # 10
    frequency:    8.7422103688
  - # 11
    frequency:   12.3363081109
  - # 12
    frequency:   12.8987189206
  - # 13
    frequency:   13.6152267216
  - # 14
    frequency:   15.8923668714
  - # 15
    frequency:   17.7544732510
  - # 16
    frequency:   17.8645873186
  - # 17
    frequency:   18.2415489776
  - # 18
    frequency:  112.6236068581

- q-position: [    0.1363636,    0.0000000,    0.0000000 ]
  distance:    0.0491451
  band:
  - # 1
    frequency:    1.3765258581
  - # 2
    frequency:    2.2893196607
  - # 3
    frequency:    3.4437068480
  - # 4
    frequency:    5.2040000038
  - # 5
    frequency:    5.6528446931
  - # 6
    frequency:    6.2241753397
  - # 7
    frequency:    6.7075367509
  - # 8
    frequency:    7.7299007291
  - # 9
    frequency:    7.7789329831
  - # 10
    frequency:    8.7591542506
  - # 11
    frequency:   12.3152453356
  - # 12
    frequency:   12.8624019553
  - # 13
    frequency:   13.6354769523
  - # 14
    frequency:   15.9806113190
  - # 15
    frequency:   17.7437408647
  - # 16
    frequency:   17.8776807553
  - # 17
    frequency:   18.2700063288
  - # 18
    frequency:  112.6105961329

- q-position: [    0.1414141,    0.0000000,    0.0000000 ]
  distance:    0.0509653
  band:
  - # 1
    frequency:    1.4558770202
  - # 2
    frequency:    2.3684309744
  - # 3
    frequency:    3.5585743460
  - # 4
    frequency:    5.2074524901
  - # 5
    frequency:    5.6866350861
  - # 6
    frequency:    6.2346329663
  - # 7
    frequency:    6.7466620707
  - # 8
    frequency:    7.7363432998
  - # 9
    frequency:    7.7893744686
  - # 10
    frequency:    8.7761572234
  - # 11
    frequency:   12.2941517508
  - # 12
    frequency:   12.8252770253
  - # 13
    frequency:   13.6555594895
  - # 14
    frequency:   16.0679971792
  - # 15
    frequency:   17.7323464847
  - # 16
    frequency:   17.8892440121
  - # 17
    frequency:   18.2961004267
  - # 18
    frequency:  112.5961186565

- q-position: [    0.1464646,    0.0000000,    0.0000000 ]
  distance:    0.0527855
  band:
  - # 1
    frequency:    1.5364839819
  - # 2
    frequency:    2.4467834720
  - # 3
    frequency:    3.6716917229
  - # 4
    frequency:    5.2105749629
  - # 5
    frequency:    5.7205603578
  - # 6
    frequency:    6.2442947197
  - # 7
    frequency:    6.7850062500
  - # 8
    frequency:    7.7424040725
  - # 9
    frequency:    7.8002060390
  - # 10
    frequency:    8.7931380132
  - # 11
    frequency:   12.2728894477
  - # 12
    frequency:   12.7874368964
  - # 13
    frequency:   13.6754208738
  - # 14
    frequency:   16.1543972031
  - # 15
    frequency:   17.7203024607
  - # 16
    frequency:   17.8991995738
  - # 17
    frequency:   18.3196455822
  - # 18
    frequency:  112.5801698592

- q-position: [    0.1515152,    0.0000000,    0.0000000 ]
  distance:    0.0546057
  band:
  - # 1
    frequency:    1.6182427944
  - # 2
    frequency:    2.5243380214
  - # 3
    frequency:    3.7829342853
  - # 4
    frequency:    5.2133637390
  - # 5
    frequency:    5.7545508869
  - # 6
    frequency:    6.2531377907
  - # 7
    frequency:    6.8224783520
  - # 8
    frequency:    7.7480252272
  - # 9
    frequency:    7.8114472456
  - # 10
    frequency:    8.8100170609
  - # 11
    frequency:   12.2513226282
  - # 12
    frequency:   12.7489765966
  - # 13
    frequency:   13.6950118077
  - # 14
    frequency:   16.2396910961
  - # 15
    frequency:   17.7076184130
  - # 16
    frequency:   17.9074867367
  - # 17
    frequency:   18.3404851430
  - # 18
    frequency:  112.5627586354

- q-position: [    0.1565657,    0.0000000,    0.0000000 ]
  distance:    0.0564259
  band:
  - # 1
    frequency:    1.7010510310
  - # 2
    frequency:    2.6010561067
  - # 3
    frequency:    3.8921732604
  - # 4
    frequency:    5.2158170152
  - # 5
    frequency:    5.7885388873
  - # 6
    frequency:    6.2611474976
  - # 7
    frequency:    6.8590043544
  - # 8
    frequency:    7.7531523245
  - # 9
    frequency:    7.8231091120
  - # 10
    frequency:    8.8267169561
  - # 11
    frequency:   12.2293187472
  - # 12
    frequency:   12.7099933455
  - # 13
    frequency:   13.7142873423
  - # 14
    frequency:   16.3237645521
  - # 15
    frequency:   17.6943031373
  - # 16
    frequency:   17.9140622274
  - # 17
    frequency:   18.3584913291
  - # 18
    frequency:  112.5439076909

- q-position: [    0.1616162,    0.0000000,    0.0000000 ]
  distance:    0.0582461
  band:
  - # 1
    frequency:    1.7848081624
  - # 2
    frequency:    2.6768999385
  - # 3
    frequency:    3.9992764291
  - # 4
    frequency:    5.2179346208
  - # 5
    frequency:    5.8224577939
  - # 6
    frequency:    6.2683169616
  - # 7
    frequency:    6.8945281236
  - # 8
    frequency:    7.7577350018
  - # 9
    frequency:    7.8351930620
  - # 10
    frequency:    8.8431627321
  - # 11
    frequency:   12.2067496974
  - # 12
    frequency:   12.6705862995
  - # 13
    frequency:   13.7332070391
  - # 14
    frequency:   16.4065081388
  - # 15
    frequency:   17.6803660730
  - # 16
    frequency:   17.9189006652
  - # 17
    frequency:   18.3735655017
  - # 18
    frequency:  112.5236537599

- q-position: [    0.1666667,    0.0000000,    0.0000000 ]
  distance:    0.0600663
  band:
  - # 1
    frequency:    1.8694158607
  - # 2
    frequency:    2.7518325455
  - # 3
    frequency:    4.1041089500
  - # 4
    frequency:    5.2197177970
  - # 5
    frequency:    5.8562414466
  - # 6
    frequency:    6.2746467697
  - # 7
    frequency:    6.9290121387
  - # 8
    frequency:    7.7617275784
  - # 9
    frequency:    7.8476901886
  - # 10
    frequency:    8.8592820427
  - # 11
    frequency:   12.1834930884
  - # 12
    frequency:   12.6308560743
  - # 13
    frequency:   13.7517351063
  - # 14
    frequency:   16.4878159506
  - # 15
    frequency:   17.6658185935
  - # 16
    frequency:   17.9219948657
  - # 17
    frequency:   18.3856386781
  - # 18
    frequency:  112.5020476929

- q-position: [    0.1717172,    0.0000000,    0.0000000 ]
  distance:    0.0618865
  band:
  - # 1
    frequency:    1.9547782417
  - # 2
    frequency:    2.8258178469
  - # 3
    frequency:    4.2065344009
  - # 4
    frequency:    5.2211690093
  - # 5
    frequency:    5.8898230635
  - # 6
    frequency:    6.2801446372
  - # 7
    frequency:    6.9624379022
  - # 8
    frequency:    7.7650895609
  - # 9
    frequency:    7.8605809088
  - # 10
    frequency:    8.8750052463
  - # 11
    frequency:   12.1594336722
  - # 12
    frequency:   12.5909039967
  - # 13
    frequency:   13.7698405106
  - # 14
    frequency:   16.5675839041
  - # 15
    frequency:   17.6506753279
  - # 16
    frequency:   17.9233559810
  - # 17
    frequency:   18.3946721919
  - # 18
    frequency:  112.4791544082

- q-position: [    0.1767677,    0.0000000,    0.0000000 ]
  distance:    0.0637067
  band:
  - # 1
    frequency:    2.0408020513
  - # 2
    frequency:    2.8988207023
  - # 3
    frequency:    4.3064160558
  - # 4
    frequency:    5.2222917991
  - # 5
    frequency:    5.9231340003
  - # 6
    frequency:    6.2848250765
  - # 7
    frequency:    6.9948059881
  - # 8
    frequency:    7.7677860412
  - # 9
    frequency:    7.8738350326
  - # 10
    frequency:    8.8902654183
  - # 11
    frequency:   12.1344649640
  - # 12
    frequency:   12.5508310405
  - # 13
    frequency:   13.7874970629
  - # 14