nqpoint: 300    
npath: 3      
segment_nqpoint:
- 100
- 100
- 100
labels:
- [ 'G', 'M' ]
- [ 'M', 'K' ]
- [ 'K', 'G' ]
reciprocal_lattice:
- [   0.30827480,   0.17798254,   0.00000000 ] # a*
- [   0.00000000,   0.35596508,   0.00000000 ] # b*
- [   0.00000000,   0.00000000,   0.03742490 ] # c*
natom: 8      
lattice:
- [     3.243859008561325,     0.000000000000000,     0.000000000000000 ] # a
- [    -1.621929504280662,     2.809264307717438,     0.000000000000000 ] # b
- [     0.000000000000000,     0.000000000000000,    26.720175766998015 ] # c
points:
- symbol: C # 1
  coordinates: [  0.333332985432215,  0.666666983183674,  0.618613485231383 ]
  mass: 12.010700
- symbol: H # 2
  coordinates: [  0.666666984744047,  0.333332985985145,  0.336824131640476 ]
  mass: 1.007940
- symbol: N # 3
  coordinates: [  0.000000000000000,  0.000000000000000,  0.456305800410600 ]
  mass: 14.006700
- symbol: N # 4
  coordinates: [  0.333332985432215,  0.666666983183674,  0.663175868359524 ]
  mass: 14.006700
- symbol: O # 5
  coordinates: [  0.666666984744047,  0.333332985985145,  0.373713033748258 ]
  mass: 15.999400
- symbol: S # 6
  coordinates: [  0.333332985432215,  0.666666983183674,  0.555892436819423 ]
  mass: 32.065000
- symbol: Ti # 7
  coordinates: [  0.333332985432215,  0.666666983183674,  0.419456208472140 ]
  mass: 47.867000
- symbol: Ti # 8
  coordinates: [  0.666666984744047,  0.333332985985145,  0.497423833839452 ]
  mass: 47.867000

phonon:
- q-position: [    0.0000000,    0.0000000,    0.0000000 ]
  distance:    0.0000000
  band:
  - # 1
    frequency:   -0.0000188348
  - # 2
    frequency:    0.0000005339
  - # 3
    frequency:    0.0000210844
  - # 4
    frequency:    1.0552960015
  - # 5
    frequency:    1.0552960017
  - # 6
    frequency:    4.5427784691
  - # 7
    frequency:    4.5427784691
  - # 8
    frequency:    6.0136834698
  - # 9
    frequency:    7.9718306435
  - # 10
    frequency:    7.9718306435
  - # 11
    frequency:    8.1901152125
  - # 12
    frequency:    8.1901152125
  - # 13
    frequency:    9.4395997788
  - # 14
    frequency:   11.0713447197
  - # 15
    frequency:   11.0713447197
  - # 16
    frequency:   13.6664444659
  - # 17
    frequency:   13.6935725230
  - # 18
    frequency:   13.6935725230
  - # 19
    frequency:   14.3824321540
  - # 20
    frequency:   16.4860227872
  - # 21
    frequency:   16.4860227872
  - # 22
    frequency:   20.3386740565
  - # 23
    frequency:   64.7888303770
  - # 24
    frequency:  113.0349719534

- q-position: [    0.0050505,    0.0000000,    0.0000000 ]
  distance:    0.0017978
  band:
  - # 1
    frequency:    0.0025973880
  - # 2
    frequency:    0.0860981862
  - # 3
    frequency:    0.1165226601
  - # 4
    frequency:    1.0565806879
  - # 5
    frequency:    1.0592721270
  - # 6
    frequency:    4.5432986881
  - # 7
    frequency:    4.5442980464
  - # 8
    frequency:    6.0133756816
  - # 9
    frequency:    7.9714333569
  - # 10
    frequency:    7.9721045931
  - # 11
    frequency:    8.1902947534
  - # 12
    frequency:    8.1904472640
  - # 13
    frequency:    9.4398546956
  - # 14
    frequency:   11.0711940229
  - # 15
    frequency:   11.0714972979
  - # 16
    frequency:   13.6272091374
  - # 17
    frequency:   13.6936928682
  - # 18
    frequency:   13.7331422361
  - # 19
    frequency:   14.3826392319
  - # 20
    frequency:   16.4859392670
  - # 21
    frequency:   16.4863966306
  - # 22
    frequency:   20.3385644765
  - # 23
    frequency:   64.7887246485
  - # 24
    frequency:  113.0349126060

- q-position: [    0.0101010,    0.0000000,    0.0000000 ]
  distance:    0.0035956
  band:
  - # 1
    frequency:    0.0103460727
  - # 2
    frequency:    0.1719624545
  - # 3
    frequency:    0.2328758799
  - # 4
    frequency:    1.0604467654
  - # 5
    frequency:    1.0711198063
  - # 6
    frequency:    4.5448565206
  - # 7
    frequency:    4.5488436092
  - # 8
    frequency:    6.0124607862
  - # 9
    frequency:    7.9702448743
  - # 10
    frequency:    7.9729185002
  - # 11
    frequency:    8.1908304993
  - # 12
    frequency:    8.1914480319
  - # 13
    frequency:    9.4406151679
  - # 14
    frequency:   11.0707426463
  - # 15
    frequency:   11.0719556743
  - # 16
    frequency:   13.5773950975
  - # 17
    frequency:   13.6940552215
  - # 18
    frequency:   13.7839548748
  - # 19
    frequency:   14.3832628795
  - # 20
    frequency:   16.4856905394
  - # 21
    frequency:   16.4875165450
  - # 22
    frequency:   20.3382359401
  - # 23
    frequency:   64.7884076490
  - # 24
    frequency:  113.0347349146

- q-position: [    0.0151515,    0.0000000,    0.0000000 ]
  distance:    0.0053934
  band:
  - # 1
    frequency:    0.0231212619
  - # 2
    frequency:    0.2573475897
  - # 3
    frequency:    0.3488798093
  - # 4
    frequency:    1.0669324140
  - # 5
    frequency:    1.0906111414
  - # 6
    frequency:    4.5474435094
  - # 7
    frequency:    4.5563759043
  - # 8
    frequency:    6.0109641117
  - # 9
    frequency:    7.9682751450
  - # 10
    frequency:    7.9742489770
  - # 11
    frequency:    8.1917140127
  - # 12
    frequency:    8.1931309713
  - # 13
    frequency:    9.4418684493
  - # 14
    frequency:   11.0699927324
  - # 15
    frequency:   11.0727217594
  - # 16
    frequency:   13.5273635845
  - # 17
    frequency:   13.6946635133
  - # 18
    frequency:   13.8356346468
  - # 19
    frequency:   14.3843112493
  - # 20
    frequency:   16.4852820790
  - # 21
    frequency:   16.4893776948
  - # 22
    frequency:   20.3376890575
  - # 23
    frequency:   64.7878799366
  - # 24
    frequency:  113.0344399311

- q-position: [    0.0202020,    0.0000000,    0.0000000 ]
  distance:    0.0071912
  band:
  - # 1
    frequency:    0.0407362383
  - # 2
    frequency:    0.3419843778
  - # 3
    frequency:    0.4643320676
  - # 4
    frequency:    1.0761085700
  - # 5
    frequency:    1.1174102638
  - # 6
    frequency:    4.5510456167
  - # 7
    frequency:    4.5668303401
  - # 8
    frequency:    6.0089276134
  - # 9
    frequency:    7.9655401742
  - # 10
    frequency:    7.9760584896
  - # 11
    frequency:    8.1929318400
  - # 12
    frequency:    8.1955172321
  - # 13
    frequency:    9.4435935841
  - # 14
    frequency:   11.0689478554
  - # 15
    frequency:   11.0737986866
  - # 16
    frequency:   13.4775504189
  - # 17
    frequency:   13.6955242163
  - # 18
    frequency:   13.8877182499
  - # 19
    frequency:   14.3858012274
  - # 20
    frequency:   16.4847229303
  - # 21
    frequency:   16.4919720608
  - # 22
    frequency:   20.3369248442
  - # 23
    frequency:   64.7871424394
  - # 24
    frequency:  113.0340294037

- q-position: [    0.0252525,    0.0000000,    0.0000000 ]
  distance:    0.0089890
  band:
  - # 1
    frequency:    0.0629659254
  - # 2
    frequency:    0.4255639967
  - # 3
    frequency:    0.5789919412
  - # 4
    frequency:    1.0880906337
  - # 5
    frequency:    1.1511295621
  - # 6
    frequency:    4.5556433091
  - # 7
    frequency:    4.5801181745
  - # 8
    frequency:    6.0064095032
  - # 9
    frequency:    7.9620612583
  - # 10
    frequency:    7.9782974808
  - # 11
    frequency:    8.1944663239
  - # 12
    frequency:    8.1986337823
  - # 13
    frequency:    9.4457618293
  - # 14
    frequency:   11.0676130246
  - # 15
    frequency:   11.0751907366
  - # 16
    frequency:   13.4280512263
  - # 17
    frequency:   13.6966462308
  - # 18
    frequency:   13.9400637535
  - # 19
    frequency:   14.3877644371
  - # 20
    frequency:   16.4840255912
  - # 21
    frequency:   16.4952885006
  - # 22
    frequency:   20.3359447181
  - # 23
    frequency:   64.7861964535
  - # 24
    frequency:  113.0335057699

- q-position: [    0.0303030,    0.0000000,    0.0000000 ]
  distance:    0.0107868
  band:
  - # 1
    frequency:    0.0895689278
  - # 2
    frequency:    0.5077180149
  - # 3
    frequency:    0.6925584171
  - # 4
    frequency:    1.1030561637
  - # 5
    frequency:    1.1913945461
  - # 6
    frequency:    4.5612116768
  - # 7
    frequency:    4.5961280717
  - # 8
    frequency:    6.0034837647
  - # 9
    frequency:    7.9578640882
  - # 10
    frequency:    7.9809072324
  - # 11
    frequency:    8.1962965648
  - # 12
    frequency:    8.2025108767
  - # 13
    frequency:    9.4483372223
  - # 14
    frequency:   11.0659946894
  - # 15
    frequency:   11.0769032324
  - # 16
    frequency:   13.3789026593
  - # 17
    frequency:   13.6980407283
  - # 18
    frequency:   13.9925584510
  - # 19
    frequency:   14.3902583102
  - # 20
    frequency:   16.4832058563
  - # 21
    frequency:   16.4993128302
  - # 22
    frequency:   20.3347504957
  - # 23
    frequency:   64.7850436392
  - # 24
    frequency:  113.0328721474

- q-position: [    0.0353535,    0.0000000,    0.0000000 ]
  distance:    0.0125846
  band:
  - # 1
    frequency:    0.1203036951
  - # 2
    frequency:    0.5879930833
  - # 3
    frequency:    0.8046393358
  - # 4
    frequency:    1.1212690208
  - # 5
    frequency:    1.2379120621
  - # 6
    frequency:    4.5677205842
  - # 7
    frequency:    4.6147279343
  - # 8
    frequency:    6.0002395795
  - # 9
    frequency:    7.9529778395
  - # 10
    frequency:    7.9838233119
  - # 11
    frequency:    8.1983994108
  - # 12
    frequency:    8.2071790068
  - # 13
    frequency:    9.4512772736
  - # 14
    frequency:   11.0641007422
  - # 15
    frequency:   11.0789424045
  - # 16
    frequency:   13.3301244402
  - # 17
    frequency:   13.6997209552
  - # 18
    frequency:   14.0450564826
  - # 19
    frequency:   14.3933866008
  - # 20
    frequency:   16.4822826274
  - # 21
    frequency:   16.5040279265
  - # 22
    frequency:   20.3333443879
  - # 23
    frequency:   64.7836860165
  - # 24
    frequency:  113.0321323209

- q-position: [    0.0404040,    0.0000000,    0.0000000 ]
  distance:    0.0143824
  band:
  - # 1
    frequency:    0.1549377932
  - # 2
    frequency:    0.6658218211
  - # 3
    frequency:    0.9147105019
  - # 4
    frequency:    1.1431081223
  - # 5
    frequency:    1.2905391594
  - # 6
    frequency:    4.5751348529
  - # 7
    frequency:    4.6357669107
  - # 8
    frequency:    5.9967806961
  - # 9
    frequency:    7.9474343484
  - # 10
    frequency:    7.9869793750
  - # 11
    frequency:    8.2007503744
  - # 12
    frequency:    8.2126655503
  - # 13
    frequency:    9.4545337626
  - # 14
    frequency:   11.0619405191
  - # 15
    frequency:   11.0813152291
  - # 16
    frequency:   13.2817301756
  - # 17
    frequency:   13.7017020022
  - # 18
    frequency:   14.0973288083
  - # 19
    frequency:   14.3973388048
  - # 20
    frequency:   16.4812776976
  - # 21
    frequency:   16.5094138496
  - # 22
    frequency:   20.3317289937
  - # 23
    frequency:   64.7821259599
  - # 24
    frequency:  113.0312907273

- q-position: [    0.0454545,    0.0000000,    0.0000000 ]
  distance:    0.0161802
  band:
  - # 1
    frequency:    0.1932514906
  - # 2
    frequency:    0.7404982968
  - # 3
    frequency:    1.0220715612
  - # 4
    frequency:    1.1690921464
  - # 5
    frequency:    1.3493453748
  - # 6
    frequency:    4.5834144745
  - # 7
    frequency:    4.6590774805
  - # 8
    frequency:    5.9932247670
  - # 9
    frequency:    7.9412674402
  - # 10
    frequency:    7.9903110067
  - # 11
    frequency:    8.2033244084
  - # 12
    frequency:    8.2189914163
  - # 13
    frequency:    9.4580536074
  - # 14
    frequency:   11.0595247962
  - # 15
    frequency:   11.0840292395
  - # 16
    frequency:   13.2337310927
  - # 17
    frequency:   13.7040005445
  - # 18
    frequency:   14.1489803594
  - # 19
    frequency:   14.4024694956
  - # 20
    frequency:   16.4802155226
  - # 21
    frequency:   16.5154479800
  - # 22
    frequency:   20.3299072941
  - # 23
    frequency:   64.7803661919
  - # 24
    frequency:  113.0303524379

- q-position: [    0.0505051,    0.0000000,    0.0000000 ]
  distance:    0.0179780
  band:
  - # 1
    frequency:    0.2350376930
  - # 2
    frequency:    0.8111813717
  - # 3
    frequency:    1.1258293236
  - # 4
    frequency:    1.1998767275
  - # 5
    frequency:    1.4146392693
  - # 6
    frequency:    4.5925148526
  - # 7
    frequency:    4.6844775338
  - # 8
    frequency:    5.9897026723
  - # 9
    frequency:    7.9345124367
  - # 10
    frequency:    7.9937592399
  - # 11
    frequency:    8.2060965080
  - # 12
    frequency:    8.2261680356
  - # 13
    frequency:    9.4617797853
  - # 14
    frequency:   11.0568657803
  - # 15
    frequency:   11.0870923131
  - # 16
    frequency:   13.1861376102
  - # 17
    frequency:   13.7066345568
  - # 18
    frequency:   14.1992835353
  - # 19
    frequency:   14.4094634907
  - # 20
    frequency:   16.4791229882
  - # 21
    frequency:   16.5221051714
  - # 22
    frequency:   20.3278826441
  - # 23
    frequency:   64.7784097755
  - # 24
    frequency:  113.0293231378

- q-position: [    0.0555556,    0.0000000,    0.0000000 ]
  distance:    0.0197758
  band:
  - # 1
    frequency:    0.2801001035
  - # 2
    frequency:    0.8769697873
  - # 3
    frequency:    1.2249840632
  - # 4
    frequency:    1.2361801100
  - # 5
    frequency:    1.4868858536
  - # 6
    frequency:    4.6023870728
  - # 7
    frequency:    4.7117723807
  - # 8
    frequency:    5.9863578385
  - # 9
    frequency:    7.9272058441
  - # 10
    frequency:    7.9972733920
  - # 11
    frequency:    8.2090421377
  - # 12
    frequency:    8.2341950388
  - # 13
    frequency:    9.4656522755
  - # 14
    frequency:   11.0539770904
  - # 15
    frequency:   11.0905124378
  - # 16
    frequency:   13.1389600981
  - # 17
    frequency:   13.7096230099
  - # 18
    frequency:   14.2468449832
  - # 19
    frequency:   14.4196685418
  - # 20
    frequency:   16.4780291904
  - # 21
    frequency:   16.5293579147
  - # 22
    frequency:   20.3256587647
  - # 23
    frequency:   64.7762601064
  - # 24
    frequency:  113.0282091033

- q-position: [    0.0606061,    0.0000000,    0.0000000 ]
  distance:    0.0215736
  band:
  - # 1
    frequency:    0.3282509123
  - # 2
    frequency:    0.9370931117
  - # 3
    frequency:    1.2785930405
  - # 4
    frequency:    1.3187111959
  - # 5
    frequency:    1.5664245496
  - # 6
    frequency:    4.6129781983
  - # 7
    frequency:    4.7407566594
  - # 8
    frequency:    5.9833455415
  - # 9
    frequency:    7.9193851970
  - # 10
    frequency:    8.0008129390
  - # 11
    frequency:    8.2121375007
  - # 12
    frequency:    8.2430588939
  - # 13
    frequency:    9.4696090010
  - # 14
    frequency:   11.0508737302
  - # 15
    frequency:   11.0942974600
  - # 16
    frequency:   13.0922092873
  - # 17
    frequency:   13.7129855546
  - # 18
    frequency:   14.2891118672
  - # 19
    frequency:   14.4355888692
  - # 20
    frequency:   16.4769652426
  - # 21
    frequency:   16.5371765112
  - # 22
    frequency:   20.3232397330
  - # 23
    frequency:   64.7739209035
  - # 24
    frequency:  113.0270171760

- q-position: [    0.0656566,    0.0000000,    0.0000000 ]
  distance:    0.0233714
  band:
  - # 1
    frequency:    0.3793087384
  - # 2
    frequency:    0.9911887192
  - # 3
    frequency:    1.3273026447
  - # 4
    frequency:    1.4067776842
  - # 5
    frequency:    1.6530499635
  - # 6
    frequency:    4.6242315922
  - # 7
    frequency:    4.7712161423
  - # 8
    frequency:    5.9808321619
  - # 9
    frequency:    7.9110890265
  - # 10
    frequency:    8.0043482834
  - # 11
    frequency:    8.2153596794
  - # 12
    frequency:    8.2527326345
  - # 13
    frequency:    9.4735867488
  - # 14
    frequency:   11.0475720490
  - # 15
    frequency:   11.0984548200
  - # 16
    frequency:   13.0458965084
  - # 17
    frequency:   13.7167421987
  - # 18
    frequency:   14.3225711892
  - # 19
    frequency:   14.4606857825
  - # 20
    frequency:   16.4759641290
  - # 21
    frequency:   16.5455292526
  - # 22
    frequency:   20.3206299727
  - # 23
    frequency:   64.7713961992
  - # 24
    frequency:  113.0257547357

- q-position: [    0.0707071,    0.0000000,    0.0000000 ]
  distance:    0.0251692
  band:
  - # 1
    frequency:    0.4330971098
  - # 2
    frequency:    1.0394992897
  - # 3
    frequency:    1.3818957514
  - # 4
    frequency:    1.4897469448
  - # 5
    frequency:    1.7458028515
  - # 6
    frequency:    4.6360872619
  - # 7
    frequency:    4.8029294846
  - # 8
    frequency:    5.9789943332
  - # 9
    frequency:    7.9023569141
  - # 10
    frequency:    8.0078604433
  - # 11
    frequency:    8.2186866814
  - # 12
    frequency:    8.2631766478
  - # 13
    frequency:    9.4775220478
  - # 14
    frequency:   11.0440896889
  - # 15
    frequency:   11.1029912786
  - # 16
    frequency:   13.0000338381
  - # 17
    frequency:   13.7209129821
  - # 18
    frequency:   14.3454328307
  - # 19
    frequency:   14.4966946224
  - # 20
    frequency:   16.4750606214
  - # 21
    frequency:   16.5543826054
  - # 22
    frequency:   20.3178342428
  - # 23
    frequency:   64.7686903288
  - # 24
    frequency:  113.0244296696

- q-position: [    0.0757576,    0.0000000,    0.0000000 ]
  distance:    0.0269671
  band:
  - # 1
    frequency:    0.4894435137
  - # 2
    frequency:    1.0828135888
  - # 3
    frequency:    1.4414188702
  - # 4
    frequency:    1.5687189905
  - # 5
    frequency:    1.8432253099
  - # 6
    frequency:    4.6484822277
  - # 7
    frequency:    4.8356699968
  - # 8
    frequency:    5.9780178932
  - # 9
    frequency:    7.8932295977
  - # 10
    frequency:    8.0113398353
  - # 11
    frequency:    8.2220974186
  - # 12
    frequency:    8.2743403420
  - # 13
    frequency:    9.4813519909
  - # 14
    frequency:   11.0404455184
  - # 15
    frequency:   11.1079126422
  - # 16
    frequency:   12.9546341919
  - # 17
    frequency:   13.7255176574
  - # 18
    frequency:   14.3597527015
  - # 19
    frequency:   14.5415015796
  - # 20
    frequency:   16.4742912822
  - # 21
    frequency:   16.5637013977
  - # 22
    frequency:   20.3148576261
  - # 23
    frequency:   64.7658079186
  - # 24
    frequency:  113.0230503406

- q-position: [    0.0808081,    0.0000000,    0.0000000 ]
  distance:    0.0287649
  band:
  - # 1
    frequency:    0.5481789257
  - # 2
    frequency:    1.1221881276
  - # 3
    frequency:    1.5046572065
  - # 4
    frequency:    1.6448642680
  - # 5
    frequency:    1.9438221990
  - # 6
    frequency:    4.6613509129
  - # 7
    frequency:    4.8692075694
  - # 8
    frequency:    5.9780965136
  - # 9
    frequency:    7.8837490980
  - # 10
    frequency:    8.0147844288
  - # 11
    frequency:    8.2255716468
  - # 12
    frequency:    8.2861644131
  - # 13
    frequency:    9.4850149883
  - # 14
    frequency:   11.0366595505
  - # 15
    frequency:   11.1132234909
  - # 16
    frequency:   12.9097113815
  - # 17
    frequency:   13.7305753788
  - # 18
    frequency:   14.3688146299
  - # 19
    frequency:   14.5917617167
  - # 20
    frequency:   16.4736945743
  - # 21
    frequency:   16.5734490061
  - # 22
    frequency:   20.3117055169
  - # 23
    frequency:   64.7627538742
  - # 24
    frequency:  113.0216255526

- q-position: [    0.0858586,    0.0000000,    0.0000000 ]
  distance:    0.0305627
  band:
  - # 1
    frequency:    0.6091376883
  - # 2
    frequency:    1.1586599471
  - # 3
    frequency:    1.5704224627
  - # 4
    frequency:    1.7191279083
  - # 5
    frequency:    2.0463523520
  - # 6
    frequency:    4.6746255543
  - # 7
    frequency:    4.9033109147
  - # 8
    frequency:    5.9794298515
  - # 9
    frequency:    7.8739588417
  - # 10
    frequency:    8.0181975765
  - # 11
    frequency:    8.2290898854
  - # 12
    frequency:    8.2985834052
  - # 13
    frequency:    9.4884514433
  - # 14
    frequency:   11.0327528460
  - # 15
    frequency:   11.1189269179
  - # 16
    frequency:   12.8652801481
  - # 17
    frequency:   13.7361044055
  - # 18
    frequency:   14.3748529792
  - # 19
    frequency:   14.6451761750
  - # 20
    frequency:   16.4733111013
  - # 21
    frequency:   16.5835875414
  - # 22
    frequency:   20.3083836078
  - # 23
    frequency:   64.7595333673
  - # 24
    frequency:  113.0201645144

- q-position: [    0.0909091,    0.0000000,    0.0000000 ]
  distance:    0.0323605
  band:
  - # 1
    frequency:    0.6721576135
  - # 2
    frequency:    1.1930886977
  - # 3
    frequency:    1.6377112544
  - # 4
    frequency:    1.7921658693
  - # 5
    frequency:    2.1498882303
  - # 6
    frequency:    4.6882366339
  - # 7
    frequency:    4.9377503192
  - # 8
    frequency:    5.9822210425
  - # 9
    frequency:    7.8639037609
  - # 10
    frequency:    8.0215857964
  - # 11
    frequency:    8.2326333304
  - # 12
    frequency:    8.3115282853
  - # 13
    frequency:    9.4916043464
  - # 14
    frequency:   11.0287474006
  - # 15
    frequency:   11.1250242859
  - # 16
    frequency:   12.8213561755
  - # 17
    frequency:   13.7421218232
  - # 18
    frequency:   14.3790589116
  - # 19
    frequency:   14.7004856146
  - # 20
    frequency:   16.4731840028
  - # 21
    frequency:   16.5940780308
  - # 22
    frequency:   20.3048978765
  - # 23
    frequency:   64.7561518221
  - # 24
    frequency:  113.0186768014

- q-position: [    0.0959596,    0.0000000,    0.0000000 ]
  distance:    0.0341583
  band:
  - # 1
    frequency:    0.7370802098
  - # 2
    frequency:    1.2261213357
  - # 3
    frequency:    1.7057408282
  - # 4
    frequency:    1.8643949570
  - # 5
    frequency:    2.2537620959
  - # 6
    frequency:    4.7021133293
  - # 7
    frequency:    4.9723011083
  - # 8
    frequency:    5.9866733495
  - # 9
    frequency:    7.8536303562
  - # 10
    frequency:    8.0249567169
  - # 11
    frequency:    8.2361837724
  - # 12
    frequency:    8.3249288219
  - # 13
    frequency:    9.4944197830
  - # 14
    frequency:   11.0246660178
  - # 15
    frequency:   11.1315150073
  - # 16
    frequency:   12.7779560887
  - # 17
    frequency:   13.7486432863
  - # 18
    frequency:   14.3820460435
  - # 19
    frequency:   14.7570041171
  - # 20
    frequency:   16.4733595286
  - # 21
    frequency:   16.6048805971
  - # 22
    frequency:   20.3012545709
  - # 23
    frequency:   64.7526149014
  - # 24
    frequency:  113.0171723155

- q-position: [    0.1010101,    0.0000000,    0.0000000 ]
  distance:    0.0359561
  band:
  - # 1
    frequency:    0.8037509590
  - # 2
    frequency:    1.2582188307
  - # 3
    frequency:    1.7739226913
  - # 4
    frequency:    1.9360640081
  - # 5
    frequency:    2.3574914294
  - # 6
    frequency:    4.7161839838
  - # 7
    frequency:    5.0067479931
  - # 8
    frequency:    5.9929858110
  - # 9
    frequency:    7.8431867110
  - # 10
    frequency:    8.0283173161
  - # 11
    frequency:    8.2397235229
  - # 12
    frequency:    8.3387156338
  - # 13
    frequency:    9.4968473574
  - # 14
    frequency:   11.0205321679
  - # 15
    frequency:   11.1383963536
  - # 16
    frequency:   12.7350974361
  - # 17
    frequency:   13.7556827846
  - # 18
    frequency:   14.3841411356
  - # 19
    frequency:   14.8143278782
  - # 20
    frequency:   16.4738878180
  - # 21
    frequency:   16.6159546316
  - # 22
    frequency:   20.2974601950
  - # 23
    frequency:   64.7489284917
  - # 24
    frequency:  113.0156612439

- q-position: [    0.1060606,    0.0000000,    0.0000000 ]
  distance:    0.0377539
  band:
  - # 1
    frequency:    0.8720195930
  - # 2
    frequency:    1.2896994443
  - # 3
    frequency:    1.8418196046
  - # 4
    frequency:    2.0073119822
  - # 5
    frequency:    2.4607178336
  - # 6
    frequency:    4.7303765935
  - # 7
    frequency:    5.0408903888
  - # 8
    frequency:    6.0013478147
  - # 9
    frequency:    7.8326224521
  - # 10
    frequency:    8.0316725177
  - # 11
    frequency:    8.2432353548
  - # 12
    frequency:    8.3528218469
  - # 13
    frequency:    9.4988405345
  - # 14
    frequency:   11.0163698343
  - # 15
    frequency:   11.1456633007
  - # 16
    frequency:   12.6927986599
  - # 17
    frequency:   13.7632524363
  - # 18
    frequency:   14.3855271411
  - # 19
    frequency:   14.8721913404
  - # 20
    frequency:   16.4748239077
  - # 21
    frequency:   16.6272589625
  - # 22
    frequency:   20.2935214930
  - # 23
    frequency:   64.7450986879
  - # 24
    frequency:  113.0141540160

- q-position: [    0.1111111,    0.0000000,    0.0000000 ]
  distance:    0.0395517
  band:
  - # 1
    frequency:    0.9417403419
  - # 2
    frequency:    1.3207783913
  - # 3
    frequency:    1.9091061343
  - # 4
    frequency:    2.0782081861
  - # 5
    frequency:    2.5631641756
  - # 6
    frequency:    4.7446193132
  - # 7
    frequency:    5.0745486476
  - # 8
    frequency:    6.0119326611
  - # 9
    frequency:    7.8219886497
  - # 10
    frequency:    8.0350241520
  - # 11
    frequency:    8.2467024559
  - # 12
    frequency:    8.3671843466
  - # 13
    frequency:    9.5003569048
  - # 14
    frequency:   11.0122033493
  - # 15
    frequency:   11.1533084124
  - # 16
    frequency:   12.6510790525
  - # 17
    frequency:   13.7713623085
  - # 18
    frequency:   14.3863123485
  - # 19
    frequency:   14.9303970043
  - # 20
    frequency:   16.4762289926
  - # 21
    frequency:   16.6387520166
  - # 22
    frequency:   20.2894454332
  - # 23
    frequency:   64.7411317783
  - # 24
    frequency:  113.0126612588

- q-position: [    0.1161616,    0.0000000,    0.0000000 ]
  distance:    0.0413495
  band:
  - # 1
    frequency:    1.0127721350
  - # 2
    frequency:    1.3515984879
  - # 3
    frequency:    1.9755381671
  - # 4
    frequency:    2.1487784177
  - # 5
    frequency:    2.6646061569
  - # 6
    frequency:    4.7588409775
  - # 7
    frequency:    5.1075709398
  - # 8
    frequency:    6.0248903916
  - # 9
    frequency:    7.8113376572
  - # 10
    frequency:    8.0383702584
  - # 11
    frequency:    8.2501083969
  - # 12
    frequency:    8.3817446516
  - # 13
    frequency:    9.5013583802
  - # 14
    frequency:   11.0080572216
  - # 15
    frequency:   11.1613217667
  - # 16
    frequency:   12.6099587000
  - # 17
    frequency:   13.7800202658
  - # 18
    frequency:   14.3865650762
  - # 19
    frequency:   14.9887794393
  - # 20
    frequency:   16.4781719572
  - # 21
    frequency:   16.6503919751
  - # 22
    frequency:   20.2852391920
  - # 23
    frequency:   64.7370342277
  - # 24
    frequency:  113.0111937523

- q-position: [    0.1212121,    0.0000000,    0.0000000 ]
  distance:    0.0431473
  band:
  - # 1
    frequency:    1.0849787478
  - # 2
    frequency:    1.3822522149
  - # 3
    frequency:    2.0409309655
  - # 4
    frequency:    2.2190215671
  - # 5
    frequency:    2.7648537518
  - # 6
    frequency:    4.7729716366
  - # 7
    frequency:    5.1398402689
  - # 8
    frequency:    6.0403403940
  - # 9
    frequency:    7.8007228870
  - # 10
    frequency:    8.0417046874
  - # 11
    frequency:    8.2534371132
  - # 12
    frequency:    8.3964494445
  - # 13
    frequency:    9.5018113303
  - # 14
    frequency:   11.0039559571
  - # 15
    frequency:   11.1696909259
  - # 16
    frequency:   12.5694584131
  - # 17
    frequency:   13.7892318479
  - # 18
    frequency:   14.3863319525
  - # 19
    frequency:   15.0471854452
  - # 20
    frequency:   16.4807311906
  - # 21
    frequency:   16.6621369225
  - # 22
    frequency:   20.2809101364
  - # 23
    frequency:   64.7328126616
  - # 24
    frequency:  113.0097623820

- q-position: [    0.1262626,    0.0000000,    0.0000000 ]
  distance:    0.0449451
  band:
  - # 1
    frequency:    1.1582288943
  - # 2
    frequency:    1.4127971353
  - # 3
    frequency:    2.1051438320
  - # 4
    frequency:    2.2889200993
  - # 5
    frequency:    2.8637390775
  - # 6
    frequency:    4.7869431047
  - # 7
    frequency:    5.1712808755
  - # 8
    frequency:    6.0583645242
  - # 9
    frequency:    7.7901985257
  - # 10
    frequency:    8.0450169573
  - # 11
    frequency:    8.2566728977
  - # 12
    frequency:    8.4112508074
  - # 13
    frequency:    9.5016866690
  - # 14
    frequency:   10.9999238773
  - # 15
    frequency:   11.1784009511
  - # 16
    frequency:   12.5295996462
  - # 17
    frequency:   13.7990001759
  - # 18
    frequency:   14.3856479995
  - # 19
    frequency:   15.1054621465
  - # 20
    frequency:   16.4839966810
  - # 21
    frequency:   16.6739449901
  - # 22
    frequency:   20.2764658068
  - # 23
    frequency:   64.7284738495
  - # 24
    frequency:  113.0083780928

- q-position: [    0.1313131,    0.0000000,    0.0000000 ]
  distance:    0.0467429
  band:
  - # 1
    frequency:    1.2323962642
  - # 2
    frequency:    1.4432665567
  - # 3
    frequency:    2.1680694909
  - # 4
    frequency:    2.3584466846
  - # 5
    frequency:    2.9611084258
  - # 6
    frequency:    4.8006895185
  - # 7
    frequency:    5.2018631513
  - # 8
    frequency:    6.0790016096
  - # 9
    frequency:    7.7798191887
  - # 10
    frequency:    8.0482923196
  - # 11
    frequency:    8.2598004054
  - # 12
    frequency:    8.4261062020
  - # 13
    frequency:    9.5009599045
  - # 14
    frequency:   10.9959849353
  - # 15
    frequency:   11.1874344601
  - # 16
    frequency:   12.4904044033
  - # 17
    frequency:   13.8093258860
  - # 18
    frequency:   14.3845424088
  - # 19
    frequency:   15.1634491529
  - # 20
    frequency:   16.4880723639
  - # 21
    frequency:   16.6857744931
  - # 22
    frequency:   20.2719138984
  - # 23
    frequency:   64.7240246877
  - # 24
    frequency:  113.0070518403

- q-position: [    0.1363636,    0.0000000,    0.0000000 ]
  distance:    0.0485407
  band:
  - # 1
    frequency:    1.3073595091
  - # 2
    frequency:    1.4736769067
  - # 3
    frequency:    2.2296267263
  - # 4
    frequency:    2.4275684076
  - # 5
    frequency:    3.0568170317
  - # 6
    frequency:    4.8141479007
  - # 7