nqpoint: 300    
npath: 3      
segment_nqpoint:
- 100
- 100
- 100
labels:
- [ 'G', 'M' ]
- [ 'M', 'K' ]
- [ 'K', 'G' ]
reciprocal_lattice:
- [   0.30827480,   0.17798254,   0.00000000 ] # a*
- [   0.00000000,   0.35596508,   0.00000000 ] # b*
- [   0.00000000,   0.00000000,   0.03742490 ] # c*
natom: 8      
lattice:
- [     3.243859008561325,     0.000000000000000,     0.000000000000000 ] # a
- [    -1.621929504280662,     2.809264307717438,     0.000000000000000 ] # b
- [     0.000000000000000,     0.000000000000000,    26.720175766998015 ] # c
points:
- symbol: C # 1
  coordinates: [  0.333332985432215,  0.666666983183674,  0.618613485231383 ]
  mass: 12.010700
- symbol: H # 2
  coordinates: [  0.666666984744047,  0.333332985985145,  0.336824131640476 ]
  mass: 1.007940
- symbol: N # 3
  coordinates: [  0.000000000000000,  0.000000000000000,  0.456305800410600 ]
  mass: 14.006700
- symbol: N # 4
  coordinates: [  0.333332985432215,  0.666666983183674,  0.663175868359524 ]
  mass: 14.006700
- symbol: O # 5
  coordinates: [  0.666666984744047,  0.333332985985145,  0.373713033748258 ]
  mass: 15.999400
- symbol: S # 6
  coordinates: [  0.333332985432215,  0.666666983183674,  0.555892436819423 ]
  mass: 32.065000
- symbol: Ti # 7
  coordinates: [  0.333332985432215,  0.666666983183674,  0.419456208472140 ]
  mass: 47.867000
- symbol: Ti # 8
  coordinates: [  0.666666984744047,  0.333332985985145,  0.497423833839452 ]
  mass: 47.867000

phonon:
- q-position: [    0.0000000,    0.0000000,    0.0000000 ]
  distance:    0.0000000
  band:
  - # 1
    frequency:   -0.0000027743
  - # 2
    frequency:   -0.0000005748
  - # 3
    frequency:    0.0000024547
  - # 4
    frequency:    1.1206711074
  - # 5
    frequency:    1.1206711074
  - # 6
    frequency:    4.6151541024
  - # 7
    frequency:    4.6151541024
  - # 8
    frequency:    6.1809367981
  - # 9
    frequency:    8.0429342619
  - # 10
    frequency:    8.0429342619
  - # 11
    frequency:    8.5557859405
  - # 12
    frequency:    8.5557859405
  - # 13
    frequency:    9.8010078896
  - # 14
    frequency:   11.1590530523
  - # 15
    frequency:   11.1590530523
  - # 16
    frequency:   13.7864249717
  - # 17
    frequency:   13.7869785559
  - # 18
    frequency:   13.7869785559
  - # 19
    frequency:   14.4865659816
  - # 20
    frequency:   16.7536152831
  - # 21
    frequency:   16.7536152831
  - # 22
    frequency:   20.3379774509
  - # 23
    frequency:   64.7972100502
  - # 24
    frequency:  113.1963378631

- q-position: [    0.0050505,    0.0000000,    0.0000000 ]
  distance:    0.0017978
  band:
  - # 1
    frequency:   -0.1014610143
  - # 2
    frequency:    0.0834635940
  - # 3
    frequency:    0.1558954471
  - # 4
    frequency:    1.1216592394
  - # 5
    frequency:    1.1245899857
  - # 6
    frequency:    4.6148925682
  - # 7
    frequency:    4.6163485188
  - # 8
    frequency:    6.1805239075
  - # 9
    frequency:    8.0425140991
  - # 10
    frequency:    8.0433092884
  - # 11
    frequency:    8.5555205980
  - # 12
    frequency:    8.5559531194
  - # 13
    frequency:    9.8005187927
  - # 14
    frequency:   11.1587044801
  - # 15
    frequency:   11.1590297017
  - # 16
    frequency:   13.7350603961
  - # 17
    frequency:   13.7869353431
  - # 18
    frequency:   13.8380229354
  - # 19
    frequency:   14.4864999295
  - # 20
    frequency:   16.7527270614
  - # 21
    frequency:   16.7535253077
  - # 22
    frequency:   20.3378473791
  - # 23
    frequency:   64.7970849527
  - # 24
    frequency:  113.1958902024

- q-position: [    0.0101010,    0.0000000,    0.0000000 ]
  distance:    0.0035956
  band:
  - # 1
    frequency:   -0.1195567040
  - # 2
    frequency:    0.1667335973
  - # 3
    frequency:    0.2650494300
  - # 4
    frequency:    1.1246316834
  - # 5
    frequency:    1.1362923471
  - # 6
    frequency:    4.6141097106
  - # 7
    frequency:    4.6199222024
  - # 8
    frequency:    6.1792919206
  - # 9
    frequency:    8.0412557366
  - # 10
    frequency:    8.0444290944
  - # 11
    frequency:    8.5547271136
  - # 12
    frequency:    8.5564543698
  - # 13
    frequency:    9.7990532325
  - # 14
    frequency:   11.1576613153
  - # 15
    frequency:   11.1589617687
  - # 16
    frequency:   13.6831231908
  - # 17
    frequency:   13.7868082553
  - # 18
    frequency:   13.8890015004
  - # 19
    frequency:   14.4863038746
  - # 20
    frequency:   16.7500722553
  - # 21
    frequency:   16.7532566900
  - # 22
    frequency:   20.3374575159
  - # 23
    frequency:   64.7967099812
  - # 24
    frequency:  113.1945503241

- q-position: [    0.0151515,    0.0000000,    0.0000000 ]
  distance:    0.0053934
  band:
  - # 1
    frequency:   -0.1258713067
  - # 2
    frequency:    0.2496097666
  - # 3
    frequency:    0.3760800685
  - # 4
    frequency:    1.1296137722
  - # 5
    frequency:    1.1556275300
  - # 6
    frequency:    4.6128108035
  - # 7
    frequency:    4.6258466312
  - # 8
    frequency:    6.1772608920
  - # 9
    frequency:    8.0391655753
  - # 10
    frequency:    8.0462779500
  - # 11
    frequency:    8.5534130506
  - # 12
    frequency:    8.5572887950
  - # 13
    frequency:    9.7966164508
  - # 14
    frequency:   11.1559311927
  - # 15
    frequency:   11.1588555606
  - # 16
    frequency:   13.6309154273
  - # 17
    frequency:   13.7866049068
  - # 18
    frequency:   13.9396171879
  - # 19
    frequency:   14.4859849327
  - # 20
    frequency:   16.7456803321
  - # 21
    frequency:   16.7528133462
  - # 22
    frequency:   20.3368089173
  - # 23
    frequency:   64.7960860968
  - # 24
    frequency:  113.1923275156

- q-position: [    0.0202020,    0.0000000,    0.0000000 ]
  distance:    0.0071912
  band:
  - # 1
    frequency:   -0.1266717989
  - # 2
    frequency:    0.3318777572
  - # 3
    frequency:    0.4883517667
  - # 4
    frequency:    1.1366518282
  - # 5
    frequency:    1.1823822937
  - # 6
    frequency:    4.6110047629
  - # 7
    frequency:    4.6340748391
  - # 8
    frequency:    6.1744642450
  - # 9
    frequency:    8.0362543587
  - # 10
    frequency:    8.0488299397
  - # 11
    frequency:    8.5515908000
  - # 12
    frequency:    8.5584547743
  - # 13
    frequency:    9.7932173502
  - # 14
    frequency:   11.1535267645
  - # 15
    frequency:   11.1587214233
  - # 16
    frequency:   13.5784682467
  - # 17
    frequency:   13.7863378666
  - # 18
    frequency:   13.9898441891
  - # 19
    frequency:   14.4855579022
  - # 20
    frequency:   16.7396000402
  - # 21
    frequency:   16.7522017699
  - # 22
    frequency:   20.3359033416
  - # 23
    frequency:   64.7952148957
  - # 24
    frequency:  113.1892371766

- q-position: [    0.0252525,    0.0000000,    0.0000000 ]
  distance:    0.0089890
  band:
  - # 1
    frequency:   -0.1222041724
  - # 2
    frequency:    0.4132999936
  - # 3
    frequency:    0.6005567104
  - # 4
    frequency:    1.1458198000
  - # 5
    frequency:    1.2163293533
  - # 6
    frequency:    4.6087043322
  - # 7
    frequency:    4.6445422418
  - # 8
    frequency:    6.1709487682
  - # 9
    frequency:    8.0325372760
  - # 10
    frequency:    8.0520494134
  - # 11
    frequency:    8.5492772665
  - # 12
    frequency:    8.5599497763
  - # 13
    frequency:    9.7888687347
  - # 14
    frequency:   11.1504655936
  - # 15
    frequency:   11.1585734989
  - # 16
    frequency:   13.5258174901
  - # 17
    frequency:   13.7860244780
  - # 18
    frequency:   14.0396468698
  - # 19
    frequency:   14.4850505996
  - # 20
    frequency:   16.7318988643
  - # 21
    frequency:   16.7514309830
  - # 22
    frequency:   20.3347432466
  - # 23
    frequency:   64.7940986020
  - # 24
    frequency:  113.1853007013

- q-position: [    0.0303030,    0.0000000,    0.0000000 ]
  distance:    0.0107868
  band:
  - # 1
    frequency:   -0.1102146455
  - # 2
    frequency:    0.4936038339
  - # 3
    frequency:    0.7116522784
  - # 4
    frequency:    1.1572295276
  - # 5
    frequency:    1.2572814832
  - # 6
    frequency:    4.6059263306
  - # 7
    frequency:    4.6571677339
  - # 8
    frequency:    6.1667746062
  - # 9
    frequency:    8.0280340887
  - # 10
    frequency:    8.0558916129
  - # 11
    frequency:    8.5464934494
  - # 12
    frequency:    8.5617700971
  - # 13
    frequency:    9.7835876287
  - # 14
    frequency:   11.1467700054
  - # 15
    frequency:   11.1584293961
  - # 16
    frequency:   13.4730040902
  - # 17
    frequency:   13.7856866115
  - # 18
    frequency:   14.0889694053
  - # 19
    frequency:   14.4845136791
  - # 20
    frequency:   16.7226622666
  - # 21
    frequency:   16.7505124658
  - # 22
    frequency:   20.3333317849
  - # 23
    frequency:   64.7927400562
  - # 24
    frequency:  113.1805453135

- q-position: [    0.0353535,    0.0000000,    0.0000000 ]
  distance:    0.0125846
  band:
  - # 1
    frequency:   -0.0845767142
  - # 2
    frequency:    0.5724659079
  - # 3
    frequency:    0.8207377294
  - # 4
    frequency:    1.1710455144
  - # 5
    frequency:    1.3051401848
  - # 6
    frequency:    4.6026919566
  - # 7
    frequency:    4.6718550062
  - # 8
    frequency:    6.1620152402
  - # 9
    frequency:    8.0227692630
  - # 10
    frequency:    8.0603034703
  - # 11
    frequency:    8.5432639345
  - # 12
    frequency:    8.5639105321
  - # 13
    frequency:    9.7773956572
  - # 14
    frequency:   11.1424669004
  - # 15
    frequency:   11.1583097855
  - # 16
    frequency:   13.4200741491
  - # 17
    frequency:   13.7853503549
  - # 18
    frequency:   14.1377173197
  - # 19
    frequency:   14.4840388227
  - # 20
    frequency:   16.7119927170
  - # 21
    frequency:   16.7494600666
  - # 22
    frequency:   20.3316727979
  - # 23
    frequency:   64.7911427016
  - # 24
    frequency:  113.1750038590

- q-position: [    0.0404040,    0.0000000,    0.0000000 ]
  distance:    0.0143824
  band:
  - # 1
    frequency:    0.0259142305
  - # 2
    frequency:    0.6494917809
  - # 3
    frequency:    0.9269445473
  - # 4
    frequency:    1.1875048755
  - # 5
    frequency:    1.3599229261
  - # 6
    frequency:    4.5990271329
  - # 7
    frequency:    4.6884940284
  - # 8
    frequency:    6.1567574486
  - # 9
    frequency:    8.0167720894
  - # 10
    frequency:    8.0652245718
  - # 11
    frequency:    8.5396163177
  - # 12
    frequency:    8.5663639837
  - # 13
    frequency:    9.7703194642
  - # 14
    frequency:   11.1375875299
  - # 15
    frequency:   11.1582379315
  - # 16
    frequency:   13.3670788401
  - # 17
    frequency:   13.7850456473
  - # 18
    frequency:   14.1857222826
  - # 19
    frequency:   14.4837938148
  - # 20
    frequency:   16.7000085203
  - # 21
    frequency:   16.7482898913
  - # 22
    frequency:   20.3297708067
  - # 23
    frequency:   64.7893105672
  - # 24
    frequency:  113.1687145531

- q-position: [    0.0454545,    0.0000000,    0.0000000 ]
  distance:    0.0161802
  band:
  - # 1
    frequency:    0.1095650509
  - # 2
    frequency:    0.7241915612
  - # 3
    frequency:    1.0294141990
  - # 4
    frequency:    1.2069417123
  - # 5
    frequency:    1.4217431075
  - # 6
    frequency:    4.5949628772
  - # 7
    frequency:    4.7069626418
  - # 8
    frequency:    6.1511012358
  - # 9
    frequency:    8.0100767665
  - # 10
    frequency:    8.0705882737
  - # 11
    frequency:    8.5355805856
  - # 12
    frequency:    8.5691210198
  - # 13
    frequency:    9.7623911441
  - # 14
    frequency:   11.1321672368
  - # 15
    frequency:   11.1582391775
  - # 16
    frequency:   13.3140741702
  - # 17
    frequency:   13.7848058624
  - # 18
    frequency:   14.2326707262
  - # 19
    frequency:   14.4840939024
  - # 20
    frequency:   16.6868424489
  - # 21
    frequency:   16.7470201715
  - # 22
    frequency:   20.3276310003
  - # 23
    frequency:   64.7872482482
  - # 24
    frequency:  113.1617206891

- q-position: [    0.0505051,    0.0000000,    0.0000000 ]
  distance:    0.0179780
  band:
  - # 1
    frequency:    0.1660046065
  - # 2
    frequency:    0.7959565215
  - # 3
    frequency:    1.1273759955
  - # 4
    frequency:    1.2298107400
  - # 5
    frequency:    1.4907110502
  - # 6
    frequency:    4.5905356810
  - # 7
    frequency:    4.7271282129
  - # 8
    frequency:    6.1451597104
  - # 9
    frequency:    8.0027224282
  - # 10
    frequency:    8.0763229570
  - # 11
    frequency:    8.5311884771
  - # 12
    frequency:    8.5721693995
  - # 13
    frequency:    9.7536486540
  - # 14
    frequency:   11.1262451655
  - # 15
    frequency:   11.1583403993
  - # 16
    frequency:   13.2611206278
  - # 17
    frequency:   13.7846673501
  - # 18
    frequency:   14.2779515452
  - # 19
    frequency:   14.4855541526
  - # 20
    frequency:   16.6726401960
  - # 21
    frequency:   16.7456711121
  - # 22
    frequency:   20.3252592207
  - # 23
    frequency:   64.7849608838
  - # 24
    frequency:  113.1540703068

- q-position: [    0.0555556,    0.0000000,    0.0000000 ]
  distance:    0.0197758
  band:
  - # 1
    frequency:    0.2192348330
  - # 2
    frequency:    0.8640520621
  - # 3
    frequency:    1.2203182935
  - # 4
    frequency:    1.2566947661
  - # 5
    frequency:    1.5667506128
  - # 6
    frequency:    4.5857878744
  - # 7
    frequency:    4.7488493135
  - # 8
    frequency:    6.1390588880
  - # 9
    frequency:    7.9947530943
  - # 10
    frequency:    8.0823533964
  - # 11
    frequency:    8.5264728503
  - # 12
    frequency:    8.5754935911
  - # 13
    frequency:    9.7441361735
  - # 14
    frequency:   11.1198639435
  - # 15
    frequency:   11.1585694454
  - # 16
    frequency:   13.2082827329
  - # 17
    frequency:   13.7846689435
  - # 18
    frequency:   14.3203311260
  - # 19
    frequency:   14.4894145445
  - # 20
    frequency:   16.6575586700
  - # 21
    frequency:   16.7442647177
  - # 22
    frequency:   20.3226619438
  - # 23
    frequency:   64.7824541323
  - # 24
    frequency:  113.1458158269

- q-position: [    0.0606061,    0.0000000,    0.0000000 ]
  distance:    0.0215736
  band:
  - # 1
    frequency:    0.2725219031
  - # 2
    frequency:    0.9276590466
  - # 3
    frequency:    1.2882639275
  - # 4
    frequency:    1.3081735022
  - # 5
    frequency:    1.6494056177
  - # 6
    frequency:    4.5807679548
  - # 7
    frequency:    4.7719774034
  - # 8
    frequency:    6.1329373840
  - # 9
    frequency:    7.9862175276
  - # 10
    frequency:    8.0886022147
  - # 11
    frequency:    8.5214670783
  - # 12
    frequency:    8.5790743190
  - # 13
    frequency:    9.7339043752
  - # 14
    frequency:   11.1130693379
  - # 15
    frequency:   11.1589545817
  - # 16
    frequency:   13.1556285029
  - # 17
    frequency:   13.7848514384
  - # 18
    frequency:   14.3573895666
  - # 19
    frequency:   14.4981039079
  - # 20
    frequency:   16.6417641545
  - # 21
    frequency:   16.7428245992
  - # 22
    frequency:   20.3198462564
  - # 23
    frequency:   64.7797341440
  - # 24
    frequency:  113.1370136510

- q-position: [    0.0656566,    0.0000000,    0.0000000 ]
  distance:    0.0233714
  band:
  - # 1
    frequency:    0.3269822050
  - # 2
    frequency:    0.9860055410
  - # 3
    frequency:    1.3251446159
  - # 4
    frequency:    1.3913737616
  - # 5
    frequency:    1.7377771201
  - # 6
    frequency:    4.5755308517
  - # 7
    frequency:    4.7963585153
  - # 8
    frequency:    6.1269459530
  - # 9
    frequency:    7.9771689839
  - # 10
    frequency:    8.0949913842
  - # 11
    frequency:    8.5162044933
  - # 12
    frequency:    8.5828881823
  - # 13
    frequency:    9.7230105658
  - # 14
    frequency:   11.1059098912
  - # 15
    frequency:   11.1595239570
  - # 16
    frequency:   13.1032288464
  - # 17
    frequency:   13.7852570569
  - # 18
    frequency:   14.3854229236
  - # 19
    frequency:   14.5153378513
  - # 20
    frequency:   16.6254303713
  - # 21
    frequency:   16.7413757596
  - # 22
    frequency:   20.3168198290
  - # 23
    frequency:   64.7768075318
  - # 24
    frequency:  113.1277237337

- q-position: [    0.0707071,    0.0000000,    0.0000000 ]
  distance:    0.0251692
  band:
  - # 1
    frequency:    0.3830833031
  - # 2
    frequency:    1.0385949354
  - # 3
    frequency:    1.3676920792
  - # 4
    frequency:    1.4707078254
  - # 5
    frequency:    1.8306602446
  - # 6
    frequency:    4.5701381024
  - # 7
    frequency:    4.8218349600
  - # 8
    frequency:    6.1212468208
  - # 9
    frequency:    7.9676648504
  - # 10
    frequency:    8.1014437291
  - # 11
    frequency:    8.5107178949
  - # 12
    frequency:    8.5869073996
  - # 13
    frequency:    9.7115186607
  - # 14
    frequency:   11.0984365399
  - # 15
    frequency:   11.1603051054
  - # 16
    frequency:   13.0511568977
  - # 17
    frequency:   13.7859288992
  - # 18
    frequency:   14.4020798879
  - # 19
    frequency:   14.5434822433
  - # 20
    frequency:   16.6087364873
  - # 21
    frequency:   16.7399443615
  - # 22
    frequency:   20.3135908835
  - # 23
    frequency:   64.7736813401
  - # 24
    frequency:  113.1180091280

- q-position: [    0.0757576,    0.0000000,    0.0000000 ]
  distance:    0.0269671
  band:
  - # 1
    frequency:    0.4410246347
  - # 2
    frequency:    1.0854305664
  - # 3
    frequency:    1.4157665608
  - # 4
    frequency:    1.5470761204
  - # 5
    frequency:    1.9267833804
  - # 6
    frequency:    4.5646579087
  - # 7
    frequency:    4.8482470874
  - # 8
    frequency:    6.1160127421
  - # 9
    frequency:    7.9577661695
  - # 10
    frequency:    8.1078843753
  - # 11
    frequency:    8.5050391336
  - # 12
    frequency:    8.5910997424
  - # 13
    frequency:    9.6994989495
  - # 14
    frequency:   11.0907022196
  - # 15
    frequency:   11.1613245004
  - # 16
    frequency:   12.9994873016
  - # 17
    frequency:   13.7869103951
  - # 18
    frequency:   14.4092984202
  - # 19
    frequency:   14.5806166816
  - # 20
    frequency:   16.5918651180
  - # 21
    frequency:   16.7385574762
  - # 22
    frequency:   20.3101681575
  - # 23
    frequency:   64.7703630120
  - # 24
    frequency:  113.1079355082

- q-position: [    0.0808081,    0.0000000,    0.0000000 ]
  distance:    0.0287649
  band:
  - # 1
    frequency:    0.5008742313
  - # 2
    frequency:    1.1270641485
  - # 3
    frequency:    1.4686856545
  - # 4
    frequency:    1.6212937964
  - # 5
    frequency:    2.0249998585
  - # 6
    frequency:    4.5591650475
  - # 7
    frequency:    4.8754351643
  - # 8
    frequency:    6.1114257083
  - # 9
    frequency:    7.9475370564
  - # 10
    frequency:    8.1142420897
  - # 11
    frequency:    8.4991987760
  - # 12
    frequency:    8.5954287206
  - # 13
    frequency:    9.6870276194
  - # 14
    frequency:   11.0827614607
  - # 15
    frequency:   11.1626071692
  - # 16
    frequency:   12.9482954622
  - # 17
    frequency:   13.7882447604
  - # 18
    frequency:   14.4106598140
  - # 19
    frequency:   14.6231804377
  - # 20
    frequency:   16.5750003899
  - # 21
    frequency:   16.7372428169
  - # 22
    frequency:   20.3065608636
  - # 23
    frequency:   64.7668603544
  - # 24
    frequency:  113.0975706754

- q-position: [    0.0858586,    0.0000000,    0.0000000 ]
  distance:    0.0305627
  band:
  - # 1
    frequency:    0.5626284129
  - # 2
    frequency:    1.1644117195
  - # 3
    frequency:    1.5254091625
  - # 4
    frequency:    1.6940023120
  - # 5
    frequency:    2.1243715478
  - # 6
    frequency:    4.5537406075
  - # 7
    frequency:    4.9032414360
  - # 8
    frequency:    6.1076752230
  - # 9
    frequency:    7.9370440202
  - # 10
    frequency:    8.1204504514
  - # 11
    frequency:    8.4932258517
  - # 12
    frequency:    8.5998540849
  - # 13
    frequency:    9.6741860017
  - # 14
    frequency:   11.0746699777
  - # 15
    frequency:   11.1641763778
  - # 16
    frequency:   12.8976567660
  - # 17
    frequency:   13.7899744661
  - # 18
    frequency:   14.4086060909
  - # 19
    frequency:   14.6687549192
  - # 20
    frequency:   16.5583261299
  - # 21
    frequency:   16.7360284570
  - # 22
    frequency:   20.3027786449
  - # 23
    frequency:   64.7631815022
  - # 24
    frequency:  113.0869840481

- q-position: [    0.0909091,    0.0000000,    0.0000000 ]
  distance:    0.0323605
  band:
  - # 1
    frequency:    0.6262414669
  - # 2
    frequency:    1.1984788435
  - # 3
    frequency:    1.5848147074
  - # 4
    frequency:    1.7656632851
  - # 5
    frequency:    2.2241706240
  - # 6
    frequency:    4.5484715279
  - # 7
    frequency:    4.9315124514
  - # 8
    frequency:    6.1049560610
  - # 9
    frequency:    7.9263552080
  - # 10
    frequency:    8.1264487980
  - # 11
    frequency:    8.4871476790
  - # 12
    frequency:    8.6043327009
  - # 13
    frequency:    9.6610595191
  - # 14
    frequency:   11.0664842570
  - # 15
    frequency:   11.1660533903
  - # 16
    frequency:   12.8476457922
  - # 17
    frequency:   13.7921407271
  - # 18
    frequency:   14.4044201129
  - # 19
    frequency:   14.7160832144
  - # 20
    frequency:   16.5420242585
  - # 21
    frequency:   16.7349425365
  - # 22
    frequency:   20.2988315265
  - # 23
    frequency:   64.7593348817
  - # 24
    frequency:  113.0762461427

- q-position: [    0.0959596,    0.0000000,    0.0000000 ]
  distance:    0.0341583
  band:
  - # 1
    frequency:    0.6916418678
  - # 2
    frequency:    1.2301616506
  - # 3
    frequency:    1.6458975163
  - # 4
    frequency:    1.8365890639
  - # 5
    frequency:    2.3238450334
  - # 6
    frequency:    4.5434499188
  - # 7
    frequency:    4.9601017229
  - # 8
    frequency:    6.1034654375
  - # 9
    frequency:    7.9155395916
  - # 10
    frequency:    8.1321829038
  - # 11
    frequency:    8.4809897636
  - # 12
    frequency:    8.6088198325
  - # 13
    frequency:    9.6477363186
  - # 14
    frequency:   11.0582611455
  - # 15
    frequency:   11.1682573039
  - # 16
    frequency:   12.7983355231
  - # 17
    frequency:   13.7947830155
  - # 18
    frequency:   14.3987668545
  - # 19
    frequency:   14.7645282131
  - # 20
    frequency:   16.5262734674
  - # 21
    frequency:   16.7340129587
  - # 22
    frequency:   20.2947298651
  - # 23
    frequency:   64.7553291729
  - # 24
    frequency:  113.0654280487

- q-position: [    0.1010101,    0.0000000,    0.0000000 ]
  distance:    0.0359561
  band:
  - # 1
    frequency:    0.7587418077
  - # 2
    frequency:    1.2601690326
  - # 3
    frequency:    1.7078490548
  - # 4
    frequency:    1.9069804612
  - # 5
    frequency:    2.4229771825
  - # 6
    frequency:    4.5387721489
  - # 7
    frequency:    4.9888727691
  - # 8
    frequency:    6.1033995399
  - # 9
    frequency:    7.9046661213
  - # 10
    frequency:    8.1376053549
  - # 11
    frequency:    8.4747757580
  - # 12
    frequency:    8.6132708473
  - # 13
    frequency:    9.6343055939
  - # 14
    frequency:   11.0500574435
  - # 15
    frequency:   11.1708049574
  - # 16
    frequency:   12.7497965676
  - # 17
    frequency:   13.7979386034
  - # 18
    frequency:   14.3920175245
  - # 19
    frequency:   14.8137475588
  - # 20
    frequency:   16.5112482610
  - # 21
    frequency:   16.7332670791
  - # 22
    frequency:   20.2904842946
  - # 23
    frequency:   64.7511732708
  - # 24
    frequency:  113.0546009017

- q-position: [    0.1060606,    0.0000000,    0.0000000 ]
  distance:    0.0377539
  band:
  - # 1
    frequency:    0.8274431251
  - # 2
    frequency:    1.2890251204
  - # 3
    frequency:    1.7700553793
  - # 4
    frequency:    1.9769593804
  - # 5
    frequency:    2.5212480979
  - # 6
    frequency:    4.5345376944
  - # 7
    frequency:    5.0177025467
  - # 8
    frequency:    6.1049494197
  - # 9
    frequency:    7.8938028713
  - # 10
    frequency:    8.1426756097
  - # 11
    frequency:    8.4685274734
  - # 12
    frequency:    8.6176433240
  - # 13
    frequency:    9.6208556157
  - # 14
    frequency:   11.0419295058
  - # 15
    frequency:   11.1737109100
  - # 16
    frequency:   12.7020964119
  - # 17
    frequency:   13.8016421397
  - # 18
    frequency:   14.3844027179
  - # 19
    frequency:   14.8635391943
  - # 20
    frequency:   16.4971184405
  - # 21
    frequency:   16.7327313914
  - # 22
    frequency:   20.2861056706
  - # 23
    frequency:   64.7468762473
  - # 24
    frequency:  113.0438353593

- q-position: [    0.1111111,    0.0000000,    0.0000000 ]
  distance:    0.0395517
  band:
  - # 1
    frequency:    0.8976411588
  - # 2
    frequency:    1.3171032716
  - # 3
    frequency:    1.8320639682
  - # 4
    frequency:    2.0465935182
  - # 5
    frequency:    2.6184098446
  - # 6
    frequency:    4.5308477523
  - # 7
    frequency:    5.0464852081
  - # 8
    frequency:    6.1082963119
  - # 9
    frequency:    7.8830162008
  - # 10
    frequency:    8.1473597500
  - # 11
    frequency:    8.4622649297
  - # 12
    frequency:    8.6218995003
  - # 13
    frequency:    9.6074715159
  - # 14
    frequency:   11.0339328521
  - # 15
    frequency:   11.1769874804
  - # 16
    frequency:   12.6552987102
  - # 17
    frequency:   13.8059252647
  - # 18
    frequency:   14.3760839971
  - # 19
    frequency:   14.9137680566
  - # 20
    frequency:   16.4840490992
  - # 21
    frequency:   16.7324312117
  - # 22
    frequency:   20.2816050135
  - # 23
    frequency:   64.7424473120
  - # 24
    frequency:  113.0332010844

- q-position: [    0.1161616,    0.0000000,    0.0000000 ]
  distance:    0.0413495
  band:
  - # 1
    frequency:    0.9692273396
  - # 2
    frequency:    1.3446639954
  - # 3
    frequency:    1.8935465944
  - # 4
    frequency:    2.1159139610
  - # 5
    frequency:    2.7142653727
  - # 6
    frequency:    4.5278036324
  - # 7
    frequency:    5.0751360321
  - # 8
    frequency:    6.1136065375
  - # 9
    frequency:    7.8723699545
  - # 10
    frequency:    8.1516299504
  - # 11
    frequency:    8.4560064342
  - # 12
    frequency:    8.6260089566
  - # 13
    frequency:    9.5942328962
  - # 14
    frequency:   11.0261217907
  - # 15
    frequency:   11.1806448403
  - # 16
    frequency:   12.6094626284
  - # 17
    frequency:   13.8108162643
  - # 18
    frequency:   14.3671886904
  - # 19
    frequency:   14.9643290964
  - # 20
    frequency:   16.4722011837
  - # 21
    frequency:   16.7323903654
  - # 22
    frequency:   20.2769934511
  - # 23
    frequency:   64.7378957743
  - # 24
    frequency:  113.0227662392

- q-position: [    0.1212121,    0.0000000,    0.0000000 ]
  distance:    0.0431473
  band:
  - # 1
    frequency:    1.0420909740
  - # 2
    frequency:    1.3718866636
  - # 3
    frequency:    1.9542683648
  - # 4
    frequency:    2.1849273555
  - # 5
    frequency:    2.8086540980
  - # 6
    frequency:    4.5255049555
  - # 7
    frequency:    5.1035952750
  - # 8
    frequency:    6.1210262465
  - # 9
    frequency:    7.8619247195
  - # 10
    frequency:    8.1554637160
  - # 11
    frequency:    8.4497686767
  - # 12
    frequency:    8.6299513899
  - # 13
    frequency:    9.5812113578
  - # 14
    frequency:   11.0185490578
  - # 15
    frequency:   11.1846911496
  - # 16
    frequency:   12.5646422561
  - # 17
    frequency:   13.8163397671
  - # 18
    frequency:   14.3578275182
  - # 19
    frequency:   15.0151270004
  - # 20
    frequency:   16.4617326560
  - # 21
    frequency:   16.7326308799
  - # 22
    frequency:   20.2722821606
  - # 23
    frequency:   64.7332310046
  - # 24
    frequency:  113.0125969946

- q-position: [    0.1262626,    0.0000000,    0.0000000 ]
  distance:    0.0449451
  band:
  - # 1
    frequency:    1.1161204904
  - # 2
    frequency:    1.3988932802
  - # 3
    frequency:    2.0140646312
  - # 4
    frequency:    2.2536242170
  - # 5
    frequency:    2.9014416537
  - # 6
    frequency:    4.5240476993
  - # 7
    frequency:    5.1318315897
  - # 8
    frequency:    6.1306763548
  - # 9
    frequency:    7.8517371581
  - # 10
    frequency:    8.1588429551
  - # 11
    frequency:    8.4435668331
  - # 12
    frequency:    8.6337192886
  - # 13
    frequency:    9.5684680774
  - # 14
    frequency:   11.0112654726
  - # 15
    frequency:   11.1891327225
  - # 16
    frequency:   12.5208860953
  - # 17
    frequency:   13.8225164849
  - # 18
    frequency:   14.3481037173
  - # 19
    frequency:   15.0660639538
  - # 20
    frequency:   16.4528002619
  - # 21
    frequency:   16.7331726860
  - # 22
    frequency:   20.2674823122
  - # 23
    frequency:   64.7284623975
  - # 24
    frequency:  113.0027570587

- q-position: [    0.1313131,    0.0000000,    0.0000000 ]
  distance:    0.0467429
  band:
  - # 1
    frequency:    1.1912043117
  - # 2
    frequency:    1.4257654727
  - # 3
    frequency:    2.0728245741
  - # 4
    frequency:    2.3219845693
  - # 5
    frequency:    2.9925126274
  - # 6
    frequency:    4.5235221445
  - # 7
    frequency:    5.1598445952
  - # 8
    frequency:    6.1426480946
  - # 9
    frequency:    7.8418594266
  - # 10
    frequency:    8.1617529720
  - # 11
    frequency:    8.4374146685
  - # 12
    frequency:    8.6373202929
  - # 13
    frequency:    9.5560515717
  - # 14
    frequency:   11.0043196125
  - # 15
    frequency:   11.1939742151
  - # 16
    frequency:   12.4782366400
  - # 17
    frequency:   13.8293629979
  - # 18
    frequency:   14.3381176903
  - # 19
    frequency:   15.1170314683
  - # 20
    frequency:   16.4455618700
  - # 21
    frequency:   16.7340333324
  - # 22
    frequency:   20.2626050133
  - # 23
    frequency:   64.7235993347
  - # 24
    frequency:  112.9933072284

- q-position: [    0.1363636,    0.0000000,    0.0000000 ]
  distance:    0.0485407
  band:
  - # 1
    frequency:    1.2672314629
  - # 2
    frequency:    1.4525564064
  - # 3
    frequency:    2.1304797183
  - # 4
    frequency:    2.3899817693
  - # 5
    frequency:    3.0817654442
  - # 6
    frequency:    4.5240107879
  - # 7