nqpoint: 300    
npath: 3      
segment_nqpoint:
- 100
- 100
- 100
labels:
- [ 'G', 'M' ]
- [ 'M', 'K' ]
- [ 'K', 'G' ]
reciprocal_lattice:
- [   0.27763827,   0.16029453,   0.00000000 ] # a*
- [   0.00000000,   0.32058906,   0.00000000 ] # b*
- [   0.00000000,   0.00000000,   0.03759143 ] # c*
natom: 7      
lattice:
- [     3.601808970714808,     0.000000000000000,     0.000000000000000 ] # a
- [    -1.800904485357404,     3.119258068219117,     0.000000000000000 ] # b
- [     0.000000000000000,     0.000000000000000,    26.601808905163608 ] # c
points:
- symbol: C # 1
  coordinates: [  0.333332985432215,  0.666666983183674,  0.603095333295407 ]
  mass: 12.010700
- symbol: Cl # 2
  coordinates: [  0.666666984744047,  0.333332985985145,  0.338322857369787 ]
  mass: 35.453000
- symbol: N # 3
  coordinates: [  0.000000000000000,  0.000000000000000,  0.454465799255117 ]
  mass: 14.006700
- symbol: N # 4
  coordinates: [  0.333332985432215,  0.666666983183674,  0.556138353788703 ]
  mass: 14.006700
- symbol: S # 5
  coordinates: [  0.333332985432215,  0.666666983183674,  0.661677142630213 ]
  mass: 32.065000
- symbol: Y # 6
  coordinates: [  0.333332985432215,  0.666666983183674,  0.405594914506536 ]
  mass: 88.905850
- symbol: Y # 7
  coordinates: [  0.666666984744047,  0.333332985985145,  0.504584471158683 ]
  mass: 88.905850

phonon:
- q-position: [    0.0000000,    0.0000000,    0.0000000 ]
  distance:    0.0000000
  band:
  - # 1
    frequency:   -0.5568002339
  - # 2
    frequency:   -0.5568002339
  - # 3
    frequency:   -0.0000050445
  - # 4
    frequency:   -0.0000004392
  - # 5
    frequency:    0.0000047274
  - # 6
    frequency:    3.2369240080
  - # 7
    frequency:    3.2369240080
  - # 8
    frequency:    4.4977829150
  - # 9
    frequency:    5.3682964590
  - # 10
    frequency:    5.3682964590
  - # 11
    frequency:    6.4842861055
  - # 12
    frequency:    6.4842861055
  - # 13
    frequency:    6.5164274855
  - # 14
    frequency:    8.5698071209
  - # 15
    frequency:   10.7913414955
  - # 16
    frequency:   11.6305757551
  - # 17
    frequency:   11.6305757551
  - # 18
    frequency:   14.2678073845
  - # 19
    frequency:   14.2678073845
  - # 20
    frequency:   26.7510146721
  - # 21
    frequency:   58.1284542609

- q-position: [    0.0050505,    0.0000000,    0.0000000 ]
  distance:    0.0016191
  band:
  - # 1
    frequency:   -0.5666522341
  - # 2
    frequency:   -0.5647365096
  - # 3
    frequency:    0.0015183179
  - # 4
    frequency:    0.1334425868
  - # 5
    frequency:    0.1390702800
  - # 6
    frequency:    3.2368264206
  - # 7
    frequency:    3.2373667424
  - # 8
    frequency:    4.4975732582
  - # 9
    frequency:    5.3682005971
  - # 10
    frequency:    5.3684956308
  - # 11
    frequency:    6.4806036118
  - # 12
    frequency:    6.4842399140
  - # 13
    frequency:    6.5196350455
  - # 14
    frequency:    8.5691737778
  - # 15
    frequency:   10.7913798148
  - # 16
    frequency:   11.6297419009
  - # 17
    frequency:   11.6301606719
  - # 18
    frequency:   14.2678982235
  - # 19
    frequency:   14.2680315704
  - # 20
    frequency:   26.7509566605
  - # 21
    frequency:   58.1275705052

- q-position: [    0.0101010,    0.0000000,    0.0000000 ]
  distance:    0.0032383
  band:
  - # 1
    frequency:   -0.5897805004
  - # 2
    frequency:   -0.5834158775
  - # 3
    frequency:    0.0060852728
  - # 4
    frequency:    0.2568269068
  - # 5
    frequency:    0.2662182936
  - # 6
    frequency:    3.2365353667
  - # 7
    frequency:    3.2386928553
  - # 8
    frequency:    4.4969463092
  - # 9
    frequency:    5.3679141189
  - # 10
    frequency:    5.3690914818
  - # 11
    frequency:    6.4720485333
  - # 12
    frequency:    6.4841009334
  - # 13
    frequency:    6.5267671819
  - # 14
    frequency:    8.5672753825
  - # 15
    frequency:   10.7914934537
  - # 16
    frequency:   11.6272416124
  - # 17
    frequency:   11.6289157606
  - # 18
    frequency:   14.2681703917
  - # 19
    frequency:   14.2687035367
  - # 20
    frequency:   26.7507826906
  - # 21
    frequency:   58.1249209115

- q-position: [    0.0151515,    0.0000000,    0.0000000 ]
  distance:    0.0048574
  band:
  - # 1
    frequency:   -0.6163710211
  - # 2
    frequency:   -0.6045287876
  - # 3
    frequency:    0.0137383706
  - # 4
    frequency:    0.3681174256
  - # 5
    frequency:    0.3796688143
  - # 6
    frequency:    3.2360559819
  - # 7
    frequency:    3.2408960985
  - # 8
    frequency:    4.4959081114
  - # 9
    frequency:    5.3674403272
  - # 10
    frequency:    5.3700790240
  - # 11
    frequency:    6.4613344226
  - # 12
    frequency:    6.4838679517
  - # 13
    frequency:    6.5351159265
  - # 14
    frequency:    8.5641168266
  - # 15
    frequency:   10.7916784427
  - # 16
    frequency:   11.6230787410
  - # 17
    frequency:   11.6268420355
  - # 18
    frequency:   14.2686228444
  - # 19
    frequency:   14.2698215113
  - # 20
    frequency:   26.7504929569
  - # 21
    frequency:   58.1205104949

- q-position: [    0.0202020,    0.0000000,    0.0000000 ]
  distance:    0.0064765
  band:
  - # 1
    frequency:   -0.6410638303
  - # 2
    frequency:   -0.6230791937
  - # 3
    frequency:    0.0245437278
  - # 4
    frequency:    0.4695192444
  - # 5
    frequency:    0.4823524912
  - # 6
    frequency:    3.2353968619
  - # 7
    frequency:    3.2439661368
  - # 8
    frequency:    4.4944686717
  - # 9
    frequency:    5.3667846606
  - # 10
    frequency:    5.3714499656
  - # 11
    frequency:    6.4494856208
  - # 12
    frequency:    6.4835389690
  - # 13
    frequency:    6.5436662670
  - # 14
    frequency:    8.5597062268
  - # 15
    frequency:   10.7919281214
  - # 16
    frequency:   11.6172598015
  - # 17
    frequency:   11.6239411827
  - # 18
    frequency:   14.2692538448
  - # 19
    frequency:   14.2713825441
  - # 20
    frequency:   26.7500877839
  - # 21
    frequency:   58.1143475990

- q-position: [    0.0252525,    0.0000000,    0.0000000 ]
  distance:    0.0080957
  band:
  - # 1
    frequency:   -0.6617966659
  - # 2
    frequency:   -0.6368848493
  - # 3
    frequency:    0.0386020451
  - # 4
    frequency:    0.5635587407
  - # 5
    frequency:    0.5772220512
  - # 6
    frequency:    3.2345701145
  - # 7
    frequency:    3.2478886617
  - # 8
    frequency:    4.4926418644
  - # 9
    frequency:    5.3659545960
  - # 10
    frequency:    5.3731927435
  - # 11
    frequency:    6.4368686443
  - # 12
    frequency:    6.4831112284
  - # 13
    frequency:    6.5520647919
  - # 14
    frequency:    8.5540548724
  - # 15
    frequency:   10.7922330674
  - # 16
    frequency:   11.6097941209
  - # 17
    frequency:   11.6202155526
  - # 18
    frequency:   14.2700609699
  - # 19
    frequency:   14.2733825124
  - # 20
    frequency:   26.7495676267
  - # 21
    frequency:   58.1064438729

- q-position: [    0.0303030,    0.0000000,    0.0000000 ]
  distance:    0.0097148
  band:
  - # 1
    frequency:   -0.6779183263
  - # 2
    frequency:   -0.6450725727
  - # 3
    frequency:    0.0560577391
  - # 4
    frequency:    0.6521372212
  - # 5
    frequency:    0.6663764561
  - # 6
    frequency:    3.2335914280
  - # 7
    frequency:    3.2526455432
  - # 8
    frequency:    4.4904453002
  - # 9
    frequency:    5.3649595154
  - # 10
    frequency:    5.3752925711
  - # 11
    frequency:    6.4236400024
  - # 12
    frequency:    6.4825812583
  - # 13
    frequency:    6.5601719111
  - # 14
    frequency:    8.5471771545
  - # 15
    frequency:   10.7925809872
  - # 16
    frequency:   11.6006940518
  - # 17
    frequency:   11.6156681512
  - # 18
    frequency:   14.2710411205
  - # 19
    frequency:   14.2758161290
  - # 20
    frequency:   26.7489330716
  - # 21
    frequency:   58.0968142393

- q-position: [    0.0353535,    0.0000000,    0.0000000 ]
  distance:    0.0113340
  band:
  - # 1
    frequency:   -0.6893050237
  - # 2
    frequency:   -0.6472920617
  - # 3
    frequency:    0.0771120500
  - # 4
    frequency:    0.7365744348
  - # 5
    frequency:    0.7512162869
  - # 6
    frequency:    3.2324801516
  - # 7
    frequency:    3.2582150150
  - # 8
    frequency:    4.4879001655
  - # 9
    frequency:    5.3638105387
  - # 10
    frequency:    5.3777315056
  - # 11
    frequency:    6.4098801632
  - # 12
    frequency:    6.4819449247
  - # 13
    frequency:    6.5679279341
  - # 14
    frequency:    8.5390904794
  - # 15
    frequency:   10.7929565592
  - # 16
    frequency:   11.5899752617
  - # 17
    frequency:   11.6103026270
  - # 18
    frequency:   14.2721905320
  - # 19
    frequency:   14.2786769528
  - # 20
    frequency:   26.7481848368
  - # 21
    frequency:   58.0854768540

- q-position: [    0.0404040,    0.0000000,    0.0000000 ]
  distance:    0.0129531
  band:
  - # 1
    frequency:   -0.6960119697
  - # 2
    frequency:   -0.6433932274
  - # 3
    frequency:    0.1020408400
  - # 4
    frequency:    0.8177825237
  - # 5
    frequency:    0.8326751930
  - # 6
    frequency:    3.2312593812
  - # 7
    frequency:    3.2645718822
  - # 8
    frequency:    4.4850310348
  - # 9
    frequency:    5.3625203276
  - # 10
    frequency:    5.3804885355
  - # 11
    frequency:    6.3956381098
  - # 12
    frequency:    6.4811974955
  - # 13
    frequency:    6.5753085550
  - # 14
    frequency:    8.5298151688
  - # 15
    frequency:   10.7933412158
  - # 16
    frequency:   11.5776571061
  - # 17
    frequency:   11.6041232560
  - # 18
    frequency:   14.2735047899
  - # 19
    frequency:   14.2819574023
  - # 20
    frequency:   26.7473237737
  - # 21
    frequency:   58.0724530565

- q-position: [    0.0454545,    0.0000000,    0.0000000 ]
  distance:    0.0145722
  band:
  - # 1
    frequency:   -0.6981361180
  - # 2
    frequency:   -0.6333106502
  - # 3
    frequency:    0.1312168971
  - # 4
    frequency:    0.8964023992
  - # 5
    frequency:    0.9113833600
  - # 6
    frequency:    3.2299560449
  - # 7
    frequency:    3.2716877463
  - # 8
    frequency:    4.4818656621
  - # 9
    frequency:    5.3611028634
  - # 10
    frequency:    5.3835396963
  - # 11
    frequency:    6.3809484355
  - # 12
    frequency:    6.4803337129
  - # 13
    frequency:    6.5823077921
  - # 14
    frequency:    8.5193743494
  - # 15
    frequency:   10.7937128467
  - # 16
    frequency:   11.5637631030
  - # 17
    frequency:   11.5971349240
  - # 18
    frequency:   14.2749788474
  - # 19
    frequency:   14.2856487728
  - # 20
    frequency:   26.7463508677
  - # 21
    frequency:   58.0577673112

- q-position: [    0.0505051,    0.0000000,    0.0000000 ]
  distance:    0.0161914
  band:
  - # 1
    frequency:   -0.6957592670
  - # 2
    frequency:   -0.6170462285
  - # 3
    frequency:    0.1651334263
  - # 4
    frequency:    0.9728938097
  - # 5
    frequency:    0.9877711278
  - # 6
    frequency:    3.2286009793
  - # 7
    frequency:    3.2795312364
  - # 8
    frequency:    4.4784347550
  - # 9
    frequency:    5.3595732043
  - # 10
    frequency:    5.3868582191
  - # 11
    frequency:    6.3658387405
  - # 12
    frequency:    6.4793478751
  - # 13
    frequency:    6.5889306101
  - # 14
    frequency:    8.5077938358
  - # 15
    frequency:   10.7940454006
  - # 16
    frequency:   11.5483215261
  - # 17
    frequency:   11.5893431056
  - # 18
    frequency:   14.2766070458
  - # 19
    frequency:   14.2897412567
  - # 20
    frequency:   26.7452672396
  - # 21
    frequency:   58.0414471416

- q-position: [    0.0555556,    0.0000000,    0.0000000 ]
  distance:    0.0178105
  band:
  - # 1
    frequency:   -0.6889215901
  - # 2
    frequency:   -0.5947141185
  - # 3
    frequency:    0.2044170285
  - # 4
    frequency:    1.0475929522
  - # 5
    frequency:    1.0621340909
  - # 6
    frequency:    3.2272289868
  - # 7
    frequency:    3.2880682379
  - # 8
    frequency:    4.4747717371
  - # 9
    frequency:    5.3579472267
  - # 10
    frequency:    5.3904147213
  - # 11
    frequency:    6.3503331486
  - # 12
    frequency:    6.4782339253
  - # 13
    frequency:    6.5951893995
  - # 14
    frequency:    8.4951020089
  - # 15
    frequency:   10.7943083563
  - # 16
    frequency:   11.5313661453
  - # 17
    frequency:   11.5807538407
  - # 18
    frequency:   14.2783831392
  - # 19
    frequency:   14.2942239685
  - # 20
    frequency:   26.7440741468
  - # 21
    frequency:   58.0235230545

- q-position: [    0.0606061,    0.0000000,    0.0000000 ]
  distance:    0.0194296
  band:
  - # 1
    frequency:   -0.6776055427
  - # 2
    frequency:   -0.5666367449
  - # 3
    frequency:    0.2498006112
  - # 4
    frequency:    1.1207495291
  - # 5
    frequency:    1.1346747695
  - # 6
    frequency:    3.2258788653
  - # 7
    frequency:    3.2972621119
  - # 8
    frequency:    4.4709125018
  - # 9
    frequency:    5.3562413563
  - # 10
    frequency:    5.3941774475
  - # 11
    frequency:    6.3344541014
  - # 12
    frequency:    6.4769855479
  - # 13
    frequency:    6.6011021453
  - # 14
    frequency:    8.4813296919
  - # 15
    frequency:   10.7944660263
  - # 16
    frequency:   11.5129371476
  - # 17
    frequency:   11.5713737083
  - # 18
    frequency:   14.2803003218
  - # 19
    frequency:   14.2990849736
  - # 20
    frequency:   26.7427729846
  - # 21
    frequency:   58.0040284577

- q-position: [    0.0656566,    0.0000000,    0.0000000 ]
  distance:    0.0210488
  band:
  - # 1
    frequency:   -0.6617209244
  - # 2
    frequency:   -0.5334645116
  - # 3
    frequency:    0.3020011923
  - # 4
    frequency:    1.1925509935
  - # 5
    frequency:    1.2055300114
  - # 6
    frequency:    3.2245933978
  - # 7
    frequency:    3.3070738958
  - # 8
    frequency:    4.4668951610
  - # 9
    frequency:    5.3544722949
  - # 10
    frequency:    5.3981125731
  - # 11
    frequency:    6.3182233154
  - # 12
    frequency:    6.4755962690
  - # 13
    frequency:    6.6066913909
  - # 14
    frequency:    8.4665100254
  - # 15
    frequency:   10.7944766453
  - # 16
    frequency:   11.4930822827
  - # 17
    frequency:   11.5612097975
  - # 18
    frequency:   14.2823512585
  - # 19
    frequency:   14.3043113221
  - # 20
    frequency:   26.7413652877
  - # 21
    frequency:   57.9829995684

- q-position: [    0.0707071,    0.0000000,    0.0000000 ]
  distance:    0.0226679
  band:
  - # 1
    frequency:   -0.6410852923
  - # 2
    frequency:   -0.4962216559
  - # 3
    frequency:    0.3614477042
  - # 4
    frequency:    1.2631387252
  - # 5
    frequency:    1.2747895344
  - # 6
    frequency:    3.2234192901
  - # 7
    frequency:    3.3174624807
  - # 8
    frequency:    4.4627597918
  - # 9
    frequency:    5.3526567474
  - # 10
    frequency:    5.4021845800
  - # 11
    frequency:    6.3016622957
  - # 12
    frequency:    6.4740595626
  - # 13
    frequency:    6.6119835916
  - # 14
    frequency:    8.4506783443
  - # 15
    frequency:   10.7942911848
  - # 16
    frequency:   11.4718582911
  - # 17
    frequency:   11.5502696763
  - # 18
    frequency:   14.2845281200
  - # 19
    frequency:   14.3098890866
  - # 20
    frequency:   26.7398527309
  - # 21
    frequency:   57.9604753152

- q-position: [    0.0757576,    0.0000000,    0.0000000 ]
  distance:    0.0242870
  band:
  - # 1
    frequency:   -0.6153936911
  - # 2
    frequency:   -0.4560947950
  - # 3
    frequency:    0.4279125365
  - # 4
    frequency:    1.3326190260
  - # 5
    frequency:    1.3425088364
  - # 6
    frequency:    3.2224070449
  - # 7
    frequency:    3.3283847600
  - # 8
    frequency:    4.4585481810
  - # 9
    frequency:    5.3508111560
  - # 10
    frequency:    5.4063567188
  - # 11
    frequency:    6.2847925935
  - # 12
    frequency:    6.4723689599
  - # 13
    frequency:    6.6170086633
  - # 14
    frequency:    8.4338720543
  - # 15
    frequency:   10.7938518197
  - # 16
    frequency:   11.4493326857
  - # 17
    frequency:   11.5385613571
  - # 18
    frequency:   14.2868226204
  - # 19
    frequency:   14.3158034061
  - # 20
    frequency:   26.7382371311
  - # 21
    frequency:   57.9364972323

- q-position: [    0.0808081,    0.0000000,    0.0000000 ]
  distance:    0.0259062
  band:
  - # 1
    frequency:   -0.5841681331
  - # 2
    frequency:   -0.4138616077
  - # 3
    frequency:    0.5003170072
  - # 4
    frequency:    1.4010707130
  - # 5
    frequency:    1.4087184330
  - # 6
    frequency:    3.2216107595
  - # 7
    frequency:    3.3397957473
  - # 8
    frequency:    4.4543035699
  - # 9
    frequency:    5.3489514458
  - # 10
    frequency:    5.4105915663
  - # 11
    frequency:    6.2676359003
  - # 12
    frequency:    6.4705181600
  - # 13
    frequency:    6.6217996210
  - # 14
    frequency:    8.4161305096
  - # 15
    frequency:   10.7930899564
  - # 16
    frequency:   11.4255859760
  - # 17
    frequency:   11.5260932613
  - # 18
    frequency:   14.2892260588
  - # 19
    frequency:   14.3220385337
  - # 20
    frequency:   26.7365204475
  - # 21
    frequency:   57.9111093468

- q-position: [    0.0858586,    0.0000000,    0.0000000 ]
  distance:    0.0275253
  band:
  - # 1
    frequency:   -0.5466678646
  - # 2
    frequency:   -0.3691809591
  - # 3
    frequency:    0.5769835250
  - # 4
    frequency:    1.4685504269
  - # 5
    frequency:    1.4734306467
  - # 6
    frequency:    3.2210878335
  - # 7
    frequency:    3.3516486630
  - # 8
    frequency:    4.4500703964
  - # 9
    frequency:    5.3470927874
  - # 10
    frequency:    5.4148516907
  - # 11
    frequency:    6.2502140267
  - # 12
    frequency:    6.4685011432
  - # 13
    frequency:    6.6263922529
  - # 14
    frequency:    8.3974948897
  - # 15
    frequency:   10.7919237181
  - # 16
    frequency:   11.4007144360
  - # 17
    frequency:   11.5128741802
  - # 18
    frequency:   14.2917293644
  - # 19
    frequency:   14.3285778900
  - # 20
    frequency:   26.7347047828
  - # 21
    frequency:   57.8843580595

- q-position: [    0.0909091,    0.0000000,    0.0000000 ]
  distance:    0.0291445
  band:
  - # 1
    frequency:   -0.5017171216
  - # 2
    frequency:   -0.3200217315
  - # 3
    frequency:    0.6561823417
  - # 4
    frequency:    1.5350963753
  - # 5
    frequency:    1.5366447299
  - # 6
    frequency:    3.2208985759
  - # 7
    frequency:    3.3638949913
  - # 8
    frequency:    4.4458940345
  - # 9
    frequency:    5.3452493810
  - # 10
    frequency:    5.4191004307
  - # 11
    frequency:    6.2325487944
  - # 12
    frequency:    6.4663122832
  - # 13
    frequency:    6.6308247956
  - # 14
    frequency:    8.3780080738
  - # 15
    frequency:   10.7902547763
  - # 16
    frequency:   11.3748335290
  - # 17
    frequency:   11.4989132357
  - # 18
    frequency:   14.2943231449
  - # 19
    frequency:   14.3354041205
  - # 20
    frequency:   26.7327923840
  - # 21
    frequency:   57.8562920192

- q-position: [    0.0959596,    0.0000000,    0.0000000 ]
  distance:    0.0307636
  band:
  - # 1
    frequency:   -0.4473359068
  - # 2
    frequency:   -0.2617498100
  - # 3
    frequency:    0.7365417529
  - # 4
    frequency:    1.5983508339
  - # 5
    frequency:    1.6007309799
  - # 6
    frequency:    3.2211056990
  - # 7
    frequency:    3.3764845120
  - # 8
    frequency:    4.4418205244
  - # 9
    frequency:    5.3434342655
  - # 10
    frequency:    5.4233027917
  - # 11
    frequency:    6.2146618583
  - # 12
    frequency:    6.4639464590
  - # 13
    frequency:    6.6351375901
  - # 14
    frequency:    8.3577145107
  - # 15
    frequency:   10.7879644271
  - # 16
    frequency:   11.3480820845
  - # 17
    frequency:   11.4842198385
  - # 18
    frequency:   14.2969977373
  - # 19
    frequency:   14.3424991587
  - # 20
    frequency:   26.7307856420
  - # 21
    frequency:   57.8269619914

- q-position: [    0.1010101,    0.0000000,    0.0000000 ]
  distance:    0.0323827
  band:
  - # 1
    frequency:   -0.3798036146
  - # 2
    frequency:   -0.1827023186
  - # 3
    frequency:    0.8171468160
  - # 4
    frequency:    1.6585331681
  - # 5
    frequency:    1.6654627453
  - # 6
    frequency:    3.2217736924
  - # 7
    frequency:    3.3893653131
  - # 8
    frequency:    4.4378962923
  - # 9
    frequency:    5.3416591564
  - # 10
    frequency:    5.4274264580
  - # 11
    frequency:    6.1965744741
  - # 12
    frequency:    6.4613991646
  - # 13
    frequency:    6.6393727056
  - # 14
    frequency:    8.3366600812
  - # 15
    frequency:   10.7849088756
  - # 16
    frequency:   11.3206272659
  - # 17
    frequency:   11.4688036458
  - # 18
    frequency:   14.2997432628
  - # 19
    frequency:   14.3498442922
  - # 20
    frequency:   26.7286870923
  - # 21
    frequency:   57.7964207219

- q-position: [    0.1060606,    0.0000000,    0.0000000 ]
  distance:    0.0340019
  band:
  - # 1
    frequency:   -0.2904890614
  - # 2
    frequency:    0.0639349022
  - # 3
    frequency:    0.8974500431
  - # 4
    frequency:    1.7171725825
  - # 5
    frequency:    1.7292875696
  - # 6
    frequency:    3.2229680683
  - # 7
    frequency:    3.4024837935
  - # 8
    frequency:    4.4341678494
  - # 9
    frequency:    5.3399343145
  - # 10
    frequency:    5.4314429105
  - # 11
    frequency:    6.1783072265
  - # 12
    frequency:    6.4586666152
  - # 13
    frequency:    6.6435735226
  - # 14
    frequency:    8.3148919516
  - # 15
    frequency:   10.7809138346
  - # 16
    frequency:   11.2926702197
  - # 17
    frequency:   11.4526745179
  - # 18
    frequency:   14.3025496831
  - # 19
    frequency:   14.3574202333
  - # 20
    frequency:   26.7264994140
  - # 21
    frequency:   57.7647227944

- q-position: [    0.1111111,    0.0000000,    0.0000000 ]
  distance:    0.0356210
  band:
  - # 1
    frequency:   -0.1440523276
  - # 2
    frequency:    0.2117432423
  - # 3
    frequency:    0.9771442818
  - # 4
    frequency:    1.7742487364
  - # 5
    frequency:    1.7921896510
  - # 6
    frequency:    3.2247544795
  - # 7
    frequency:    3.4157846681
  - # 8
    frequency:    4.4306814645
  - # 9
    frequency:    5.3382684484
  - # 10
    frequency:    5.4353286333
  - # 11
    frequency:    6.1598797376
  - # 12
    frequency:    6.4557458492
  - # 13
    frequency:    6.6477842712
  - # 14
    frequency:    8.2924584144
  - # 15
    frequency:   10.7757688606
  - # 16
    frequency:   11.2644519823
  - # 17
    frequency:   11.4358424753
  - # 18
    frequency:   14.3054068590
  - # 19
    frequency:   14.3652071932
  - # 20
    frequency:   26.7242254291
  - # 21
    frequency:   57.7319244844

- q-position: [    0.1161616,    0.0000000,    0.0000000 ]
  distance:    0.0372401
  band:
  - # 1
    frequency:    0.2154129105
  - # 2
    frequency:    0.2994344989
  - # 3
    frequency:    1.0560628948
  - # 4
    frequency:    1.8297419625
  - # 5
    frequency:    1.8541421074
  - # 6
    frequency:    3.2271977120
  - # 7
    frequency:    3.4292109863
  - # 8
    frequency:    4.4274827995
  - # 9
    frequency:    5.3366686504
  - # 10
    frequency:    5.4390663797
  - # 11
    frequency:    6.1413103760
  - # 12
    frequency:    6.4526348250
  - # 13
    frequency:    6.6520495234
  - # 14
    frequency:    8.2694087158
  - # 15
    frequency:   10.7692224087
  - # 16
    frequency:   11.2362586611
  - # 17
    frequency:   11.4183176561
  - # 18
    frequency:   14.3083046112
  - # 19
    frequency:   14.3731849583
  - # 20
    frequency:   26.7218681010
  - # 21
    frequency:   57.6980836090

- q-position: [    0.1212121,    0.0000000,    0.0000000 ]
  distance:    0.0388593
  band:
  - # 1
    frequency:    0.3418038572
  - # 2
    frequency:    0.3731559239
  - # 3
    frequency:    1.1341157729
  - # 4
    frequency:    1.8836348990
  - # 5
    frequency:    1.9151073976
  - # 6
    frequency:    3.2303605647
  - # 7
    frequency:    3.4427041816
  - # 8
    frequency:    4.4246164969
  - # 9
    frequency:    5.3351403671
  - # 10
    frequency:    5.4426464602
  - # 11
    frequency:    6.1226159966
  - # 12
    frequency:    6.4493325102
  - # 13
    frequency:    6.6564136419
  - # 14
    frequency:    8.2457928670
  - # 15
    frequency:   10.7609794801
  - # 16
    frequency:   11.2084240116
  - # 17
    frequency:   11.4001102740
  - # 18
    frequency:   14.3112327809
  - # 19
    frequency:   14.3813329700
  - # 20
    frequency:   26.7194305326
  - # 21
    frequency:   57.6632593723

- q-position: [    0.1262626,    0.0000000,    0.0000000 ]
  distance:    0.0404784
  band:
  - # 1
    frequency:    0.4362110776
  - # 2
    frequency:    0.4406537025
  - # 3
    frequency:    1.2112520394
  - # 4
    frequency:    1.9359139353
  - # 5
    frequency:    1.9750376173
  - # 6
    frequency:    3.2343026368
  - # 7
    frequency:    3.4562041680
  - # 8
    frequency:    4.4221257069
  - # 9
    frequency:    5.3336874036
  - # 10
    frequency:    5.4460680016
  - # 11
    frequency:    6.1038117405
  - # 12
    frequency:    6.4458389638
  - # 13
    frequency:    6.6609201914
  - # 14
    frequency:    8.2216614407
  - # 15
    frequency:   10.7507048774
  - # 16
    frequency:   11.1813263972
  - # 17
    frequency:   11.3812305788
  - # 18
    frequency:   14.3141812925
  - # 19
    frequency:   14.3896304051
  - # 20
    frequency:   26.7169159638
  - # 21
    frequency:   57.6275122089

- q-position: [    0.1313131,    0.0000000,    0.0000000 ]
  distance:    0.0420976
  band:
  - # 1
    frequency:    0.5049415234
  - # 2
    frequency:    0.5162368434
  - # 3
    frequency:    1.2874394364
  - # 4
    frequency:    1.9865704881
  - # 5
    frequency:    2.0338747335
  - # 6
    frequency:    3.2390790541
  - # 7
    frequency:    3.4696495021
  - # 8
    frequency:    4.4200515413
  - # 9
    frequency:    5.3323119616
  - # 10
    frequency:    5.4493401181
  - # 11
    frequency:    6.0849109296
  - # 12
    frequency:    6.4421554079
  - # 13
    frequency:    6.6656113221
  - # 14
    frequency:    8.1970653515
  - # 15
    frequency:   10.7380360038
  - # 16
    frequency:   11.1553761874
  - # 17
    frequency:   11.3616888193
  - # 18
    frequency:   14.3171402146
  - # 19
    frequency:   14.3980562580
  - # 20
    frequency:   26.7143277681
  - # 21
    frequency:   57.5909036237

- q-position: [    0.1363636,    0.0000000,    0.0000000 ]
  distance:    0.0437167
  band:
  - # 1
    frequency:    0.5675114157
  - # 2
    frequency:    0.5875674865
  - # 3
    frequency:    1.3626533837
  - # 4
    frequency:    2.0356021100
  - # 5
    frequency:    2.0915508149
  - # 6
    frequency:    3.2447391759
  - # 7
    frequency:    3.4829776275
  - # 8
    frequency:    4.4184324426
  - # 9
    frequency:    5.3310147078
  - # 10
    frequency:    5.4524829248
  - # 11
    frequency:    6.0659250921
  - # 12
    frequency:    6.4382842905
  - # 13
    frequency:    6.6705271399
  - # 14
    frequency:    8.1720556227
  - # 15
    frequency:   10.7226087429
  - # 16
    frequency:   11.1309900585
  - # 17
    frequency:   11.3414952086
  - # 18
    frequency:   14.3200998211
  - # 19
    frequency:   14.4065894233
  - # 20
    frequency:   26.7116694487
  - # 21
    frequency:   57.5534960302

- q-position: [    0.1414141,    0.0000000,    0.0000000 ]
  distance:    0.0453358
  band:
  - # 1
    frequency:    0.6291944938
  - # 2
    frequency:    0.6528610711
  - # 3
    frequency:    1.4368714512
  - # 4
    frequency:    2.0830134091
  - # 5
    frequency:    2.1479883125
  - # 6
    frequency:    3.2513253379
  - # 7
    frequency:    3.4961252210
  - # 8
    frequency:    4.4173034559
  - # 9
    frequency:    5.3297948711
  - # 10
    frequency:    5.4555283200
  - # 11
    frequency:    6.0468641527
  - # 12
    frequency:    6.4342293345
  - # 13
    frequency:    6.6757050795
  - # 14
    frequency:    8.1466831426
  - # 15
    frequency:   10.7040967181
  - # 16
    frequency:   11.1085518912
  - # 17
    frequency:   11.3206598948
  - # 18
    frequency:   14.3230506504
  - # 19
    frequency:   14.4152087783
  - # 20
    frequency:   26.7089446341
  - # 21
    frequency:   57.5153525874

- q-position: [    0.1464646,    0.0000000,    0.0000000 ]
  distance:    0.0469550
  band:
  - # 1
    frequency:    0.6904833492
  - # 2
    frequency:    0.7135943361
  - # 3
    frequency:    1.5100707976
  - # 4
    frequency:    2.1288167501
  - # 5
    frequency:    2.2031004466
  - # 6
    frequency:    3.2588716927
  - # 7
    frequency:    3.5090286543
  - # 8
    frequency:    4.4166953982
  - # 9
    frequency:    5.3286503674
  - # 10
    frequency:    5.4585204567
  - # 11
    frequency:    6.0277368176
  - # 12
    frequency:    6.4299955754
  - # 13
    frequency:    6.6811793001
  - # 14
    frequency:    8.1209984130
  - # 15
    frequency:   10.6822577019
  - # 16
    frequency:   11.0883664909
  - # 17
    frequency:   11.2991929354
  - # 18
    frequency:   14.3259835624
  - # 19
    frequency:   14.4238932646
  - # 20
    frequency:   26.7061570728
  - # 21
    frequency:   57.4765370354

- q-position: [    0.1515152,    0.0000000,    0.0000000 ]
  distance:    0.0485741
  band:
  - # 1
    frequency:    0.7516775898
  - # 2
    frequency:    0.7706765422
  - # 3
    frequency:    1.5822271998
  - # 4
    frequency:    2.1730326938
  - # 5
    frequency:    2.2567917513
  - # 6
    frequency:    3.2674032195
  - # 7
    frequency:    3.5216245839
  - # 8
    frequency:    4.4166339224
  - # 9
    frequency:    5.3275779456
  - # 10
    frequency:    5.4615158294
  - # 11
    frequency:    6.0085511790
  - # 12
    frequency:    6.4255893839
  - # 13
    frequency:    6.6869801246
  - # 14
    frequency:    8.0950512973
  - # 15
    frequency:   10.6569739320
  - # 16
    frequency:   11.0706193703
  - # 17
    frequency:   11.2771042782
  - # 18
    frequency:   14.3288897923
  - # 19
    frequency:   14.4326219687
  - # 20
    frequency:   26.7033106271
  - # 21
    frequency:   57.4371135307
