nqpoint: 300    
npath: 3      
segment_nqpoint:
- 100
- 100
- 100
labels:
- [ 'G', 'M' ]
- [ 'M', 'K' ]
- [ 'K', 'G' ]
reciprocal_lattice:
- [   0.27896301,   0.16105937,   0.00000000 ] # a*
- [   0.00000000,   0.32211874,   0.00000000 ] # b*
- [   0.00000000,   0.00000000,   0.04110563 ] # c*
natom: 6      
lattice:
- [     3.584704620267457,     0.000000000000000,     0.000000000000000 ] # a
- [    -1.792352310133729,     3.104445266216256,     0.000000000000000 ] # b
- [     0.000000000000000,     0.000000000000000,    24.327565156164955 ] # c
points:
- symbol: F # 1
  coordinates: [  0.666666984744047,  0.333332985985145,  0.369950709913905 ]
  mass: 18.998403
- symbol: N # 2
  coordinates: [  0.000000000000000,  0.000000000000000,  0.465565110909225 ]
  mass: 14.006700
- symbol: N # 3
  coordinates: [  0.333332985432215,  0.666666983183674,  0.575059563502722 ]
  mass: 14.006700
- symbol: O # 4
  coordinates: [  0.333332985432215,  0.666666983183674,  0.630049290086095 ]
  mass: 15.999400
- symbol: Y # 5
  coordinates: [  0.333332985432215,  0.666666983183674,  0.418814700958318 ]
  mass: 88.905850
- symbol: Y # 6
  coordinates: [  0.666666984744047,  0.333332985985145,  0.535388019753576 ]
  mass: 88.905850

phonon:
- q-position: [    0.0000000,    0.0000000,    0.0000000 ]
  distance:    0.0000000
  band:
  - # 1
    frequency:   -5.3569873972
  - # 2
    frequency:   -5.3569873972
  - # 3
    frequency:   -0.0000055710
  - # 4
    frequency:    0.0000001776
  - # 5
    frequency:    0.0000059220
  - # 6
    frequency:    2.2561604550
  - # 7
    frequency:    2.2561604550
  - # 8
    frequency:    4.8041147255
  - # 9
    frequency:    6.2772611603
  - # 10
    frequency:    6.2772611603
  - # 11
    frequency:    6.6323939170
  - # 12
    frequency:    9.8755966646
  - # 13
    frequency:    9.8755966646
  - # 14
    frequency:   10.0463604990
  - # 15
    frequency:   10.8486232490
  - # 16
    frequency:   10.8486232490
  - # 17
    frequency:   14.2676440026
  - # 18
    frequency:   37.6385145647

- q-position: [    0.0050505,    0.0000000,    0.0000000 ]
  distance:    0.0016269
  band:
  - # 1
    frequency:   -5.3565218058
  - # 2
    frequency:   -5.3554977117
  - # 3
    frequency:    0.0013953160
  - # 4
    frequency:    0.0490361588
  - # 5
    frequency:    0.0925273798
  - # 6
    frequency:    2.2566532409
  - # 7
    frequency:    2.2581288172
  - # 8
    frequency:    4.8038510934
  - # 9
    frequency:    6.2734342018
  - # 10
    frequency:    6.2771973098
  - # 11
    frequency:    6.6364544354
  - # 12
    frequency:    9.8756052000
  - # 13
    frequency:    9.8772598042
  - # 14
    frequency:   10.0465156806
  - # 15
    frequency:   10.8486311345
  - # 16
    frequency:   10.8490737237
  - # 17
    frequency:   14.2671426637
  - # 18
    frequency:   37.6378186236

- q-position: [    0.0101010,    0.0000000,    0.0000000 ]
  distance:    0.0032537
  band:
  - # 1
    frequency:   -5.3551251980
  - # 2
    frequency:   -5.3510329100
  - # 3
    frequency:    0.0055452439
  - # 4
    frequency:    0.0980270505
  - # 5
    frequency:    0.1849920694
  - # 6
    frequency:    2.2581322421
  - # 7
    frequency:    2.2640171013
  - # 8
    frequency:    4.8030617935
  - # 9
    frequency:    6.2624945441
  - # 10
    frequency:    6.2770060359
  - # 11
    frequency:    6.6480874256
  - # 12
    frequency:    9.8756303434
  - # 13
    frequency:    9.8820723618
  - # 14
    frequency:   10.0471548985
  - # 15
    frequency:   10.8486553019
  - # 16
    frequency:   10.8504236621
  - # 17
    frequency:   14.2656411712
  - # 18
    frequency:   37.6357319822

- q-position: [    0.0151515,    0.0000000,    0.0000000 ]
  distance:    0.0048806
  band:
  - # 1
    frequency:   -5.3527980769
  - # 2
    frequency:   -5.3436057473
  - # 3
    frequency:    0.0124159775
  - # 4
    frequency:    0.1469276609
  - # 5
    frequency:    0.2773305431
  - # 6
    frequency:    2.2605993656
  - # 7
    frequency:    2.2737757160
  - # 8
    frequency:    4.8017515934
  - # 9
    frequency:    6.2457786867
  - # 10
    frequency:    6.2766881710
  - # 11
    frequency:    6.6659347838
  - # 12
    frequency:    9.8756707100
  - # 13
    frequency:    9.8894637687
  - # 14
    frequency:   10.0488384656
  - # 15
    frequency:   10.8486972827
  - # 16
    frequency:   10.8526690204
  - # 17
    frequency:   14.2631470886
  - # 18
    frequency:   37.6322581833

- q-position: [    0.0202020,    0.0000000,    0.0000000 ]
  distance:    0.0065074
  band:
  - # 1
    frequency:   -5.3495412969
  - # 2
    frequency:   -5.3332374512
  - # 3
    frequency:    0.0219411846
  - # 4
    frequency:    0.1956934853
  - # 5
    frequency:    0.3694775992
  - # 6
    frequency:    2.2640577082
  - # 7
    frequency:    2.2873246491
  - # 8
    frequency:    4.7999283668
  - # 9
    frequency:    6.2248546081
  - # 10
    frequency:    6.2762450977
  - # 11
    frequency:    6.6883939520
  - # 12
    frequency:    9.8757240056
  - # 13
    frequency:    9.8983667829
  - # 14
    frequency:   10.0526142432
  - # 15
    frequency:   10.8487596214
  - # 16
    frequency:   10.8558044444
  - # 17
    frequency:   14.2596729895
  - # 18
    frequency:   37.6274031219

- q-position: [    0.0252525,    0.0000000,    0.0000000 ]
  distance:    0.0081343
  band:
  - # 1
    frequency:   -5.3453560858
  - # 2
    frequency:   -5.3199576735
  - # 3
    frequency:    0.0340322751
  - # 4
    frequency:    0.2442807867
  - # 5
    frequency:    0.4613655251
  - # 6
    frequency:    2.2685114355
  - # 7
    frequency:    2.3045571681
  - # 8
    frequency:    4.7976029879
  - # 9
    frequency:    6.2011221131
  - # 10
    frequency:    6.2756787431
  - # 11
    frequency:    6.7140196126
  - # 12
    frequency:    9.8757870458
  - # 13
    frequency:    9.9071483309
  - # 14
    frequency:   10.0600834217
  - # 15
    frequency:   10.8488458650
  - # 16
    frequency:   10.8598253778
  - # 17
    frequency:   14.2552364107
  - # 18
    frequency:   37.6211750306

- q-position: [    0.0303030,    0.0000000,    0.0000000 ]
  distance:    0.0097612
  band:
  - # 1
    frequency:   -5.3402440769
  - # 2
    frequency:   -5.3038044236
  - # 3
    frequency:    0.0485822003
  - # 4
    frequency:    0.2926468583
  - # 5
    frequency:    0.5529232651
  - # 6
    frequency:    2.2739656144
  - # 7
    frequency:    2.3253445264
  - # 8
    frequency:    4.7947891883
  - # 9
    frequency:    6.1756792385
  - # 10
    frequency:    6.2749915698
  - # 11
    frequency:    6.7416599494
  - # 12
    frequency:    9.8758557842
  - # 13
    frequency:    9.9138290926
  - # 14
    frequency:   10.0731762785
  - # 15
    frequency:   10.8489605474
  - # 16
    frequency:   10.8647311064
  - # 17
    frequency:   14.2498597849
  - # 18
    frequency:   37.6135844594

- q-position: [    0.0353535,    0.0000000,    0.0000000 ]
  distance:    0.0113880
  band:
  - # 1
    frequency:   -5.3342073491
  - # 2
    frequency:   -5.2848239805
  - # 3
    frequency:    0.0654696608
  - # 4
    frequency:    0.3407502923
  - # 5
    frequency:    0.6440755975
  - # 6
    frequency:    2.2804260001
  - # 7
    frequency:    2.3495412920
  - # 8
    frequency:    4.7915033817
  - # 9
    frequency:    6.1493408117
  - # 10
    frequency:    6.2741865650
  - # 11
    frequency:    6.7704412064
  - # 12
    frequency:    9.8759253467
  - # 13
    frequency:    9.9167803355
  - # 14
    frequency:   10.0934493977
  - # 15
    frequency:   10.8491091693
  - # 16
    frequency:   10.8705288918
  - # 17
    frequency:   14.2435703569
  - # 18
    frequency:   37.6046442493

- q-position: [    0.0404040,    0.0000000,    0.0000000 ]
  distance:    0.0130149
  band:
  - # 1
    frequency:   -5.3272484740
  - # 2
    frequency:   -5.2630707833
  - # 3
    frequency:    0.0845634003
  - # 4
    frequency:    0.3885512526
  - # 5
    frequency:    0.7347423307
  - # 6
    frequency:    2.2878987822
  - # 7
    frequency:    2.3769909146
  - # 8
    frequency:    4.7877644608
  - # 9
    frequency:    6.1227023335
  - # 10
    frequency:    6.2732672276
  - # 11
    frequency:    6.7997071731
  - # 12
    frequency:    9.8759900732
  - # 13
    frequency:    9.9153977721
  - # 14
    frequency:   10.1214044447
  - # 15
    frequency:   10.8492981742
  - # 16
    frequency:   10.8772394974
  - # 17
    frequency:   14.2364000804
  - # 18
    frequency:   37.5943695011

- q-position: [    0.0454545,    0.0000000,    0.0000000 ]
  distance:    0.0146418
  band:
  - # 1
    frequency:   -5.3193705719
  - # 2
    frequency:   -5.2386072993
  - # 3
    frequency:    0.1057262954
  - # 4
    frequency:    0.4360117518
  - # 5
    frequency:    0.8248375346
  - # 6
    frequency:    2.2963902909
  - # 7
    frequency:    2.4075311820
  - # 8
    frequency:    4.7835935751
  - # 9
    frequency:    6.0962015366
  - # 10
    frequency:    6.2722375534
  - # 11
    frequency:    6.8289610340
  - # 12
    frequency:    9.8760435659
  - # 13
    frequency:    9.9100122486
  - # 14
    frequency:   10.1565683238
  - # 15
    frequency:   10.8495349198
  - # 16
    frequency:   10.8849046374
  - # 17
    frequency:   14.2283854984
  - # 18
    frequency:   37.5827775382

- q-position: [    0.0505051,    0.0000000,    0.0000000 ]
  distance:    0.0162686
  band:
  - # 1
    frequency:   -5.3105773733
  - # 2
    frequency:   -5.2115038670
  - # 3
    frequency:    0.1288190200
  - # 4
    frequency:    0.4830959312
  - # 5
    frequency:    0.9142688287
  - # 6
    frequency:    2.3059066703
  - # 7
    frequency:    2.4409992844
  - # 8
    frequency:    4.7790138943
  - # 9
    frequency:    6.0701653930
  - # 10
    frequency:    6.2711020183
  - # 11
    frequency:    6.8578216052
  - # 12
    frequency:    9.8760787430
  - # 13
    frequency:    9.9013158527
  - # 14
    frequency:   10.1980554000
  - # 15
    frequency:   10.8498276458
  - # 16
    frequency:   10.8935972446
  - # 17
    frequency:   14.2195676072
  - # 18
    frequency:   37.5698878635

- q-position: [    0.0555556,    0.0000000,    0.0000000 ]
  distance:    0.0178955
  band:
  - # 1
    frequency:   -5.3008732862
  - # 2
    frequency:   -5.1818385144
  - # 3
    frequency:    0.1537031452
  - # 4
    frequency:    0.5297703388
  - # 5
    frequency:    1.0029367595
  - # 6
    frequency:    2.3164535220
  - # 7
    frequency:    2.4772362802
  - # 8
    frequency:    4.7740503672
  - # 9
    frequency:    6.0448432226
  - # 10
    frequency:    6.2698655605
  - # 11
    frequency:    6.8859931252
  - # 12
    frequency:    9.8760878975
  - # 13
    frequency:    9.8899629380
  - # 14
    frequency:   10.2449509782
  - # 15
    frequency:   10.8501854368
  - # 16
    frequency:   10.9034359992
  - # 17
    frequency:   14.2099917043
  - # 18
    frequency:   37.5557221118

- q-position: [    0.0606061,    0.0000000,    0.0000000 ]
  distance:    0.0195223
  band:
  - # 1
    frequency:   -5.2902634689
  - # 2
    frequency:   -5.1496967485
  - # 3
    frequency:    0.1802436118
  - # 4
    frequency:    0.5760042028
  - # 5
    frequency:    1.0907343095
  - # 6
    frequency:    2.3280355276
  - # 7
    frequency:    2.5160908274
  - # 8
    frequency:    4.7687294814
  - # 9
    frequency:    6.0204294178
  - # 10
    frequency:    6.2685335614
  - # 11
    frequency:    6.9132449399
  - # 12
    frequency:    9.8760627607
  - # 13
    frequency:    9.8764555088
  - # 14
    frequency:   10.2964044414
  - # 15
    frequency:   10.8506181821
  - # 16
    frequency:   10.9146063736
  - # 17
    frequency:   14.1997072238
  - # 18
    frequency:   37.5403039969

- q-position: [    0.0656566,    0.0000000,    0.0000000 ]
  distance:    0.0211492
  band:
  - # 1
    frequency:   -5.2787539067
  - # 2
    frequency:   -5.1151713163
  - # 3
    frequency:    0.2083105774
  - # 4
    frequency:    0.6217696948
  - # 5
    frequency:    1.1775465938
  - # 6
    frequency:    2.3406560571
  - # 7
    frequency:    2.5574221019
  - # 8
    frequency:    4.7630790328
  - # 9
    frequency:    5.9970790187
  - # 10
    frequency:    6.2671118255
  - # 11
    frequency:    6.9393977442
  - # 12
    frequency:    9.8611566379
  - # 13
    frequency:    9.8759945696
  - # 14
    frequency:   10.3515851103
  - # 15
    frequency:   10.8511365311
  - # 16
    frequency:   10.9273915108
  - # 17
    frequency:   14.1887675587
  - # 18
    frequency:   37.5236592529

- q-position: [    0.0707071,    0.0000000,    0.0000000 ]
  distance:    0.0227761
  band:
  - # 1
    frequency:   -5.2663514907
  - # 2
    frequency:   -5.0783619344
  - # 3
    frequency:    0.2377806836
  - # 4
    frequency:    0.6670421750
  - # 5
    frequency:    1.2632508117
  - # 6
    frequency:    2.3543167723
  - # 7
    frequency:    2.6011018654
  - # 8
    frequency:    4.7571279126
  - # 9
    frequency:    5.9749184911
  - # 10
    frequency:    6.2656065595
  - # 11
    frequency:    6.9643139789
  - # 12
    frequency:    9.8443296213
  - # 13
    frequency:    9.8758741361
  - # 14
    frequency:   10.4095987956
  - # 15
    frequency:   10.8517518461
  - # 16
    frequency:   10.9422172695
  - # 17
    frequency:   14.1772298733
  - # 18
    frequency:   37.5058155716

- q-position: [    0.0757576,    0.0000000,    0.0000000 ]
  distance:    0.0244029
  band:
  - # 1
    frequency:   -5.2530640995
  - # 2
    frequency:   -5.0393749868
  - # 3
    frequency:    0.2685378205
  - # 4
    frequency:    0.7118004129
  - # 5
    frequency:    1.3477165330
  - # 6
    frequency:    2.3690172344
  - # 7
    frequency:    2.6470156673
  - # 8
    frequency:    4.7509059170
  - # 9
    frequency:    5.9540532794
  - # 10
    frequency:    6.2640243511
  - # 11
    frequency:    6.9878908010
  - # 12
    frequency:    9.8261710129
  - # 13
    frequency:    9.8756919197
  - # 14
    frequency:   10.4693930255
  - # 15
    frequency:   10.8524761503
  - # 16
    frequency:   10.9597152725
  - # 17
    frequency:   14.1651549092
  - # 18
    frequency:   37.4868025344

- q-position: [    0.0808081,    0.0000000,    0.0000000 ]
  distance:    0.0260298
  band:
  - # 1
    frequency:   -5.2389006811
  - # 2
    frequency:   -4.9983231888
  - # 3
    frequency:    0.3004734761
  - # 4
    frequency:    0.7560267746
  - # 5
    frequency:    1.4308064063
  - # 6
    frequency:    2.3847545290
  - # 7
    frequency:    2.6950631793
  - # 8
    frequency:    4.7444435881
  - # 9
    frequency:    5.9345731565
  - # 10
    frequency:    6.2623721480
  - # 11
    frequency:    7.0100546418
  - # 12
    frequency:    9.8068333140
  - # 13
    frequency:    9.8754381003
  - # 14
    frequency:   10.5296578408
  - # 15
    frequency:   10.8533220741
  - # 16
    frequency:   10.9808012166
  - # 17
    frequency:   14.1526067871
  - # 18
    frequency:   37.4666515408

- q-position: [    0.0858586,    0.0000000,    0.0000000 ]
  distance:    0.0276567
  band:
  - # 1
    frequency:   -5.2238713337
  - # 2
    frequency:   -4.9553252186
  - # 3
    frequency:    0.3334867622
  - # 4
    frequency:    0.7997073673
  - # 5
    frequency:    1.5123773780
  - # 6
    frequency:    2.4015229167
  - # 7
    frequency:    2.7451576662
  - # 8
    frequency:    4.7377720919
  - # 9
    frequency:    5.9165560288
  - # 10
    frequency:    6.2606572359
  - # 11
    frequency:    7.0307567595
  - # 12
    frequency:    9.7864396559
  - # 13
    frequency:    9.8751026519
  - # 14
    frequency:   10.5887458843
  - # 15
    frequency:   10.8543027973
  - # 16
    frequency:   11.0067422781
  - # 17
    frequency:   14.1396528082
  - # 18
    frequency:   37.4453957313

- q-position: [    0.0909091,    0.0000000,    0.0000000 ]
  distance:    0.0292835
  band:
  - # 1
    frequency:   -5.2079873851
  - # 2
    frequency:   -4.9105053150
  - # 3
    frequency:    0.3674842028
  - # 4
    frequency:    0.8428321329
  - # 5
    frequency:    1.5922824972
  - # 6
    frequency:    2.4193135222
  - # 7
    frequency:    2.7972246074
  - # 8
    frequency:    4.7309231383
  - # 9
    frequency:    5.9000706229
  - # 10
    frequency:    6.2588872172
  - # 11
    frequency:    7.0499694442
  - # 12
    frequency:    9.7650932086
  - # 13
    frequency:    9.8746754156
  - # 14
    frequency:   10.6446884063
  - # 15
    frequency:   10.8554319899
  - # 16
    frequency:   11.0391341423
  - # 17
    frequency:   14.1263632626
  - # 18
    frequency:   37.4230699071

- q-position: [    0.0959596,    0.0000000,    0.0000000 ]
  distance:    0.0309104
  band:
  - # 1
    frequency:   -5.1912614686
  - # 2
    frequency:   -4.8639928445
  - # 3
    frequency:    0.4023793592
  - # 4
    frequency:    0.8853948814
  - # 5
    frequency:    1.6703733560
  - # 6
    frequency:    2.4381140729
  - # 7
    frequency:    2.8511995012
  - # 8
    frequency:    4.7239289505
  - # 9
    frequency:    5.8851783332
  - # 10
    frequency:    6.2570699901
  - # 11
    frequency:    7.0676826923
  - # 12
    frequency:    9.7428832772
  - # 13
    frequency:    9.8741461718
  - # 14
    frequency:   10.6954428393
  - # 15
    frequency:   10.8567237494
  - # 16
    frequency:   11.0796499207
  - # 17
    frequency:   14.1128112472
  - # 18
    frequency:   37.3997104461

- q-position: [    0.1010101,    0.0000000,    0.0000000 ]
  distance:    0.0325372
  band:
  - # 1
    frequency:   -5.1737075939
  - # 2
    frequency:   -4.8159218407
  - # 3
    frequency:    0.4380923562
  - # 4
    frequency:    0.9273932574
  - # 5
    frequency:    1.7465031667
  - # 6
    frequency:    2.4579086950
  - # 7
    frequency:    2.9070249199
  - # 8
    frequency:    4.7168222889
  - # 9
    frequency:    5.8719344199
  - # 10
    frequency:    6.2552137281
  - # 11
    frequency:    7.0839012544
  - # 12
    frequency:    9.7198893376
  - # 13
    frequency:    9.8735047097
  - # 14
    frequency:   10.7394306424
  - # 15
    frequency:   10.8581925366
  - # 16
    frequency:   11.1295008891
  - # 17
    frequency:   14.0990725037
  - # 18
    frequency:   37.3753552144

- q-position: [    0.1060606,    0.0000000,    0.0000000 ]
  distance:    0.0341641
  band:
  - # 1
    frequency:   -5.1553412121
  - # 2
    frequency:   -4.7664305188
  - # 3
    frequency:    0.4745493586
  - # 4
    frequency:    0.9688286340
  - # 5
    frequency:    1.8205304136
  - # 6
    frequency:    2.4786777771
  - # 7
    frequency:    2.9646469331
  - # 8
    frequency:    4.7096365350
  - # 9
    frequency:    5.8603886896
  - # 10
    frequency:    6.2533268590
  - # 11
    frequency:    7.0986420174
  - # 12
    frequency:    9.6961837754
  - # 13
    frequency:    9.8727408949
  - # 14
    frequency:   10.7760872413
  - # 15
    frequency:   10.8598531095
  - # 16
    frequency:   11.1888863518
  - # 17
    frequency:   14.0852252827
  - # 18
    frequency:   37.3500434758

- q-position: [    0.1111111,    0.0000000,    0.0000000 ]
  distance:    0.0357910
  band:
  - # 1
    frequency:   -5.1361792730
  - # 2
    frequency:   -4.7156607728
  - # 3
    frequency:    0.5116820402
  - # 4
    frequency:    1.0097059294
  - # 5
    frequency:    1.8923229349
  - # 6
    frequency:    2.5003979049
  - # 7
    frequency:    3.0240110792
  - # 8
    frequency:    4.7024058432
  - # 9
    frequency:    5.8505857537
  - # 10
    frequency:    6.2514180452
  - # 11
    frequency:    7.1119317018
  - # 12
    frequency:    9.6718337950
  - # 13
    frequency:    9.8718447334
  - # 14
    frequency:   10.8059375349
  - # 15
    frequency:   10.8617204554
  - # 16
    frequency:   11.2569186070
  - # 17
    frequency:   14.0713502456
  - # 18
    frequency:   37.3238157971

- q-position: [    0.1161616,    0.0000000,    0.0000000 ]
  distance:    0.0374178
  band:
  - # 1
    frequency:   -5.1162402728
  - # 2
    frequency:   -4.6637576602
  - # 3
    frequency:    0.5494270717
  - # 4
    frequency:    1.0500333469
  - # 5
    frequency:    1.9617622106
  - # 6
    frequency:    2.5230418731
  - # 7
    frequency:    3.0850581311
  - # 8
    frequency:    4.6951653698
  - # 9
    frequency:    5.8425649428
  - # 10
    frequency:    6.2494961646
  - # 11
    frequency:    7.1238048678
  - # 12
    frequency:    9.6469027840
  - # 13
    frequency:    9.8708064323
  - # 14
    frequency:   10.8301453116
  - # 15
    frequency:   10.8638097217
  - # 16
    frequency:   11.3320743147
  - # 17
    frequency:   14.0575304158
  - # 18
    frequency:   37.2967139513

- q-position: [    0.1212121,    0.0000000,    0.0000000 ]
  distance:    0.0390447
  band:
  - # 1
    frequency:   -5.0955442921
  - # 2
    frequency:   -4.6108688851
  - # 3
    frequency:    0.5877256512
  - # 4
    frequency:    1.0898220392
  - # 5
    frequency:    2.0287475657
  - # 6
    frequency:    2.5465787714
  - # 7
    frequency:    3.1477199486
  - # 8
    frequency:    4.6879515888
  - # 9
    frequency:    5.8363599400
  - # 10
    frequency:    6.2475702902
  - # 11
    frequency:    7.1343022246
  - # 12
    frequency:    9.6214513094
  - # 13
    frequency:    9.8696164557
  - # 14
    frequency:   10.8499811750
  - # 15
    frequency:   10.8661361456
  - # 16
    frequency:   11.4127274386
  - # 17
    frequency:   14.0438511932
  - # 18
    frequency:   37.2687808183

- q-position: [    0.1262626,    0.0000000,    0.0000000 ]
  distance:    0.0406716
  band:
  - # 1
    frequency:   -5.0741130210
  - # 2
    frequency:   -4.5571442859
  - # 3
    frequency:    0.6265230899
  - # 4
    frequency:    1.1290857013
  - # 5
    frequency:    2.0931999594
  - # 6
    frequency:    2.5709741458
  - # 7
    frequency:    3.2119157247
  - # 8
    frequency:    4.6808027145
  - # 9
    frequency:    5.8319981922
  - # 10
    frequency:    6.2456496717
  - # 11
    frequency:    7.1434692315
  - # 12
    frequency:    9.5955378564
  - # 13
    frequency:    9.8682655772
  - # 14
    frequency:   10.8665272073
  - # 15
    frequency:   10.8687149825
  - # 16
    frequency:   11.4974453833
  - # 17
    frequency:   14.0304004470
  - # 18
    frequency:   37.2400602828

- q-position: [    0.1313131,    0.0000000,    0.0000000 ]
  distance:    0.0422984
  band:
  - # 1
    frequency:   -5.0519697714
  - # 2
    frequency:   -4.5027353396
  - # 3
    frequency:    0.6657684622
  - # 4
    frequency:    1.1678401007
  - # 5
    frequency:    2.1550650489
  - # 6
    frequency:    2.5961902275
  - # 7
    frequency:    3.2775489004
  - # 8
    frequency:    4.6737592529
  - # 9
    frequency:    5.8295001534
  - # 10
    frequency:    6.2437437160
  - # 11
    frequency:    7.1513549806
  - # 12
    frequency:    9.5692193824
  - # 13
    frequency:    9.8667449275
  - # 14
    frequency:   10.8715614335
  - # 15
    frequency:   10.8806053226
  - # 16
    frequency:   11.5850612799
  - # 17
    frequency:   14.0172687059
  - # 18
    frequency:   37.2105971315

- q-position: [    0.1363636,    0.0000000,    0.0000000 ]
  distance:    0.0439253
  band:
  - # 1
    frequency:   -5.0291394742
  - # 2
    frequency:   -4.4477946902
  - # 3
    frequency:    0.7054143253
  - # 4
    frequency:    1.2061025545
  - # 5
    frequency:    2.2143152762
  - # 6
    frequency:    2.6221862218
  - # 7
    frequency:    3.3445049296
  - # 8
    frequency:    4.6668647231
  - # 9
    frequency:    5.8288784157
  - # 10
    frequency:    6.2418619671
  - # 11
    frequency:    7.1580113402
  - # 12
    frequency:    9.5425517311
  - # 13
    frequency:    9.8650460375
  - # 14
    frequency:   10.8746905720
  - # 15
    frequency:   10.8928095486
  - # 16
    frequency:   11.6746421167
  - # 17
    frequency:   14.0045494654
  - # 18
    frequency:   37.1804369476

- q-position: [    0.1414141,    0.0000000,    0.0000000 ]
  distance:    0.0455521
  band:
  - # 1
    frequency:   -5.0056486615
  - # 2
    frequency:   -4.3924757121
  - # 3
    frequency:    0.7454165079
  - # 4
    frequency:    1.2438913651
  - # 5
    frequency:    2.2709508352
  - # 6
    frequency:    2.6489186487
  - # 7
    frequency:    3.4126499423
  - # 8
    frequency:    4.6601666056
  - # 9
    frequency:    5.8301367801
  - # 10
    frequency:    6.2400140865
  - # 11
    frequency:    7.1634923414
  - # 12
    frequency:    9.5155899374
  - # 13
    frequency:    9.8631608775
  - # 14
    frequency:   10.8781172694
  - # 15
    frequency:   10.9035626944
  - # 16
    frequency:   11.7654322193
  - # 17
    frequency:   13.9923396319
  - # 18
    frequency:   37.1496260045

- q-position: [    0.1464646,    0.0000000,    0.0000000 ]
  distance:    0.0471790
  band:
  - # 1
    frequency:   -4.9815254305
  - # 2
    frequency:   -4.3369321138
  - # 3
    frequency:    0.7857339670
  - # 4
    frequency:    1.2812252289
  - # 5
    frequency:    2.3249995021
  - # 6
    frequency:    2.6763417220
  - # 7
    frequency:    3.4818301847
  - # 8
    frequency:    4.6537176085
  - # 9
    frequency:    5.8332693187
  - # 10
    frequency:    6.2382098317
  - # 11
    frequency:    7.1678537840
  - # 12
    frequency:    9.4883884462
  - # 13
    frequency:    9.8610818921
  - # 14
    frequency:   10.8818561199
  - # 15
    frequency:   10.9131667458
  - # 16
    frequency:   11.8568027136
  - # 17
    frequency:   13.9807401263
  - # 18
    frequency:   37.1182111592

- q-position: [    0.1515152,    0.0000000,    0.0000000 ]
  distance:    0.0488059
  band:
  - # 1
    frequency:   -4.9567993909
  - # 2
    frequency:   -4.2813175890
  - # 3
    frequency:    0.8263287091
  - # 4
    frequency:    1.3181226321
  - # 5
    frequency:    2.3765154332
  - # 6
    frequency:    2.7044077558
  - # 7
    frequency:    3.5518719402
  - # 8
    frequency:    4.6475773955
  - # 9
    frequency:    5.8382594775
  - # 10
    frequency:    6.2364590348
  - # 11
    frequency:    7.1711530399
  - # 12
    frequency:    9.4610012563
  - # 13
    frequency:    9.8588020312
  - # 14
    frequency:   10.8859213642
  - # 15
    frequency:   10.9218404566
  - # 16
    frequency:   11.9482134904
  - # 17
    frequency:   13.9698566648
  - # 18
    frequency:   37.0862397436

- q-position: [    0.1565657,    0.0000000,    0.0000000 ]
  distance:    0.0504327
  band:
  - # 1
    frequency:   -4.9315015935
  - # 2
    frequency:   -4.2257855162
  - # 3
    frequency:    0.8671657664
  - # 4
    frequency:    1.3546012480
  - # 5
    frequency:    2.4255771253
  - # 6
    frequency:    2.7330675862
  - # 7
    frequency:    3.6225814636
  - # 8
    frequency:    4.6418149942
  - # 9
    frequency:    5.8450792644
  - # 10
    frequency:    6.2347715781
  - # 11
    frequency:    7.1734490326
  - # 12
    frequency:    9.4334820043
  - # 13
    frequency:    9.8563147781
  - # 14
    frequency:   10.8903268123
  - # 15
    frequency:   10.9297456059
  - # 16
    frequency:   12.0391862002
  - # 17
    frequency:   13.9598007299
  - # 18
    frequency:   37.0537594572

- q-position: [    0.1616162,    0.0000000,    0.0000000 ]
  distance:    0.0520596
  band:
  - # 1
    frequency:   -4.9056644397
  - # 2
    frequency:   -4.1704887064
  - # 3
    frequency:    0.9082132231
  - # 4
    frequency:    1.3906773506
  - # 5
    frequency:    2.4722847781
  - # 6
    frequency:    2.7622709953
  - # 7
    frequency:    3.6937442892
  - # 8
    frequency:    4.6365122390
  - # 9
    frequency:    5.8536885579
  - # 10
    frequency:    6.2331573695
  - # 11
    frequency:    7.1748023705
  - # 12
    frequency:    9.4058839922
  - # 13
    frequency:    9.8536141748
  - # 14
    frequency:   10.8950857653
  - # 15
    frequency:   10.9370049156
  - # 16
    frequency:   12.1292852995
  - # 17
    frequency:   13.9506907334
  - # 18
    frequency:   37.0208182588

- q-position: [    0.1666667,    0.0000000,    0.0000000 ]
  distance:    0.0536865
  band:
  - # 1
    frequency:   -4.8793215721
  - # 2
    frequency:   -4.1155791934
  - # 3
    frequency:    0.9494422768
  - # 4
    frequency:    1.4263652562
  - # 5
    frequency:    2.5167573002
  - # 6
    frequency:    2.7919671280
  - # 7
    frequency:    3.7651230644
  - # 8
    frequency:    4.6317688082
  - # 9
    frequency:    5.8640345686
  - # 10
    frequency:    6.2316263154
  - # 11
    frequency:    7.1752756151
  - # 12
    frequency:    9.3782601696
  - # 13
    frequency:    9.8506948446
  - # 14
    frequency:   10.9002109358
  - # 15
    frequency:   10.9437142284
  - # 16
    frequency:   12.2181045826
  - # 17
    frequency:   13.9426533468
  - # 18
    frequency:   36.9874642591

- q-position: [    0.1717172,    0.0000000,    0.0000000 ]
  distance:    0.0553133
  band:
  - # 1
    frequency:   -4.8525077466
  - # 2
    frequency:   -4.0612080569
  - # 3
    frequency:    0.9908273243
  - # 4
    frequency:    1.4616768062
  - # 5
    frequency:    2.5591291683
  - # 6
    frequency:    2.8221048909
  - # 7
    frequency:    3.8364527638
  - # 8
    frequency:    4.6277097630
  - # 9
    frequency:    5.8760514708
  - # 10
    frequency:    6.2301882904
  - # 11
    frequency:    7.1749336665
  - # 12
    frequency:    9.3506630733
  - # 13
    frequency:    9.8475520135
  - # 14
    frequency:   10.9057143676
  - # 15
    frequency:   10.9499508266
  - # 16
    frequency:   12.3052573968
  - # 17
    frequency:   13.9358249422
  - # 18
    frequency:   36.9537456133

- q-position: [    0.1767677,    0.0000000,    0.0000000 ]
  distance:    0.0569402
  band:
  - # 1
    frequency:   -4.8252586860
  - # 2
    frequency:   -4.0075252649
  - # 3
    frequency:    1.0323460536
  - # 4
    frequency:    1.4966209003
  - # 5
    frequency:    2.5995472920
  - # 6
    frequency:    2.8526333266
  - # 7
    frequency:    3.9074316232
  - # 8
    frequency:    4.6244970677
  - # 9
    frequency:    5.8896602151
  - # 10
    frequency:    6.2288531064
  - # 11
    frequency:    7.1738442468
  - # 12
    frequency:    9.3231447310
  - # 13
    frequency:    9.8441815297
  - # 14