nqpoint: 300    
npath: 3      
segment_nqpoint:
- 100
- 100
- 100
labels:
- [ 'G', 'M' ]
- [ 'M', 'K' ]
- [ 'K', 'G' ]
reciprocal_lattice:
- [   0.30287795,   0.17486667,   0.00000000 ] # a*
- [   0.00000000,   0.34973333,   0.00000000 ] # b*
- [   0.00000000,   0.00000000,   0.03743667 ] # c*
natom: 6      
lattice:
- [     3.301659959663899,     0.000000000000000,     0.000000000000000 ] # a
- [    -1.650829979831950,     2.859321399725567,     0.000000000000000 ] # b
- [     0.000000000000000,     0.000000000000000,    26.711775984642987 ] # c
points:
- symbol: C # 1
  coordinates: [  0.000000000000000,  0.000000000000000,  0.449288846712177 ]
  mass: 12.010700
- symbol: Cl # 2
  coordinates: [  0.333332985432215,  0.666666983183674,  0.663069950677400 ]
  mass: 35.453000
- symbol: Cl # 3
  coordinates: [  0.666666984744047,  0.333332985985145,  0.336930049322600 ]
  mass: 35.453000
- symbol: Hf # 4
  coordinates: [  0.333332985432215,  0.666666983183674,  0.404161139719673 ]
  mass: 178.490000
- symbol: Hf # 5
  coordinates: [  0.666666984744047,  0.333332985985145,  0.502612250887216 ]
  mass: 178.490000
- symbol: O # 6
  coordinates: [  0.333332985432215,  0.666666983183674,  0.535341391946062 ]
  mass: 15.999400

phonon:
- q-position: [    0.0000000,    0.0000000,    0.0000000 ]
  distance:    0.0000000
  band:
  - # 1
    frequency:   -2.0308491318
  - # 2
    frequency:   -2.0308491318
  - # 3
    frequency:   -0.0000054593
  - # 4
    frequency:    0.0000000837
  - # 5
    frequency:    0.0000044859
  - # 6
    frequency:    1.3290860705
  - # 7
    frequency:    2.3508510192
  - # 8
    frequency:    2.3508510192
  - # 9
    frequency:    4.8774158044
  - # 10
    frequency:    5.3460357634
  - # 11
    frequency:    5.3460357634
  - # 12
    frequency:    7.3054512484
  - # 13
    frequency:    7.3054512484
  - # 14
    frequency:    8.5329764312
  - # 15
    frequency:   14.1002183968
  - # 16
    frequency:   15.4344552055
  - # 17
    frequency:   15.4344552055
  - # 18
    frequency:   18.9394726496

- q-position: [    0.0050505,    0.0000000,    0.0000000 ]
  distance:    0.0017663
  band:
  - # 1
    frequency:   -2.0335402720
  - # 2
    frequency:   -2.0310026877
  - # 3
    frequency:   -0.0218525884
  - # 4
    frequency:    0.0019566475
  - # 5
    frequency:    0.0365560256
  - # 6
    frequency:    1.3299639613
  - # 7
    frequency:    2.3514680935
  - # 8
    frequency:    2.3519684934
  - # 9
    frequency:    4.8770552961
  - # 10
    frequency:    5.3461108507
  - # 11
    frequency:    5.3462741900
  - # 12
    frequency:    7.3065505497
  - # 13
    frequency:    7.3089577837
  - # 14
    frequency:    8.5326577534
  - # 15
    frequency:   14.1002540479
  - # 16
    frequency:   15.4330006540
  - # 17
    frequency:   15.4334830005
  - # 18
    frequency:   18.9387311603

- q-position: [    0.0101010,    0.0000000,    0.0000000 ]
  distance:    0.0035327
  band:
  - # 1
    frequency:   -2.0416193706
  - # 2
    frequency:   -2.0314808361
  - # 3
    frequency:   -0.0429666987
  - # 4
    frequency:    0.0078428649
  - # 5
    frequency:    0.0732929744
  - # 6
    frequency:    1.3325681159
  - # 7
    frequency:    2.3533226798
  - # 8
    frequency:    2.3553085713
  - # 9
    frequency:    4.8759816867
  - # 10
    frequency:    5.3463368206
  - # 11
    frequency:    5.3469873913
  - # 12
    frequency:    7.3098447106
  - # 13
    frequency:    7.3194595158
  - # 14
    frequency:    8.5317043788
  - # 15
    frequency:   14.1003587152
  - # 16
    frequency:   15.4286434516
  - # 17
    frequency:   15.4305724445
  - # 18
    frequency:   18.9365110663

- q-position: [    0.0151515,    0.0000000,    0.0000000 ]
  distance:    0.0052990
  band:
  - # 1
    frequency:   -2.0550985354
  - # 2
    frequency:   -2.0323349386
  - # 3
    frequency:   -0.0627805803
  - # 4
    frequency:    0.0176778783
  - # 5
    frequency:    0.1103848991
  - # 6
    frequency:    1.3368135593
  - # 7
    frequency:    2.3564248439
  - # 8
    frequency:    2.3608345923
  - # 9
    frequency:    4.8742183825
  - # 10
    frequency:    5.3467157213
  - # 11
    frequency:    5.3481695736
  - # 12
    frequency:    7.3153223949
  - # 13
    frequency:    7.3369029153
  - # 14
    frequency:    8.5301243187
  - # 15
    frequency:   14.1005255356
  - # 16
    frequency:   15.4214029681
  - # 17
    frequency:   15.4257416968
  - # 18
    frequency:   18.9328254493

- q-position: [    0.0202020,    0.0000000,    0.0000000 ]
  distance:    0.0070653
  band:
  - # 1
    frequency:   -2.0739826995
  - # 2
    frequency:   -2.0336470678
  - # 3
    frequency:   -0.0810516201
  - # 4
    frequency:    0.0313978034
  - # 5
    frequency:    0.1479924974
  - # 6
    frequency:    1.3425696533
  - # 7
    frequency:    2.3607912533
  - # 8
    frequency:    2.3684866866
  - # 9
    frequency:    4.8718032789
  - # 10
    frequency:    5.3472507236
  - # 11
    frequency:    5.3498125150
  - # 12
    frequency:    7.3229643539
  - # 13
    frequency:    7.3611990763
  - # 14
    frequency:    8.5279310473
  - # 15
    frequency:   14.1007430516
  - # 16
    frequency:   15.4113115288
  - # 17
    frequency:   15.4190209649
  - # 18
    frequency:   18.9276959783

- q-position: [    0.0252525,    0.0000000,    0.0000000 ]
  distance:    0.0088316
  band:
  - # 1
    frequency:   -2.0982505810
  - # 2
    frequency:   -2.0355249546
  - # 3
    frequency:   -0.0979212007
  - # 4
    frequency:    0.0487355787
  - # 5
    frequency:    0.1862573793
  - # 6
    frequency:    1.3496736844
  - # 7
    frequency:    2.3664449192
  - # 8
    frequency:    2.3781835841
  - # 9
    frequency:    4.8687871487
  - # 10
    frequency:    5.3479457905
  - # 11
    frequency:    5.3519075934
  - # 12
    frequency:    7.3327429151
  - # 13
    frequency:    7.3922241958
  - # 14
    frequency:    8.5251436889
  - # 15
    frequency:   14.1009951836
  - # 16
    frequency:   15.3984144780
  - # 17
    frequency:   15.4104524160
  - # 18
    frequency:   18.9211527090

- q-position: [    0.0303030,    0.0000000,    0.0000000 ]
  distance:    0.0105980
  band:
  - # 1
    frequency:   -2.1278347105
  - # 2
    frequency:   -2.0380953877
  - # 3
    frequency:   -0.1138774687
  - # 4
    frequency:    0.0691306630
  - # 5
    frequency:    0.2252974097
  - # 6
    frequency:    1.3579453011
  - # 7
    frequency:    2.3734146566
  - # 8
    frequency:    2.3898250629
  - # 9
    frequency:    4.8652314961
  - # 10
    frequency:    5.3488052731
  - # 11
    frequency:    5.3544483964
  - # 12
    frequency:    7.3446213006
  - # 13
    frequency:    7.4298202731
  - # 14
    frequency:    8.5217872945
  - # 15
    frequency:   14.1012611918
  - # 16
    frequency:   15.3827702648
  - # 17
    frequency:   15.4000900506
  - # 18
    frequency:   18.9132338069

- q-position: [    0.0353535,    0.0000000,    0.0000000 ]
  distance:    0.0123643
  band:
  - # 1
    frequency:   -2.1626051140
  - # 2
    frequency:   -2.0414965090
  - # 3
    frequency:   -0.1296551279
  - # 4
    frequency:    0.0917427703
  - # 5
    frequency:    0.2652033865
  - # 6
    frequency:    1.3671993343
  - # 7
    frequency:    2.3817341101
  - # 8
    frequency:    2.4032949502
  - # 9
    frequency:    4.8612059523
  - # 10
    frequency:    5.3498334815
  - # 11
    frequency:    5.3574337268
  - # 12
    frequency:    7.3585528066
  - # 13
    frequency:    7.4737960562
  - # 14
    frequency:    8.5178932187
  - # 15
    frequency:   14.1015156263
  - # 16
    frequency:   15.3644505498
  - # 17
    frequency:   15.3879995372
  - # 18
    frequency:   18.9039851925

- q-position: [    0.0404040,    0.0000000,    0.0000000 ]
  distance:    0.0141306
  band:
  - # 1
    frequency:   -2.2023601170
  - # 2
    frequency:   -2.0458695324
  - # 3
    frequency:   -0.1461552988
  - # 4
    frequency:    0.1155826342
  - # 5
    frequency:    0.3060372238
  - # 6
    frequency:    1.3772556101
  - # 7
    frequency:    2.3914401920
  - # 8
    frequency:    2.4184645563
  - # 9
    frequency:    4.8567852865
  - # 10
    frequency:    5.3510342758
  - # 11
    frequency:    5.3608708026
  - # 12
    frequency:    7.3744798722
  - # 13
    frequency:    7.5239282658
  - # 14
    frequency:    8.5134996179
  - # 15
    frequency:   14.1017282686
  - # 16
    frequency:   15.3435403296
  - # 17
    frequency:   15.3742580036
  - # 18
    frequency:   18.8934601155

- q-position: [    0.0454545,    0.0000000,    0.0000000 ]
  distance:    0.0158970
  band:
  - # 1
    frequency:   -2.2468257674
  - # 2
    frequency:   -2.0513504529
  - # 3
    frequency:   -0.1644264281
  - # 4
    frequency:    0.1397010711
  - # 5
    frequency:    0.3478317061
  - # 6
    frequency:    1.3879455238
  - # 7
    frequency:    2.4025708064
  - # 8
    frequency:    2.4351963937
  - # 9
    frequency:    4.8520460871
  - # 10
    frequency:    5.3524107173
  - # 11
    frequency:    5.3647784611
  - # 12
    frequency:    7.3923330584
  - # 13
    frequency:    7.5799631255
  - # 14
    frequency:    8.5086520918
  - # 15
    frequency:   14.1018640617
  - # 16
    frequency:   15.3201380765
  - # 17
    frequency:   15.3589537823
  - # 18
    frequency:   18.8817186581

- q-position: [    0.0505051,    0.0000000,    0.0000000 ]
  distance:    0.0176633
  band:
  - # 1
    frequency:   -2.2956632650
  - # 2
    frequency:   -2.0580623120
  - # 3
    frequency:   -0.1856679821
  - # 4
    frequency:    0.1633695321
  - # 5
    frequency:    0.3905917560
  - # 6
    frequency:    1.3991160069
  - # 7
    frequency:    2.4151618103
  - # 8
    frequency:    2.4533480158
  - # 9
    frequency:    4.8470631683
  - # 10
    frequency:    5.3539648073
  - # 11
    frequency:    5.3691901806
  - # 12
    frequency:    7.4120299510
  - # 13
    frequency:    7.6416182244
  - # 14
    frequency:    8.5034045041
  - # 15
    frequency:   14.1018830303
  - # 16
    frequency:   15.2943558899
  - # 17
    frequency:   15.3421861053
  - # 18
    frequency:   18.8688271724

- q-position: [    0.0555556,    0.0000000,    0.0000000 ]
  distance:    0.0194296
  band:
  - # 1
    frequency:   -2.3484821917
  - # 2
    frequency:   -2.0661085211
  - # 3
    frequency:   -0.2111839947
  - # 4
    frequency:    0.1862127045
  - # 5
    frequency:    0.4342970365
  - # 6
    frequency:    1.4106319319
  - # 7
    frequency:    2.4292432763
  - # 8
    frequency:    2.4727757956
  - # 9
    frequency:    4.8419057568
  - # 10
    frequency:    5.3556973288
  - # 11
    frequency:    5.3741567497
  - # 12
    frequency:    7.4334739788
  - # 13
    frequency:    7.7085847221
  - # 14
    frequency:    8.4978200194
  - # 15
    frequency:   14.1017401915
  - # 16
    frequency:   15.2663196555
  - # 17
    frequency:   15.3240647446
  - # 18
    frequency:   18.8548576567

- q-position: [    0.0606061,    0.0000000,    0.0000000 ]
  distance:    0.0211960
  band:
  - # 1
    frequency:   -2.4048566552
  - # 2
    frequency:   -2.0755676428
  - # 3
    frequency:   -0.2422403736
  - # 4
    frequency:    0.2082639076
  - # 5
    frequency:    0.4789056060
  - # 6
    frequency:    1.4223779837
  - # 7
    frequency:    2.4448352746
  - # 8
    frequency:    2.4933384742
  - # 9
    frequency:    4.8366335488
  - # 10
    frequency:    5.3576077944
  - # 11
    frequency:    5.3797484090
  - # 12
    frequency:    7.4565531200
  - # 13
    frequency:    7.7805298980
  - # 14
    frequency:    8.4919724101
  - # 15
    frequency:   14.1013854538
  - # 16
    frequency:   15.2361692078
  - # 17
    frequency:   15.3047095907
  - # 18
    frequency:   18.8398870756

- q-position: [    0.0656566,    0.0000000,    0.0000000 ]
  distance:    0.0229623
  band:
  - # 1
    frequency:   -2.4643416382
  - # 2
    frequency:   -2.0864898746
  - # 3
    frequency:   -0.2798498912
  - # 4
    frequency:    0.2299152388
  - # 5
    frequency:    0.5243582636
  - # 6
    frequency:    1.4342606833
  - # 7
    frequency:    2.4619435573
  - # 8
    frequency:    2.5149003232
  - # 9
    frequency:    4.8312927740
  - # 10
    frequency:    5.3596944944
  - # 11
    frequency:    5.3860562847
  - # 12
    frequency:    7.4811384481
  - # 13
    frequency:    7.8571000204
  - # 14
    frequency:    8.4859476920
  - # 15
    frequency:   14.1007635072
  - # 16
    frequency:   15.2040584916
  - # 17
    frequency:   15.2842501656
  - # 18
    frequency:   18.8239966283

- q-position: [    0.0707071,    0.0000000,    0.0000000 ]
  distance:    0.0247286
  band:
  - # 1
    frequency:   -2.5264875790
  - # 2
    frequency:   -2.0988953191
  - # 3
    frequency:   -0.3245806378
  - # 4
    frequency:    0.2517652419
  - # 5
    frequency:    0.5705831939
  - # 6
    frequency:    1.4462107269
  - # 7
    frequency:    2.4805556651
  - # 8
    frequency:    2.5373337998
  - # 9
    frequency:    4.8259124792
  - # 10
    frequency:    5.3619546285
  - # 11
    frequency:    5.3931929150
  - # 12
    frequency:    7.5070824428
  - # 13
    frequency:    7.9379235010
  - # 14
    frequency:    8.4798461591
  - # 15
    frequency:   14.0998137039
  - # 16
    frequency:   15.1701557161
  - # 17
    frequency:   15.2628250624
  - # 18
    frequency:   18.8072709733

- q-position: [    0.0757576,    0.0000000,    0.0000000 ]
  distance:    0.0264949
  band:
  - # 1
    frequency:   -2.5908521053
  - # 2
    frequency:   -2.1127739539
  - # 3
    frequency:   -0.3764886251
  - # 4
    frequency:    0.2744252568
  - # 5
    frequency:    0.6175005337
  - # 6
    frequency:    1.4581852753
  - # 7
    frequency:    2.5006380431
  - # 8
    frequency:    2.5605216128
  - # 9
    frequency:    4.8205013175
  - # 10
    frequency:    5.3643845059
  - # 11
    frequency:    5.4012916564
  - # 12
    frequency:    7.5342169761
  - # 13
    frequency:    8.0226142789
  - # 14
    frequency:    8.4737848923
  - # 15
    frequency:   14.0984699342
  - # 16
    frequency:   15.1346434921
  - # 17
    frequency:   15.2405813040
  - # 18
    frequency:   18.7897974141

- q-position: [    0.0808081,    0.0000000,    0.0000000 ]
  distance:    0.0282613
  band:
  - # 1
    frequency:   -2.6570086137
  - # 2
    frequency:   -2.1280870850
  - # 3
    frequency:   -0.4351937849
  - # 4
    frequency:    0.2983718607
  - # 5
    frequency:    0.6650265391
  - # 6
    frequency:    1.4701694563
  - # 7
    frequency:    2.5221347037
  - # 8
    frequency:    2.5843581607
  - # 9
    frequency:    4.8150452009
  - # 10
    frequency:    5.3669797905
  - # 11
    frequency:    5.4105047540
  - # 12
    frequency:    7.5623508801
  - # 13
    frequency:    8.1107753690
  - # 14
    frequency:    8.4679008089
  - # 15
    frequency:   14.0966605058
  - # 16
    frequency:   15.0977189394
  - # 17
    frequency:   15.2176736153
  - # 18
    frequency:   18.7716650549

- q-position: [    0.0858586,    0.0000000,    0.0000000 ]
  distance:    0.0300276
  band:
  - # 1
    frequency:   -2.7245519170
  - # 2
    frequency:   -2.1447699665
  - # 3
    frequency:   -0.5000316062
  - # 4
    frequency:    0.3238912757
  - # 5
    frequency:    0.7130771230
  - # 6
    frequency:    1.4821762732
  - # 7
    frequency:    2.5449677968
  - # 8
    frequency:    2.6087503478
  - # 9
    frequency:    4.8095061987
  - # 10
    frequency:    5.3697357743
  - # 11
    frequency:    5.4209998945
  - # 12
    frequency:    7.5912670231
  - # 13
    frequency:    8.2020025054
  - # 14
    frequency:    8.4623542936
  - # 15
    frequency:   14.0943080419
  - # 16
    frequency:   15.0595937439
  - # 17
    frequency:   15.1942635995
  - # 18
    frequency:   18.7529639331

- q-position: [    0.0909091,    0.0000000,    0.0000000 ]
  distance:    0.0317939
  band:
  - # 1
    frequency:   -2.7931014552
  - # 2
    frequency:   -2.1627352295
  - # 3
    frequency:   -0.5701985773
  - # 4
    frequency:    0.3510987826
  - # 5
    frequency:    0.7615706292
  - # 6
    frequency:    1.4942443719
  - # 7
    frequency:    2.5690401729
  - # 8
    frequency:    2.6336178192
  - # 9
    frequency:    4.8038230375
  - # 10
    frequency:    5.3726476595
  - # 11
    frequency:    5.4329551422
  - # 12
    frequency:    7.6207188857
  - # 13
    frequency:    8.2958878056
  - # 14
    frequency:    8.4573333778
  - # 15
    frequency:   14.0913294248
  - # 16
    frequency:   15.0204941308
  - # 17
    frequency:   15.1705188139
  - # 18
    frequency:   18.7337841373

- q-position: [    0.0959596,    0.0000000,    0.0000000 ]
  distance:    0.0335603
  band:
  - # 1
    frequency:   -2.8623026468
  - # 2
    frequency:   -2.1818767631
  - # 3
    frequency:   -0.6448512707
  - # 4
    frequency:    0.3799897556
  - # 5
    frequency:    0.8104298087
  - # 6
    frequency:    1.5064336247
  - # 7
    frequency:    2.5942397002
  - # 8
    frequency:    2.6588926853
  - # 9
    frequency:    4.7979134355
  - # 10
    frequency:    5.3757108360
  - # 11
    frequency:    5.4465523095
  - # 12
    frequency:    7.6504267705
  - # 13
    frequency:    8.3920233923
  - # 14
    frequency:    8.4530582928
  - # 15
    frequency:   14.0876358333
  - # 16
    frequency:   14.9806607037
  - # 17
    frequency:   15.1466117358
  - # 18
    frequency:   18.7142149204

- q-position: [    0.1010101,    0.0000000,    0.0000000 ]
  distance:    0.0353266
  band:
  - # 1
    frequency:   -2.9318269255
  - # 2
    frequency:   -2.2020737327
  - # 3
    frequency:   -0.7231592076
  - # 4
    frequency:    0.4104898036
  - # 5
    frequency:    0.8595830413
  - # 6
    frequency:    1.5188190382
  - # 7
    frequency:    2.6204448193
  - # 8
    frequency:    2.6845188238
  - # 9
    frequency:    4.7916783065
  - # 10
    frequency:    5.3789211418
  - # 11
    frequency:    5.4619690157
  - # 12
    frequency:    7.6800740365
  - # 13
    frequency:    8.4497859668
  - # 14
    frequency:    8.4900049125
  - # 15
    frequency:   14.0831329441
  - # 16
    frequency:   14.9403480721
  - # 17
    frequency:   15.1227186159
  - # 18
    frequency:   18.6943438164

- q-position: [    0.1060606,    0.0000000,    0.0000000 ]
  distance:    0.0370929
  band:
  - # 1
    frequency:   -3.0013709152
  - # 2
    frequency:   -2.2231944785
  - # 3
    frequency:   -0.8043272802
  - # 4
    frequency:    0.4424912875
  - # 5
    frequency:    0.9089649030
  - # 6
    frequency:    1.5314838882
  - # 7
    frequency:    2.6475306431
  - # 8
    frequency:    2.7104508575
  - # 9
    frequency:    4.7850075993
  - # 10
    frequency:    5.3822750980
  - # 11
    frequency:    5.4793699328
  - # 12
    frequency:    7.7093041686
  - # 13
    frequency:    8.4478136150
  - # 14
    frequency:    8.5894349087
  - # 15
    frequency:   14.0777214085
  - # 16
    frequency:   14.8998241542
  - # 17
    frequency:   15.0990182126
  - # 18
    frequency:   18.6742557730

- q-position: [    0.1111111,    0.0000000,    0.0000000 ]
  distance:    0.0388593
  band:
  - # 1
    frequency:   -3.0706550929
  - # 2
    frequency:   -2.2451001140
  - # 3
    frequency:   -0.8876025002
  - # 4
    frequency:    0.4758758033
  - # 5
    frequency:    0.9585162092
  - # 6
    frequency:    1.5445130849
  - # 7
    frequency:    2.6753748782
  - # 8
    frequency:    2.7366529043
  - # 9
    frequency:    4.7777872669
  - # 10
    frequency:    5.3857701122
  - # 11
    frequency:    5.4988979313
  - # 12
    frequency:    7.7377200953
  - # 13
    frequency:    8.4474799793
  - # 14
    frequency:    8.6899260069
  - # 15
    frequency:   14.0712977580
  - # 16
    frequency:   14.8593689967
  - # 17
    frequency:   15.0756904083
  - # 18
    frequency:   18.6540323081

- q-position: [    0.1161616,    0.0000000,    0.0000000 ]
  distance:    0.0406256
  band:
  - # 1
    frequency:   -3.1394221903
  - # 2
    frequency:   -2.2676477083
  - # 3
    frequency:   -0.9722741772
  - # 4
    frequency:    0.5105264199
  - # 5
    frequency:    1.0081836709
  - # 6
    frequency:    1.5579875951
  - # 7
    frequency:    2.7038629435
  - # 8
    frequency:    2.7630971916
  - # 9
    frequency:    4.7699066430
  - # 10
    frequency:    5.3894046480
  - # 11
    frequency:    5.5206659762
  - # 12
    frequency:    7.7648878869
  - # 13
    frequency:    8.4491620557
  - # 14
    frequency:    8.7911038985
  - # 15
    frequency:   14.0637559463
  - # 16
    frequency:   14.8192729042
  - # 17
    frequency:   15.0529147069
  - # 18
    frequency:   18.6337507043

- q-position: [    0.1212121,    0.0000000,    0.0000000 ]
  distance:    0.0423919
  band:
  - # 1
    frequency:   -3.2074355079
  - # 2
    frequency:   -2.2906929997
  - # 3
    frequency:   -1.0576719248
  - # 4
    frequency:    0.5463335549
  - # 5
    frequency:    1.0579192959
  - # 6
    frequency:    1.5719803932
  - # 7
    frequency:    2.7328918563
  - # 8
    frequency:    2.7897626134
  - # 9
    frequency:    4.7612654187
  - # 10
    frequency:    5.3931783578
  - # 11
    frequency:    5.5447506115
  - # 12
    frequency:    7.7903475295
  - # 13
    frequency:    8.4532645947
  - # 14
    frequency:    8.8926101009
  - # 15
    frequency:   14.0549897750
  - # 16
    frequency:   14.7798336274
  - # 17
    frequency:   15.0308686195
  - # 18
    frequency:   18.6134832509

- q-position: [    0.1262626,    0.0000000,    0.0000000 ]
  distance:    0.0441582
  band:
  - # 1
    frequency:   -3.2744772496
  - # 2
    frequency:   -2.3140926304
  - # 3
    frequency:   -1.1431631828
  - # 4
    frequency:    0.5831972747
  - # 5
    frequency:    1.1076796468
  - # 6
    frequency:    1.5865540360
  - # 7
    frequency:    2.7623726793
  - # 8
    frequency:    2.8166332990
  - # 9
    frequency:    4.7517794862
  - # 10
    frequency:    5.3970921798
  - # 11
    frequency:    5.5711877061
  - # 12
    frequency:    7.8136333226
  - # 13
    frequency:    8.4601998141
  - # 14
    frequency:    8.9941044905
  - # 15
    frequency:   14.0448964683
  - # 16
    frequency:   14.7413523469
  - # 17
    frequency:   15.0097259477
  - # 18
    frequency:   18.5932965460

- q-position: [    0.1313131,    0.0000000,    0.0000000 ]
  distance:    0.0459246
  band:
  - # 1
    frequency:   -3.3403469462
  - # 2
    frequency:   -2.3377059289
  - # 3
    frequency:   -1.2281507093
  - # 4
    frequency:    0.6210277379
  - # 5
    frequency:    1.1574250455
  - # 6
    frequency:    1.6017596644
  - # 7
    frequency:    2.7922315347
  - # 8
    frequency:    2.8436972432
  - # 9
    frequency:    4.7413851319
  - # 10
    frequency:    5.4011484002
  - # 11
    frequency:    5.5999708296
  - # 12
    frequency:    7.8343047957
  - # 13
    frequency:    8.4703564192
  - # 14
    frequency:    9.0952676032
  - # 15
    frequency:   14.0333816090
  - # 16
    frequency:   14.7041282427
  - # 17
    frequency:   14.9896549800
  - # 18
    frequency:   18.5732508703

- q-position: [    0.1363636,    0.0000000,    0.0000000 ]
  distance:    0.0476909
  band:
  - # 1
    frequency:   -3.4048600012
  - # 2
    frequency:   -2.3613962816
  - # 3
    frequency:   -1.3120700647
  - # 4
    frequency:    0.6597447559
  - # 5
    frequency:    1.2071187928
  - # 6
    frequency:    1.6176370845
  - # 7
    frequency:    2.8224093539
  - # 8
    frequency:    2.8709450369
  - # 9
    frequency:    4.7300413563
  - # 10
    frequency:    5.4053506820
  - # 11
    frequency:    5.6310522675
  - # 12
    frequency:    7.8519854419
  - # 13
    frequency:    8.4840606335
  - # 14
    frequency:    9.1958026996
  - # 15
    frequency:   14.0203654883
  - # 16
    frequency:   14.6684515972
  - # 17
    frequency:   14.9708166249
  - # 18
    frequency:   18.5533996441

- q-position: [    0.1414141,    0.0000000,    0.0000000 ]
  distance:    0.0494572
  band:
  - # 1
    frequency:   -3.4678463750
  - # 2
    frequency:   -2.3850321502
  - # 3
    frequency:   -1.3943870286
  - # 4
    frequency:    0.6992769852
  - # 5
    frequency:    1.2567264466
  - # 6
    frequency:    1.6342155444
  - # 7
    frequency:    2.8528606267
  - # 8
    frequency:    2.8983687239
  - # 9
    frequency:    4.7177303964
  - # 10
    frequency:    5.4097040632
  - # 11
    frequency:    5.6643463559
  - # 12
    frequency:    7.8664018479
  - # 13
    frequency:    8.5015366646
  - # 14
    frequency:    9.2954375912
  - # 15
    frequency:   14.0057906269
  - # 16
    frequency:   14.6345956830
  - # 17
    frequency:   14.9533625084
  - # 18
    frequency:   18.5337889775

- q-position: [    0.1464646,    0.0000000,    0.0000000 ]
  distance:    0.0512236
  band:
  - # 1
    frequency:   -3.5291494088
  - # 2
    frequency:   -2.4084877912
  - # 3
    frequency:   -1.4745949271
  - # 4
    frequency:    0.7395610126
  - # 5
    frequency:    1.3062151889
  - # 6
    frequency:    1.6515148778
  - # 7
    frequency:    2.8835514549
  - # 8
    frequency:    2.9259607989
  - # 9
    frequency:    4.7044567518
  - # 10
    frequency:    5.4142149277
  - # 11
    frequency:    5.6997345755
  - # 12
    frequency:    7.8774125923
  - # 13
    frequency:    8.5228772458
  - # 14
    frequency:    9.3939262165
  - # 15
    frequency:   13.9896297937
  - # 16
    frequency:   14.6028081112
  - # 17
    frequency:   14.9374330727
  - # 18
    frequency:   18.5144573245

- q-position: [    0.1515152,    0.0000000,    0.0000000 ]
  distance:    0.0529899
  band:
  - # 1
    frequency:   -3.5886247822
  - # 2
    frequency:   -2.4316437320
  - # 3
    frequency:   -1.5522118944
  - # 4
    frequency:    0.7805404567
  - # 5
    frequency:    1.3555532955
  - # 6
    frequency:    1.6695467669
  - # 7
    frequency:    2.9144572048
  - # 8
    frequency:    2.9537133518
  - # 9
    frequency:    4.6902451385
  - # 10
    frequency:    5.4188909491
  - # 11
    frequency:    5.7370717450
  - # 12
    frequency:    7.8850176388
  - # 13
    frequency:    8.5480335397
  - # 14
    frequency:    9.4910499552
  - # 15
    frequency:   13.9718933885
  - # 16
    frequency:   14.5733027824
  - # 17
    frequency:   14.9231557204
  - # 18
    frequency:   18.4954352490

- q-position: [    0.1565657,    0.0000000,    0.0000000 ]
  distance:    0.0547562
  band:
  - # 1
    frequency:   -3.6461395936
  - # 2
    frequency:   -2.4543870547
  - # 3
    frequency:   -1.6267781236
  - # 4
    frequency:    0.8221651385
  - # 5
    frequency:    1.4047097132
  - # 6
    frequency:    1.6883159695
  - # 7
    frequency:    2.9455600123
  - # 8
    frequency:    2.9816173581
  - # 9
    frequency:    4.6751378179
  - # 10
    frequency:    5.4237410136
  - # 11
    frequency:    5.7761926644
  - # 12
    frequency:    7.8893453827
  - # 13
    frequency:    8.5768272691
  - # 14
    frequency:    9.5866186587
  - # 15
    frequency:   13.9526347377
  - # 16
    frequency:   14.5462538994
  - # 17
    frequency:   14.9106430525
  - # 18
    frequency:   18.4767453097

- q-position: [    0.1616162,    0.0000000,    0.0000000 ]
  distance:    0.0565226
  band:
  - # 1
    frequency:   -3.7015715516
  - # 2
    frequency:   -2.4766115309
  - # 3
    frequency:   -1.6978531645
  - # 4
    frequency:    0.8643903433
  - # 5
    frequency:    1.4536537416
  - # 6
    frequency:    1.7078214244
  - # 7
    frequency:    2.9768463396
  - # 8
    frequency:    3.0096621097
  - # 9
    frequency:    4.6591916916
  - # 10
    frequency:    5.4287751210
  - # 11
    frequency:    5.8169186584
  - # 12
    frequency:    7.8906225187
  - # 13
    frequency:    8.6089799301
  - # 14
    frequency:    9.6804713725
  - # 15
    frequency:   13.9319518872
  - # 16
    frequency:   14.5217934615
  - # 17
    frequency:   14.8999912554
  - # 18
    frequency:   18.4584020685

- q-position: [    0.1666667,    0.0000000,    0.0000000 ]
  distance:    0.0582889
  band:
  - # 1
    frequency:   -3.7548082623
  - # 2
    frequency:   -2.4982176435
  - # 3
    frequency:   -1.7650133250
  - # 4
    frequency:    0.9071761814
  - # 5
    frequency:    1.5023548126
  - # 6
    frequency:    1.7280572039
  - # 7
    frequency:    3.0083047238
  - # 8
    frequency:    3.0378347773
  - # 9
    frequency:    4.6424754663
  - # 10
    frequency:    5.4340042689
  - # 11
    frequency:    5.8590636155
  - # 12
    frequency:    7.8891367136
  - # 13
    frequency:    8.6441491323
  - # 14
    frequency:    9.7724767225
  - # 15
    frequency:   13.9099850003
  - # 16
    frequency:   14.5000131415
  - # 17
    frequency:   14.8912786942
  - # 18
    frequency:   18.4404122257

- q-position: [    0.1717172,    0.0000000,    0.0000000 ]
  distance:    0.0600552
  band:
  - # 1
    frequency:   -3.8057466015
  - # 2
    frequency:   -2.5191125275
  - # 3
    frequency:   -1.8278492130
  - # 4
    frequency:    0.9504870552
  - # 5
    frequency:    1.5507823577
  - # 6
    frequency:    1.7490133118
  - # 7
    frequency:    3.0399238048
  - # 8
    frequency:    3.0661200932
  - # 9
    frequency:    4.6250670899
  - # 10
    frequency:    5.4394403205
  - # 11
    frequency:    5.9024392602
  - # 12
    frequency:    7.8852016744
  - # 13
    frequency:    8.6819625099
  - # 14
    frequency:    9.8625329329
  - # 15
    frequency:   13.8869093695
  - # 16
    frequency:   14.4809705394
  - # 17
    frequency:   14.8845647684
  - # 18
    frequency:   18.4227748821

- q-position: [    0.1767677,    0.0000000,    0.0000000 ]
  distance:    0.0618215
  band:
  - # 1
    frequency:   -3.8542921576
  - # 2
    frequency:   -2.5392098524
  - # 3
    frequency:   -1.8859634455
  - # 4
    frequency:    0.9942912393
  - # 5
    frequency:    1.5989057531
  - # 6
    frequency:    1.7706763442
  - # 7
    frequency:    3.0716906721
  - # 8
    frequency:    3.0945001419
  - # 9
    frequency:    4.6070515736
  - # 10
    frequency:    5.4450958588
  - # 11
    frequency:    5.9468595313
  - # 12
    frequency:    7.8791303546
  - # 13
    frequency:    8.7220434933