nqpoint: 300    
npath: 3      
segment_nqpoint:
- 100
- 100
- 100
labels:
- [ 'G', 'M' ]
- [ 'M', 'K' ]
- [ 'K', 'G' ]
reciprocal_lattice:
- [   0.30172440,   0.17420066,   0.00000000 ] # a*
- [   0.00000000,   0.34840133,   0.00000000 ] # b*
- [   0.00000000,   0.00000000,   0.03723483 ] # c*
natom: 8      
lattice:
- [     3.314282815533774,     0.000000000000000,     0.000000000000000 ] # a
- [    -1.657141407766887,     2.870253113571470,     0.000000000000000 ] # b
- [     0.000000000000000,     0.000000000000000,    26.856572832717490 ] # c
points:
- symbol: C # 1
  coordinates: [  0.333332985432215,  0.666666983183674,  0.619896011383112 ]
  mass: 12.010700
- symbol: C # 2
  coordinates: [  0.666666984744047,  0.333332985985145,  0.379963912623030 ]
  mass: 12.010700
- symbol: Hf # 3
  coordinates: [  0.333332985432215,  0.666666983183674,  0.479386118104830 ]
  mass: 178.490000
- symbol: Hf # 4
  coordinates: [  0.666666984744047,  0.333332985985145,  0.565397685024357 ]
  mass: 178.490000
- symbol: N # 5
  coordinates: [  0.000000000000000,  0.000000000000000,  0.521570583956491 ]
  mass: 14.006700
- symbol: N # 6
  coordinates: [  0.333332985432215,  0.666666983183674,  0.664886504467319 ]
  mass: 14.006700
- symbol: N # 7
  coordinates: [  0.666666984744047,  0.333332985985145,  0.426563768211704 ]
  mass: 14.006700
- symbol: O # 8
  coordinates: [  0.666666984744047,  0.333332985985145,  0.335113495532681 ]
  mass: 15.999400

phonon:
- q-position: [    0.0000000,    0.0000000,    0.0000000 ]
  distance:    0.0000000
  band:
  - # 1
    frequency:   -2.7207443371
  - # 2
    frequency:   -2.7207443371
  - # 3
    frequency:   -0.0000131008
  - # 4
    frequency:    0.0000002192
  - # 5
    frequency:    0.0000091180
  - # 6
    frequency:    0.8497560484
  - # 7
    frequency:    0.8497560484
  - # 8
    frequency:    3.1116575269
  - # 9
    frequency:    3.1116575270
  - # 10
    frequency:    3.9684841026
  - # 11
    frequency:    6.0793233365
  - # 12
    frequency:    6.0793233365
  - # 13
    frequency:    7.0412697174
  - # 14
    frequency:    7.0412697174
  - # 15
    frequency:    7.1282483073
  - # 16
    frequency:    9.0531228000
  - # 17
    frequency:   13.8999364609
  - # 18
    frequency:   15.3825246464
  - # 19
    frequency:   15.3825246465
  - # 20
    frequency:   17.0878819462
  - # 21
    frequency:   17.0878819463
  - # 22
    frequency:   37.7664370675
  - # 23
    frequency:   59.1544662050
  - # 24
    frequency:   68.4896145656

- q-position: [    0.0050505,    0.0000000,    0.0000000 ]
  distance:    0.0017596
  band:
  - # 1
    frequency:   -2.7214802728
  - # 2
    frequency:   -2.7212767151
  - # 3
    frequency:   -0.0159397372
  - # 4
    frequency:    0.0011215163
  - # 5
    frequency:    0.0922327474
  - # 6
    frequency:    0.8500507813
  - # 7
    frequency:    0.8508277689
  - # 8
    frequency:    3.1111373848
  - # 9
    frequency:    3.1113442208
  - # 10
    frequency:    3.9689965408
  - # 11
    frequency:    6.0793504308
  - # 12
    frequency:    6.0798381861
  - # 13
    frequency:    7.0417024763
  - # 14
    frequency:    7.0422549106
  - # 15
    frequency:    7.1285128549
  - # 16
    frequency:    9.0528700250
  - # 17
    frequency:   13.8999911748
  - # 18
    frequency:   15.3828637721
  - # 19
    frequency:   15.3828908748
  - # 20
    frequency:   17.0876612106
  - # 21
    frequency:   17.0876816312
  - # 22
    frequency:   37.7664712972
  - # 23
    frequency:   59.1541573937
  - # 24
    frequency:   68.4885066742

- q-position: [    0.0101010,    0.0000000,    0.0000000 ]
  distance:    0.0035192
  band:
  - # 1
    frequency:   -2.7236765127
  - # 2
    frequency:   -2.7228739795
  - # 3
    frequency:   -0.0317502995
  - # 4
    frequency:    0.0049685501
  - # 5
    frequency:    0.1842139034
  - # 6
    frequency:    0.8509363730
  - # 7
    frequency:    0.8540697373
  - # 8
    frequency:    3.1095835509
  - # 9
    frequency:    3.1104081472
  - # 10
    frequency:    3.9705325216
  - # 11
    frequency:    6.0794327623
  - # 12
    frequency:    6.0813783296
  - # 13
    frequency:    7.0429957101
  - # 14
    frequency:    7.0452009322
  - # 15
    frequency:    7.1293095345
  - # 16
    frequency:    9.0521124508
  - # 17
    frequency:   13.9001557076
  - # 18
    frequency:   15.3838793182
  - # 19
    frequency:   15.3839885953
  - # 20
    frequency:   17.0869968571
  - # 21
    frequency:   17.0870811864
  - # 22
    frequency:   37.7665739294
  - # 23
    frequency:   59.1532317412
  - # 24
    frequency:   68.4851852595

- q-position: [    0.0151515,    0.0000000,    0.0000000 ]
  distance:    0.0052788
  band:
  - # 1
    frequency:   -2.7272988859
  - # 2
    frequency:   -2.7255365130
  - # 3
    frequency:   -0.0472988000
  - # 4
    frequency:    0.0113759272
  - # 5
    frequency:    0.2756724375
  - # 6
    frequency:    0.8524168936
  - # 7
    frequency:    0.8595672858
  - # 8
    frequency:    3.1070159433
  - # 9
    frequency:    3.1088607953
  - # 10
    frequency:    3.9730879861
  - # 11
    frequency:    6.0795734303
  - # 12
    frequency:    6.0839306514
  - # 13
    frequency:    7.0451343950
  - # 14
    frequency:    7.0500779900
  - # 15
    frequency:    7.1306486861
  - # 16
    frequency:    9.0508523268
  - # 17
    frequency:   13.9004312141
  - # 18
    frequency:   15.3855657936
  - # 19
    frequency:   15.3858149156
  - # 20
    frequency:   17.0858824705
  - # 21
    frequency:   17.0860821023
  - # 22
    frequency:   37.7667447936
  - # 23
    frequency:   59.1516915886
  - # 24
    frequency:   68.4796570930

- q-position: [    0.0202020,    0.0000000,    0.0000000 ]
  distance:    0.0070384
  band:
  - # 1
    frequency:   -2.7322921538
  - # 2
    frequency:   -2.7292649242
  - # 3
    frequency:   -0.0624448631
  - # 4
    frequency:    0.0203566608
  - # 5
    frequency:    0.3662901035
  - # 6
    frequency:    0.8544987746
  - # 7
    frequency:    0.8674819383
  - # 8
    frequency:    3.1034681948
  - # 9
    frequency:    3.1067211637
  - # 10
    frequency:    3.9766560003
  - # 11
    frequency:    6.0797774481
  - # 12
    frequency:    6.0874736218
  - # 13
    frequency:    7.0480938358
  - # 14
    frequency:    7.0568321371
  - # 15
    frequency:    7.1325522087
  - # 16
    frequency:    9.0490933947
  - # 17
    frequency:   13.9008195563
  - # 18
    frequency:   15.3879140491
  - # 19
    frequency:   15.3883650207
  - # 20
    frequency:   17.0843074368
  - # 21
    frequency:   17.0846868269
  - # 22
    frequency:   37.7669836058
  - # 23
    frequency:   59.1495408287
  - # 24
    frequency:   68.4719334398

- q-position: [    0.0252525,    0.0000000,    0.0000000 ]
  distance:    0.0087980
  band:
  - # 1
    frequency:   -2.7385823990
  - # 2
    frequency:   -2.7340600019
  - # 3
    frequency:   -0.0770366718
  - # 4
    frequency:    0.0319168264
  - # 5
    frequency:    0.4556521148
  - # 6
    frequency:    0.8571903122
  - # 7
    frequency:    0.8780925286
  - # 8
    frequency:    3.0989882063
  - # 9
    frequency:    3.1040155386
  - # 10
    frequency:    3.9812265677
  - # 11
    frequency:    6.0800515250
  - # 12
    frequency:    6.0919777768
  - # 13
    frequency:    7.0518401686
  - # 14
    frequency:    7.0653764667
  - # 15
    frequency:    7.1350629101
  - # 16
    frequency:    9.0468408771
  - # 17
    frequency:   13.9013232121
  - # 18
    frequency:   15.3909112818
  - # 19
    frequency:   15.3916321804
  - # 20
    frequency:   17.0822570608
  - # 21
    frequency:   17.0828987131
  - # 22
    frequency:   37.7672899701
  - # 23
    frequency:   59.1467848919
  - # 24
    frequency:   68.4620300267

- q-position: [    0.0303030,    0.0000000,    0.0000000 ]
  distance:    0.0105576
  band:
  - # 1
    frequency:   -2.7460800399
  - # 2
    frequency:   -2.7399226448
  - # 3
    frequency:   -0.0909066804
  - # 4
    frequency:    0.0460560196
  - # 5
    frequency:    0.5431496633
  - # 6
    frequency:    0.8605010342
  - # 7
    frequency:    0.8918853906
  - # 8
    frequency:    3.0936387409
  - # 9
    frequency:    3.1007771890
  - # 10
    frequency:    3.9867864860
  - # 11
    frequency:    6.0804037777
  - # 12
    frequency:    6.0974063626
  - # 13
    frequency:    7.0563310369
  - # 14
    frequency:    7.0755723661
  - # 15
    frequency:    7.1382639890
  - # 16
    frequency:    9.0441014607
  - # 17
    frequency:   13.9019451495
  - # 18
    frequency:   15.3945410415
  - # 19
    frequency:   15.3956077604
  - # 20
    frequency:   17.0797127289
  - # 21
    frequency:   17.0807219455
  - # 22
    frequency:   37.7676633796
  - # 23
    frequency:   59.1434307273
  - # 24
    frequency:   68.4499669980

- q-position: [    0.0353535,    0.0000000,    0.0000000 ]
  distance:    0.0123172
  band:
  - # 1
    frequency:   -2.7546832103
  - # 2
    frequency:   -2.7468537638
  - # 3
    frequency:   -0.1038667160
  - # 4
    frequency:    0.0627639400
  - # 5
    frequency:    0.6277777545
  - # 6
    frequency:    0.8644409812
  - # 7
    frequency:    0.9097499259
  - # 8
    frequency:    3.0874979180
  - # 9
    frequency:    3.0970459851
  - # 10
    frequency:    3.9933193300
  - # 11
    frequency:    6.0808433893
  - # 12
    frequency:    6.1037161200
  - # 13
    frequency:    7.0615164175
  - # 14
    frequency:    7.0871893690
  - # 15
    frequency:    7.1423200879
  - # 16
    frequency:    9.0408832738
  - # 17
    frequency:   13.9026886712
  - # 18
    frequency:   15.3987832398
  - # 19
    frequency:   15.4002812370
  - # 20
    frequency:   17.0766521162
  - # 21
    frequency:   17.0781614488
  - # 22
    frequency:   37.7681032177
  - # 23
    frequency:   59.1394867780
  - # 24
    frequency:   68.4357688591

- q-position: [    0.0404040,    0.0000000,    0.0000000 ]
  distance:    0.0140768
  band:
  - # 1
    frequency:   -2.7642812447
  - # 2
    frequency:   -2.7548541506
  - # 3
    frequency:   -0.1157020026
  - # 4
    frequency:    0.0820174412
  - # 5
    frequency:    0.7077306458
  - # 6
    frequency:    0.8690199615
  - # 7
    frequency:    0.9333773772
  - # 8
    frequency:    3.0806594776
  - # 9
    frequency:    3.0928679461
  - # 10
    frequency:    4.0008056304
  - # 11
    frequency:    6.0813802321
  - # 12
    frequency:    6.1108581817
  - # 13
    frequency:    7.0673395654
  - # 14
    frequency:    7.0998206719
  - # 15
    frequency:    7.1475628182
  - # 16
    frequency:    9.0371958582
  - # 17
    frequency:   13.9035572332
  - # 18
    frequency:   15.4036141607
  - # 19
    frequency:   15.4056402143
  - # 20
    frequency:   17.0730494374
  - # 21
    frequency:   17.0752227791
  - # 22
    frequency:   37.7686087606
  - # 23
    frequency:   59.1349629512
  - # 24
    frequency:   68.4194644075

- q-position: [    0.0454545,    0.0000000,    0.0000000 ]
  distance:    0.0158364
  band:
  - # 1
    frequency:   -2.7747580425
  - # 2
    frequency:   -2.7639243076
  - # 3
    frequency:   -0.1261633304
  - # 4
    frequency:    0.1037786546
  - # 5
    frequency:    0.7798284514
  - # 6
    frequency:    0.8742468327
  - # 7
    frequency:    0.9658294348
  - # 8
    frequency:    3.0732327118
  - # 9
    frequency:    3.0882947255
  - # 10
    frequency:    4.0092232873
  - # 11
    frequency:    6.0820244722
  - # 12
    frequency:    6.1187790550
  - # 13
    frequency:    7.0737380505
  - # 14
    frequency:    7.1127338787
  - # 15
    frequency:    7.1546411632
  - # 16
    frequency:    9.0330501324
  - # 17
    frequency:   13.9045542413
  - # 18
    frequency:   15.4090064747
  - # 19
    frequency:   15.4116704460
  - # 20
    frequency:   17.0688757379
  - # 21
    frequency:   17.0719120004
  - # 22
    frequency:   37.7691791791
  - # 23
    frequency:   59.1298705836
  - # 24
    frequency:   68.4010866523

- q-position: [    0.0505051,    0.0000000,    0.0000000 ]
  distance:    0.0175960
  band:
  - # 1
    frequency:   -2.7859951373
  - # 2
    frequency:   -2.7740642345
  - # 3
    frequency:   -0.1349560190
  - # 4
    frequency:    0.1279943514
  - # 5
    frequency:    0.8399528386
  - # 6
    frequency:    0.8801288605
  - # 7
    frequency:    1.0110988679
  - # 8
    frequency:    3.0653420010
  - # 9
    frequency:    3.0833830421
  - # 10
    frequency:    4.0185482209
  - # 11
    frequency:    6.0827861753
  - # 12
    frequency:    6.1274216620
  - # 13
    frequency:    7.0806448520
  - # 14
    frequency:    7.1247866445
  - # 15
    frequency:    7.1646070520
  - # 16
    frequency:    9.0284583494
  - # 17
    frequency:   13.9056828326
  - # 18
    frequency:   15.4149292553
  - # 19
    frequency:   15.4183558600
  - # 20
    frequency:   17.0640992258
  - # 21
    frequency:   17.0682355478
  - # 22
    frequency:   37.7698135411
  - # 23
    frequency:   59.1242224014
  - # 24
    frequency:   68.3806727211

- q-position: [    0.0555556,    0.0000000,    0.0000000 ]
  distance:    0.0193556
  band:
  - # 1
    frequency:   -2.7978743552
  - # 2
    frequency:   -2.7852731685
  - # 3
    frequency:   -0.1417232452
  - # 4
    frequency:    0.1545964680
  - # 5
    frequency:    0.8866711924
  - # 6
    frequency:    0.8867252635
  - # 7
    frequency:    1.0704287343
  - # 8
    frequency:    3.0571259342
  - # 9
    frequency:    3.0781940652
  - # 10
    frequency:    4.0287552248
  - # 11
    frequency:    6.0836749262
  - # 12
    frequency:    6.1367264132
  - # 13
    frequency:    7.0879894841
  - # 14
    frequency:    7.1349270624
  - # 15
    frequency:    7.1784162268
  - # 16
    frequency:    9.0234340435
  - # 17
    frequency:   13.9069456457
  - # 18
    frequency:   15.4213479976
  - # 19
    frequency:   15.4256785880
  - # 20
    frequency:   17.0586856411
  - # 21
    frequency:   17.0642000798
  - # 22
    frequency:   37.7705108147
  - # 23
    frequency:   59.1180324756
  - # 24
    frequency:   68.3582637558

- q-position: [    0.0606061,    0.0000000,    0.0000000 ]
  distance:    0.0211152
  band:
  - # 1
    frequency:   -2.8102800022
  - # 2
    frequency:   -2.7975492752
  - # 3
    frequency:   -0.1460190602
  - # 4
    frequency:    0.1835035623
  - # 5
    frequency:    0.8938764684
  - # 6
    frequency:    0.9238250200
  - # 7
    frequency:    1.1399927874
  - # 8
    frequency:    3.0487360301
  - # 9
    frequency:    3.0727927633
  - # 10
    frequency:    4.0398189582
  - # 11
    frequency:    6.0846994770
  - # 12
    frequency:    6.1466322899
  - # 13
    frequency:    7.0956991253
  - # 14
    frequency:    7.1430858857
  - # 15
    frequency:    7.1960372759
  - # 16
    frequency:    9.0179919709
  - # 17
    frequency:   13.9083445885
  - # 18
    frequency:   15.4282246396
  - # 19
    frequency:   15.4336189986
  - # 20
    frequency:   17.0525986600
  - # 21
    frequency:   17.0598123237
  - # 22
    frequency:   37.7712698705
  - # 23
    frequency:   59.1113161734
  - # 24
    frequency:   68.3339047973

- q-position: [    0.0656566,    0.0000000,    0.0000000 ]
  distance:    0.0228748
  band:
  - # 1
    frequency:   -2.8231005680
  - # 2
    frequency:   -2.8108892923
  - # 3
    frequency:   -0.1472613330
  - # 4
    frequency:    0.2146228930
  - # 5
    frequency:    0.9017445823
  - # 6
    frequency:    0.9559937255
  - # 7
    frequency:    1.2148902855
  - # 8
    frequency:    3.0403350999
  - # 9
    frequency:    3.0672472234
  - # 10
    frequency:    4.0517149948
  - # 11
    frequency:    6.0858674325
  - # 12
    frequency:    6.1570779170
  - # 13
    frequency:    7.1036997270
  - # 14
    frequency:    7.1499227221
  - # 15
    frequency:    7.2167066682
  - # 16
    frequency:    9.0121480393
  - # 17
    frequency:   13.9098806076
  - # 18
    frequency:   15.4355175843
  - # 19
    frequency:   15.4421557359
  - # 20
    frequency:   17.0458003339
  - # 21
    frequency:   17.0550789143
  - # 22
    frequency:   37.7720894856
  - # 23
    frequency:   59.1040901041
  - # 24
    frequency:   68.3076446582

- q-position: [    0.0707071,    0.0000000,    0.0000000 ]
  distance:    0.0246344
  band:
  - # 1
    frequency:   -2.8362299695
  - # 2
    frequency:   -2.8252881292
  - # 3
    frequency:   -0.1446418545
  - # 4
    frequency:    0.2478528098
  - # 5
    frequency:    0.9102725892
  - # 6
    frequency:    0.9862260489
  - # 7
    frequency:    1.2919552186
  - # 8
    frequency:    3.0320953058
  - # 9
    frequency:    3.0616279516
  - # 10
    frequency:    4.0644208402
  - # 11
    frequency:    6.0871849804
  - # 12
    frequency:    6.1680026058
  - # 13
    frequency:    7.1119170838
  - # 14
    frequency:    7.1560385407
  - # 15
    frequency:    7.2397174205
  - # 16
    frequency:    9.0059192294
  - # 17
    frequency:   13.9115534675
  - # 18
    frequency:   15.4431817230
  - # 19
    frequency:   15.4512657629
  - # 20
    frequency:   17.0382515594
  - # 21
    frequency:   17.0500062308
  - # 22
    frequency:   37.7729683462
  - # 23
    frequency:   59.0963720619
  - # 24
    frequency:   68.2795357864

- q-position: [    0.0757576,    0.0000000,    0.0000000 ]
  distance:    0.0263940
  band:
  - # 1
    frequency:   -2.8495683782
  - # 2
    frequency:   -2.8407384294
  - # 3
    frequency:   -0.1369319397
  - # 4
    frequency:    0.2830851888
  - # 5
    frequency:    0.9194547501
  - # 6
    frequency:    1.0160412315
  - # 7
    frequency:    1.3694852498
  - # 8
    frequency:    3.0241959627
  - # 9
    frequency:    3.0560071614
  - # 10
    frequency:    4.0779168350
  - # 11
    frequency:    6.0886566682
  - # 12
    frequency:    6.1793473519
  - # 13
    frequency:    7.1202778474
  - # 14
    frequency:    7.1617762049
  - # 15
    frequency:    7.2646196635
  - # 16
    frequency:    8.9993235076
  - # 17
    frequency:   13.9133615440
  - # 18
    frequency:   15.4511684584
  - # 19
    frequency:   15.4609244116
  - # 20
    frequency:   17.0299125780
  - # 21
    frequency:   17.0446002331
  - # 22
    frequency:   37.7739050515
  - # 23
    frequency:   59.0881809645
  - # 24
    frequency:   68.2496341169

- q-position: [    0.0808081,    0.0000000,    0.0000000 ]
  distance:    0.0281536
  band:
  - # 1
    frequency:   -2.8630226938
  - # 2
    frequency:   -2.8572301058
  - # 3
    frequency:   -0.1219751117
  - # 4
    frequency:    0.3202077158
  - # 5
    frequency:    0.9292826946
  - # 6
    frequency:    1.0461811072
  - # 7
    frequency:    1.4465445670
  - # 8
    frequency:    3.0168211195
  - # 9
    frequency:    3.0504580573
  - # 10
    frequency:    4.0921868708
  - # 11
    frequency:    6.0902852301
  - # 12
    frequency:    6.1910557702
  - # 13
    frequency:    7.1287104733
  - # 14
    frequency:    7.1673042255
  - # 15
    frequency:    7.2911378992
  - # 16
    frequency:    8.9923797303
  - # 17
    frequency:   13.9153016395
  - # 18
    frequency:   15.4594257251
  - # 19
    frequency:   15.4711054385
  - # 20
    frequency:   17.0207435047
  - # 21
    frequency:   17.0388663018
  - # 22
    frequency:   37.7748981175
  - # 23
    frequency:   59.0795367879
  - # 24
    frequency:   68.2179989152

- q-position: [    0.0858586,    0.0000000,    0.0000000 ]
  distance:    0.0299132
  band:
  - # 1
    frequency:   -2.8765067256
  - # 2
    frequency:   -2.8747498642
  - # 3
    frequency:   -0.0948338075
  - # 4
    frequency:    0.3591058929
  - # 5
    frequency:    0.9397456818
  - # 6
    frequency:    1.0770079061
  - # 7
    frequency:    1.5225673277
  - # 8
    frequency:    3.0101569262
  - # 9
    frequency:    3.0450541230
  - # 10
    frequency:    4.1072188676
  - # 11
    frequency:    6.0920714621
  - # 12
    frequency:    6.2030749537
  - # 13
    frequency:    7.1371460908
  - # 14
    frequency:    7.1726984788
  - # 15
    frequency:    7.3190901900
  - # 16
    frequency:    8.9851075421
  - # 17
    frequency:   13.9173688231
  - # 18
    frequency:   15.4678980081
  - # 19
    frequency:   15.4817810880
  - # 20
    frequency:   17.0107048812
  - # 21
    frequency:   17.0328090831
  - # 22
    frequency:   37.7759459802
  - # 23
    frequency:   59.0704604983
  - # 24
    frequency:   68.1846926099

- q-position: [    0.0909091,    0.0000000,    0.0000000 ]
  distance:    0.0316728
  band:
  - # 1
    frequency:   -2.8932807295
  - # 2
    frequency:   -2.8899411501
  - # 3
    frequency:   -0.0278242871
  - # 4
    frequency:    0.3996647103
  - # 5
    frequency:    0.9508309409
  - # 6
    frequency:    1.1086931284
  - # 7
    frequency:    1.5971704379
  - # 8
    frequency:    3.0043887682
  - # 9
    frequency:    3.0398684186
  - # 10
    frequency:    4.1230049753
  - # 11
    frequency:    6.0940141426
  - # 12
    frequency:    6.2153562413
  - # 13
    frequency:    7.1455192896
  - # 14
    frequency:    7.1779871439
  - # 15
    frequency:    7.3483440236
  - # 16
    frequency:    8.9775272679
  - # 17
    frequency:   13.9195563017
  - # 18
    frequency:   15.4765263555
  - # 19
    frequency:   15.4929221636
  - # 20
    frequency:   16.9997582559
  - # 21
    frequency:   17.0264323415
  - # 22
    frequency:   37.7770469999
  - # 23
    frequency:   59.0609739806
  - # 24
    frequency:   68.1497806180

- q-position: [    0.0959596,    0.0000000,    0.0000000 ]
  distance:    0.0334325
  band:
  - # 1
    frequency:   -2.9128015955
  - # 2
    frequency:   -2.9032533042
  - # 3
    frequency:    0.1005551385
  - # 4
    frequency:    0.4417699715
  - # 5
    frequency:    0.9625240723
  - # 6
    frequency:    1.1413073650
  - # 7
    frequency:    1.6700658709
  - # 8
    frequency:    2.9996981116
  - # 9
    frequency:    3.0349728962
  - # 10
    frequency:    4.1395414802
  - # 11
    frequency:    6.0961099963
  - # 12
    frequency:    6.2278558806
  - # 13
    frequency:    7.1537688192
  - # 14
    frequency:    7.1831734269
  - # 15
    frequency:    7.3787942822
  - # 16
    frequency:    8.9696598025
  - # 17
    frequency:   13.9218553236
  - # 18
    frequency:   15.4852483856
  - # 19
    frequency:   15.5044981076
  - # 20
    frequency:   16.9878667853
  - # 21
    frequency:   17.0197388230
  - # 22
    frequency:   37.7781994649
  - # 23
    frequency:   59.0510999645
  - # 24
    frequency:   68.1133311603

- q-position: [    0.1010101,    0.0000000,    0.0000000 ]
  distance:    0.0351921
  band:
  - # 1
    frequency:   -2.9332868167
  - # 2
    frequency:   -2.9163768713
  - # 3
    frequency:    0.1549180624
  - # 4
    frequency:    0.4853092942
  - # 5
    frequency:    0.9748095007
  - # 6
    frequency:    1.1748651222
  - # 7
    frequency:    1.7410185897
  - # 8
    frequency:    2.9962589791
  - # 9
    frequency:    3.0304377372
  - # 10
    frequency:    4.1568284143
  - # 11
    frequency:    6.0983536973
  - # 12
    frequency:    6.2405355739
  - # 13
    frequency:    7.1618382001
  - # 14
    frequency:    7.1882473175
  - # 15
    frequency:    7.4103520727
  - # 16
    frequency:    8.9615264987
  - # 17
    frequency:   13.9242551176
  - # 18
    frequency:   15.4939982852
  - # 19
    frequency:   15.5164770890
  - # 20
    frequency:   16.9749958592
  - # 21
    frequency:   17.0127301312
  - # 22
    frequency:   37.7794015954
  - # 23
    frequency:   59.0408619478
  - # 24
    frequency:   68.0754150703

- q-position: [    0.1060606,    0.0000000,    0.0000000 ]
  distance:    0.0369517
  band:
  - # 1
    frequency:   -2.9547058648
  - # 2
    frequency:   -2.9292515083
  - # 3
    frequency:    0.2030470522
  - # 4
    frequency:    0.5301728268
  - # 5
    frequency:    0.9876709719
  - # 6
    frequency:    1.2093485036
  - # 7
    frequency:    1.8098263659
  - # 8
    frequency:    2.9942339536
  - # 9
    frequency:    3.0263307198
  - # 10
    frequency:    4.1748688731
  - # 11
    frequency:    6.1007379063
  - # 12
    frequency:    6.2533628964
  - # 13
    frequency:    7.1696762441
  - # 14
    frequency:    7.1931920106
  - # 15
    frequency:    7.4429387894
  - # 16
    frequency:    8.9531490582
  - # 17
    frequency:   13.9267428684
  - # 18
    frequency:   15.5027067980
  - # 19
    frequency:   15.5288261025
  - # 20
    frequency:   16.9611137455
  - # 21
    frequency:   17.0054066169
  - # 22
    frequency:   37.7806515474
  - # 23
    frequency:   59.0302841181
  - # 24
    frequency:   68.0361055948

- q-position: [    0.1111111,    0.0000000,    0.0000000 ]
  distance:    0.0387113
  band:
  - # 1
    frequency:   -2.9770230653
  - # 2
    frequency:   -2.9418224567
  - # 3
    frequency:    0.2492612717
  - # 4
    frequency:    0.5762537277
  - # 5
    frequency:    1.0010920987
  - # 6
    frequency:    1.2447204211
  - # 7
    frequency:    1.8763109581
  - # 8
    frequency:    2.9937696126
  - # 9
    frequency:    3.0227166212
  - # 10
    frequency:    4.1936680624
  - # 11
    frequency:    6.1032533405
  - # 12
    frequency:    6.2663115784
  - # 13
    frequency:    7.1772374865
  - # 14
    frequency:    7.1979876372
  - # 15
    frequency:    7.4764827704
  - # 16
    frequency:    8.9445494279
  - # 17
    frequency:   13.9293037281
  - # 18
    frequency:   15.5113012019
  - # 19
    frequency:   15.5415110763
  - # 20
    frequency:   16.9461922549
  - # 21
    frequency:   16.9977672846
  - # 22
    frequency:   37.7819474171
  - # 23
    frequency:   59.0193912726
  - # 24
    frequency:   67.9954781889

- q-position: [    0.1161616,    0.0000000,    0.0000000 ]
  distance:    0.0404709
  band:
  - # 1
    frequency:   -3.0001974346
  - # 2
    frequency:   -2.9540401706
  - # 3
    frequency:    0.2950182736
  - # 4
    frequency:    0.6234484548
  - # 5
    frequency:    1.0150569648
  - # 6
    frequency:    1.2809323339
  - # 7
    frequency:    1.9403157448
  - # 8
    frequency:    2.9949913327
  - # 9
    frequency:    3.0196566583
  - # 10
    frequency:    4.2132320977
  - # 11
    frequency:    6.1058888707
  - # 12
    frequency:    6.2793616428
  - # 13
    frequency:    7.1844825299
  - # 14
    frequency:    7.2026135673
  - # 15
    frequency:    7.5109172909
  - # 16
    frequency:    8.9357497041
  - # 17
    frequency:   13.9319208622
  - # 18
    frequency:   15.5197052727
  - # 19
    frequency:   15.5544969903
  - # 20
    frequency:   16.9302074238
  - # 21
    frequency:   16.9898097155
  - # 22
    frequency:   37.7832872442
  - # 23
    frequency:   59.0082087357
  - # 24
    frequency:   67.9536103041

- q-position: [    0.1212121,    0.0000000,    0.0000000 ]
  distance:    0.0422305
  band:
  - # 1
    frequency:   -3.0241826278
  - # 2
    frequency:   -2.9658599890
  - # 3
    frequency:    0.3409649475
  - # 4
    frequency:    0.6716569083
  - # 5
    frequency:    1.0295508089
  - # 6
    frequency:    1.3179289839
  - # 7
    frequency:    2.0017073353
  - # 8
    frequency:    2.9979974912
  - # 9
    frequency:    3.0172079734
  - # 10
    frequency:    4.2335665935
  - # 11
    frequency:    6.1086316438
  - # 12
    frequency:    6.2924993966
  - # 13
    frequency:    7.1913783021
  - # 14
    frequency:    7.2070499065
  - # 15
    frequency:    7.5461792792
  - # 16
    frequency:    8.9267720513
  - # 17
    frequency:   13.9345755275
  - # 18
    frequency:   15.5278392352
  - # 19
    frequency:   15.5677480049
  - # 20
    frequency:   16.9131402139
  - # 21
    frequency:   16.9815300099
  - # 22
    frequency:   37.7846690165
  - # 23
    frequency:   58.9967622766
  - # 24
    frequency:   67.9105811719

- q-position: [    0.1262626,    0.0000000,    0.0000000 ]
  distance:    0.0439901
  band:
  - # 1
    frequency:   -3.0489270055
  - # 2
    frequency:   -2.9772418729
  - # 3
    frequency:    0.3874197741
  - # 4
    frequency:    0.7207824614
  - # 5
    frequency:    1.0445608228
  - # 6
    frequency:    1.3556514103
  - # 7
    frequency:    2.0603796998
  - # 8
    frequency:    3.0028532435
  - # 9
    frequency:    3.0154231679
  - # 10
    frequency:    4.2546750840
  - # 11
    frequency:    6.1114672285
  - # 12
    frequency:    6.3057172713
  - # 13
    frequency:    7.1978982298
  - # 14
    frequency:    7.2112785078
  - # 15
    frequency:    7.5822084396
  - # 16
    frequency:    8.9176386366
  - # 17
    frequency:   13.9372471796
  - # 18
    frequency:   15.5356196997
  - # 19
    frequency:   15.5812275997
  - # 20
    frequency:   16.8949772246
  - # 21
    frequency:   16.9729227485
  - # 22
    frequency:   37.7860906736
  - # 23
    frequency:   58.9850780255
  - # 24
    frequency:   67.8664715819

- q-position: [    0.1313131,    0.0000000,    0.0000000 ]
  distance:    0.0457497
  band:
  - # 1
    frequency:   -3.0743738243
  - # 2
    frequency:   -2.9881502195
  - # 3
    frequency:    0.4345397546
  - # 4
    frequency:    0.7707319102
  - # 5
    frequency:    1.0600771143
  - # 6
    frequency:    1.3940389459
  - # 7
    frequency:    2.1162597122
  - # 8
    frequency:    3.0095842675
  - # 9
    frequency:    3.0143498869
  - # 10
    frequency:    4.2765573300
  - # 11
    frequency:    6.1143797821
  - # 12
    frequency:    6.3190135144
  - # 13
    frequency:    7.2040223317
  - # 14
    frequency:    7.2152836737
  - # 15
    frequency:    7.6189466154
  - # 16
    frequency:    8.9083715867
  - # 17
    frequency:   13.9399136037
  - # 18
    frequency:   15.5429595862
  - # 19
    frequency:   15.5948987212
  - # 20
    frequency:   16.8757114163
  - # 21
    frequency:   16.9639809741
  - # 22
    frequency:   37.7875501109
  - # 23
    frequency:   58.9731823890
  - # 24
    frequency:   67.8213636570

- q-position: [    0.1363636,    0.0000000,    0.0000000 ]
  distance:    0.0475093
  band:
  - # 1
    frequency:   -3.1004615457
  - # 2
    frequency:   -2.9985537626
  - # 3
    frequency:    0.4823913117
  - # 4
    frequency:    0.8214153630
  - # 5
    frequency:    1.0760939051
  - # 6
    frequency:    1.4330305944
  - # 7