nqpoint: 300    
npath: 3      
segment_nqpoint:
- 100
- 100
- 100
labels:
- [ 'G', 'M' ]
- [ 'M', 'K' ]
- [ 'K', 'G' ]
reciprocal_lattice:
- [   0.30413815,   0.17559424,   0.00000000 ] # a*
- [   0.00000000,   0.35118848,   0.00000000 ] # b*
- [   0.00000000,   0.00000000,   0.03768851 ] # c*
natom: 7      
lattice:
- [     3.287979520565496,     0.000000000000000,     0.000000000000000 ] # a
- [    -1.643989760282748,     2.847473791924362,     0.000000000000000 ] # b
- [     0.000000000000000,     0.000000000000000,    26.533286970449765 ] # c
points:
- symbol: C # 1
  coordinates: [  0.333332985432215,  0.666666983183674,  0.615606925165408 ]
  mass: 12.010700
- symbol: N # 2
  coordinates: [  0.000000000000000,  0.000000000000000,  0.515315784271613 ]
  mass: 14.006700
- symbol: N # 3
  coordinates: [  0.333332985432215,  0.666666983183674,  0.660803427407116 ]
  mass: 14.006700
- symbol: O # 4
  coordinates: [  0.666666984744047,  0.333332985985144,  0.339196572592884 ]
  mass: 15.999400
- symbol: P # 5
  coordinates: [  0.666666984744047,  0.333332985985144,  0.395483313135684 ]
  mass: 30.973762
- symbol: Sc # 6
  coordinates: [  0.333332985432215,  0.666666983183674,  0.470211369008213 ]
  mass: 44.955912
- symbol: Sc # 7
  coordinates: [  0.666666984744047,  0.333332985985144,  0.560946473873114 ]
  mass: 44.955912

phonon:
- q-position: [    0.0000000,    0.0000000,    0.0000000 ]
  distance:    0.0000000
  band:
  - # 1
    frequency:   -2.1063449470
  - # 2
    frequency:   -2.1063449470
  - # 3
    frequency:   -0.0000187467
  - # 4
    frequency:    0.0000002439
  - # 5
    frequency:    0.0000161746
  - # 6
    frequency:    2.0182068331
  - # 7
    frequency:    2.0182068332
  - # 8
    frequency:    4.7696254469
  - # 9
    frequency:    4.7696254469
  - # 10
    frequency:    5.4914140114
  - # 11
    frequency:    5.8919839982
  - # 12
    frequency:    5.8919839983
  - # 13
    frequency:    8.5714016583
  - # 14
    frequency:    8.5714016583
  - # 15
    frequency:    8.7327272392
  - # 16
    frequency:   11.1085064091
  - # 17
    frequency:   13.7359377353
  - # 18
    frequency:   13.7359377354
  - # 19
    frequency:   13.8789809783
  - # 20
    frequency:   34.2674648753
  - # 21
    frequency:   62.4225696239

- q-position: [    0.0050505,    0.0000000,    0.0000000 ]
  distance:    0.0017737
  band:
  - # 1
    frequency:   -2.1062861005
  - # 2
    frequency:   -2.1059498762
  - # 3
    frequency:    0.0019472249
  - # 4
    frequency:    0.0525655096
  - # 5
    frequency:    0.1150573036
  - # 6
    frequency:    2.0184796365
  - # 7
    frequency:    2.0190026654
  - # 8
    frequency:    4.7694169001
  - # 9
    frequency:    4.7694290513
  - # 10
    frequency:    5.4909083598
  - # 11
    frequency:    5.8924321148
  - # 12
    frequency:    5.8937412219
  - # 13
    frequency:    8.5714583054
  - # 14
    frequency:    8.5720600807
  - # 15
    frequency:    8.7327516955
  - # 16
    frequency:   11.1078912207
  - # 17
    frequency:   13.7358659267
  - # 18
    frequency:   13.7360165960
  - # 19
    frequency:   13.8790049270
  - # 20
    frequency:   34.2672097643
  - # 21
    frequency:   62.4224943480

- q-position: [    0.0101010,    0.0000000,    0.0000000 ]
  distance:    0.0035474
  band:
  - # 1
    frequency:   -2.1061100420
  - # 2
    frequency:   -2.1047737049
  - # 3
    frequency:    0.0077695420
  - # 4
    frequency:    0.1048997655
  - # 5
    frequency:    0.2296829971
  - # 6
    frequency:    2.0193097492
  - # 7
    frequency:    2.0214344647
  - # 8
    frequency:    4.7687921579
  - # 9
    frequency:    4.7688300642
  - # 10
    frequency:    5.4894460734
  - # 11
    frequency:    5.8937751110
  - # 12
    frequency:    5.8989632244
  - # 13
    frequency:    8.5716277236
  - # 14
    frequency:    8.5740266749
  - # 15
    frequency:    8.7328317119
  - # 16
    frequency:   11.1060474060
  - # 17
    frequency:   13.7356510199
  - # 18
    frequency:   13.7362528213
  - # 19
    frequency:   13.8790763272
  - # 20
    frequency:   34.2664448945
  - # 21
    frequency:   62.4222686393

- q-position: [    0.0151515,    0.0000000,    0.0000000 ]
  distance:    0.0053210
  band:
  - # 1
    frequency:   -2.1058182096
  - # 2
    frequency:   -2.1028430738
  - # 3
    frequency:    0.0174330904
  - # 4
    frequency:    0.1567665233
  - # 5
    frequency:    0.3434200666
  - # 6
    frequency:    2.0207324557
  - # 7
    frequency:    2.0256380203
  - # 8
    frequency:    4.7677539163
  - # 9
    frequency:    4.7677996305
  - # 10
    frequency:    5.4871824184
  - # 11
    frequency:    5.8960089353
  - # 12
    frequency:    5.9075093013
  - # 13
    frequency:    8.5719083479
  - # 14
    frequency:    8.5772747795
  - # 15
    frequency:    8.7329878930
  - # 16
    frequency:   11.1029802073
  - # 17
    frequency:   13.7352945794
  - # 18
    frequency:   13.7366453424
  - # 19
    frequency:   13.8791938421
  - # 20
    frequency:   34.2651716537
  - # 21
    frequency:   62.4218928550

- q-position: [    0.0202020,    0.0000000,    0.0000000 ]
  distance:    0.0070947
  band:
  - # 1
    frequency:   -2.1054129831
  - # 2
    frequency:   -2.1002008491
  - # 3
    frequency:    0.0308771905
  - # 4
    frequency:    0.2079195604
  - # 5
    frequency:    0.4557600584
  - # 6
    frequency:    2.0228071289
  - # 7
    frequency:    2.0318491912
  - # 8
    frequency:    4.7662914656
  - # 9
    frequency:    4.7663066761
  - # 10
    frequency:    5.4843501535
  - # 11
    frequency:    5.8991268655
  - # 12
    frequency:    5.9191695095
  - # 13
    frequency:    8.5722975837
  - # 14
    frequency:    8.5817577228
  - # 15
    frequency:    8.7332568843
  - # 16
    frequency:   11.0986983314
  - # 17
    frequency:   13.7347992349
  - # 18
    frequency:   13.7371923824
  - # 19
    frequency:   13.8793552457
  - # 20
    frequency:   34.2633923514
  - # 21
    frequency:   62.4213675893

- q-position: [    0.0252525,    0.0000000,    0.0000000 ]
  distance:    0.0088684
  band:
  - # 1
    frequency:   -2.1048976600
  - # 2
    frequency:   -2.0969040567
  - # 3
    frequency:    0.0480163387
  - # 4
    frequency:    0.2580977400
  - # 5
    frequency:    0.5661160786
  - # 6
    frequency:    2.0256179964
  - # 7
    frequency:    2.0404178446
  - # 8
    frequency:    4.7642445248
  - # 9
    frequency:    4.7644567524
  - # 10
    frequency:    5.4812294707
  - # 11
    frequency:    5.9031195538
  - # 12
    frequency:    5.9336925769
  - # 13
    frequency:    8.5727918277
  - # 14
    frequency:    8.5874051288
  - # 15
    frequency:    8.7336951665
  - # 16
    frequency:   11.0932139043
  - # 17
    frequency:   13.7341687141
  - # 18
    frequency:   13.7378914626
  - # 19
    frequency:   13.8795574256
  - # 20
    frequency:   34.2611102126
  - # 21
    frequency:   62.4206936725

- q-position: [    0.0303030,    0.0000000,    0.0000000 ]
  distance:    0.0106421
  band:
  - # 1
    frequency:   -2.1042764227
  - # 2
    frequency:   -2.0930214045
  - # 3
    frequency:    0.0687395210
  - # 4
    frequency:    0.3070201810
  - # 5
    frequency:    0.6737954027
  - # 6
    frequency:    2.0292750390
  - # 7
    frequency:    2.0518259660
  - # 8
    frequency:    4.7615866351
  - # 9
    frequency:    4.7622122866
  - # 10
    frequency:    5.4781186346
  - # 11
    frequency:    5.9079750896
  - # 12
    frequency:    5.9508123349
  - # 13
    frequency:    8.5733864968
  - # 14
    frequency:    8.5941170701
  - # 15
    frequency:    8.7343850400
  - # 16
    frequency:   11.0865424098
  - # 17
    frequency:   13.7334078868
  - # 18
    frequency:   13.7387394116
  - # 19
    frequency:   13.8797963883
  - # 20
    frequency:   34.2583293694
  - # 21
    frequency:   62.4198721684

- q-position: [    0.0353535,    0.0000000,    0.0000000 ]
  distance:    0.0124158
  band:
  - # 1
    frequency:   -2.1035542997
  - # 2
    frequency:   -2.0886306768
  - # 3
    frequency:    0.0929091152
  - # 4
    frequency:    0.3543816583
  - # 5
    frequency:    0.7779742381
  - # 6
    frequency:    2.0339148212
  - # 7
    frequency:    2.0667068236
  - # 8
    frequency:    4.7582389487
  - # 9
    frequency:    4.7595832575
  - # 10
    frequency:    5.4753101841
  - # 11
    frequency:    5.9136790795
  - # 12
    frequency:    5.9702679318
  - # 13
    frequency:    8.5740760642
  - # 14
    frequency:    8.6017554802
  - # 15
    frequency:    8.7354433836
  - # 16
    frequency:   11.0787026123
  - # 17
    frequency:   13.7325228188
  - # 18
    frequency:   13.7397323767
  - # 19
    frequency:   13.8800672650
  - # 20
    frequency:   34.2550548510
  - # 21
    frequency:   62.4189043726

- q-position: [    0.0404040,    0.0000000,    0.0000000 ]
  distance:    0.0141894
  band:
  - # 1
    frequency:   -2.1027371218
  - # 2
    frequency:   -2.0838162409
  - # 3
    frequency:    0.1203592318
  - # 4
    frequency:    0.3998484184
  - # 5
    frequency:    0.8776809503
  - # 6
    frequency:    2.0397009728
  - # 7
    frequency:    2.0858583547
  - # 8
    frequency:    4.7541209938
  - # 9
    frequency:    4.7565814908
  - # 10
    frequency:    5.4730742068
  - # 11
    frequency:    5.9202147437
  - # 12
    frequency:    5.9918165152
  - # 13
    frequency:    8.5748541041
  - # 14
    frequency:    8.6101324767
  - # 15
    frequency:    8.7370335322
  - # 16
    frequency:   11.0697164673
  - # 17
    frequency:   13.7315208340
  - # 18
    frequency:   13.7408658376
  - # 19
    frequency:   13.8803643214
  - # 20
    frequency:   34.2512925706
  - # 21
    frequency:   62.4177918088

- q-position: [    0.0454545,    0.0000000,    0.0000000 ]
  distance:    0.0159631
  band:
  - # 1
    frequency:   -2.1018314750
  - # 2
    frequency:   -2.0786668104
  - # 3
    frequency:    0.1508933015
  - # 4
    frequency:    0.4430546767
  - # 5
    frequency:    0.9717999446
  - # 6
    frequency:    2.0468239407
  - # 7
    frequency:    2.1102381365
  - # 8
    frequency:    4.7491560104
  - # 9
    frequency:    4.7532206632
  - # 10
    frequency:    5.4716479660
  - # 11
    frequency:    5.9275630281
  - # 12
    frequency:    6.0152393879
  - # 13
    frequency:    8.5757133424
  - # 14
    frequency:    8.6189965009
  - # 15
    frequency:    8.7393793631
  - # 16
    frequency:   11.0596090188
  - # 17
    frequency:   13.7304105816
  - # 18
    frequency:   13.7421346224
  - # 19
    frequency:   13.8806809685
  - # 20
    frequency:   34.2470493104
  - # 21
    frequency:   62.4165362257

- q-position: [    0.0505051,    0.0000000,    0.0000000 ]
  distance:    0.0177368
  band:
  - # 1
    frequency:   -2.1008446530
  - # 2
    frequency:   -2.0732735205
  - # 3
    frequency:    0.1842806720
  - # 4
    frequency:    0.4836001207
  - # 5
    frequency:    1.0591149257
  - # 6
    frequency:    2.0554995416
  - # 7
    frequency:    2.1409208899
  - # 8
    frequency:    4.7432761894
  - # 9
    frequency:    4.7495162994
  - # 10
    frequency:    5.4712303352
  - # 11
    frequency:    5.9357027306
  - # 12
    frequency:    6.0403435399
  - # 13
    frequency:    8.5766457147
  - # 14
    frequency:    8.6280207244
  - # 15
    frequency:    8.7427771345
  - # 16
    frequency:   11.0484082900
  - # 17
    frequency:   13.7292021071
  - # 18
    frequency:   13.7435329259
  - # 19
    frequency:   13.8810097783
  - # 20
    frequency:   34.2423327039
  - # 21
    frequency:   62.4151395929

- q-position: [    0.0555556,    0.0000000,    0.0000000 ]
  distance:    0.0195105
  band:
  - # 1
    frequency:   -2.0997846103
  - # 2
    frequency:   -2.0677282808
  - # 3
    frequency:    0.2202519092
  - # 4
    frequency:    0.5210487641
  - # 5
    frequency:    1.1384116812
  - # 6
    frequency:    2.0659657881
  - # 7
    frequency:    2.1789982051
  - # 8
    frequency:    4.7364273946
  - # 9
    frequency:    4.7454857583
  - # 10
    frequency:    5.4719795835
  - # 11
    frequency:    5.9446106406
  - # 12
    frequency:    6.0669603987
  - # 13
    frequency:    8.5776424305
  - # 14
    frequency:    8.6368051524
  - # 15
    frequency:    8.7475936413
  - # 16
    frequency:   11.0361451661
  - # 17
    frequency:   13.7279069227
  - # 18
    frequency:   13.7450543297
  - # 19
    frequency:   13.8813425018
  - # 20
    frequency:   34.2371512171
  - # 21
    frequency:   62.4136040965

- q-position: [    0.0606061,    0.0000000,    0.0000000 ]
  distance:    0.0212842
  band:
  - # 1
    frequency:   -2.0986599181
  - # 2
    frequency:   -2.0621223306
  - # 3
    frequency:    0.2584924098
  - # 4
    frequency:    0.5549294160
  - # 5
    frequency:    1.2086463555
  - # 6
    frequency:    2.0784774722
  - # 7
    frequency:    2.2254145517
  - # 8
    frequency:    4.7285729807
  - # 9
    frequency:    4.7411482072
  - # 10
    frequency:    5.4740134800
  - # 11
    frequency:    5.9542616899
  - # 12
    frequency:    6.0949431969
  - # 13
    frequency:    8.5786940429
  - # 14
    frequency:    8.6449112027
  - # 15
    frequency:    8.7542319030
  - # 16
    frequency:   11.0228532751
  - # 17
    frequency:   13.7265380761
  - # 18
    frequency:   13.7466918245
  - # 19
    frequency:   13.8816700919
  - # 20
    frequency:   34.2315141259
  - # 21
    frequency:   62.4119321334

- q-position: [    0.0656566,    0.0000000,    0.0000000 ]
  distance:    0.0230578
  band:
  - # 1
    frequency:   -2.0974797247
  - # 2
    frequency:   -2.0565449063
  - # 3
    frequency:    0.2986338020
  - # 4
    frequency:    0.5847377895
  - # 5
    frequency:    1.2691488904
  - # 6
    frequency:    2.0932981378
  - # 7
    frequency:    2.2807701515
  - # 8
    frequency:    4.7196964124
  - # 9
    frequency:    4.7365245814
  - # 10
    frequency:    5.4774110789
  - # 11
    frequency:    5.9646291127
  - # 12
    frequency:    6.1241638616
  - # 13
    frequency:    8.5797905234
  - # 14
    frequency:    8.6519411358
  - # 15
    frequency:    8.7630520021
  - # 16
    frequency:   11.0085688691
  - # 17
    frequency:   13.7251102130
  - # 18
    frequency:   13.7484378338
  - # 19
    frequency:   13.8819827316
  - # 20
    frequency:   34.2254314927
  - # 21
    frequency:   62.4101263068

- q-position: [    0.0707071,    0.0000000,    0.0000000 ]
  distance:    0.0248315
  band:
  - # 1
    frequency:   -2.0962537217
  - # 2
    frequency:   -2.0510819536
  - # 3
    frequency:    0.3402424480
  - # 4
    frequency:    0.6099398030
  - # 5
    frequency:    1.3197895781
  - # 6
    frequency:    2.1106893784
  - # 7
    frequency:    2.3451632461
  - # 8
    frequency:    4.7098025386
  - # 9
    frequency:    4.7316375262
  - # 10
    frequency:    5.4822157913
  - # 11
    frequency:    5.9756846134
  - # 12
    frequency:    6.1545099450
  - # 13
    frequency:    8.5809213414
  - # 14
    frequency:    8.6576386605
  - # 15
    frequency:    8.7742707393
  - # 16
    frequency:   10.9933307083
  - # 17
    frequency:   13.7236396310
  - # 18
    frequency:   13.7502842396
  - # 19
    frequency:   13.8822698663
  - # 20
    frequency:   34.2189141402
  - # 21
    frequency:   62.4081894193

- q-position: [    0.0757576,    0.0000000,    0.0000000 ]
  distance:    0.0266052
  band:
  - # 1
    frequency:   -2.0949921179
  - # 2
    frequency:   -2.0458148595
  - # 3
    frequency:    0.3828041742
  - # 4
    frequency:    0.6299748850
  - # 5
    frequency:    1.3610320646
  - # 6
    frequency:    2.1308978911
  - # 7
    frequency:    2.4181491046
  - # 8
    frequency:    4.6989175513
  - # 9
    frequency:    4.7265113222
  - # 10
    frequency:    5.4884394387
  - # 11
    frequency:    5.9873985389
  - # 12
    frequency:    6.1858818544
  - # 13
    frequency:    8.5820755473
  - # 14
    frequency:    8.6619472807
  - # 15
    frequency:    8.7879035374
  - # 16
    frequency:   10.9771799545
  - # 17
    frequency:   13.7221443216
  - # 18
    frequency:   13.7522224093
  - # 19
    frequency:   13.8825202440
  - # 20
    frequency:   34.2119736237
  - # 21
    frequency:   62.4061244671

- q-position: [    0.0808081,    0.0000000,    0.0000000 ]
  distance:    0.0283789
  band:
  - # 1
    frequency:   -2.0937056212
  - # 2
    frequency:   -2.0408192320
  - # 3
    frequency:    0.4257042047
  - # 4
    frequency:    0.6442570606
  - # 5
    frequency:    1.3938518260
  - # 6
    frequency:    2.1541413060
  - # 7
    frequency:    2.4988375302
  - # 8
    frequency:    4.6870878134
  - # 9
    frequency:    4.7211717909
  - # 10
    frequency:    5.4960669870
  - # 11
    frequency:    5.9997400548
  - # 12
    frequency:    6.2181904828
  - # 13
    frequency:    8.5832418593
  - # 14
    frequency:    8.6649846787
  - # 15
    frequency:    8.8037902877
  - # 16
    frequency:   10.9601600750
  - # 17
    frequency:   13.7206439966
  - # 18
    frequency:   13.7542432249
  - # 19
    frequency:   13.8827219608
  - # 20
    frequency:   34.2046222003
  - # 21
    frequency:   62.4039346327

- q-position: [    0.0858586,    0.0000000,    0.0000000 ]
  distance:    0.0301525
  band:
  - # 1
    frequency:   -2.0924054313
  - # 2
    frequency:   -2.0361638001
  - # 3
    frequency:    0.4682013162
  - # 4
    frequency:    0.6521702926
  - # 5
    frequency:    1.4195737048
  - # 6
    frequency:    2.1805943656
  - # 7
    frequency:    2.5860758964
  - # 8
    frequency:    4.6743778514
  - # 9
    frequency:    4.7156461811
  - # 10
    frequency:    5.5050616422
  - # 11
    frequency:    6.0126773210
  - # 12
    frequency:    6.2513552533
  - # 13
    frequency:    8.5844087518
  - # 14
    frequency:    8.6669631451
  - # 15
    frequency:    8.8216751239
  - # 16
    frequency:   10.9423167637
  - # 17
    frequency:   13.7191600954
  - # 18
    frequency:   13.7563371121
  - # 19
    frequency:   13.8828625158
  - # 20
    frequency:   34.1968727978
  - # 21
    frequency:   62.4016232779

- q-position: [    0.0909091,    0.0000000,    0.0000000 ]
  distance:    0.0319262
  band:
  - # 1
    frequency:   -2.0911032438
  - # 2
    frequency:   -2.0319095376
  - # 3
    frequency:    0.5093957735
  - # 4
    frequency:    0.6530528663
  - # 5
    frequency:    1.4397105662
  - # 6
    frequency:    2.2103773197
  - # 7
    frequency:    2.6786355027
  - # 8
    frequency:    4.6608678523
  - # 9
    frequency:    4.7099630373
  - # 10
    frequency:    5.5153699885
  - # 11
    frequency:    6.0261776663
  - # 12
    frequency:    6.2853025485
  - # 13
    frequency:    8.5855645470
  - # 14
    frequency:    8.6681149570
  - # 15
    frequency:    8.8412812134
  - # 16
    frequency:   10.9236978822
  - # 17
    frequency:   13.7177157711
  - # 18
    frequency:   13.7584940722
  - # 19
    frequency:   13.8829288743
  - # 20
    frequency:   34.1887389803
  - # 21
    frequency:   62.3991939361

- q-position: [    0.0959596,    0.0000000,    0.0000000 ]
  distance:    0.0336999
  band:
  - # 1
    frequency:   -2.0898112676
  - # 2
    frequency:   -2.0281091284
  - # 3
    frequency:    0.5481921938
  - # 4
    frequency:    0.6461630585
  - # 5
    frequency:    1.4558561815
  - # 6
    frequency:    2.2435482624
  - # 7
    frequency:    2.7753460394
  - # 8
    frequency:    4.6466509930
  - # 9
    frequency:    4.7041520495
  - # 10
    frequency:    5.5269268873
  - # 11
    frequency:    6.0402077597
  - # 12
    frequency:    6.3199644775
  - # 13
    frequency:    8.5866975061
  - # 14
    frequency:    8.6686507962
  - # 15
    frequency:    8.8623524703
  - # 16
    frequency:   10.9043534273
  - # 17
    frequency:   13.7163358488
  - # 18
    frequency:   13.7607037140
  - # 19
    frequency:   13.8829075426
  - # 20
    frequency:   34.1802349131
  - # 21
    frequency:   62.3966503041

- q-position: [    0.1010101,    0.0000000,    0.0000000 ]
  distance:    0.0354736
  band:
  - # 1
    frequency:   -2.0885422581
  - # 2
    frequency:   -2.0248068751
  - # 3
    frequency:    0.5832618125
  - # 4
    frequency:    0.6306133858
  - # 5
    frequency:    1.4696381778
  - # 6
    frequency:    2.2801005347
  - # 7
    frequency:    2.8751662996
  - # 8
    frequency:    4.6318308695
  - # 9
    frequency:    4.6982438879
  - # 10
    frequency:    5.5396599228
  - # 11
    frequency:    6.0547337752
  - # 12
    frequency:    6.3552779292
  - # 13
    frequency:    8.5877959223
  - # 14
    frequency:    8.6687464515
  - # 15
    frequency:    8.8846669348
  - # 16
    frequency:   10.8843355284
  - # 17
    frequency:   13.7150467547
  - # 18
    frequency:   13.7629552877
  - # 19
    frequency:   13.8827846558
  - # 20
    frequency:   34.1713753253
  - # 21
    frequency:   62.3939962338

- q-position: [    0.1060606,    0.0000000,    0.0000000 ]
  distance:    0.0372473
  band:
  - # 1
    frequency:   -2.0873095698
  - # 2
    frequency:   -2.0220391268
  - # 3
    frequency:    0.6052491329
  - # 4
    frequency:    0.6130139067
  - # 5
    frequency:    1.4827040978
  - # 6
    frequency:    2.3199653825
  - # 7
    frequency:    2.9772057831
  - # 8
    frequency:    4.6165192217
  - # 9
    frequency:    4.6922700241
  - # 10
    frequency:    5.5534932596
  - # 11
    frequency:    6.0697215504
  - # 12
    frequency:    6.3911838614
  - # 13
    frequency:    8.5888482132
  - # 14
    frequency:    8.6685441531
  - # 15
    frequency:    8.9080354689
  - # 16
    frequency:   10.8636984810
  - # 17
    frequency:   13.7138764104
  - # 18
    frequency:   13.7652377190
  - # 19
    frequency:   13.8825460805
  - # 20
    frequency:   34.1621754709
  - # 21
    frequency:   62.3912357236

- q-position: [    0.1111111,    0.0000000,    0.0000000 ]
  distance:    0.0390209
  band:
  - # 1
    frequency:   -2.0861272314
  - # 2
    frequency:   -2.0198352596
  - # 3
    frequency:    0.5684163841
  - # 4
    frequency:    0.6355913359
  - # 5
    frequency:    1.4967007388
  - # 6
    frequency:    2.3630191191
  - # 7
    frequency:    3.0807176950
  - # 8
    frequency:    4.6008340726
  - # 9
    frequency:    4.6862625421
  - # 10
    frequency:    5.5683508576
  - # 11
    frequency:    6.0851367357
  - # 12
    frequency:    6.4276267821
  - # 13
    frequency:    8.5898430114
  - # 14
    frequency:    8.6681588529
  - # 15
    frequency:    8.9322954442
  - # 16
    frequency:   10.8424988220
  - # 17
    frequency:   13.7128540867
  - # 18
    frequency:   13.7675396451
  - # 19
    frequency:   13.8821775385
  - # 20
    frequency:   34.1526510891
  - # 21
    frequency:   62.3883729089

- q-position: [    0.1161616,    0.0000000,    0.0000000 ]
  distance:    0.0407946
  band:
  - # 1
    frequency:   -2.0850100496
  - # 2
    frequency:   -2.0182192050
  - # 3
    frequency:    0.5174740871
  - # 4
    frequency:    0.6489030998
  - # 5
    frequency:    1.5132101050
  - # 6
    frequency:    2.4090933512
  - # 7
    frequency:    3.1850792261
  - # 8
    frequency:    4.5848983549
  - # 9
    frequency:    4.6802539449
  - # 10
    frequency:    5.5841590510
  - # 11
    frequency:    6.1009449346
  - # 12
    frequency:    6.4645543827
  - # 13
    frequency:    8.5907692548
  - # 14
    frequency:    8.6676849064
  - # 15
    frequency:    8.9573039621
  - # 16
    frequency:   10.8207954507
  - # 17
    frequency:   13.7120102114
  - # 18
    frequency:   13.7698494513
  - # 19
    frequency:   13.8816647539
  - # 20
    frequency:   34.1428183620
  - # 21
    frequency:   62.3854120536

- q-position: [    0.1212121,    0.0000000,    0.0000000 ]
  distance:    0.0425683
  band:
  - # 1
    frequency:   -2.0839737490
  - # 2
    frequency:   -2.0172114877
  - # 3
    frequency:    0.4475765961
  - # 4
    frequency:    0.6506846277
  - # 5
    frequency:    1.5336266622
  - # 6
    frequency:    2.4579865811
  - # 7
    frequency:    3.2897684881
  - # 8
    frequency:    4.5688390744
  - # 9
    frequency:    4.6742769600
  - # 10
    frequency:    5.6008485438
  - # 11
    frequency:    6.1171118335
  - # 12
    frequency:    6.5019172919
  - # 13
    frequency:    8.5916162743
  - # 14
    frequency:    8.6672016185
  - # 15
    frequency:    8.9829321374
  - # 16
    frequency:   10.7986498033
  - # 17
    frequency:   13.7113761233
  - # 18
    frequency:   13.7721553083
  - # 19
    frequency:   13.8809936326
  - # 20
    frequency:   34.1326938729
  - # 21
    frequency:   62.3823575398

- q-position: [    0.1262626,    0.0000000,    0.0000000 ]
  distance:    0.0443420
  band:
  - # 1
    frequency:   -2.0830351566
  - # 2
    frequency:   -2.0168317191
  - # 3
    frequency:    0.3475821252
  - # 4
    frequency:    0.6385239794
  - # 5
    frequency:    1.5590012368
  - # 6
    frequency:    2.5094756497
  - # 7
    frequency:    3.3943425342
  - # 8
    frequency:    4.5527870912
  - # 9
    frequency:    4.6683643515
  - # 10
    frequency:    5.6183558976
  - # 11
    frequency:    6.1336033202
  - # 12
    frequency:    6.5396689207
  - # 13
    frequency:    8.5923738778
  - # 14
    frequency:    8.6667774112
  - # 15
    frequency:    9.0090606797
  - # 16
    frequency:   10.7761260841
  - # 17
    frequency:   13.7109837614
  - # 18
    frequency:   13.7744452108
  - # 19
    frequency:   13.8801504821
  - # 20
    frequency:   34.1222945617
  - # 21
    frequency:   62.3792138584

- q-position: [    0.1313131,    0.0000000,    0.0000000 ]
  distance:    0.0461157
  band:
  - # 1
    frequency:   -2.0822124471
  - # 2
    frequency:   -2.0171014994
  - # 3
    frequency:    0.1715393103
  - # 4
    frequency:    0.6097121400
  - # 5
    frequency:    1.5899166390
  - # 6
    frequency:    2.5633259069
  - # 7
    frequency:    3.4984179155
  - # 8
    frequency:    4.5368776965
  - # 9
    frequency:    4.6625487447
  - # 10
    frequency:    5.6366245975
  - # 11
    frequency:    6.1503855920
  - # 12
    frequency:    6.5777653776
  - # 13
    frequency:    8.5930324325
  - # 14
    frequency:    8.6664728015
  - # 15
    frequency:    9.0355765820
  - # 16
    frequency:   10.7532915601
  - # 17
    frequency:   13.7108652768
  - # 18
    frequency:   13.7767070173
  - # 19
    frequency:   13.8791222867
  - # 20
    frequency:   34.1116376807
  - # 21
    frequency:   62.3759855989

- q-position: [    0.1363636,    0.0000000,    0.0000000 ]
  distance:    0.0478893
  band:
  - # 1
    frequency:   -2.0815254638
  - # 2
    frequency:   -2.0180477062
  - # 3
    frequency:   -0.2712569805
  - # 4
    frequency:    0.5606476397
  - # 5
    frequency:    1.6264600020
  - # 6
    frequency:    2.6192994866
  - # 7
    frequency:    3.6016535705
  - # 8
    frequency:    4.5212523896
  - # 9
    frequency:    4.6568624729
  - # 10
    frequency:    5.6556057753
  - # 11
    frequency:    6.1674252525
  - # 12
    frequency:    6.6161654331
  - # 13
    frequency:    8.5935829415
  - # 14
    frequency:    8.6663424576
  - # 15
    frequency:    9.0623706414
  - # 16
    frequency:   10.7302169219
  - # 17
    frequency:   13.7110525469
  - # 18
    frequency:   13.7789284901
  - # 19
    frequency:   13.8778970563
  - # 20
    frequency:   34.1007407491
  - # 21
    frequency:   62.3726774395

- q-position: [    0.1414141,    0.0000000,    0.0000000 ]
  distance:    0.0496630
  band:
  - # 1
    frequency:   -2.0809961421
  - # 2
    frequency:   -2.0197061912
  - # 3
    frequency:   -0.4334614986
  - # 4
    frequency:    0.4850896208
  - # 5
    frequency:    1.6683053169
  - # 6
    frequency:    2.6771615005
  - # 7
    frequency:    3.7037347545
  - # 8
    frequency:    4.5060627650
  - # 9
    frequency:    4.6513374532
  - # 10
    frequency:    5.6752586632
  - # 11
    frequency:    6.1846893979
  - # 12
    frequency:    6.6548305183
  - # 13
    frequency:    8.5940171167
  - # 14
    frequency:    8.6664365709
  - # 15
    frequency:    9.0893355727
  - # 16
    frequency:   10.7069767144
  - # 17
    frequency:   13.7115765659
  - # 18
    frequency:   13.7810973367
  - # 19
    frequency:   13.8764642771
  - # 20
    frequency:   34.0896215069
  - # 21
    frequency:   62.3692941366

- q-position: [    0.1464646,    0.0000000,    0.0000000 ]
  distance:    0.0514367
  band:
  - # 1
    frequency:   -2.0806490698
  - # 2
    frequency:   -2.0221259735
  - # 3
    frequency:   -0.5595874999
  - # 4
    frequency:    0.3678966444
  - # 5
    frequency:    1.7148603969
  - # 6
    frequency:    2.7366842694
  - # 7
    frequency:    3.8043553780
  - # 8
    frequency:    4.4914785904
  - # 9
    frequency:    4.6460051032
  - # 10
    frequency:    5.6955508316
  - # 11
    frequency:    6.2021456932
  - # 12
    frequency:    6.6937247448
  - # 13
    frequency:    8.5943274470
  - # 14
    frequency:    8.6668017247
  - # 15
    frequency:    9.1163645337
  - # 16
    frequency:   10.6836498372
  - # 17
    frequency:   13.7124666710
  - # 18
    frequency:   13.7832012521
  - # 19
    frequency:   13.8748155052
  - # 20
    frequency:   34.0782978686
  - # 21
    frequency:   62.3658405146

- q-position: [    0.1515152,    0.0000000,    0.0000000 ]
  distance:    0.0532104
  band:
  - # 1
    frequency:   -2.0805122307
  - # 2
    frequency:   -2.0253740911
  - # 3
    frequency:   -0.6700211464
  - # 4
    frequency:    0.1246667435
  - # 5
    frequency:    1.7654149140
  - # 6
    frequency:    2.7976498773
  - # 7
    frequency:    3.9031931403
  - # 8
    frequency:    4.4777051646
  - # 9
    frequency:    4.6408963088
  - # 10
    frequency:    5.7164582497
  - # 11
    frequency:    6.2197624391
  - # 12
    frequency:    6.7328149332
  - # 13
    frequency:    8.5945072603
  - # 14
    frequency:    8.6674813896
  - # 15
    frequency:    9.1433499344
  - # 16
    frequency:   10.6603201123
  - # 17
    frequency:   13.7137495449
  - # 18
    frequency:   13.7852279619
  - # 19
    frequency:   13.8729451635
  - # 20
    frequency:   34.0667878767
  - # 21
    frequency:   62.3623214553