nqpoint: 300    
npath: 3      
segment_nqpoint:
- 100
- 100
- 100
labels:
- [ 'G', 'M' ]
- [ 'M', 'K' ]
- [ 'K', 'G' ]
reciprocal_lattice:
- [   0.29028127,   0.16759397,  -0.00000000 ] # a*
- [  -0.00000000,   0.33518794,  -0.00000000 ] # b*
- [   0.00000000,   0.00000000,   0.03404657 ] # c*
natom: 5      
lattice:
- [     3.444934637306713,     0.000000000000000,     0.000000000000000 ] # a
- [    -1.722467318653357,     2.983400910279301,     0.000000000000000 ] # b
- [     0.000000000000002,     0.000000000000004,    29.371535808998626 ] # c
points:
- symbol: C # 1
  coordinates: [  0.000000000000000,  0.000000000000000,  0.513819679821986 ]
  mass: 12.010700
- symbol: Br # 2
  coordinates: [  0.666666984744048,  0.333332985985145,  0.412137972845638 ]
  mass: 79.904000
- symbol: O # 3
  coordinates: [  0.000000000000000,  0.000000000000000,  0.587029683166653 ]
  mass: 15.999400
- symbol: Sc # 4
  coordinates: [  0.333332985432215,  0.666666983183674,  0.476018099074314 ]
  mass: 44.955912
- symbol: Sc # 5
  coordinates: [  0.666666984744048,  0.333332985985145,  0.563408750893821 ]
  mass: 44.955912

phonon:
- q-position: [    0.0000000,    0.0000000,    0.0000000 ]
  distance:    0.0000000
  band:
  - # 1
    frequency:   -0.0000143457
  - # 2
    frequency:   -0.0000001417
  - # 3
    frequency:    0.0000137028
  - # 4
    frequency:    2.8647203920
  - # 5
    frequency:    2.8647203921
  - # 6
    frequency:    4.8557048652
  - # 7
    frequency:    5.3207329583
  - # 8
    frequency:    5.3207329583
  - # 9
    frequency:    9.2571059603
  - # 10
    frequency:    9.2571059603
  - # 11
    frequency:    9.3754469008
  - # 12
    frequency:   12.9256446759
  - # 13
    frequency:   12.9256446759
  - # 14
    frequency:   13.2021827460
  - # 15
    frequency:   15.1279964807

- q-position: [    0.0050505,    0.0000000,    0.0000000 ]
  distance:    0.0016929
  band:
  - # 1
    frequency:    0.0020147735
  - # 2
    frequency:    0.0731460346
  - # 3
    frequency:    0.1075323890
  - # 4
    frequency:    2.8650054747
  - # 5
    frequency:    2.8653645675
  - # 6
    frequency:    4.8533526841
  - # 7
    frequency:    5.3208605644
  - # 8
    frequency:    5.3232799226
  - # 9
    frequency:    9.2458761124
  - # 10
    frequency:    9.2560196165
  - # 11
    frequency:    9.3854312995
  - # 12
    frequency:   12.9134992164
  - # 13
    frequency:   12.9253808986
  - # 14
    frequency:   13.2116623083
  - # 15
    frequency:   15.1285285041

- q-position: [    0.0101010,    0.0000000,    0.0000000 ]
  distance:    0.0033857
  band:
  - # 1
    frequency:    0.0080420883
  - # 2
    frequency:    0.1462170240
  - # 3
    frequency:    0.2148290941
  - # 4
    frequency:    2.8658602677
  - # 5
    frequency:    2.8672509650
  - # 6
    frequency:    4.8464615063
  - # 7
    frequency:    5.3212439269
  - # 8
    frequency:    5.3307665454
  - # 9
    frequency:    9.2190556284
  - # 10
    frequency:    9.2527671975
  - # 11
    frequency:    9.4085219766
  - # 12
    frequency:   12.8810727745
  - # 13
    frequency:   12.9245905392
  - # 14
    frequency:   13.2360992993
  - # 15
    frequency:   15.1301253559

- q-position: [    0.0151515,    0.0000000,    0.0000000 ]
  distance:    0.0050786
  band:
  - # 1
    frequency:    0.0180322457
  - # 2
    frequency:    0.2191381480
  - # 3
    frequency:    0.3216496862
  - # 4
    frequency:    2.8672834142
  - # 5
    frequency:    2.8702413062
  - # 6
    frequency:    4.8354839818
  - # 7
    frequency:    5.3218846718
  - # 8
    frequency:    5.3427740275
  - # 9
    frequency:    9.1848994761
  - # 10
    frequency:    9.2473685362
  - # 11
    frequency:    9.4364837398
  - # 12
    frequency:   12.8354470700
  - # 13
    frequency:   12.9232765049
  - # 14
    frequency:   13.2684369165
  - # 15
    frequency:   15.1327891385

- q-position: [    0.0202020,    0.0000000,    0.0000000 ]
  distance:    0.0067715
  band:
  - # 1
    frequency:    0.0319042569
  - # 2
    frequency:    0.2918350312
  - # 3
    frequency:    0.4277437907
  - # 4
    frequency:    2.8692726792
  - # 5
    frequency:    2.8741055084
  - # 6
    frequency:    4.8210559591
  - # 7
    frequency:    5.3227854861
  - # 8
    frequency:    5.3587248050
  - # 9
    frequency:    9.1469240259
  - # 10
    frequency:    9.2398566732
  - # 11
    frequency:    9.4658336805
  - # 12
    frequency:   12.7816536788
  - # 13
    frequency:   12.9214436088
  - # 14
    frequency:   13.3036857465
  - # 15
    frequency:   15.1365225668

- q-position: [    0.0252525,    0.0000000,    0.0000000 ]
  distance:    0.0084643
  band:
  - # 1
    frequency:    0.0495486662
  - # 2
    frequency:    0.3642339699
  - # 3
    frequency:    0.5328448949
  - # 4
    frequency:    2.8718249896
  - # 5
    frequency:    2.8785223573
  - # 6
    frequency:    4.8038856092
  - # 7
    frequency:    5.3239500822
  - # 8
    frequency:    5.3779961463
  - # 9
    frequency:    9.1064749216
  - # 10
    frequency:    9.2302778334
  - # 11
    frequency:    9.4952740426
  - # 12
    frequency:   12.7224960769
  - # 13
    frequency:   12.9190985212
  - # 14
    frequency:   13.3391026136
  - # 15
    frequency:   15.1413278447

- q-position: [    0.0303030,    0.0000000,    0.0000000 ]
  distance:    0.0101572
  band:
  - # 1
    frequency:    0.0708310490
  - # 2
    frequency:    0.4362621603
  - # 3
    frequency:    0.6366624829
  - # 4
    frequency:    2.8749364917
  - # 5
    frequency:    2.8830807606
  - # 6
    frequency:    4.7846747909
  - # 7
    frequency:    5.3253831499
  - # 8
    frequency:    5.4000024040
  - # 9
    frequency:    9.0641477726
  - # 10
    frequency:    9.2186913885
  - # 11
    frequency:    9.5242725276
  - # 12
    frequency:   12.6595286265
  - # 13
    frequency:   12.9162497050
  - # 14
    frequency:   13.3732127330
  - # 15
    frequency:   15.1472052143

- q-position: [    0.0353535,    0.0000000,    0.0000000 ]
  distance:    0.0118501
  band:
  - # 1
    frequency:    0.0955959618
  - # 2
    frequency:    0.5078479300
  - # 3
    frequency:    0.7388715379
  - # 4
    frequency:    2.8786026249
  - # 5
    frequency:    2.8872821517
  - # 6
    frequency:    4.7640813991
  - # 7
    frequency:    5.3270902944
  - # 8
    frequency:    5.4242369051
  - # 9
    frequency:    9.0202626311
  - # 10
    frequency:    9.2051698014
  - # 11
    frequency:    9.5525890381
  - # 12
    frequency:   12.5936850033
  - # 13
    frequency:   12.9129073336
  - # 14
    frequency:   13.4051825598
  - # 15
    frequency:   15.1541512913

- q-position: [    0.0404040,    0.0000000,    0.0000000 ]
  distance:    0.0135429
  band:
  - # 1
    frequency:    0.1236710239
  - # 2
    frequency:    0.5789209733
  - # 3
    frequency:    0.8390979999
  - # 4
    frequency:    2.8828182156
  - # 5
    frequency:    2.8905451645
  - # 6
    frequency:    4.7427123752
  - # 7
    frequency:    5.3290779615
  - # 8
    frequency:    5.4502833315
  - # 9
    frequency:    8.9750319439
  - # 10
    frequency:    9.1897985474
  - # 11
    frequency:    9.5801091090
  - # 12
    frequency:   12.5255867826
  - # 13
    frequency:   12.9090831962
  - # 14
    frequency:   13.4345124925
  - # 15
    frequency:   15.1621573280

- q-position: [    0.0454545,    0.0000000,    0.0000000 ]
  distance:    0.0152358
  band:
  - # 1
    frequency:    0.1548708213
  - # 2
    frequency:    0.6494125924
  - # 3
    frequency:    0.9368980302
  - # 4
    frequency:    2.8875775893
  - # 5
    frequency:    2.8922145747
  - # 6
    frequency:    4.7211329678
  - # 7
    frequency:    5.3313533505
  - # 8
    frequency:    5.4778102581
  - # 9
    frequency:    8.9286284906
  - # 10
    frequency:    9.1726760043
  - # 11
    frequency:    9.6067774432
  - # 12
    frequency:   12.4556913405
  - # 13
    frequency:   12.9047905907
  - # 14
    frequency:   13.4608901401
  - # 15
    frequency:   15.1712075573

- q-position: [    0.0505051,    0.0000000,    0.0000000 ]
  distance:    0.0169287
  band:
  - # 1
    frequency:    0.1890003312
  - # 2
    frequency:    0.7192559431
  - # 3
    frequency:    1.0317277330
  - # 4
    frequency:    2.8915778232
  - # 5
    frequency:    2.8928747039
  - # 6
    frequency:    4.6998810017
  - # 7
    frequency:    5.3339243158
  - # 8
    frequency:    5.5065590098
  - # 9
    frequency:    8.8812167940
  - # 10
    frequency:    9.1539133062
  - # 11
    frequency:    9.6325679611
  - # 12
    frequency:   12.3843653977
  - # 13
    frequency:   12.9000442081
  - # 14
    frequency:   13.4841176932
  - # 15
    frequency:   15.1812777721

- q-position: [    0.0555556,    0.0000000,    0.0000000 ]
  distance:    0.0186216
  band:
  - # 1
    frequency:    0.2258575713
  - # 2
    frequency:    0.7883862866
  - # 3
    frequency:    1.1228980475
  - # 4
    frequency:    2.8878943581
  - # 5
    frequency:    2.8987033045
  - # 6
    frequency:    4.6794790675
  - # 7
    frequency:    5.3367992573
  - # 8
    frequency:    5.5363305022
  - # 9
    frequency:    8.8329695391
  - # 10
    frequency:    9.1336341513
  - # 11
    frequency:    9.6574686978
  - # 12
    frequency:   12.3119235234
  - # 13
    frequency:   12.8948600098
  - # 14
    frequency:   13.5040739799
  - # 15
    frequency:   15.1923342776

- q-position: [    0.0606061,    0.0000000,    0.0000000 ]
  distance:    0.0203144
  band:
  - # 1
    frequency:    0.2652351285
  - # 2
    frequency:    0.8567412470
  - # 3
    frequency:    1.2095064022
  - # 4
    frequency:    2.8804457490
  - # 5
    frequency:    2.9050571013
  - # 6
    frequency:    4.6604404843
  - # 7
    frequency:    5.3399870018
  - # 8
    frequency:    5.5669735618
  - # 9
    frequency:    8.7840770952
  - # 10
    frequency:    9.1119745546
  - # 11
    frequency:    9.6814732932
  - # 12
    frequency:   12.2386494026
  - # 13
    frequency:   12.8892551008
  - # 14
    frequency:   13.5206933332
  - # 15
    frequency:   15.2043333258

- q-position: [    0.0656566,    0.0000000,    0.0000000 ]
  distance:    0.0220073
  band:
  - # 1
    frequency:    0.3069200765
  - # 2
    frequency:    0.9242610758
  - # 3
    frequency:    1.2903318511
  - # 4
    frequency:    2.8686182014
  - # 5
    frequency:    2.9119299694
  - # 6
    frequency:    4.6432667217
  - # 7
    frequency:    5.3434966761
  - # 8
    frequency:    5.5983754811
  - # 9
    frequency:    8.7347534227
  - # 10
    frequency:    9.0890825377
  - # 11
    frequency:    9.7045755932
  - # 12
    frequency:   12.1648082464
  - # 13
    frequency:   12.8832476019
  - # 14
    frequency:   13.5339528820
  - # 15
    frequency:   15.2172210906

- q-position: [    0.0707071,    0.0000000,    0.0000000 ]
  distance:    0.0237002
  band:
  - # 1
    frequency:    0.3506914122
  - # 2
    frequency:    0.9908889206
  - # 3
    frequency:    1.3636733785
  - # 4
    frequency:    2.8520335609
  - # 5
    frequency:    2.9193161738
  - # 6
    frequency:    4.6284354073
  - # 7
    frequency:    5.3473375737
  - # 8
    frequency:    5.6304547666
  - # 9
    frequency:    8.6852397386
  - # 10
    frequency:    9.0651177452
  - # 11
    frequency:    9.7267657602
  - # 12
    frequency:   12.0906544920
  - # 13
    frequency:   12.8768565217
  - # 14
    frequency:   13.5438641664
  - # 15
    frequency:   15.2309341946

- q-position: [    0.0757576,    0.0000000,    0.0000000 ]
  distance:    0.0253930
  band:
  - # 1
    frequency:    0.3963132536
  - # 2
    frequency:    1.0565711006
  - # 3
    frequency:    1.4271028051
  - # 4
    frequency:    2.8307483070
  - # 5
    frequency:    2.9272106161
  - # 6
    frequency:    4.6163796819
  - # 7
    frequency:    5.3515190169
  - # 8
    frequency:    5.6631557372
  - # 9
    frequency:    8.6358064892
  - # 10
    frequency:    9.0402509777
  - # 11
    frequency:    9.7480270851
  - # 12
    frequency:   12.0164369632
  - # 13
    frequency:   12.8701016327
  - # 14
    frequency:   13.5504670220
  - # 15
    frequency:   15.2454007409

- q-position: [    0.0808081,    0.0000000,    0.0000000 ]
  distance:    0.0270859
  band:
  - # 1
    frequency:    0.4435198802
  - # 2
    frequency:    1.1212573862
  - # 3
    frequency:    1.4771004189
  - # 4
    frequency:    2.8055349617
  - # 5
    frequency:    2.9356091036
  - # 6
    frequency:    4.6074616497
  - # 7
    frequency:    5.3560502169
  - # 8
    frequency:    5.6964445579
  - # 9
    frequency:    8.5867537942
  - # 10
    frequency:    9.0146636331
  - # 11
    frequency:    9.7683330646
  - # 12
    frequency:   11.9424026932
  - # 13
    frequency:   12.8630033508
  - # 14
    frequency:   13.5538246903
  - # 15
    frequency:   15.2605417619

- q-position: [    0.0858586,    0.0000000,    0.0000000 ]
  distance:    0.0287788
  band:
  - # 1
    frequency:    0.4919829947
  - # 2
    frequency:    1.1849012819
  - # 3
    frequency:    1.5085625652
  - # 4
    frequency:    2.7782248322
  - # 5
    frequency:    2.9445086372
  - # 6
    frequency:    4.6019446022
  - # 7
    frequency:    5.3609401343
  - # 8
    frequency:    5.7303063111
  - # 9
    frequency:    8.5384103523
  - # 10
    frequency:    8.9885470461
  - # 11
    frequency:    9.7876444831
  - # 12
    frequency:   11.8688001181
  - # 13
    frequency:   12.8555826222
  - # 14
    frequency:   13.5540196492
  - # 15
    frequency:   15.2762729615

- q-position: [    0.0909091,    0.0000000,    0.0000000 ]
  distance:    0.0304716
  band:
  - # 1
    frequency:    0.5412346976
  - # 2
    frequency:    1.2474603117
  - # 3
    frequency:    1.5142535318
  - # 4
    frequency:    2.7519822584
  - # 5
    frequency:    2.9539077159
  - # 6
    frequency:    4.5999697963
  - # 7
    frequency:    5.3661973428
  - # 8
    frequency:    5.7647427489
  - # 9
    frequency:    8.4911307309
  - # 10
    frequency:    8.9621017184
  - # 11
    frequency:    9.8059063396
  - # 12
    frequency:   11.7958820748
  - # 13
    frequency:   12.8478608175
  - # 14
    frequency:   13.5511499330
  - # 15
    frequency:   15.2925066170

- q-position: [    0.0959596,    0.0000000,    0.0000000 ]
  distance:    0.0321645
  band:
  - # 1
    frequency:    0.5904607938
  - # 2
    frequency:    1.3088963048
  - # 3
    frequency:    1.4844248855
  - # 4
    frequency:    2.7311833773
  - # 5
    frequency:    2.9638066505
  - # 6
    frequency:    4.6015431130
  - # 7
    frequency:    5.3718299000
  - # 8
    frequency:    5.7997704121
  - # 9
    frequency:    8.4452909729
  - # 10
    frequency:    8.9355364326
  - # 11
    frequency:    9.8230445237
  - # 12
    frequency:   11.7239088790
  - # 13
    frequency:   12.8398596343
  - # 14
    frequency:   13.5453258577
  - # 15
    frequency:   15.3091535055

- q-position: [    0.1010101,    0.0000000,    0.0000000 ]
  distance:    0.0338574
  band:
  - # 1
    frequency:    0.6378210754
  - # 2
    frequency:    1.3691756788
  - # 3
    frequency:    1.4068505697
  - # 4
    frequency:    2.7204929672
  - # 5
    frequency:    2.9742078818
  - # 6
    frequency:    4.6065347767
  - # 7
    frequency:    5.3778452281
  - # 8
    frequency:    5.8354188424
  - # 9
    frequency:    8.4012825142
  - # 10
    frequency:    8.9090672440
  - # 11
    frequency:    9.8389622040
  - # 12
    frequency:   11.6531516369
  - # 13
    frequency:   12.8316010100
  - # 14
    frequency:   13.5366671362
  - # 15
    frequency:   15.3261247403

- q-position: [    0.1060606,    0.0000000,    0.0000000 ]
  distance:    0.0355502
  band:
  - # 1
    frequency:    0.6773553737
  - # 2
    frequency:    1.2674234525
  - # 3
    frequency:    1.4282697183
  - # 4
    frequency:    2.7232635835
  - # 5
    frequency:    2.9851162914
  - # 6
    frequency:    4.6146922252
  - # 7
    frequency:    5.3842500086
  - # 8
    frequency:    5.8717286503
  - # 9
    frequency:    8.3595045133
  - # 10
    frequency:    8.8829163479
  - # 11
    frequency:    9.8535359641
  - # 12
    frequency:   11.5838958360
  - # 13
    frequency:   12.8231070428
  - # 14
    frequency:   13.5253003886
  - # 15
    frequency:   15.3433334238

- q-position: [    0.1111111,    0.0000000,    0.0000000 ]
  distance:    0.0372431
  band:
  - # 1
    frequency:    0.6744448744
  - # 2
    frequency:    1.0611605989
  - # 3
    frequency:    1.4861548439
  - # 4
    frequency:    2.7403479003
  - # 5
    frequency:    2.9965394977
  - # 6
    frequency:    4.6256633660
  - # 7
    frequency:    5.3910500944
  - # 8
    frequency:    5.9087492520
  - # 9
    frequency:    8.3203548313
  - # 10
    frequency:    8.8573108204
  - # 11
    frequency:    9.8666118280
  - # 12
    frequency:   11.5164451261
  - # 13
    frequency:   12.8143999246
  - # 14
    frequency:   13.5113570575
  - # 15
    frequency:   15.3606960589

- q-position: [    0.1161616,    0.0000000,    0.0000000 ]
  distance:    0.0389360
  band:
  - # 1
    frequency:    0.3007548188
  - # 2
    frequency:    0.9201849045
  - # 3
    frequency:    1.5428128685
  - # 4
    frequency:    2.7702945170
  - # 5
    frequency:    3.0084881205
  - # 6
    frequency:    4.6390258316
  - # 7
    frequency:    5.3982504433
  - # 8
    frequency:    5.9465361421
  - # 9
    frequency:    8.2842200475
  - # 10
    frequency:    8.8324812356
  - # 11
    frequency:    9.8780014735
  - # 12
    frequency:   11.4511250271
  - # 13
    frequency:   12.8055018827
  - # 14
    frequency:   13.4949717246
  - # 15
    frequency:   15.3781336842

- q-position: [    0.1212121,    0.0000000,    0.0000000 ]
  distance:    0.0406288
  band:
  - # 1
    frequency:   -0.8498456125
  - # 2
    frequency:    0.9309763376
  - # 3
    frequency:    1.5982312337
  - # 4
    frequency:    2.8104949644
  - # 5
    frequency:    3.0209760034
  - # 6
    frequency:    4.6543177180
  - # 7
    frequency:    5.4058550757
  - # 8
    frequency:    5.9851476531
  - # 9
    frequency:    8.2514650348
  - # 10
    frequency:    8.8086601656
  - # 11
    frequency:    9.8874791612
  - # 12
    frequency:   11.3882860524
  - # 13
    frequency:   12.7964351314
  - # 14
    frequency:   13.4762808125
  - # 15
    frequency:   15.3955727293

- q-position: [    0.1262626,    0.0000000,    0.0000000 ]
  distance:    0.0423217
  band:
  - # 1
    frequency:   -1.3180823362
  - # 2
    frequency:    0.9758077312
  - # 3
    frequency:    1.6524032194
  - # 4
    frequency:    2.8582335001
  - # 5
    frequency:    3.0340203759
  - # 6
    frequency:    4.6710662446
  - # 7
    frequency:    5.4138670589
  - # 8
    frequency:    6.0246412423
  - # 9
    frequency:    8.2224227149
  - # 10
    frequency:    8.7860805718
  - # 11
    frequency:    9.8947802124
  - # 12
    frequency:   11.3283054214
  - # 13
    frequency:   12.7872218339
  - # 14
    frequency:   13.4554216446
  - # 15
    frequency:   15.4129456013

- q-position: [    0.1313131,    0.0000000,    0.0000000 ]
  distance:    0.0440146
  band:
  - # 1
    frequency:   -1.7028268319
  - # 2
    frequency:    1.0290810538
  - # 3
    frequency:    1.7053281188
  - # 4
    frequency:    2.9112021499
  - # 5
    frequency:    3.0476419422
  - # 6
    frequency:    4.6888121437
  - # 7
    frequency:    5.4222885205
  - # 8
    frequency:    6.0650694542
  - # 9
    frequency:    8.1973846479
  - # 10
    frequency:    8.7649741015
  - # 11
    frequency:    9.8996022327
  - # 12
    frequency:   11.2715861602
  - # 13
    frequency:   12.7778840722
  - # 14
    frequency:   13.4325318282
  - # 15
    frequency:   15.4301910317

- q-position: [    0.1363636,    0.0000000,    0.0000000 ]
  distance:    0.0457074
  band:
  - # 1
    frequency:   -2.0472960064
  - # 2
    frequency:    1.0857817866
  - # 3
    frequency:    1.7570113665
  - # 4
    frequency:    2.9676135540
  - # 5
    frequency:    3.0618648807
  - # 6
    frequency:    4.7071288297
  - # 7
    frequency:    5.4311206910
  - # 8
    frequency:    6.1064758030
  - # 9
    frequency:    8.1765930690
  - # 10
    frequency:    8.7455693085
  - # 11
    frequency:    9.9016106197
  - # 12
    frequency:   11.2185520430
  - # 13
    frequency:   12.7684438266
  - # 14
    frequency:   13.4077489191
  - # 15
    frequency:   15.4472542170

- q-position: [    0.1414141,    0.0000000,    0.0000000 ]
  distance:    0.0474003
  band:
  - # 1
    frequency:   -2.3668995730
  - # 2
    frequency:    1.1443133932
  - # 3
    frequency:    1.8074646081
  - # 4
    frequency:    3.0261386570
  - # 5
    frequency:    3.0767167434
  - # 6
    frequency:    4.7256362654
  - # 7
    frequency:    5.4403639742
  - # 8
    frequency:    6.1488908941
  - # 9
    frequency:    8.1602348610
  - # 10
    frequency:    8.7280898201
  - # 11
    frequency:    9.9004500369
  - # 12
    frequency:   11.1696366773
  - # 13
    frequency:   12.7589229626
  - # 14
    frequency:   13.3812103299
  - # 15
    frequency:   15.4640867920

- q-position: [    0.1464646,    0.0000000,    0.0000000 ]
  distance:    0.0490932
  band:
  - # 1
    frequency:   -2.6690640891
  - # 2
    frequency:    1.2039859081
  - # 3
    frequency:    1.8567056964
  - # 4
    frequency:    3.0858023702
  - # 5
    frequency:    3.0922282443
  - # 6
    frequency:    4.7440099267
  - # 7
    frequency:    5.4500180446
  - # 8
    frequency:    6.1923291359
  - # 9
    frequency:    8.1484377610
  - # 10
    frequency:    8.7127524761
  - # 11
    frequency:    9.8957632061
  - # 12
    frequency:   11.1252653711
  - # 13
    frequency:   12.7493432264
  - # 14
    frequency:   13.3530534437
  - # 15
    frequency:   15.4806466733

- q-position: [    0.1515152,    0.0000000,    0.0000000 ]
  distance:    0.0507861
  band:
  - # 1
    frequency:   -2.9579520091
  - # 2
    frequency:    1.2644317752
  - # 3
    frequency:    1.9047585975
  - # 4
    frequency:    3.1084329357
  - # 5
    frequency:    3.1458884986
  - # 6
    frequency:    4.7619854794
  - # 7
    frequency:    5.4600819656
  - # 8
    frequency:    6.2367863658
  - # 9
    frequency:    8.1412688767
  - # 10
    frequency:    8.6997654704
  - # 11
    frequency:    9.8872172578
  - # 12
    frequency:   11.0858295330
  - # 13
    frequency:   12.7397262461
  - # 14
    frequency:   13.3234159006
  - # 15
    frequency:   15.4968978081

- q-position: [    0.1565657,    0.0000000,    0.0000000 ]
  distance:    0.0524789
  band:
  - # 1
    frequency:   -3.2361154271
  - # 2
    frequency:    1.3254222344
  - # 3
    frequency:    1.9516531889
  - # 4
    frequency:    3.1253667720
  - # 5
    frequency:    3.2058661801
  - # 6
    frequency:    4.7793598535
  - # 7
    frequency:    5.4705543244
  - # 8
    frequency:    6.2822386344
  - # 9
    frequency:    8.1387353539
  - # 10
    frequency:    8.6893265277
  - # 11
    frequency:    9.8745358585
  - # 12
    frequency:   11.0516553876
  - # 13
    frequency:   12.7300935415
  - # 14
    frequency:   13.2924360298
  - # 15
    frequency:   15.5128098585

- q-position: [    0.1616162,    0.0000000,    0.0000000 ]
  distance:    0.0541718
  band:
  - # 1
    frequency:   -3.5052119106
  - # 2
    frequency:    1.3867969949
  - # 3
    frequency:    1.9974249333
  - # 4
    frequency:    3.1430675710
  - # 5
    frequency:    3.2653364206
  - # 6
    frequency:    4.7959894078
  - # 7
    frequency:    5.4814333756
  - # 8
    frequency:    6.3286422688
  - # 9
    frequency:    8.1407868445
  - # 10
    frequency:    8.6816211486
  - # 11
    frequency:    9.8575327847
  - # 12
    frequency:   11.0229713533
  - # 13
    frequency:   12.7204665384
  - # 14
    frequency:   13.2602534058
  - # 15
    frequency:   15.5283578487

- q-position: [    0.1666667,    0.0000000,    0.0000000 ]
  distance:    0.0558647
  band:
  - # 1
    frequency:   -3.7663611225
  - # 2
    frequency:    1.4484332292
  - # 3
    frequency:    2.0421144108
  - # 4
    frequency:    3.1615743865
  - # 5
    frequency:    3.3239941285
  - # 6
    frequency:    4.8117858690
  - # 7
    frequency:    5.4927171837
  - # 8
    frequency:    6.3759351883
  - # 9
    frequency:    8.1473192717
  - # 10
    frequency:    8.6768209574
  - # 11
    frequency:    9.8361405769
  - # 12
    frequency:   10.9998804839
  - # 13
    frequency:   12.7108665903
  - # 14
    frequency:   13.2270095128
  - # 15
    frequency:   15.5435217948

- q-position: [    0.1717172,    0.0000000,    0.0000000 ]
  distance:    0.0575575
  band:
  - # 1
    frequency:   -4.0203413777
  - # 2
    frequency:    1.5102303653
  - # 3
    frequency:    2.0857666965
  - # 4
    frequency:    3.1809268163
  - # 5
    frequency:    3.3816012942
  - # 6
    frequency:    4.8267107058
  - # 7
    frequency:    5.5044037574
  - # 8
    frequency:    6.4240393096
  - # 9
    frequency:    8.1581793121
  - # 10
    frequency:    8.6750821858
  - # 11
    frequency:    9.8104277481
  - # 12
    frequency:   10.9823445641
  - # 13
    frequency:   12.7013150054
  - # 14
    frequency:   13.1928485076
  - # 15
    frequency:   15.5582863340

- q-position: [    0.1767677,    0.0000000,    0.0000000 ]
  distance:    0.0592504
  band:
  - # 1
    frequency:   -4.2677063733
  - # 2
    frequency:    1.5721019641
  - # 3
    frequency:    2.1284305784
  - # 4
    frequency:    3.2011642680
  - # 5
    frequency:    3.4379679841
  - # 6
    frequency:    4.8407685517
  - # 7
    frequency:    5.5164911629
  - # 8
    frequency:    6.4728637747
  - # 9
    frequency:    8.1731689846
  - # 10
    frequency:    8.6765443208
  - # 11
    frequency:    9.7806004986
  - # 12
    frequency:   10.9701840151
  - # 13
    frequency:   12.6918330791
  - # 14
    frequency:   13.1579180718
  - # 15
    frequency:   15.5726403669

- q-position: [    0.1818182,    0.0000000,    0.0000000 ]
  distance:    0.0609433
  band:
  - # 1
    frequency:   -4.5088584431
  - # 2
    frequency:    1.6339710634
  - # 3
    frequency:    2.1701576153
  - # 4
    frequency:    3.2223252146
  - # 5
    frequency:    3.4929387946
  - # 6
    frequency:    4.8540002181
  - # 7
    frequency:    5.5289776095
  - # 8
    frequency:    6.5223086704
  - # 9
    frequency:    8.1920497408
  - # 10
    frequency:    8.6813289431
  - # 11
    frequency:    9.7469892739
  - # 12
    frequency:   10.9630934351
  - # 13
    frequency:   12.6824421327
  - # 14
    frequency:   13.1223703502
  - # 15
    frequency:   15.5865767201

- q-position: [    0.1868687,    0.0000000,    0.0000000 ]
  distance:    0.0626361
  band:
  - # 1
    frequency:   -4.7440964067
  - # 2
    frequency:    1.6957673403
  - # 3
    frequency:    2.2110010475
  - # 4
    frequency:    3.2444464662
  - # 5
    frequency:    3.5463831539
  - # 6
    frequency:    4.8664757380
  - # 7
    frequency:    5.5418614969
  - # 8
    frequency:    6.5722689039
  - # 9
    frequency:    8.2145454718
  - # 10
    frequency:    8.6895387742
  - # 11
    frequency:    9.7100248316
  - # 12
    frequency:   10.9606683531
  - # 13
    frequency:   12.6731635567
  - # 14
    frequency:   13.0863629700
  - # 15
    frequency:   15.6000918357

- q-position: [    0.1919192,    0.0000000,    0.0000000 ]
  distance:    0.0643290
  band:
  - # 1
    frequency:   -4.9736477155
  - # 2
    frequency:    1.7574252862
  - # 3
    frequency:    2.2510145853
  - # 4
    frequency:    3.2675624844
  - # 5
    frequency:    3.5981883900
  - # 6
    frequency:    4.8782877614
  - # 7
    frequency:    5.5551414198
  - # 8
    frequency:    6.6226379261
  - # 9
    frequency:    8.2403438329
  - # 10
    frequency:    8.7012569449
  - # 11
    frequency:    9.6702108422
  - # 12
    frequency:   10.9624365413
  - # 13
    frequency:   12.6640188608
  - # 14
    frequency:   13.0500601338
  - # 15
    frequency:   15.6131854912

- q-position: [    0.1969697,    0.0000000,    0.0000000 ]
  distance:    0.0660219
  band:
  - # 1
    frequency:   -5.1976904563
  - # 2
    frequency:    1.8188829733
  - # 3
    frequency:    2.2902511107
  - # 4
    frequency:    3.2917047591
  - # 5
    frequency:    3.6482548427
  - # 6
    frequency:    4.8895454988
  - # 7
    frequency:    5.5688161239
  - # 8
    frequency:    6.6733110604
  - # 9
    frequency:    8.2690952220
  - # 10
    frequency:    8.7165464899
  - # 11
    frequency:    9.6280998432
  - # 12
    frequency:   10.9678875993
  - # 13
    frequency:   12.6550297288
  - # 14
    frequency:   13.0136337739
  - # 15
    frequency:   15.6258605509

- q-position: [    0.2020202,    0.0000000,    0.0000000 ]
  distance:    0.0677147
  band:
  - # 1
    frequency:   -5.4163685825
  - # 2
    frequency:    1.8800811827
  - # 3
    frequency:    2.3287613432
  - # 4
    frequency:    3.3169012601
  - # 5
    frequency:    3.6964925391
  - # 6
    frequency:    4.9003692968
  - # 7
    frequency:    5.5828844125
  - # 8
    frequency:    6.7241882690
  - # 9
    frequency:    8.3004085890
  - # 10
    frequency:    8.7354500655
  - # 11
    frequency:    9.5842774660
  - # 12
    frequency:   10.9764966860
  - # 13
    frequency:   12.6462180801
  - # 14
    frequency:   12.9772647442
  - # 15
    frequency:   15.6381227484

- q-position: [    0.2070707,    0.0000000,    0.0000000 ]
  distance:    0.0694076
  band:
  - # 1
    frequency:   -5.6298025120
  - # 2
    frequency:    1.9409627609
  - # 3
    frequency:    2.3665925273
  - # 4
    frequency:    3.3431759680
  - # 5
    frequency:    3.7428191207
  - # 6
    frequency:    4.9108858324
  - # 7
    frequency:    5.5973450053
  - # 8
    frequency:    6.7751762653
  - # 9
    frequency:    8.3338429752
  - # 10
    frequency:    8.7579898798
  - # 11
    frequency:    9.5393576414
  - # 12
    frequency:   10.9877408385
  - # 13
    frequency:   12.6376061372
  - # 14
    frequency:   12.9411440104
  - # 15
    frequency:   15.6499804991

- q-position: [    0.2121212,    0.0000000,    0.0000000 ]
  distance:    0.0711005
  band:
  - # 1
    frequency:   -5.8380965031