nqpoint: 300    
npath: 3      
segment_nqpoint:
- 100
- 100
- 100
labels:
- [ 'G', 'M' ]
- [ 'M', 'K' ]
- [ 'K', 'G' ]
reciprocal_lattice:
- [   0.29496214,   0.17029647,   0.00000000 ] # a*
- [   0.00000000,   0.34059295,   0.00000000 ] # b*
- [   0.00000000,   0.00000000,   0.04087086 ] # c*
natom: 6      
lattice:
- [     3.390265564993618,     0.000000000000000,     0.000000000000000 ] # a
- [    -1.695132782496809,     2.936056104859893,     0.000000000000000 ] # b
- [     0.000000000000000,     0.000000000000000,    24.467307045146939 ] # c
points:
- symbol: C # 1
  coordinates: [  0.000000000000000,  0.000000000000000,  0.469860386779821 ]
  mass: 12.010700
- symbol: C # 2
  coordinates: [  0.333332985432215,  0.666666983183674,  0.582938474610817 ]
  mass: 12.010700
- symbol: F # 3
  coordinates: [  0.666666984744047,  0.333332985985145,  0.367837783839196 ]
  mass: 18.998403
- symbol: N # 4
  coordinates: [  0.333332985432215,  0.666666983183674,  0.632162216160804 ]
  mass: 14.006700
- symbol: Zr # 5
  coordinates: [  0.333332985432215,  0.666666983183674,  0.421029337453601 ]
  mass: 91.224000
- symbol: Zr # 6
  coordinates: [  0.666666984744047,  0.333332985985145,  0.522050810974824 ]
  mass: 91.224000

phonon:
- q-position: [    0.0000000,    0.0000000,    0.0000000 ]
  distance:    0.0000000
  band:
  - # 1
    frequency:   -0.0000026808
  - # 2
    frequency:   -0.0000004295
  - # 3
    frequency:    0.0000020286
  - # 4
    frequency:    1.1054055191
  - # 5
    frequency:    1.1054055191
  - # 6
    frequency:    4.7974584241
  - # 7
    frequency:    4.7974584241
  - # 8
    frequency:    5.9602575615
  - # 9
    frequency:    5.9602575615
  - # 10
    frequency:    6.5703178779
  - # 11
    frequency:    7.8065313785
  - # 12
    frequency:    7.8065313785
  - # 13
    frequency:    8.7663419726
  - # 14
    frequency:   11.3671877128
  - # 15
    frequency:   16.5657834210
  - # 16
    frequency:   16.7992657609
  - # 17
    frequency:   16.7992657609
  - # 18
    frequency:   60.8143605142

- q-position: [    0.0050505,    0.0000000,    0.0000000 ]
  distance:    0.0017202
  band:
  - # 1
    frequency:    0.0014584060
  - # 2
    frequency:    0.0281261420
  - # 3
    frequency:    0.1036050540
  - # 4
    frequency:    1.1050303874
  - # 5
    frequency:    1.1060847516
  - # 6
    frequency:    4.7970915475
  - # 7
    frequency:    4.7978673161
  - # 8
    frequency:    5.9606202582
  - # 9
    frequency:    5.9608536734
  - # 10
    frequency:    6.5700282964
  - # 11
    frequency:    7.8064284134
  - # 12
    frequency:    7.8070720738
  - # 13
    frequency:    8.7662250720
  - # 14
    frequency:   11.3666298748
  - # 15
    frequency:   16.5653182809
  - # 16
    frequency:   16.7987858719
  - # 17
    frequency:   16.7990661791
  - # 18
    frequency:   60.8143050416

- q-position: [    0.0101010,    0.0000000,    0.0000000 ]
  distance:    0.0034403
  band:
  - # 1
    frequency:    0.0058323096
  - # 2
    frequency:    0.0563279317
  - # 3
    frequency:    0.2069753975
  - # 4
    frequency:    1.1039080592
  - # 5
    frequency:    1.1081579783
  - # 6
    frequency:    4.7959962925
  - # 7
    frequency:    4.7990950914
  - # 8
    frequency:    5.9617045079
  - # 9
    frequency:    5.9626364773
  - # 10
    frequency:    6.5691629298
  - # 11
    frequency:    7.8061193390
  - # 12
    frequency:    7.8086921514
  - # 13
    frequency:    8.7658738320
  - # 14
    frequency:   11.3649573429
  - # 15
    frequency:   16.5639239164
  - # 16
    frequency:   16.7973477741
  - # 17
    frequency:   16.7984666951
  - # 18
    frequency:   60.8141387400

- q-position: [    0.0151515,    0.0000000,    0.0000000 ]
  distance:    0.0051605
  band:
  - # 1
    frequency:    0.0131174147
  - # 2
    frequency:    0.0846769359
  - # 3
    frequency:    0.3098392051
  - # 4
    frequency:    1.1020480573
  - # 5
    frequency:    1.1117410901
  - # 6
    frequency:    4.7941886344
  - # 7
    frequency:    4.8011449433
  - # 8
    frequency:    5.9634989188
  - # 9
    frequency:    5.9655894470
  - # 10
    frequency:    6.5677318766
  - # 11
    frequency:    7.8056036234
  - # 12
    frequency:    7.8113856167
  - # 13
    frequency:    8.7652866471
  - # 14
    frequency:   11.3621730583
  - # 15
    frequency:   16.5616034859
  - # 16
    frequency:   16.7949561669
  - # 17
    frequency:   16.7974651259
  - # 18
    frequency:   60.8138619574

- q-position: [    0.0202020,    0.0000000,    0.0000000 ]
  distance:    0.0068807
  band:
  - # 1
    frequency:    0.0233061536
  - # 2
    frequency:    0.1132363830
  - # 3
    frequency:    0.4118387795
  - # 4
    frequency:    1.0994673558
  - # 5
    frequency:    1.1170618839
  - # 6
    frequency:    4.7916947089
  - # 7
    frequency:    4.8040218474
  - # 8
    frequency:    5.9659849241
  - # 9
    frequency:    5.9696852648
  - # 10
    frequency:    6.5657518549
  - # 11
    frequency:    7.8048803957
  - # 12
    frequency:    7.8151425806
  - # 13
    frequency:    8.7644608752
  - # 14
    frequency:   11.3582819024
  - # 15
    frequency:   16.5583622274
  - # 16
    frequency:   16.7916188570
  - # 17
    frequency:   16.7960579430
  - # 18
    frequency:   60.8134752729

- q-position: [    0.0252525,    0.0000000,    0.0000000 ]
  distance:    0.0086008
  band:
  - # 1
    frequency:    0.0363870489
  - # 2
    frequency:    0.1420565307
  - # 3
    frequency:    0.5124531422
  - # 4
    frequency:    1.0961921423
  - # 5
    frequency:    1.1245265370
  - # 6
    frequency:    4.7885501099
  - # 7
    frequency:    4.8077320687
  - # 8
    frequency:    5.9691373819
  - # 9
    frequency:    5.9748861427
  - # 10
    frequency:    6.5632460418
  - # 11
    frequency:    7.8039484691
  - # 12
    frequency:    7.8199494059
  - # 13
    frequency:    8.7633928878
  - # 14
    frequency:   11.3532906679
  - # 15
    frequency:   16.5542074244
  - # 16
    frequency:   16.7873467196
  - # 17
    frequency:   16.7942404275
  - # 18
    frequency:   60.8129794947

- q-position: [    0.0303030,    0.0000000,    0.0000000 ]
  distance:    0.0103210
  band:
  - # 1
    frequency:    0.0523439390
  - # 2
    frequency:    0.1711694131
  - # 3
    frequency:    0.6108622083
  - # 4
    frequency:    1.0922605115
  - # 5
    frequency:    1.1348483744
  - # 6
    frequency:    4.7847989659
  - # 7
    frequency:    4.8122825157
  - # 8
    frequency:    5.9729253568
  - # 9
    frequency:    5.9811442371
  - # 10
    frequency:    6.5602438656
  - # 11
    frequency:    7.8028063731
  - # 12
    frequency:    7.8257889012
  - # 13
    frequency:    8.7620781409
  - # 14
    frequency:   11.3472080178
  - # 15
    frequency:   16.5491483691
  - # 16
    frequency:   16.7821536457
  - # 17
    frequency:   16.7920068739
  - # 18
    frequency:   60.8123756576

- q-position: [    0.0353535,    0.0000000,    0.0000000 ]
  distance:    0.0120412
  band:
  - # 1
    frequency:    0.0711551189
  - # 2
    frequency:    0.2005826501
  - # 3
    frequency:    0.7057023797
  - # 4
    frequency:    1.0877263443
  - # 5
    frequency:    1.1492877146
  - # 6
    frequency:    4.7804928480
  - # 7
    frequency:    4.8176799872
  - # 8
    frequency:    5.9773130347
  - # 9
    frequency:    5.9884021258
  - # 10
    frequency:    6.5567807668
  - # 11
    frequency:    7.8014523935
  - # 12
    frequency:    7.8326405528
  - # 13
    frequency:    8.7605112663
  - # 14
    frequency:   11.3400444347
  - # 15
    frequency:   16.5431963314
  - # 16
    frequency:   16.7760564759
  - # 17
    frequency:   16.7893508270
  - # 18
    frequency:   60.8116650201

- q-position: [    0.0404040,    0.0000000,    0.0000000 ]
  distance:    0.0137613
  band:
  - # 1
    frequency:    0.0927924668
  - # 2
    frequency:    0.2302718947
  - # 3
    frequency:    0.7946639215
  - # 4
    frequency:    1.0826647347
  - # 5
    frequency:    1.1700516113
  - # 6
    frequency:    4.7756895658
  - # 7
    frequency:    4.8239303562
  - # 8
    frequency:    5.9822607155
  - # 9
    frequency:    5.9965933144
  - # 10
    frequency:    6.5528979467
  - # 11
    frequency:    7.7998846204
  - # 12
    frequency:    7.8404807822
  - # 13
    frequency:    8.7586861841
  - # 14
    frequency:   11.3318121611
  - # 15
    frequency:   16.5363645420
  - # 16
    frequency:   16.7690749222
  - # 17
    frequency:   16.7862653405
  - # 18
    frequency:   60.8108490607

- q-position: [    0.0454545,    0.0000000,    0.0000000 ]
  distance:    0.0154815
  band:
  - # 1
    frequency:    0.1172206176
  - # 2
    frequency:    0.2601713664
  - # 3
    frequency:    0.8740757356
  - # 4
    frequency:    1.0771794586
  - # 5
    frequency:    1.2007073743
  - # 6
    frequency:    4.7704519113
  - # 7
    frequency:    4.8310377418
  - # 8
    frequency:    5.9877258288
  - # 9
    frequency:    6.0056427332
  - # 10
    frequency:    6.5486421236
  - # 11
    frequency:    7.7981010025
  - # 12
    frequency:    7.8492832179
  - # 13
    frequency:    8.7565962361
  - # 14
    frequency:   11.3225251316
  - # 15
    frequency:   16.5286681971
  - # 16
    frequency:   16.7612314791
  - # 17
    frequency:   16.7827432407
  - # 18
    frequency:   60.8099294732

- q-position: [    0.0505051,    0.0000000,    0.0000000 ]
  distance:    0.0172017
  band:
  - # 1
    frequency:    0.1443962292
  - # 2
    frequency:    0.2901617660
  - # 3
    frequency:    0.9394188532
  - # 4
    frequency:    1.0714131196
  - # 5
    frequency:    1.2456682195
  - # 6
    frequency:    4.7648464021
  - # 7
    frequency:    4.8390037157
  - # 8
    frequency:    5.9936639239
  - # 9
    frequency:    6.0154671932
  - # 10
    frequency:    6.5440653180
  - # 11
    frequency:    7.7960994080
  - # 12
    frequency:    7.8590189675
  - # 13
    frequency:    8.7542343416
  - # 14
    frequency:   11.3121988987
  - # 15
    frequency:   16.5201244899
  - # 16
    frequency:   16.7525513250
  - # 17
    frequency:   16.7787773848
  - # 18
    frequency:   60.8089081617

- q-position: [    0.0555556,    0.0000000,    0.0000000 ]
  distance:    0.0189218
  band:
  - # 1
    frequency:    0.1742673632
  - # 2
    frequency:    0.3200547503
  - # 3
    frequency:    0.9881187691
  - # 4
    frequency:    1.0655607076
  - # 5
    frequency:    1.3074007110
  - # 6
    frequency:    4.7589420710
  - # 7
    frequency:    4.8478265866
  - # 8
    frequency:    6.0000295893
  - # 9
    frequency:    6.0259757702
  - # 10
    frequency:    6.5392246851
  - # 11
    frequency:    7.7938776899
  - # 12
    frequency:    7.8696568805
  - # 13
    frequency:    8.7515931744
  - # 14
    frequency:   11.3008505529
  - # 15
    frequency:   16.5107526731
  - # 16
    frequency:   16.7430622174
  - # 17
    frequency:   16.7743609024
  - # 18
    frequency:   60.8077872349

- q-position: [    0.0606061,    0.0000000,    0.0000000 ]
  distance:    0.0206420
  band:
  - # 1
    frequency:    0.2067729816
  - # 2
    frequency:    0.3495731798
  - # 3
    frequency:    1.0220947146
  - # 4
    frequency:    1.0598872509
  - # 5
    frequency:    1.3838757436
  - # 6
    frequency:    4.7528093388
  - # 7
    frequency:    4.8575007966
  - # 8
    frequency:    6.0067772701
  - # 9
    frequency:    6.0370700952
  - # 10
    frequency:    6.5341824137
  - # 11
    frequency:    7.7914337564
  - # 12
    frequency:    7.8811637893
  - # 13
    frequency:    8.7486653631
  - # 14
    frequency:   11.2884986405
  - # 15
    frequency:   16.5005741493
  - # 16
    frequency:   16.7327943810
  - # 17
    frequency:   16.7694874119
  - # 18
    frequency:   60.8065690002

- q-position: [    0.0656566,    0.0000000,    0.0000000 ]
  distance:    0.0223622
  band:
  - # 1
    frequency:    0.2418425319
  - # 2
    frequency:    0.3783268060
  - # 3
    frequency:    1.0458120403
  - # 4
    frequency:    1.0547497444
  - # 5
    frequency:    1.4705167948
  - # 6
    frequency:    4.7465189955
  - # 7
    frequency:    4.8680164582
  - # 8
    frequency:    6.0138619602
  - # 9
    frequency:    6.0486445394
  - # 10
    frequency:    6.5290056996
  - # 11
    frequency:    7.7887656436
  - # 12
    frequency:    7.8935047192
  - # 13
    frequency:    8.7454437143
  - # 14
    frequency:   11.2751630776
  - # 15
    frequency:   16.4896125890
  - # 16
    frequency:   16.7217803937
  - # 17
    frequency:   16.7641512070
  - # 18
    frequency:   60.8052559558

- q-position: [    0.0707071,    0.0000000,    0.0000000 ]
  distance:    0.0240823
  band:
  - # 1
    frequency:    0.2793955737
  - # 2
    frequency:    0.4057844816
  - # 3
    frequency:    1.0506220709
  - # 4
    frequency:    1.0631604197
  - # 5
    frequency:    1.5633226727
  - # 6
    frequency:    4.7401413062
  - # 7
    frequency:    4.8793590481
  - # 8
    frequency:    6.0212397554
  - # 9
    frequency:    6.0605862975
  - # 10
    frequency:    6.5237667958
  - # 11
    frequency:    7.7858715917
  - # 12
    frequency:    7.9066430602
  - # 13
    frequency:    8.7419214592
  - # 14
    frequency:   11.2608650651
  - # 15
    frequency:   16.4778940693
  - # 16
    frequency:   16.7100550693
  - # 17
    frequency:   16.7583474087
  - # 18
    frequency:   60.8038507844

- q-position: [    0.0757576,    0.0000000,    0.0000000 ]
  distance:    0.0258025
  band:
  - # 1
    frequency:    0.3193413647
  - # 2
    frequency:    0.4312471645
  - # 3
    frequency:    1.0481183492
  - # 4
    frequency:    1.0766141241
  - # 5
    frequency:    1.6597084917
  - # 6
    frequency:    4.7337452472
  - # 7
    frequency:    4.8915092675
  - # 8
    frequency:    6.0288682645
  - # 9
    frequency:    6.0727753902
  - # 10
    frequency:    6.5185431249
  - # 11
    frequency:    7.7827501220
  - # 12
    frequency:    7.9205406921
  - # 13
    frequency:    8.7380925256
  - # 14
    frequency:   11.2456270041
  - # 15
    frequency:   16.4654472249
  - # 16
    frequency:   16.6976553406
  - # 17
    frequency:   16.7520720842
  - # 18
    frequency:   60.8023563444

- q-position: [    0.0808081,    0.0000000,    0.0000000 ]
  distance:    0.0275227
  band:
  - # 1
    frequency:    0.3615782919
  - # 2
    frequency:    0.4538316879
  - # 3
    frequency:    1.0480043050
  - # 4
    frequency:    1.0876031749
  - # 5
    frequency:    1.7581361053
  - # 6
    frequency:    4.7273978704
  - # 7
    frequency:    4.9044430671
  - # 8
    frequency:    6.0367068823
  - # 9
    frequency:    6.0850846356
  - # 10
    frequency:    6.5134174145
  - # 11
    frequency:    7.7794001154
  - # 12
    frequency:    7.9351580578
  - # 13
    frequency:    8.7339518349
  - # 14
    frequency:   11.2294724133
  - # 15
    frequency:   16.4523034028
  - # 16
    frequency:   16.6846201440
  - # 17
    frequency:   16.7453223317
  - # 18
    frequency:   60.8007756617

- q-position: [    0.0858586,    0.0000000,    0.0000000 ]
  distance:    0.0292428
  band:
  - # 1
    frequency:    0.4059929705
  - # 2
    frequency:    0.4724825075
  - # 3
    frequency:    1.0511787874
  - # 4
    frequency:    1.0969518682
  - # 5
    frequency:    1.8576776031
  - # 6
    frequency:    4.7211637891
  - # 7
    frequency:    4.9181318314
  - # 8
    frequency:    6.0447169332
  - # 9
    frequency:    6.0973796763
  - # 10
    frequency:    6.5084777841
  - # 11
    frequency:    7.7758208915
  - # 12
    frequency:    7.9504541803
  - # 13
    frequency:    8.7294956266
  - # 14
    frequency:   11.2124258514
  - # 15
    frequency:   16.4384968096
  - # 16
    frequency:   16.6709903067
  - # 17
    frequency:   16.7380963345
  - # 18
    frequency:   60.7991119205

- q-position: [    0.0909091,    0.0000000,    0.0000000 ]
  distance:    0.0309630
  band:
  - # 1
    frequency:    0.4524587490
  - # 2
    frequency:    0.4860315940
  - # 3
    frequency:    1.0586042002
  - # 4
    frequency:    1.1051539068
  - # 5
    frequency:    1.9577428503
  - # 6
    frequency:    4.7151047706
  - # 7
    frequency:    4.9325427076
  - # 8
    frequency:    6.0528617007
  - # 9
    frequency:    6.1095191968
  - # 10
    frequency:    6.5038176613
  - # 11
    frequency:    7.7720122864
  - # 12
    frequency:    7.9663866174
  - # 13
    frequency:    8.7247218127
  - # 14
    frequency:   11.1945128436
  - # 15
    frequency:   16.4240646402
  - # 16
    frequency:   16.6568084379
  - # 17
    frequency:   16.7303933874
  - # 18
    frequency:   60.7973684542

- q-position: [    0.0959596,    0.0000000,    0.0000000 ]
  distance:    0.0326832
  band:
  - # 1
    frequency:    0.4933132908
  - # 2
    frequency:    0.5008331923
  - # 3
    frequency:    1.0711772500
  - # 4
    frequency:    1.1125254925
  - # 5
    frequency:    2.0579300983
  - # 6
    frequency:    4.7092794222
  - # 7
    frequency:    4.9476390625
  - # 8
    frequency:    6.0611063593
  - # 9
    frequency:    6.1213555283
  - # 10
    frequency:    6.4995353466
  - # 11
    frequency:    7.7679747318
  - # 12
    frequency:    7.9829113502
  - # 13
    frequency:    8.7196303639
  - # 14
    frequency:   11.1757598151
  - # 15
    frequency:   16.4090471767
  - # 16
    frequency:   16.6421188254
  - # 17
    frequency:   16.7222139011
  - # 18
    frequency:   60.7955487351

- q-position: [    0.1010101,    0.0000000,    0.0000000 ]
  distance:    0.0344033
  band:
  - # 1
    frequency:    0.4933035527
  - # 2
    frequency:    0.5509538350
  - # 3
    frequency:    1.0895674755
  - # 4
    frequency:    1.1192914605
  - # 5
    frequency:    2.1579452646
  - # 6
    frequency:    4.7037429515
  - # 7
    frequency:    4.9633810460
  - # 8
    frequency:    6.0694178272
  - # 9
    frequency:    6.1327359021
  - # 10
    frequency:    6.4957329777
  - # 11
    frequency:    7.7637093311
  - # 12
    frequency:    7.9999825992
  - # 13
    frequency:    8.7142237343
  - # 14
    frequency:   11.1561940319
  - # 15
    frequency:   16.3934878464
  - # 16
    frequency:   16.6269673376
  - # 17
    frequency:   16.7135593873
  - # 18
    frequency:   60.7936563647

- q-position: [    0.1060606,    0.0000000,    0.0000000 ]
  distance:    0.0361235
  band:
  - # 1
    frequency:    0.4852108435
  - # 2
    frequency:    0.6026309705
  - # 3
    frequency:    1.1140904604
  - # 4
    frequency:    1.1256382029
  - # 5
    frequency:    2.2575573497
  - # 6
    frequency:    4.6985469853
  - # 7
    frequency:    4.9797262409
  - # 8
    frequency:    6.0777645596
  - # 9
    frequency:    6.1435046712
  - # 10
    frequency:    6.4925145885
  - # 11
    frequency:    7.7592179366
  - # 12
    frequency:    8.0175525619
  - # 13
    frequency:    8.7085073290
  - # 14
    frequency:   11.1358435490
  - # 15
    frequency:   16.3774332284
  - # 16
    frequency:   16.6114013316
  - # 17
    frequency:   16.7044324323
  - # 18
    frequency:   60.7916950622

- q-position: [    0.1111111,    0.0000000,    0.0000000 ]
  distance:    0.0378437
  band:
  - # 1
    frequency:    0.4684427632
  - # 2
    frequency:    0.6556352360
  - # 3
    frequency:    1.1317526033
  - # 4
    frequency:    1.1446799999
  - # 5
    frequency:    2.3565729952
  - # 6
    frequency:    4.6937394305
  - # 7
    frequency:    4.9966303747
  - # 8
    frequency:    6.0861163011
  - # 9
    frequency:    6.1535068177
  - # 10
    frequency:    6.4899829520
  - # 11
    frequency:    7.7545032228
  - # 12
    frequency:    8.0355710612
  - # 13
    frequency:    8.7024900263
  - # 14
    frequency:   11.1147371687
  - # 15
    frequency:   16.3609330002
  - # 16
    frequency:   16.5954695672
  - # 17
    frequency:   16.6948366622
  - # 18
    frequency:   60.7896686547

- q-position: [    0.1161616,    0.0000000,    0.0000000 ]
  distance:    0.0395638
  band:
  - # 1
    frequency:    0.4424163236
  - # 2
    frequency:    0.7096758085
  - # 3
    frequency:    1.1378598792
  - # 4
    frequency:    1.1809657279
  - # 5
    frequency:    2.4548214688
  - # 6
    frequency:    4.6893643611
  - # 7
    frequency:    5.0140480730
  - # 8
    frequency:    6.0944438154
  - # 9
    frequency:    6.1625929715
  - # 10
    frequency:    6.4882349910
  - # 11
    frequency:    7.7495687598
  - # 12
    frequency:    8.0539850939
  - # 13
    frequency:    8.6961847667
  - # 14
    frequency:   11.0929044064
  - # 15
    frequency:   16.3440398152
  - # 16
    frequency:   16.5792221276
  - # 17
    frequency:   16.6847767066
  - # 18
    frequency:   60.7875810650

- q-position: [    0.1212121,    0.0000000,    0.0000000 ]
  distance:    0.0412840
  band:
  - # 1
    frequency:    0.4062018600
  - # 2
    frequency:    0.7643611807
  - # 3
    frequency:    1.1442729033
  - # 4
    frequency:    1.2224030158
  - # 5
    frequency:    2.5521455312
  - # 6
    frequency:    4.6854619209
  - # 7
    frequency:    5.0319336324
  - # 8
    frequency:    6.1027186088
  - # 9
    frequency:    6.1706259071
  - # 10
    frequency:    6.4873557909
  - # 11
    frequency:    7.7444190832
  - # 12
    frequency:    8.0727382589
  - # 13
    frequency:    8.6896092290
  - # 14
    frequency:   11.0703754670
  - # 15
    frequency:   16.3268091049
  - # 16
    frequency:   16.5627103436
  - # 17
    frequency:   16.6742581650
  - # 18
    frequency:   60.7854363010

- q-position: [    0.1262626,    0.0000000,    0.0000000 ]
  distance:    0.0430042
  band:
  - # 1
    frequency:    0.3578783835
  - # 2
    frequency:    0.8191271665
  - # 3
    frequency:    1.1514707999
  - # 4
    frequency:    1.2683928818
  - # 5
    frequency:    2.6483957467
  - # 6
    frequency:    4.6820682300
  - # 7
    frequency:    5.0502417928
  - # 8
    frequency:    6.1109126624
  - # 9
    frequency:    6.1774880564
  - # 10
    frequency:    6.4874116775
  - # 11
    frequency:    7.7390597609
  - # 12
    frequency:    8.0917700440
  - # 13
    frequency:    8.6827866177
  - # 14
    frequency:   11.0471812294
  - # 15
    frequency:   16.3092988012
  - # 16
    frequency:   16.5459867235
  - # 17
    frequency:   16.6632875827
  - # 18
    frequency:   60.7832384433

- q-position: [    0.1313131,    0.0000000,    0.0000000 ]
  distance:    0.0447243
  band:
  - # 1
    frequency:    0.2929360942
  - # 2
    frequency:    0.8731048873
  - # 3
    frequency:    1.1602354212
  - # 4
    frequency:    1.3183606081
  - # 5
    frequency:    2.7434268858
  - # 6
    frequency:    4.6792152892
  - # 7
    frequency:    5.0689284904
  - # 8
    frequency:    6.1189981862
  - # 9
    frequency:    6.1830890521
  - # 10
    frequency:    6.4884433394
  - # 11
    frequency:    7.7334974560
  - # 12
    frequency:    8.1110149347
  - # 13
    frequency:    8.6757466008
  - # 14
    frequency:   11.0233532396
  - # 15
    frequency:   16.2915689742
  - # 16
    frequency:   16.5291048850
  - # 17
    frequency:   16.6518724397
  - # 18
    frequency:   60.7809916341

- q-position: [    0.1363636,    0.0000000,    0.0000000 ]
  distance:    0.0464445
  band:
  - # 1
    frequency:    0.1974728344
  - # 2
    frequency:    0.9248950700
  - # 3
    frequency:    1.1718801513
  - # 4
    frequency:    1.3717931132
  - # 5
    frequency:    2.8370956504
  - # 6
    frequency:    4.6769308777
  - # 7
    frequency:    5.0879515710
  - # 8
    frequency:    6.1269474066
  - # 9
    frequency:    6.1873719050
  - # 10
    frequency:    6.4904603836
  - # 11
    frequency:    7.7277399846
  - # 12
    frequency:    8.1304013041
  - # 13
    frequency:    8.6685264424
  - # 14
    frequency:   10.9989237110
  - # 15
    frequency:   16.2736813841
  - # 16
    frequency:   16.5121194881
  - # 17
    frequency:   16.6400211581
  - # 18
    frequency:   60.7787000651

- q-position: [    0.1414141,    0.0000000,    0.0000000 ]
  distance:    0.0481647
  band:
  - # 1
    frequency:   -0.1079884574
  - # 2
    frequency:    0.9722856487
  - # 3
    frequency:    1.1885345112
  - # 4
    frequency:    1.4282485100
  - # 5
    frequency:    2.9292592710
  - # 6
    frequency:    4.6752384428
  - # 7
    frequency:    5.1072714470
  - # 8
    frequency:    6.1347323950
  - # 9
    frequency:    6.1903163907
  - # 10
    frequency:    6.4934387355
  - # 11
    frequency:    7.7217963660
  - # 12
    frequency:    8.1498500225
  - # 13
    frequency:    8.6611723941
  - # 14
    frequency:   10.9739255314
  - # 15
    frequency:   16.2556989478
  - # 16
    frequency:   16.4950861680
  - # 17
    frequency:   16.6277431350
  - # 18
    frequency:   60.7763679653

- q-position: [    0.1464646,    0.0000000,    0.0000000 ]
  distance:    0.0498848
  band:
  - # 1
    frequency:   -0.2559933057
  - # 2
    frequency:    1.0123156514
  - # 3
    frequency:    1.2130818608
  - # 4
    frequency:    1.4873512517
  - # 5
    frequency:    3.0197747109
  - # 6
    frequency:    4.6741569828
  - # 7
    frequency:    5.1268516763
  - # 8
    frequency:    6.1423249468
  - # 9
    frequency:    6.1919387321
  - # 10
    frequency:    6.4973217809
  - # 11
    frequency:    7.7156768645
  - # 12
    frequency:    8.1692727166
  - # 13
    frequency:    8.6537414210
  - # 14
    frequency:   10.9483922733
  - # 15
    frequency:   16.2376851193
  - # 16
    frequency:   16.4780614650
  - # 17
    frequency:   16.6150488026
  - # 18
    frequency:   60.7739995895

- q-position: [    0.1515152,    0.0000000,    0.0000000 ]
  distance:    0.0516050
  band:
  - # 1
    frequency:   -0.3493756908
  - # 2
    frequency:    1.0425737256
  - # 3
    frequency:    1.2478620245
  - # 4
    frequency:    1.5487817337
  - # 5
    frequency:    3.1084983193
  - # 6
    frequency:    4.6737009258
  - # 7
    frequency:    5.1466594438
  - # 8
    frequency:    6.1496965138
  - # 9
    frequency:    6.1922875954
  - # 10
    frequency:    6.5020252113
  - # 11
    frequency:    7.7093930197
  - # 12
    frequency:    8.1885695934
  - # 13
    frequency:    8.6463033523
  - # 14
    frequency:   10.9223582070
  - # 15
    frequency:   16.2197031879
  - # 16
    frequency:   16.4611027489
  - # 17
    frequency:   16.6019497259
  - # 18
    frequency:   60.7715992059

- q-position: [    0.1565657,    0.0000000,    0.0000000 ]
  distance:    0.0533252
  band:
  - # 1
    frequency:   -0.4251579922
  - # 2
    frequency:    1.0631391895
  - # 3
    frequency:    1.2927310631
  - # 4
    frequency:    1.6122650352
  - # 5
    frequency:    3.1952858436
  - # 6
    frequency:    4.6738800113
  - # 7
    frequency:    5.1666659228
  - # 8
    frequency:    6.1568181946
  - # 9
    frequency:    6.1914373764
  - # 10
    frequency:    6.5074445723
  - # 11
    frequency:    7.7029576634
  - # 12
    frequency:    8.2076267430
  - # 13
    frequency:    8.6389435462
  - # 14
    frequency:   10.8958583137
  - # 15
    frequency:   16.2018154968
  - # 16
    frequency:   16.4442681371
  - # 17
    frequency:   16.5884587392
  - # 18
    frequency:   60.7691710847

- q-position: [    0.1616162,    0.0000000,    0.0000000 ]
  distance:    0.0550453
  band:
  - # 1
    frequency:   -0.4910940411
  - # 2
    frequency:    1.0763045906
  - # 3
    frequency:    1.3453392857
  - # 4
    frequency:    1.6775608161
  - # 5
    frequency:    3.2799927533
  - # 6
    frequency:    4.6746991781
  - # 7
    frequency:    5.1868464924
  - # 8
    frequency:    6.1636607838
  - # 9
    frequency:    6.1894803225
  - # 10
    frequency:    6.5134639432
  - # 11
    frequency:    7.6963849190
  - # 12
    frequency:    8.2263128661
  - # 13
    frequency:    8.6317661310
  - # 14
    frequency:   10.8689282941
  - # 15
    frequency:   16.1840825861
  - # 16
    frequency:   16.4276164020
  - # 17
    frequency:   16.5745901328
  - # 18
    frequency:   60.7667194859

- q-position: [    0.1666667,    0.0000000,    0.0000000 ]
  distance:    0.0567655
  band:
  - # 1
    frequency:   -0.5503598113
  - # 2
    frequency:    1.0846118015
  - # 3
    frequency:    1.4030955189
  - # 4
    frequency:    1.7444549895
  - # 5
    frequency:    3.3624748562
  - # 6
    frequency:    4.6761584696
  - # 7
    frequency:    5.2071807848
  - # 8
    frequency:    6.1701948799
  - # 9
    frequency:    6.1865190305
  - # 10
    frequency:    6.5199641778
  - # 11
    frequency:    7.6896901822
  - # 12
    frequency:    8.2444754658
  - # 13
    frequency:    8.6248977876
  - # 14
    frequency:   10.8416045722
  - # 15
    frequency:   16.1665622632
  - # 16
    frequency:   16.4112068669
  - # 17
    frequency:   16.5603598946
  - # 18
    frequency:   60.7642486480

- q-position: [    0.1717172,    0.0000000,    0.0000000 ]
  distance:    0.0584857
  band:
  - # 1
    frequency:   -0.6046050129
  - # 2
    frequency:    1.0898764262
  - # 3
    frequency:    1.4641428944
  - # 4
    frequency:    1.8127531655
  - # 5
    frequency:    3.4425892055
  - # 6
    frequency:    4.6782529611
  - # 7
    frequency:    5.2276525366
  - # 8
    frequency:    6.1763910509
  - # 9
    frequency:    6.1826604101
  - # 10
    frequency:    6.5268295847
  - # 11
    frequency:    7.6828900787
  - # 12
    frequency:    8.2619367629
  - # 13
    frequency:    8.6184918190
  - # 14
    frequency:   10.8139242879
  - # 15
    frequency:   16.1493086066
  - # 16
    frequency:   16.3950992870
  - # 17
    frequency:   16.5457860167
  - # 18
    frequency:   60.7617627766

- q-position: [    0.1767677,    0.0000000,    0.0000000 ]
  distance:    0.0602058
  band:
  - # 1
    frequency:   -0.6548065936
  - # 2
    frequency:    1.0932279546
  - # 3
    frequency:    1.5273187396
  - # 4
    frequency:    1.8822756282
  - # 5
    frequency:    3.5201953078
  - # 6
    frequency:    4.6809727191
  - # 7
    frequency:    5.2482492192
  - # 8
    frequency:    6.1780115968
  - # 9
    frequency:    6.1822200523
  - # 10
    frequency:    6.5339525306
  - # 11
    frequency:    7.6760023962
  - # 12
    frequency:    8.2784900471
  - # 13
    frequency:    8.6127318024
  - # 14