nqpoint: 300    
npath: 3      
segment_nqpoint:
- 100
- 100
- 100
labels:
- [ 'G', 'M' ]
- [ 'M', 'K' ]
- [ 'K', 'G' ]
reciprocal_lattice:
- [   0.30773421,   0.17767043,   0.00000000 ] # a*
- [   0.00000000,   0.35534086,   0.00000000 ] # b*
- [   0.00000000,   0.00000000,   0.03895612 ] # c*
natom: 7      
lattice:
- [     3.249557475819113,     0.000000000000000,     0.000000000000000 ] # a
- [    -1.624778737909556,     2.814199325112979,     0.000000000000000 ] # b
- [     0.000000000000000,     0.000000000000000,    25.669904868154227 ] # c
points:
- symbol: Br # 1
  coordinates: [  0.666666984744047,  0.333332985985145,  0.350605117012541 ]
  mass: 79.904000
- symbol: C # 2
  coordinates: [  0.333332985432215,  0.666666983183674,  0.602466226642957 ]
  mass: 12.010700
- symbol: N # 3
  coordinates: [  0.000000000000000,  0.000000000000000,  0.462644822570378 ]
  mass: 14.006700
- symbol: N # 4
  coordinates: [  0.333332985432215,  0.666666983183674,  0.553896449406505 ]
  mass: 14.006700
- symbol: O # 5
  coordinates: [  0.333332985432215,  0.666666983183674,  0.649394882987459 ]
  mass: 15.999400
- symbol: Ti # 6
  coordinates: [  0.333332985432215,  0.666666983183674,  0.422902997664197 ]
  mass: 47.867000
- symbol: Ti # 7
  coordinates: [  0.666666984744047,  0.333332985985145,  0.502383410688314 ]
  mass: 47.867000

phonon:
- q-position: [    0.0000000,    0.0000000,    0.0000000 ]
  distance:    0.0000000
  band:
  - # 1
    frequency:   -0.9704103734
  - # 2
    frequency:   -0.9704103734
  - # 3
    frequency:   -0.0000130163
  - # 4
    frequency:   -0.0000004077
  - # 5
    frequency:    0.0000116863
  - # 6
    frequency:    3.4169383129
  - # 7
    frequency:    3.4169383129
  - # 8
    frequency:    5.0661884557
  - # 9
    frequency:    6.4361167182
  - # 10
    frequency:    6.4361167183
  - # 11
    frequency:    7.8303460229
  - # 12
    frequency:    7.8303460229
  - # 13
    frequency:    8.8205343691
  - # 14
    frequency:   12.0793577862
  - # 15
    frequency:   15.2671819855
  - # 16
    frequency:   16.8225083397
  - # 17
    frequency:   16.8225083397
  - # 18
    frequency:   17.3536833735
  - # 19
    frequency:   17.3536833735
  - # 20
    frequency:   38.4911183650
  - # 21
    frequency:   69.0701881286

- q-position: [    0.0050505,    0.0000000,    0.0000000 ]
  distance:    0.0017947
  band:
  - # 1
    frequency:   -0.9695864211
  - # 2
    frequency:   -0.9675035225
  - # 3
    frequency:    0.0024262790
  - # 4
    frequency:    0.0757133270
  - # 5
    frequency:    0.1209548959
  - # 6
    frequency:    3.4175494067
  - # 7
    frequency:    3.4189370474
  - # 8
    frequency:    5.0653714074
  - # 9
    frequency:    6.4360041734
  - # 10
    frequency:    6.4373388323
  - # 11
    frequency:    7.8300423749
  - # 12
    frequency:    7.8305972150
  - # 13
    frequency:    8.8203497193
  - # 14
    frequency:   12.0780874775
  - # 15
    frequency:   15.2669779028
  - # 16
    frequency:   16.8224730526
  - # 17
    frequency:   16.8225797960
  - # 18
    frequency:   17.3537240988
  - # 19
    frequency:   17.3540408449
  - # 20
    frequency:   38.4911032311
  - # 21
    frequency:   69.0689117015

- q-position: [    0.0101010,    0.0000000,    0.0000000 ]
  distance:    0.0035893
  band:
  - # 1
    frequency:   -0.9671295068
  - # 2
    frequency:   -0.9588253903
  - # 3
    frequency:    0.0096973626
  - # 4
    frequency:    0.1514742112
  - # 5
    frequency:    0.2421586743
  - # 6
    frequency:    3.4193816898
  - # 7
    frequency:    3.4249161245
  - # 8
    frequency:    5.0629354588
  - # 9
    frequency:    6.4356669400
  - # 10
    frequency:    6.4409896186
  - # 11
    frequency:    7.8291319484
  - # 12
    frequency:    7.8313481985
  - # 13
    frequency:    8.8197986448
  - # 14
    frequency:   12.0742797507
  - # 15
    frequency:   15.2663652270
  - # 16
    frequency:   16.8223672483
  - # 17
    frequency:   16.8227939584
  - # 18
    frequency:   17.3538462884
  - # 19
    frequency:   17.3551123635
  - # 20
    frequency:   38.4910578727
  - # 21
    frequency:   69.0650850946

- q-position: [    0.0151515,    0.0000000,    0.0000000 ]
  distance:    0.0053840
  band:
  - # 1
    frequency:   -0.9630822528
  - # 2
    frequency:   -0.9444831189
  - # 3
    frequency:    0.0217893983
  - # 4
    frequency:    0.2273195007
  - # 5
    frequency:    0.3637957487
  - # 6
    frequency:    3.4224321694
  - # 7
    frequency:    3.4348247541
  - # 8
    frequency:    5.0589255177
  - # 9
    frequency:    6.4351062215
  - # 10
    frequency:    6.4470231358
  - # 11
    frequency:    7.8276162990
  - # 12
    frequency:    7.8325911768
  - # 13
    frequency:    8.8188897699
  - # 14
    frequency:   12.0679441912
  - # 15
    frequency:   15.2653426936
  - # 16
    frequency:   16.8221910919
  - # 17
    frequency:   16.8231502047
  - # 18
    frequency:   17.3540499832
  - # 19
    frequency:   17.3568952468
  - # 20
    frequency:   38.4909824197
  - # 21
    frequency:   69.0587163237

- q-position: [    0.0202020,    0.0000000,    0.0000000 ]
  distance:    0.0071786
  band:
  - # 1
    frequency:   -0.9575087994
  - # 2
    frequency:   -0.9245955205
  - # 3
    frequency:    0.0386679719
  - # 4
    frequency:    0.3032664720
  - # 5
    frequency:    0.4859429020
  - # 6
    frequency:    3.4266958653
  - # 7
    frequency:    3.4485801958
  - # 8
    frequency:    5.0534142397
  - # 9
    frequency:    6.4343240229
  - # 10
    frequency:    6.4553651549
  - # 11
    frequency:    7.8254980279
  - # 12
    frequency:    7.8343130937
  - # 13
    frequency:    8.8176374681
  - # 14
    frequency:   12.0590967296
  - # 15
    frequency:   15.2639082547
  - # 16
    frequency:   16.8219448369
  - # 17
    frequency:   16.8236474913
  - # 18
    frequency:   17.3543352499
  - # 19
    frequency:   17.3593850346
  - # 20
    frequency:   38.4908770878
  - # 21
    frequency:   69.0498187232

- q-position: [    0.0252525,    0.0000000,    0.0000000 ]
  distance:    0.0089733
  band:
  - # 1
    frequency:   -0.9504859275
  - # 2
    frequency:   -0.8992252633
  - # 3
    frequency:    0.0602957726
  - # 4
    frequency:    0.3793072248
  - # 5
    frequency:    0.6085589615
  - # 6
    frequency:    3.4321658209
  - # 7
    frequency:    3.4660704443
  - # 8
    frequency:    5.0464990102
  - # 9
    frequency:    6.4333231484
  - # 10
    frequency:    6.4659164025
  - # 11
    frequency:    7.8227807942
  - # 12
    frequency:    7.8364955474
  - # 13
    frequency:    8.8160618560
  - # 14
    frequency:   12.0477595769
  - # 15
    frequency:   15.2620591679
  - # 16
    frequency:   16.8216287941
  - # 17
    frequency:   16.8242843417
  - # 18
    frequency:   17.3547021789
  - # 19
    frequency:   17.3625755074
  - # 20
    frequency:   38.4907421782
  - # 21
    frequency:   69.0384109084

- q-position: [    0.0303030,    0.0000000,    0.0000000 ]
  distance:    0.0107679
  band:
  - # 1
    frequency:   -0.9420931626
  - # 2
    frequency:   -0.8683157227
  - # 3
    frequency:    0.0866445160
  - # 4
    frequency:    0.4554069658
  - # 5
    frequency:    0.7315044458
  - # 6
    frequency:    3.4388331177
  - # 7
    frequency:    3.4871576553
  - # 8
    frequency:    5.0382982028
  - # 9
    frequency:    6.4321072000
  - # 10
    frequency:    6.4785566211
  - # 11
    frequency:    7.8194693324
  - # 12
    frequency:    7.8391146838
  - # 13
    frequency:    8.8141887789
  - # 14
    frequency:   12.0339611336
  - # 15
    frequency:   15.2597921161
  - # 16
    frequency:   16.8212432873
  - # 17
    frequency:   16.8250588327
  - # 18
    frequency:   17.3551508814
  - # 19
    frequency:   17.3664587104
  - # 20
    frequency:   38.4905780759
  - # 21
    frequency:   69.0245167226

- q-position: [    0.0353535,    0.0000000,    0.0000000 ]
  distance:    0.0125626
  band:
  - # 1
    frequency:   -0.9324035583
  - # 2
    frequency:   -0.8316431799
  - # 3
    frequency:    0.1177121656
  - # 4
    frequency:    0.5315059506
  - # 5
    frequency:    0.8545774481
  - # 6
    frequency:    3.4466868948
  - # 7
    frequency:    3.5116820352
  - # 8
    frequency:    5.0289470916
  - # 9
    frequency:    6.4306805743
  - # 10
    frequency:    6.4931490734
  - # 11
    frequency:    7.8155694732
  - # 12
    frequency:    7.8421410817
  - # 13
    frequency:    8.8120497759
  - # 14
    frequency:   12.0177358772
  - # 15
    frequency:   15.2571033558
  - # 16
    frequency:   16.8207885999
  - # 17
    frequency:   16.8259685756
  - # 18
    frequency:   17.3556814855
  - # 19
    frequency:   17.3710249861
  - # 20
    frequency:   38.4903852487
  - # 21
    frequency:   69.0081651697

- q-position: [    0.0404040,    0.0000000,    0.0000000 ]
  distance:    0.0143572
  band:
  - # 1
    frequency:   -0.9214764317
  - # 2
    frequency:   -0.7887822684
  - # 3
    frequency:    0.1535475018
  - # 4
    frequency:    0.6075241433
  - # 5
    frequency:    0.9775501706
  - # 6
    frequency:    3.4557143690
  - # 7
    frequency:    3.5394659041
  - # 8
    frequency:    5.0185937816
  - # 9
    frequency:    6.4290484601
  - # 10
    frequency:    6.5095451322
  - # 11
    frequency:    7.8110881677
  - # 12
    frequency:    7.8455396480
  - # 13
    frequency:    8.8096820168
  - # 14
    frequency:   11.9991242290
  - # 15
    frequency:   15.2539888898
  - # 16
    frequency:   16.8202649098
  - # 17
    frequency:   16.8270106945
  - # 18
    frequency:   17.3562941318
  - # 19
    frequency:   17.3762630140
  - # 20
    frequency:   38.4901642451
  - # 21
    frequency:   68.9893903318

- q-position: [    0.0454545,    0.0000000,    0.0000000 ]
  distance:    0.0161519
  band:
  - # 1
    frequency:   -0.9093526510
  - # 2
    frequency:   -0.7390727411
  - # 3
    frequency:    0.1942848876
  - # 4
    frequency:    0.6833673018
  - # 5
    frequency:    1.1001961865
  - # 6
    frequency:    3.4659008596
  - # 7
    frequency:    3.5703176564
  - # 8
    frequency:    5.0073954710
  - # 9
    frequency:    6.4272168342
  - # 10
    frequency:    6.5275886526
  - # 11
    frequency:    7.8060335138
  - # 12
    frequency:    7.8492695452
  - # 13
    frequency:    8.8071281937
  - # 14
    frequency:   11.9781724021
  - # 15
    frequency:   15.2504446600
  - # 16
    frequency:   16.8196722172
  - # 17
    frequency:   16.8281818022
  - # 18
    frequency:   17.3569889676
  - # 19
    frequency:   17.3821598597
  - # 20
    frequency:   38.4899156926
  - # 21
    frequency:   68.9682312729

- q-position: [    0.0505051,    0.0000000,    0.0000000 ]
  distance:    0.0179465
  band:
  - # 1
    frequency:   -0.8960523963
  - # 2
    frequency:   -0.6815696828
  - # 3
    frequency:    0.2401915808
  - # 4
    frequency:    0.7589332420
  - # 5
    frequency:    1.2223058964
  - # 6
    frequency:    3.4772298129
  - # 7
    frequency:    3.6040353819
  - # 8
    frequency:    4.9955152805
  - # 9
    frequency:    6.4251924587
  - # 10
    frequency:    6.5471199060
  - # 11
    frequency:    7.8004147843
  - # 12
    frequency:    7.8532841769
  - # 13
    frequency:    8.8044363516
  - # 14
    frequency:   11.9549322349
  - # 15
    frequency:   15.2464667533
  - # 16
    frequency:   16.8190102662
  - # 17
    frequency:   16.8294779723
  - # 18
    frequency:   17.3577661412
  - # 19
    frequency:   17.3887010306
  - # 20
    frequency:   38.4896402953
  - # 21
    frequency:   68.9447319275

- q-position: [    0.0555556,    0.0000000,    0.0000000 ]
  distance:    0.0197412
  band:
  - # 1
    frequency:   -0.8815748343
  - # 2
    frequency:   -0.6149470744
  - # 3
    frequency:    0.2917232112
  - # 4
    frequency:    0.8341173596
  - # 5
    frequency:    1.3436923968
  - # 6
    frequency:    3.4896828294
  - # 7
    frequency:    3.6404099562
  - # 8
    frequency:    4.9831198056
  - # 9
    frequency:    6.4229828768
  - # 10
    frequency:    6.5679789421
  - # 11
    frequency:    7.7942424557
  - # 12
    frequency:    7.8575312615
  - # 13
    frequency:    8.8016596366
  - # 14
    frequency:   11.9294610107
  - # 15
    frequency:   15.2420516170
  - # 16
    frequency:   16.8182784610
  - # 17
    frequency:   16.8308947107
  - # 18
    frequency:   17.3586257949
  - # 19
    frequency:   17.3958705408
  - # 20
    frequency:   38.4893388310
  - # 21
    frequency:   68.9189409763

- q-position: [    0.0606061,    0.0000000,    0.0000000 ]
  distance:    0.0215358
  band:
  - # 1
    frequency:   -0.8658989350
  - # 2
    frequency:   -0.5372652740
  - # 3
    frequency:    0.3495554165
  - # 4
    frequency:    0.9088169291
  - # 5
    frequency:    1.4641914118
  - # 6
    frequency:    3.5032396916
  - # 7
    frequency:    3.6792274579
  - # 8
    frequency:    4.9703774795
  - # 9
    frequency:    6.4205964090
  - # 10
    frequency:    6.5900083214
  - # 11
    frequency:    7.7875282351
  - # 12
    frequency:    7.8619530279
  - # 13
    frequency:    8.7988559379
  - # 14
    frequency:   11.9018212668
  - # 15
    frequency:   15.2371962780
  - # 16
    frequency:   16.8174757817
  - # 17
    frequency:   16.8324269253
  - # 18
    frequency:   17.3595680570
  - # 19
    frequency:   17.4036509830
  - # 20
    frequency:   38.4890121489
  - # 21
    frequency:   68.8909117081

- q-position: [    0.0656566,    0.0000000,    0.0000000 ]
  distance:    0.0233305
  band:
  - # 1
    frequency:   -0.8489846762
  - # 2
    frequency:   -0.4452187662
  - # 3
    frequency:    0.4144841203
  - # 4
    frequency:    0.9829340771
  - # 5
    frequency:    1.5836583853
  - # 6
    frequency:    3.5178783920
  - # 7
    frequency:    3.7202708086
  - # 8
    frequency:    4.9574577897
  - # 9
    frequency:    6.4180421496
  - # 10
    frequency:    6.6130552231
  - # 11
    frequency:    7.7802850863
  - # 12
    frequency:    7.8664865693
  - # 13
    frequency:    8.7960873990
  - # 14
    frequency:   11.8720805965
  - # 15
    frequency:   15.2318985587
  - # 16
    frequency:   16.8166006999
  - # 17
    frequency:   16.8340688941
  - # 18
    frequency:   17.3605930341
  - # 19
    frequency:   17.4120236085
  - # 20
    frequency:   38.4886611662
  - # 21
    frequency:   68.8607018678

- q-position: [    0.0707071,    0.0000000,    0.0000000 ]
  distance:    0.0251251
  band:
  - # 1
    frequency:   -0.8307740188
  - # 2
    frequency:   -0.3308647454
  - # 3
    frequency:    0.4869885308
  - # 4
    frequency:    1.0563775835
  - # 5
    frequency:    1.7019647087
  - # 6
    frequency:    3.5335751636
  - # 7
    frequency:    3.7633205602
  - # 8
    frequency:    4.9445313657
  - # 9
    frequency:    6.4153299625
  - # 10
    frequency:    6.6369729722
  - # 11
    frequency:    7.7725272517
  - # 12
    frequency:    7.8710643920
  - # 13
    frequency:    8.7934197707
  - # 14
    frequency:   11.8403114439
  - # 15
    frequency:   15.2261572860
  - # 16
    frequency:   16.8156510991
  - # 17
    frequency:   16.8358142347
  - # 18
    frequency:   17.3617008020
  - # 19
    frequency:   17.4209684128
  - # 20
    frequency:   38.4882868649
  - # 21
    frequency:   68.8283734928

- q-position: [    0.0757576,    0.0000000,    0.0000000 ]
  distance:    0.0269198
  band:
  - # 1
    frequency:   -0.8111912014
  - # 2
    frequency:   -0.1562435137
  - # 3
    frequency:    0.5664360615
  - # 4
    frequency:    1.1290637761
  - # 5
    frequency:    1.8189941010
  - # 6
    frequency:    3.5503045101
  - # 7
    frequency:    3.8081547579
  - # 8
    frequency:    4.9317709632
  - # 9
    frequency:    6.4124704770
  - # 10
    frequency:    6.6616220531
  - # 11
    frequency:    7.7642702700
  - # 12
    frequency:    7.8756151935
  - # 13
    frequency:    8.7909215812
  - # 14
    frequency:   11.8065908963
  - # 15
    frequency:   15.2199724875
  - # 16
    frequency:   16.8146242011
  - # 17
    frequency:   16.8376558734
  - # 18
    frequency:   17.3628913964
  - # 19
    frequency:   17.4304642274
  - # 20
    frequency:   38.4878902885
  - # 21
    frequency:   68.7939927363

- q-position: [    0.0808081,    0.0000000,    0.0000000 ]
  distance:    0.0287144
  band:
  - # 1
    frequency:   -0.7901420208
  - # 2
    frequency:    0.2386483268
  - # 3
    frequency:    0.6506958685
  - # 4
    frequency:    1.2009168028
  - # 5
    frequency:    1.9346395368
  - # 6
    frequency:    3.5680392401
  - # 7
    frequency:    3.8545478017
  - # 8
    frequency:    4.9193533915
  - # 9
    frequency:    6.4094750836
  - # 10
    frequency:    6.6868706867
  - # 11
    frequency:    7.7555309879
  - # 12
    frequency:    7.8800649004
  - # 13
    frequency:    8.7886631038
  - # 14
    frequency:   11.7710004729
  - # 15
    frequency:   15.2133455715
  - # 16
    frequency:   16.8135165015
  - # 17
    frequency:   16.8395860157
  - # 18
    frequency:   17.3641648031
  - # 19
    frequency:   17.4404888162
  - # 20
    frequency:   38.4874725381
  - # 21
    frequency:   68.7576296793

- q-position: [    0.0858586,    0.0000000,    0.0000000 ]
  distance:    0.0305091
  band:
  - # 1
    frequency:   -0.7675118021
  - # 2
    frequency:    0.3698281539
  - # 3
    frequency:    0.7369851333
  - # 4
    frequency:    1.2718685193
  - # 5
    frequency:    2.0488007978
  - # 6
    frequency:    3.5867505038
  - # 7
    frequency:    3.9022681918
  - # 8
    frequency:    4.9074624794
  - # 9
    frequency:    6.4063559289
  - # 10
    frequency:    6.7125950455
  - # 11
    frequency:    7.7463275640
  - # 12
    frequency:    7.8843379866
  - # 13
    frequency:    8.7867151085
  - # 14
    frequency:   11.7336259136
  - # 15
    frequency:   15.2062794851
  - # 16
    frequency:   16.8123237179
  - # 17
    frequency:   16.8415961196
  - # 18
    frequency:   17.3655209479
  - # 19
    frequency:   17.4510189755
  - # 20
    frequency:   38.4870347685
  - # 21
    frequency:   68.7193581310

- q-position: [    0.0909091,    0.0000000,    0.0000000 ]
  distance:    0.0323037
  band:
  - # 1
    frequency:   -0.7431617054
  - # 2
    frequency:    0.4669695357
  - # 3
    frequency:    0.8230908581
  - # 4
    frequency:    1.3418581753
  - # 5
    frequency:    2.1613825737
  - # 6
    frequency:    3.6064078353
  - # 7
    frequency:    3.9510750013
  - # 8
    frequency:    4.8962932378
  - # 9
    frequency:    6.4031259097
  - # 10
    frequency:    6.7386791766
  - # 11
    frequency:    7.7366794645
  - # 12
    frequency:    7.8883590763
  - # 13
    frequency:    8.7851473993
  - # 14
    frequency:   11.6945569675
  - # 15
    frequency:   15.1987788497
  - # 16
    frequency:   16.8110407517
  - # 17
    frequency:   16.8436768707
  - # 18
    frequency:   17.3669596863
  - # 19
    frequency:   17.4620306366
  - # 20
    frequency:   38.4865781847
  - # 21
    frequency:   68.6792554186

- q-position: [    0.0959596,    0.0000000,    0.0000000 ]
  distance:    0.0340984
  band:
  - # 1
    frequency:   -0.7169228288
  - # 2
    frequency:    0.5509264264
  - # 3
    frequency:    0.9077740714
  - # 4
    frequency:    1.4108320188
  - # 5
    frequency:    2.2722929935
  - # 6
    frequency:    3.6269792017
  - # 7
    frequency:    4.0007128510
  - # 8
    frequency:    4.8860574471
  - # 9
    frequency:    6.3997986658
  - # 10
    frequency:    6.7650146922
  - # 11
    frequency:    7.7266074489
  - # 12
    frequency:    7.8920548207
  - # 13
    frequency:    8.7840271546
  - # 14
    frequency:   11.6538871813
  - # 15
    frequency:   15.1908500698
  - # 16
    frequency:   16.8096616660
  - # 17
    frequency:   16.8458181617
  - # 18
    frequency:   17.3684807931
  - # 19
    frequency:   17.4734989701
  - # 20
    frequency:   38.4861040374
  - # 21
    frequency:   68.6374021674

- q-position: [    0.1010101,    0.0000000,    0.0000000 ]
  distance:    0.0358930
  band:
  - # 1
    frequency:   -0.6885872176
  - # 2
    frequency:    0.6286367109
  - # 3
    frequency:    0.9905249153
  - # 4
    frequency:    1.4787428905
  - # 5
    frequency:    2.3814424680
  - # 6
    frequency:    3.6484310626
  - # 7
    frequency:    4.0509051134
  - # 8
    frequency:    4.8769909661
  - # 9
    frequency:    6.3963885715
  - # 10
    frequency:    6.7915002783
  - # 11
    frequency:    7.7161335446
  - # 12
    frequency:    7.8953560100
  - # 13
    frequency:    8.7834171101
  - # 14
    frequency:   11.6117136893
  - # 15
    frequency:   15.1825014138
  - # 16
    frequency:   16.8081796811
  - # 17
    frequency:   16.8480090752
  - # 18
    frequency:   17.3700839519
  - # 19
    frequency:   17.4853984898
  - # 20
    frequency:   38.4856136189
  - # 21
    frequency:   68.5938820709

- q-position: [    0.1060606,    0.0000000,    0.0000000 ]
  distance:    0.0376877
  band:
  - # 1
    frequency:   -0.6578942284
  - # 2
    frequency:    0.7032061817
  - # 3
    frequency:    1.0712294647
  - # 4
    frequency:    1.5455498485
  - # 5
    frequency:    2.4887427333
  - # 6
    frequency:    3.6707284400
  - # 7
    frequency:    4.1013450613
  - # 8
    frequency:    4.8693630668
  - # 9
    frequency:    6.3929107238
  - # 10
    frequency:    6.8180410631
  - # 11
    frequency:    7.7052810096
  - # 12
    frequency:    7.8981998595
  - # 13
    frequency:    8.7833736467
  - # 14
    frequency:   11.5681370031
  - # 15
    frequency:   15.1737430660
  - # 16
    frequency:   16.8065871885
  - # 17
    frequency:   16.8502378720
  - # 18
    frequency:   17.3717687450
  - # 19
    frequency:   17.4977031573
  - # 20
    frequency:   38.4851082589
  - # 21
    frequency:   68.5487816529

- q-position: [    0.1111111,    0.0000000,    0.0000000 ]
  distance:    0.0394823
  band:
  - # 1
    frequency:   -0.6245094801
  - # 2
    frequency:    0.7762035614
  - # 3
    frequency:    1.1499523244
  - # 4
    frequency:    1.6112178359
  - # 5
    frequency:    2.5941060068
  - # 6
    frequency:    3.6938350047
  - # 7
    frequency:    4.1516848233
  - # 8
    frequency:    4.8634879671
  - # 9
    frequency:    6.3893809284
  - # 10
    frequency:    6.8445478794
  - # 11
    frequency:    7.6940742820
  - # 12
    frequency:    7.9005323816
  - # 13
    frequency:    8.7839448684
  - # 14
    frequency:   11.5232608023
  - # 15
    frequency:   15.1645871504
  - # 16
    frequency:   16.8048757830
  - # 17
    frequency:   16.8524919846
  - # 18
    frequency:   17.3735346439
  - # 19
    frequency:   17.5103864841
  - # 20
    frequency:   38.4845893200
  - # 21
    frequency:   68.5021900205

- q-position: [    0.1161616,    0.0000000,    0.0000000 ]
  distance:    0.0412770
  band:
  - # 1
    frequency:   -0.5879911985
  - # 2
    frequency:    0.8484733244
  - # 3
    frequency:    1.2268245086
  - # 4
    frequency:    1.6757173947
  - # 5
    frequency:    2.6974441765
  - # 6
    frequency:    3.7177131789
  - # 7
    frequency:    4.2015225101
  - # 8
    frequency:    4.8597382294
  - # 9
    frequency:    6.3858156812
  - # 10
    frequency:    6.8709364507
  - # 11
    frequency:    7.6825389167
  - # 12
    frequency:    7.9023107332
  - # 13
    frequency:    8.7851687753
  - # 14
    frequency:   11.4771917231
  - # 15
    frequency:   15.1550477247
  - # 16
    frequency:   16.8030363135
  - # 17
    frequency:   16.8547580168
  - # 18
    frequency:   17.3753809996
  - # 19
    frequency:   17.5234216324
  - # 20
    frequency:   38.4840581930
  - # 21
    frequency:   68.4541986114

- q-position: [    0.1212121,    0.0000000,    0.0000000 ]
  distance:    0.0430716
  band:
  - # 1
    frequency:   -0.5477336113
  - # 2
    frequency:    0.9204846808
  - # 3
    frequency:    1.3019917969
  - # 4
    frequency:    1.7390244164
  - # 5
    frequency:    2.7986679621
  - # 6
    frequency:    3.7423242600
  - # 7
    frequency:    4.2503891364
  - # 8
    frequency:    4.8585584409
  - # 9
    frequency:    6.3822321458
  - # 10
    frequency:    6.8971265250
  - # 11
    frequency:    7.6707015067
  - # 12
    frequency:    7.9035054189
  - # 13
    frequency:    8.7870716435
  - # 14
    frequency:   11.4300391459
  - # 15
    frequency:   15.1451407484
  - # 16
    frequency:   16.8010589523
  - # 17
    frequency:   16.8570217490
  - # 18
    frequency:   17.3773070347
  - # 19
    frequency:   17.5367815129
  - # 20
    frequency:   38.4835162930
  - # 21
    frequency:   68.4049009333

- q-position: [    0.1262626,    0.0000000,    0.0000000 ]
  distance:    0.0448663
  band:
  - # 1
    frequency:   -0.5028649894
  - # 2
    frequency:    0.9924989391
  - # 3
    frequency:    1.3755930015
  - # 4
    frequency:    1.8011199221
  - # 5
    frequency:    2.8976859880
  - # 6
    frequency:    3.7676285659
  - # 7
    frequency:    4.2977395618
  - # 8
    frequency:    4.8604749918
  - # 9
    frequency:    6.3786481239
  - # 10
    frequency:    6.9230409809
  - # 11
    frequency:    7.6585895919
  - # 12
    frequency:    7.9041022224
  - # 13
    frequency:    8.7896667265
  - # 14
    frequency:   11.3819149788
  - # 15
    frequency:   15.1348840235
  - # 16
    frequency:   16.7989332800
  - # 17
    frequency:   16.8592681518
  - # 18
    frequency:   17.3793118358
  - # 19
    frequency:   17.5504388791
  - # 20
    frequency:   38.4829650542
  - # 21
    frequency:   68.3543922986

- q-position: [    0.1313131,    0.0000000,    0.0000000 ]
  distance:    0.0466609
  band:
  - # 1
    frequency:   -0.4520460895
  - # 2
    frequency:    1.0646561324
  - # 3
    frequency:    1.4477520949
  - # 4
    frequency:    1.8619898585
  - # 5
    frequency:    2.9944037200
  - # 6
    frequency:    3.7935856054
  - # 7
    frequency:    4.3429561087
  - # 8
    frequency:    4.8660933341
  - # 9
    frequency:    6.3750820207
  - # 10
    frequency:    6.9486049286
  - # 11
    frequency:    7.6462315517
  - # 12
    frequency:    7.9041037542
  - # 13
    frequency:    8.7929533731
  - # 14
    frequency:   11.3329334361
  - # 15
    frequency:   15.1242971124
  - # 16
    frequency:   16.7966483866
  - # 17
    frequency:   16.8614814055
  - # 18
    frequency:   17.3813943472
  - # 19
    frequency:   17.5643664182
  - # 20
    frequency:   38.4824059256
  - # 21
    frequency:   68.3027695537

- q-position: [    0.1363636,    0.0000000,    0.0000000 ]
  distance:    0.0484556
  band:
  - # 1
    frequency:   -0.3930154875
  - # 2
    frequency:    1.1370225388
  - # 3
    frequency:    1.5185764846
  - # 4
    frequency:    1.9216248997
  - # 5
    frequency:    3.0887222240
  - # 6
    frequency:    3.8201542739
  - # 7
    frequency:    4.3853788996
  - # 8
    frequency:    4.8760687164
  - # 9
    frequency:    6.3715528011
  - # 10
    frequency:    6.9737448323
  - # 11
    frequency:    7.6336564849
  - # 12
    frequency:    7.9035305241
  - # 13
    frequency:    8.7969166336
  - # 14
    frequency:   11.2832108084
  - # 15
    frequency:   15.1134012338
  - # 16
    frequency:   16.7941929847
  - # 17
    frequency:   16.8636449277
  - # 18
    frequency:   17.3835533662
  - # 19
    frequency:   17.5785368386
  - # 20
    frequency:   38.4818403664
  - # 21
    frequency:   68.2501308053

- q-position: [    0.1414141,    0.0000000,    0.0000000 ]
  distance:    0.0502502
  band:
  - # 1
    frequency:   -0.3213318290
  - # 2
    frequency:    1.2096179874
  - # 3
    frequency:    1.5881578501
  - # 4
    frequency:    1.9800202468
  - # 5
    frequency:    3.1805367191
  - # 6
    frequency:    3.8472930754
  - # 7
    frequency:    4.4243785282
  - # 8
    frequency:    4.8910348092
  - # 9
    frequency:    6.3680799379
  - # 10
    frequency:    6.9983876816
  - # 11
    frequency:    7.6208940758
  - # 12
    frequency:    7.9024214776
  - # 13
    frequency:    8.8015273849
  - # 14
    frequency:   11.2328652231
  - # 15
    frequency:   15.1022191391
  - # 16
    frequency:   16.7915555356
  - # 17
    frequency:   16.8657414083
  - # 18
    frequency:   17.3857875403
  - # 19
    frequency:   17.5929229522
  - # 20
    frequency:   38.4812698412
  - # 21
    frequency:   68.1965751424

- q-position: [    0.1464646,    0.0000000,    0.0000000 ]
  distance:    0.0520449
  band:
  - # 1
    frequency:   -0.2253034409
  - # 2
    frequency:    1.2824321437
  - # 3
    frequency:    1.6565739157
  - # 4
    frequency:    2.0371754158
  - # 5
    frequency:    3.2697349196
  - # 6
    frequency:    3.8749603697
  - # 7
    frequency:    4.4594745357
  - # 8
    frequency:    4.9114867544
  - # 9
    frequency:    6.3646833499
  - # 10
    frequency:    7.0224602486
  - # 11
    frequency:    7.6079744472
  - # 12
    frequency:    7.9008339706
  - # 13
    frequency:    8.8067429676
  - # 14
    frequency:   11.1820163913
  - # 15
    frequency:   15.0907749728
  - # 16
    frequency:   16.7887243826
  - # 17
    frequency:   16.8677528528
  - # 18
    frequency:   17.3880953651
  - # 19
    frequency:   17.6074977534
  - # 20
    frequency:   38.4806958154
  - # 21
    frequency:   68.1422023574

- q-position: [    0.1515152,    0.0000000,    0.0000000 ]
  distance:    0.0538395
  band:
  - # 1
    frequency:    0.0545598849
  - # 2
    frequency:    1.3554345130
  - # 3
    frequency:    1.7238904367
  - # 4
    frequency:    2.0930940098
  - # 5
    frequency:    3.3561952057
  - # 6
    frequency:    3.9031146442
  - # 7
    frequency:    4.4904710200
  - # 8
    frequency:    4.9376472787
  - # 9
    frequency:    6.3613833298
  - # 10
    frequency:    7.0458884732
  - # 11
    frequency:    7.5949280020
  - # 12
    frequency:    7.8988431832
  - # 13
    frequency:    8.8125082857
  - # 14
    frequency:   11.1307853375
  - # 15
    frequency:   15.0790941186
  - # 16
    frequency:   16.7856878924
  - # 17
    frequency:   16.8696606324
  - # 18
    frequency:   17.3904751854
  - # 19
    frequency:   17.6222344935
  - # 20
    frequency:   38.4801197508
  - # 21