nqpoint: 300    
npath: 3      
segment_nqpoint:
- 100
- 100
- 100
labels:
- [ 'G', 'M' ]
- [ 'M', 'K' ]
- [ 'K', 'G' ]
reciprocal_lattice:
- [   0.31891659,   0.18412658,   0.00000000 ] # a*
- [   0.00000000,   0.36825315,   0.00000000 ] # b*
- [   0.00000000,   0.00000000,   0.03640008 ] # c*
natom: 8      
lattice:
- [     3.135616157639975,     0.000000000000000,     0.000000000000000 ] # a
- [    -1.567808078819987,     2.715523249034063,     0.000000000000000 ] # b
- [     0.000000000000000,     0.000000000000000,    27.472465756841920 ] # c
points:
- symbol: C # 1
  coordinates: [  0.000000000000000,  0.000000000000000,  0.507697734184505 ]
  mass: 12.010700
- symbol: C # 2
  coordinates: [  0.666666984744047,  0.333332985985145,  0.370835537892213 ]
  mass: 12.010700
- symbol: N # 3
  coordinates: [  0.666666984744047,  0.333332985985145,  0.327600735938986 ]
  mass: 14.006700
- symbol: O # 4
  coordinates: [  0.333332985432215,  0.666666983183674,  0.672399264061014 ]
  mass: 15.999400
- symbol: O # 5
  coordinates: [  0.666666984744047,  0.333332985985145,  0.419482581116177 ]
  mass: 15.999400
- symbol: P # 6
  coordinates: [  0.333332985432215,  0.666666983183674,  0.618176941097616 ]
  mass: 30.973762
- symbol: Ti # 7
  coordinates: [  0.333332985432215,  0.666666983183674,  0.466349808720847 ]
  mass: 47.867000
- symbol: Ti # 8
  coordinates: [  0.666666984744047,  0.333332985985145,  0.550011369146085 ]
  mass: 47.867000

phonon:
- q-position: [    0.0000000,    0.0000000,    0.0000000 ]
  distance:    0.0000000
  band:
  - # 1
    frequency:   -2.9314014995
  - # 2
    frequency:   -2.9314014995
  - # 3
    frequency:   -0.0000002757
  - # 4
    frequency:    0.0000002247
  - # 5
    frequency:    0.0000014426
  - # 6
    frequency:    0.2071165333
  - # 7
    frequency:    0.2071165333
  - # 8
    frequency:    4.2819675248
  - # 9
    frequency:    4.2819675248
  - # 10
    frequency:    5.2304145988
  - # 11
    frequency:    5.7719330473
  - # 12
    frequency:    5.7719330473
  - # 13
    frequency:    7.4445515470
  - # 14
    frequency:    7.4445515470
  - # 15
    frequency:    9.5475481414
  - # 16
    frequency:   10.9781566675
  - # 17
    frequency:   13.7993222573
  - # 18
    frequency:   13.7993222573
  - # 19
    frequency:   17.7479811694
  - # 20
    frequency:   18.1510706912
  - # 21
    frequency:   18.1510706912
  - # 22
    frequency:   31.8461564261
  - # 23
    frequency:   34.6262055642
  - # 24
    frequency:   67.6122917860

- q-position: [    0.0050505,    0.0000000,    0.0000000 ]
  distance:    0.0018599
  band:
  - # 1
    frequency:   -2.9304296846
  - # 2
    frequency:   -2.9256618908
  - # 3
    frequency:   -0.1229343767
  - # 4
    frequency:    0.0846132153
  - # 5
    frequency:    0.1556384924
  - # 6
    frequency:    0.2169420460
  - # 7
    frequency:    0.2419197963
  - # 8
    frequency:    4.2828154573
  - # 9
    frequency:    4.2844315770
  - # 10
    frequency:    5.2291765755
  - # 11
    frequency:    5.7723975052
  - # 12
    frequency:    5.7741077309
  - # 13
    frequency:    7.4450237061
  - # 14
    frequency:    7.4453687112
  - # 15
    frequency:    9.5475028220
  - # 16
    frequency:   10.9791729090
  - # 17
    frequency:   13.7995143652
  - # 18
    frequency:   13.7998080623
  - # 19
    frequency:   17.7480632782
  - # 20
    frequency:   18.1516319330
  - # 21
    frequency:   18.1517336314
  - # 22
    frequency:   31.8456700582
  - # 23
    frequency:   34.6259507163
  - # 24
    frequency:   67.6120890791

- q-position: [    0.0101010,    0.0000000,    0.0000000 ]
  distance:    0.0037197
  band:
  - # 1
    frequency:   -2.9275207709
  - # 2
    frequency:   -2.9084353531
  - # 3
    frequency:   -0.1520909547
  - # 4
    frequency:    0.1614037649
  - # 5
    frequency:    0.2458768897
  - # 6
    frequency:    0.2492438914
  - # 7
    frequency:    0.3235920449
  - # 8
    frequency:    4.2853496320
  - # 9
    frequency:    4.2917951141
  - # 10
    frequency:    5.2255485004
  - # 11
    frequency:    5.7737912421
  - # 12
    frequency:    5.7805547243
  - # 13
    frequency:    7.4464362686
  - # 14
    frequency:    7.4478152855
  - # 15
    frequency:    9.5473660794
  - # 16
    frequency:   10.9822134088
  - # 17
    frequency:   13.8000898282
  - # 18
    frequency:   13.8012640959
  - # 19
    frequency:   17.7483053768
  - # 20
    frequency:   18.1533073830
  - # 21
    frequency:   18.1537139527
  - # 22
    frequency:   31.8442123098
  - # 23
    frequency:   34.6251867023
  - # 24
    frequency:   67.6114814109

- q-position: [    0.0151515,    0.0000000,    0.0000000 ]
  distance:    0.0055796
  band:
  - # 1
    frequency:   -2.9226943608
  - # 2
    frequency:   -2.8796990470
  - # 3
    frequency:   -0.1619183716
  - # 4
    frequency:    0.2197066350
  - # 5
    frequency:    0.3104761513
  - # 6
    frequency:    0.3364146762
  - # 7
    frequency:    0.4239060039
  - # 8
    frequency:    4.2895413659
  - # 9
    frequency:    4.3039725106
  - # 10
    frequency:    5.2197743714
  - # 11
    frequency:    5.7761152819
  - # 12
    frequency:    5.7910572908
  - # 13
    frequency:    7.4487775374
  - # 14
    frequency:    7.4518765573
  - # 15
    frequency:    9.5471356003
  - # 16
    frequency:   10.9872535522
  - # 17
    frequency:   13.8010460701
  - # 18
    frequency:   13.8036862169
  - # 19
    frequency:   17.7486949197
  - # 20
    frequency:   18.1560723083
  - # 21
    frequency:   18.1569861752
  - # 22
    frequency:   31.8417872405
  - # 23
    frequency:   34.6239151096
  - # 24
    frequency:   67.6104701363

- q-position: [    0.0202020,    0.0000000,    0.0000000 ]
  distance:    0.0074395
  band:
  - # 1
    frequency:   -2.9159831562
  - # 2
    frequency:   -2.8394159816
  - # 3
    frequency:   -0.1598023322
  - # 4
    frequency:    0.2652606512
  - # 5
    frequency:    0.3914112092
  - # 6
    frequency:    0.4296051243
  - # 7
    frequency:    0.5323551579
  - # 8
    frequency:    4.2953434698
  - # 9
    frequency:    4.3208217320
  - # 10
    frequency:    5.2122200401
  - # 11
    frequency:    5.7793711134
  - # 12
    frequency:    5.8052965505
  - # 13
    frequency:    7.4520281725
  - # 14
    frequency:    7.4575281437
  - # 15
    frequency:    9.5468076619
  - # 16
    frequency:   10.9942525117
  - # 17
    frequency:   13.8023788160
  - # 18
    frequency:   13.8070675337
  - # 19
    frequency:   17.7492114440
  - # 20
    frequency:   18.1598857960
  - # 21
    frequency:   18.1615079033
  - # 22
    frequency:   31.8384015989
  - # 23
    frequency:   34.6221385769
  - # 24
    frequency:   67.6090575075

- q-position: [    0.0252525,    0.0000000,    0.0000000 ]
  distance:    0.0092993
  band:
  - # 1
    frequency:   -2.9074329899
  - # 2
    frequency:   -2.7875369485
  - # 3
    frequency:   -0.1457432413
  - # 4
    frequency:    0.3086194190
  - # 5
    frequency:    0.4789980912
  - # 6
    frequency:    0.5246143952
  - # 7
    frequency:    0.6455261313
  - # 8
    frequency:    4.3026911599
  - # 9
    frequency:    4.3421449974
  - # 10
    frequency:    5.2033284841
  - # 11
    frequency:    5.7835603717
  - # 12
    frequency:    5.8228986568
  - # 13
    frequency:    7.4561614198
  - # 14
    frequency:    7.4647361986
  - # 15
    frequency:    9.5463773283
  - # 16
    frequency:   11.0031535411
  - # 17
    frequency:   13.8040821212
  - # 18
    frequency:   13.8113984196
  - # 19
    frequency:   17.7498271967
  - # 20
    frequency:   18.1646912119
  - # 21
    frequency:   18.1672199668
  - # 22
    frequency:   31.8340647955
  - # 23
    frequency:   34.6198607849
  - # 24
    frequency:   67.6072466641

- q-position: [    0.0303030,    0.0000000,    0.0000000 ]
  distance:    0.0111592
  band:
  - # 1
    frequency:   -2.8971028425
  - # 2
    frequency:   -2.7240039172
  - # 3
    frequency:   -0.1130932706
  - # 4
    frequency:    0.3526694009
  - # 5
    frequency:    0.5686932597
  - # 6
    frequency:    0.6207120893
  - # 7
    frequency:    0.7620255074
  - # 8
    frequency:    4.3115033100
  - # 9
    frequency:    4.3676890198
  - # 10
    frequency:    5.1935800105
  - # 11
    frequency:    5.7886844070
  - # 12
    frequency:    5.8434783268
  - # 13
    frequency:    7.4611434210
  - # 14
    frequency:    7.4734577012
  - # 15
    frequency:    9.5458387175
  - # 16
    frequency:   11.0138843860
  - # 17
    frequency:   13.8061484103
  - # 18
    frequency:   13.8166665365
  - # 19
    frequency:   17.7505079353
  - # 20
    frequency:   18.1704168347
  - # 21
    frequency:   18.1740466782
  - # 22
    frequency:   31.8287888655
  - # 23
    frequency:   34.6170864421
  - # 24
    frequency:   67.6050416203

- q-position: [    0.0353535,    0.0000000,    0.0000000 ]
  distance:    0.0130191
  band:
  - # 1
    frequency:   -2.8850648187
  - # 2
    frequency:   -2.6487556939
  - # 3
    frequency:    0.0286915943
  - # 4
    frequency:    0.3977363090
  - # 5
    frequency:    0.6590879141
  - # 6
    frequency:    0.7174311504
  - # 7
    frequency:    0.8812394851
  - # 8
    frequency:    4.3216840178
  - # 9
    frequency:    4.3971441614
  - # 10
    frequency:    5.1834653798
  - # 11
    frequency:    5.7947437566
  - # 12
    frequency:    5.8666710856
  - # 13
    frequency:    7.4669335979
  - # 14
    frequency:    7.4836408239
  - # 15
    frequency:    9.5451853344
  - # 16
    frequency:   11.0263578059
  - # 17
    frequency:   13.8085685284
  - # 18
    frequency:   13.8228568647
  - # 19
    frequency:   17.7512138392
  - # 20
    frequency:   18.1769766557
  - # 21
    frequency:   18.1818962543
  - # 22
    frequency:   31.8225884209
  - # 23
    frequency:   34.6138212675
  - # 24
    frequency:   67.6024472477

- q-position: [    0.0404040,    0.0000000,    0.0000000 ]
  distance:    0.0148789
  band:
  - # 1
    frequency:   -2.8714040538
  - # 2
    frequency:   -2.5617370320
  - # 3
    frequency:    0.1447885487
  - # 4
    frequency:    0.4436567344
  - # 5
    frequency:    0.7496246777
  - # 6
    frequency:    0.8144702277
  - # 7
    frequency:    1.0029412038
  - # 8
    frequency:    4.3331244553
  - # 9
    frequency:    4.4301416725
  - # 10
    frequency:    5.1734738301
  - # 11
    frequency:    5.8017375392
  - # 12
    frequency:    5.8921527553
  - # 13
    frequency:    7.4734850995
  - # 14
    frequency:    7.4952253777
  - # 15
    frequency:    9.5444104599
  - # 16
    frequency:   11.0404722068
  - # 17
    frequency:   13.8113318026
  - # 18
    frequency:   13.8299517428
  - # 19
    frequency:   17.7519004700
  - # 20
    frequency:   18.1842713356
  - # 21
    frequency:   18.1906614438
  - # 22
    frequency:   31.8154805935
  - # 23
    frequency:   34.6100719693
  - # 24
    frequency:   67.5994692550

- q-position: [    0.0454545,    0.0000000,    0.0000000 ]
  distance:    0.0167388
  band:
  - # 1
    frequency:   -2.8562185193
  - # 2
    frequency:   -2.4629129046
  - # 3
    frequency:    0.2220901124
  - # 4
    frequency:    0.4902122412
  - # 5
    frequency:    0.8400260483
  - # 6
    frequency:    0.9116242892
  - # 7
    frequency:    1.1271243249
  - # 8
    frequency:    4.3457049580
  - # 9
    frequency:    4.4662480309
  - # 10
    frequency:    5.1640944032
  - # 11
    frequency:    5.8096627961
  - # 12
    frequency:    5.9196484713
  - # 13
    frequency:    7.4807453027
  - # 14
    frequency:    7.5081433321
  - # 15
    frequency:    9.5435075881
  - # 16
    frequency:   11.0561123794
  - # 17
    frequency:   13.8144261138
  - # 18
    frequency:   13.8379309166
  - # 19
    frequency:   17.7525197258
  - # 20
    frequency:   18.1921893045
  - # 21
    frequency:   18.2002203911
  - # 22
    frequency:   31.8074849664
  - # 23
    frequency:   34.6058462205
  - # 24
    frequency:   67.5961141650

- q-position: [    0.0505051,    0.0000000,    0.0000000 ]
  distance:    0.0185986
  band:
  - # 1
    frequency:   -2.8396186962
  - # 2
    frequency:   -2.3522903412
  - # 3
    frequency:    0.2965664435
  - # 4
    frequency:    0.5372135403
  - # 5
    frequency:    0.9301262927
  - # 6
    frequency:    1.0087454977
  - # 7
    frequency:    1.2539166718
  - # 8
    frequency:    4.3592973072
  - # 9
    frequency:    4.5049553151
  - # 10
    frequency:    5.1558279928
  - # 11
    frequency:    5.8185138052
  - # 12
    frequency:    5.9489346350
  - # 13
    frequency:    7.4886563540
  - # 14
    frequency:    7.5223194042
  - # 15
    frequency:    9.5424709004
  - # 16
    frequency:   11.0731503360
  - # 17
    frequency:   13.8178379792
  - # 18
    frequency:   13.8467715990
  - # 19
    frequency:   17.7530207480
  - # 20
    frequency:   18.2006079922
  - # 21
    frequency:   18.2104377543
  - # 22
    frequency:   31.7986234973
  - # 23
    frequency:   34.6011526302
  - # 24
    frequency:   67.5923892866

- q-position: [    0.0555556,    0.0000000,    0.0000000 ]
  distance:    0.0204585
  band:
  - # 1
    frequency:   -2.8217270888
  - # 2
    frequency:   -2.2299512061
  - # 3
    frequency:    0.3732730357
  - # 4
    frequency:    0.5845097799
  - # 5
    frequency:    1.0198112949
  - # 6
    frequency:    1.1057212705
  - # 7
    frequency:    1.3835235583
  - # 8
    frequency:    4.3737671465
  - # 9
    frequency:    4.5456667046
  - # 10
    frequency:    5.1492078490
  - # 11
    frequency:    5.8282814005
  - # 12
    frequency:    5.9798368024
  - # 13
    frequency:    7.4971557427
  - # 14
    frequency:    7.5376717135
  - # 15
    frequency:    9.5412957648
  - # 16
    frequency:   11.0914462426
  - # 17
    frequency:   13.8215526445
  - # 18
    frequency:   13.8564485417
  - # 19
    frequency:   17.7533507550
  - # 20
    frequency:   18.2093951729
  - # 21
    frequency:   18.2211660727
  - # 22
    frequency:   31.7889204321
  - # 23
    frequency:   34.5960007128
  - # 24
    frequency:   67.5883026857

- q-position: [    0.0606061,    0.0000000,    0.0000000 ]
  distance:    0.0223184
  band:
  - # 1
    frequency:   -2.8026775570
  - # 2
    frequency:   -2.0961007556
  - # 3
    frequency:    0.4544693640
  - # 4
    frequency:    0.6319825337
  - # 5
    frequency:    1.1089932660
  - # 6
    frequency:    1.2024616014
  - # 7
    frequency:    1.5161773433
  - # 8
    frequency:    4.3889764715
  - # 9
    frequency:    4.5876771018
  - # 10
    frequency:    5.1448263742
  - # 11
    frequency:    5.8389523290
  - # 12
    frequency:    6.0122255889
  - # 13
    frequency:    7.5061768955
  - # 14
    frequency:    7.5541124953
  - # 15
    frequency:    9.5399792485
  - # 16
    frequency:   11.1108494355
  - # 17
    frequency:   13.8255541850
  - # 18
    frequency:   13.8669341204
  - # 19
    frequency:   17.7534557909
  - # 20
    frequency:   18.2184104092
  - # 21
    frequency:   18.2322473672
  - # 22
    frequency:   31.7784022093
  - # 23
    frequency:   34.5904008534
  - # 24
    frequency:   67.5838631520

- q-position: [    0.0656566,    0.0000000,    0.0000000 ]
  distance:    0.0241782
  band:
  - # 1
    frequency:   -2.7826144509
  - # 2
    frequency:   -1.9511390328
  - # 3
    frequency:    0.5417346895
  - # 4
    frequency:    0.6795381818
  - # 5
    frequency:    1.1975986005
  - # 6
    frequency:    1.2988914847
  - # 7
    frequency:    1.6520804618
  - # 8
    frequency:    4.4047861242
  - # 9
    frequency:    4.6301516108
  - # 10
    frequency:    5.1433642371
  - # 11
    frequency:    5.8505086793
  - # 12
    frequency:    6.0460118057
  - # 13
    frequency:    7.5156497842
  - # 14
    frequency:    7.5715488667
  - # 15
    frequency:    9.5385206317
  - # 16
    frequency:   11.1311995170
  - # 17
    frequency:   13.8298256155
  - # 18
    frequency:   13.8781984338
  - # 19
    frequency:   17.7532813899
  - # 20
    frequency:   18.2275065764
  - # 21
    frequency:   18.2435149412
  - # 22
    frequency:   31.7670973563
  - # 23
    frequency:   34.5843642705
  - # 24
    frequency:   67.5790801637

- q-position: [    0.0707071,    0.0000000,    0.0000000 ]
  distance:    0.0260381
  band:
  - # 1
    frequency:   -2.7616915431
  - # 2
    frequency:   -1.7957641519
  - # 3
    frequency:    0.6365243354
  - # 4
    frequency:    0.7271015930
  - # 5
    frequency:    1.2855613621
  - # 6
    frequency:    1.3949462472
  - # 7
    frequency:    1.7913366893
  - # 8
    frequency:    4.4210582253
  - # 9
    frequency:    4.6721111881
  - # 10
    frequency:    5.1456119512
  - # 11
    frequency:    5.8629274165
  - # 12
    frequency:    6.0811414079
  - # 13
    frequency:    7.5255015398
  - # 14
    frequency:    7.5898836384
  - # 15
    frequency:    9.5369219072
  - # 16
    frequency:   11.1523275174
  - # 17
    frequency:   13.8343490083
  - # 18
    frequency:   13.8902094186
  - # 19
    frequency:   17.7527731665
  - # 20
    frequency:   18.2365314522
  - # 21
    frequency:   18.2547953420
  - # 22
    frequency:   31.7550363778
  - # 23
    frequency:   34.5779029760
  - # 24
    frequency:   67.5739638492

- q-position: [    0.0757576,    0.0000000,    0.0000000 ]
  distance:    0.0278980
  band:
  - # 1
    frequency:   -2.7400707626
  - # 2
    frequency:   -1.6311100946
  - # 3
    frequency:    0.7403232688
  - # 4
    frequency:    0.7746113924
  - # 5
    frequency:    1.3728194641
  - # 6
    frequency:    1.4905685977
  - # 7
    frequency:    1.9338745132
  - # 8
    frequency:    4.4376584767
  - # 9
    frequency:    4.7124470863
  - # 10
    frequency:    5.1524622049
  - # 11
    frequency:    5.8761800537
  - # 12
    frequency:    6.1175904366
  - # 13
    frequency:    7.5356570673
  - # 14
    frequency:    7.6090161663
  - # 15
    frequency:    9.5351882542
  - # 16
    frequency:   11.1740571155
  - # 17
    frequency:   13.8391056184
  - # 18
    frequency:   13.9029329797
  - # 19
    frequency:   17.7518773442
  - # 20
    frequency:   18.2453293516
  - # 21
    frequency:   18.2659104392
  - # 22
    frequency:   31.7422516364
  - # 23
    frequency:   34.5710297335
  - # 24
    frequency:   67.5685249474

- q-position: [    0.0808081,    0.0000000,    0.0000000 ]
  distance:    0.0297578
  band:
  - # 1
    frequency:   -2.7179207432
  - # 2
    frequency:   -1.4588742139
  - # 3
    frequency:    0.8220165248
  - # 4
    frequency:    0.8545089543
  - # 5
    frequency:    1.4593122951
  - # 6
    frequency:    1.5857067229
  - # 7
    frequency:    2.0793776506
  - # 8
    frequency:    4.4544582727
  - # 9
    frequency:    4.7500002686
  - # 10
    frequency:    5.1648369394
  - # 11
    frequency:    5.8902324866
  - # 12
    frequency:    6.1553599049
  - # 13
    frequency:    7.5460396582
  - # 14
    frequency:    7.6288432368
  - # 15
    frequency:    9.5333284695
  - # 16
    frequency:   11.1962059048
  - # 17
    frequency:   13.8440760147
  - # 18
    frequency:   13.9163331385
  - # 19
    frequency:   17.7505412378
  - # 20
    frequency:   18.2537427922
  - # 21
    frequency:   18.2766795730
  - # 22
    frequency:   31.7287772262
  - # 23
    frequency:   34.5637580132
  - # 24
    frequency:   67.5627747654

- q-position: [    0.0858586,    0.0000000,    0.0000000 ]
  distance:    0.0316177
  band:
  - # 1
    frequency:   -2.6954152108
  - # 2
    frequency:   -1.2812282244
  - # 3
    frequency:    0.8692737773
  - # 4
    frequency:    0.9798319185
  - # 5
    frequency:    1.5449792205
  - # 6
    frequency:    1.6803130394
  - # 7
    frequency:    2.2272462169
  - # 8
    frequency:    4.4713365659
  - # 9
    frequency:    4.7837386040
  - # 10
    frequency:    5.1835166672
  - # 11
    frequency:    5.9050450116
  - # 12
    frequency:    6.1944704686
  - # 13
    frequency:    7.5565715994
  - # 14
    frequency:    7.6492599822
  - # 15
    frequency:    9.5313553443
  - # 16
    frequency:   11.2185866951
  - # 17
    frequency:   13.8492402167
  - # 18
    frequency:   13.9303721976
  - # 19
    frequency:   17.7487137030
  - # 20
    frequency:   18.2616141698
  - # 21
    frequency:   18.2869217327
  - # 22
    frequency:   31.7146488399
  - # 23
    frequency:   34.5561019457
  - # 24
    frequency:   67.5567251346

- q-position: [    0.0909091,    0.0000000,    0.0000000 ]
  distance:    0.0334776
  band:
  - # 1
    frequency:   -2.6727312391
  - # 2
    frequency:   -1.1000051794
  - # 3
    frequency:    0.9163459854
  - # 4
    frequency:    1.1155600128
  - # 5
    frequency:    1.6297586836
  - # 6
    frequency:    1.7743433639
  - # 7
    frequency:    2.3766096636
  - # 8
    frequency:    4.4881814458
  - # 9
    frequency:    4.8130083475
  - # 10
    frequency:    5.2088958668
  - # 11
    frequency:    5.9205725386
  - # 12
    frequency:    6.2349566865
  - # 13
    frequency:    7.5671747753
  - # 14
    frequency:    7.6701608230
  - # 15
    frequency:    9.5292859671
  - # 16
    frequency:   11.2410088365
  - # 17
    frequency:   13.8545778359
  - # 18
    frequency:   13.9450109239
  - # 19
    frequency:   17.7463455636
  - # 20
    frequency:   18.2687874300
  - # 21
    frequency:   18.2964577251
  - # 22
    frequency:   31.6999036299
  - # 23
    frequency:   34.5480762742
  - # 24
    frequency:   67.5503883658

- q-position: [    0.0959596,    0.0000000,    0.0000000 ]
  distance:    0.0353374
  band:
  - # 1
    frequency:   -2.6500474108
  - # 2
    frequency:   -0.9144977636
  - # 3
    frequency:    0.9632007238
  - # 4
    frequency:    1.2588884649
  - # 5
    frequency:    1.7135877600
  - # 6
    frequency:    1.8677563515
  - # 7
    frequency:    2.5263955814
  - # 8
    frequency:    4.5048914009
  - # 9
    frequency:    4.8377370306
  - # 10
    frequency:    5.2407876276
  - # 11
    frequency:    5.9367649979
  - # 12
    frequency:    6.2768607078
  - # 13
    frequency:    7.5777712665
  - # 14
    frequency:    7.6914404386
  - # 15
    frequency:    9.5271419415
  - # 16
    frequency:   11.2632795547
  - # 17
    frequency:   13.8600682203
  - # 18
    frequency:   13.9602087483
  - # 19
    frequency:   17.7433900229
  - # 20
    frequency:   18.2751097183
  - # 21
    frequency:   18.3051123010
  - # 22
    frequency:   31.6845800643
  - # 23
    frequency:   34.5396963044
  - # 24
    frequency:   67.5437772025

- q-position: [    0.1010101,    0.0000000,    0.0000000 ]
  distance:    0.0371973
  band:
  - # 1
    frequency:   -2.6275419196
  - # 2
    frequency:   -0.7172035862
  - # 3
    frequency:    1.0098093416
  - # 4
    frequency:    1.4055077670
  - # 5
    frequency:    1.7964020817
  - # 6
    frequency:    1.9605131045
  - # 7
    frequency:    2.6754351244
  - # 8
    frequency:    4.5213762507
  - # 9
    frequency:    4.8584410530
  - # 10
    frequency:    5.2784244351
  - # 11
    frequency:    5.9535679345
  - # 12
    frequency:    6.3202253052
  - # 13
    frequency:    7.5882839430
  - # 14
    frequency:    7.7129947679
  - # 15
    frequency:    9.5249494983
  - # 16
    frequency:   11.2852052861
  - # 17
    frequency:   13.8656906004
  - # 18
    frequency:   13.9759239835
  - # 19
    frequency:   17.7398030634
  - # 20
    frequency:   18.2804329940
  - # 21
    frequency:   18.3127162122
  - # 22
    frequency:   31.6687177776
  - # 23
    frequency:   34.5309778542
  - # 24
    frequency:   67.5369047738

- q-position: [    0.1060606,    0.0000000,    0.0000000 ]
  distance:    0.0390572
  band:
  - # 1
    frequency:   -2.6053906528
  - # 2
    frequency:   -0.4819462108
  - # 3
    frequency:    1.0561462421
  - # 4
    frequency:    1.5511629964
  - # 5
    frequency:    1.8781360664
  - # 6
    frequency:    2.0525768798
  - # 7
    frequency:    2.8225720887
  - # 8
    frequency:    4.5375577491
  - # 9
    frequency:    4.8760284989
  - # 10
    frequency:    5.3206645736
  - # 11
    frequency:    5.9709232664
  - # 12
    frequency:    6.3650863114
  - # 13
    frequency:    7.5986370528
  - # 14
    frequency:    7.7347220451
  - # 15
    frequency:    9.5227394899
  - # 16
    frequency:   11.3065930018
  - # 17
    frequency:   13.8714242373
  - # 18
    frequency:   13.9921140566
  - # 19
    frequency:   17.7355438342
  - # 20
    frequency:   18.2846155935
  - # 21
    frequency:   18.3191081763
  - # 22
    frequency:   31.6523574173
  - # 23
    frequency:   34.5219372019
  - # 24
    frequency:   67.5297845462

- q-position: [    0.1111111,    0.0000000,    0.0000000 ]
  distance:    0.0409170
  band:
  - # 1
    frequency:   -2.5837652873
  - # 2
    frequency:    0.1524338902
  - # 3
    frequency:    1.1021883403
  - # 4
    frequency:    1.6928804373
  - # 5
    frequency:    1.9587234006
  - # 6
    frequency:    2.1439128422
  - # 7
    frequency:    2.9667470753
  - # 8
    frequency:    4.5533698751
  - # 9
    frequency:    4.8915391090
  - # 10
    frequency:    5.3662619568
  - # 11
    frequency:    5.9887701807
  - # 12
    frequency:    6.4114646922
  - # 13
    frequency:    7.6087568083
  - # 14
    frequency:    7.7565238794
  - # 15
    frequency:    9.5205472484
  - # 16
    frequency:   11.3272515099
  - # 17
    frequency:   13.8772485696
  - # 18
    frequency:   14.0087357570
  - # 19
    frequency:   17.7305750241
  - # 20
    frequency:   18.2875237302
  - # 21
    frequency:   18.3241367330
  - # 22
    frequency:   31.6355404877
  - # 23
    frequency:   34.5125910335
  - # 24
    frequency:   67.5224302757

- q-position: [    0.1161616,    0.0000000,    0.0000000 ]
  distance:    0.0427769
  band:
  - # 1
    frequency:   -2.5628314297
  - # 2
    frequency:    0.5132637348
  - # 3
    frequency:    1.1479146485
  - # 4
    frequency:    1.8291661568
  - # 5
    frequency:    2.0380977241
  - # 6
    frequency:    2.2344878193
  - # 7
    frequency:    3.1070444028
  - # 8
    frequency:    4.5687588381
  - # 9
    frequency:    4.9059566023
  - # 10
    frequency:    5.4140636377
  - # 11
    frequency:    6.0070461287
  - # 12
    frequency:    6.4593586896
  - # 13
    frequency:    7.6185719667
  - # 14
    frequency:    7.7783063867
  - # 15
    frequency:    9.5184122947
  - # 16
    frequency:   11.3469927274
  - # 17
    frequency:   13.8831433589
  - # 18
    frequency:   14.0257454964
  - # 19
    frequency:   17.7248632153
  - # 20
    frequency:   18.2890329171
  - # 21
    frequency:   18.3276619762
  - # 22
    frequency:   31.6183091895
  - # 23
    frequency:   34.5029563901
  - # 24
    frequency:   67.5148559590

- q-position: [    0.1212121,    0.0000000,    0.0000000 ]
  distance:    0.0446367
  band:
  - # 1
    frequency:   -2.5427468231
  - # 2
    frequency:    0.7048354900
  - # 3
    frequency:    1.1933059580
  - # 4
    frequency:    1.9595889029
  - # 5
    frequency:    2.1161934638
  - # 6
    frequency:    2.3242700163
  - # 7
    frequency:    3.2427051011
  - # 8
    frequency:    4.5836828370
  - # 9
    frequency:    4.9201260122
  - # 10
    frequency:    5.4631014644
  - # 11
    frequency:    6.0256878805
  - # 12
    frequency:    6.5087366430
  - # 13
    frequency:    7.6280144056
  - # 14
    frequency:    7.7999813834
  - # 15
    frequency:    9.5163778862
  - # 16
    frequency:   11.3656329135
  - # 17
    frequency:   13.8890888326
  - # 18
    frequency:   14.0430995800
  - # 19
    frequency:   17.7183792121
  - # 20
    frequency:   18.2890293029
  - # 21
    frequency:   18.3295571541
  - # 22
    frequency:   31.6007062584
  - # 23
    frequency:   34.4930506145
  - # 24
    frequency:   67.5070757855

- q-position: [    0.1262626,    0.0000000,    0.0000000 ]
  distance:    0.0464966
  band:
  - # 1
    frequency:   -2.5236596408
  - # 2
    frequency:    0.8539466839
  - # 3
    frequency:    1.2383445906
  - # 4
    frequency:    2.0842973466
  - # 5
    frequency:    2.1929467676
  - # 6
    frequency:    2.4132286508
  - # 7
    frequency:    3.3731172783
  - # 8
    frequency:    4.5981116151
  - # 9
    frequency:    4.9347425230
  - # 10
    frequency:    5.5126102481
  - # 11
    frequency:    6.0446325959
  - # 12
    frequency:    6.5595311992
  - # 13
    frequency:    7.6370196899
  - # 14
    frequency:    7.8214676512
  - # 15
    frequency:    9.5144903948
  - # 16
    frequency:   11.3829938565
  - # 17
    frequency:   13.8950658226
  - # 18
    frequency:   14.0607544841
  - # 19
    frequency:   17.7110983367
  - # 20
    frequency:   18.2874109104
  - # 21
    frequency:   18.3297101294
  - # 22
    frequency:   31.5827748018
  - # 23
    frequency:   34.4828912982
  - # 24
    frequency:   67.4991040895

- q-position: [    0.1313131,    0.0000000,    0.0000000 ]
  distance:    0.0483565
  band:
  - # 1
    frequency:   -2.5057068805
  - # 2
    frequency:    0.9822284176
  - # 3
    frequency:    1.2830142041
  - # 4
    frequency:    2.2036865640
  - # 5
    frequency:    2.2682964877
  - # 6
    frequency:    2.5013334700
  - # 7
    frequency:    3.4977958756
  - # 8
    frequency:    4.6120258595
  - # 9
    frequency:    4.9503711762
  - # 10
    frequency:    5.5620117453
  - # 11
    frequency:    6.0638188697
  - # 12
    frequency:    6.6116356030
  - # 13
    frequency:    7.6455276258
  - # 14
    frequency:    7.8426922779
  - # 15
    frequency:    9.5127985114
  - # 16
    frequency:   11.3989040098
  - # 17
    frequency:   13.9010558984
  - # 18
    frequency:   14.0786671387
  - # 19
    frequency:   17.7030006856
  - # 20
    frequency:   18.2840887678
  - # 21
    frequency:   18.3280246937
  - # 22
    frequency:   31.5645581343
  - # 23
    frequency:   34.4724962282
  - # 24
    frequency:   67.4909553027

- q-position: [    0.1363636,    0.0000000,    0.0000000 ]
  distance:    0.0502163
  band:
  - # 1
    frequency:   -2.4890128689
  - # 2
    frequency:    1.0982476897
  - # 3
    frequency:    1.3272996384
  - # 4
    frequency:    2.3182142505
  - # 5
    frequency:    2.3421851719
  - # 6
    frequency:    2.5885541155
  - # 7