nqpoint: 300    
npath: 3      
segment_nqpoint:
- 100
- 100
- 100
labels:
- [ 'G', 'M' ]
- [ 'M', 'K' ]
- [ 'K', 'G' ]
reciprocal_lattice:
- [   0.31891659,   0.18412658,   0.00000000 ] # a*
- [   0.00000000,   0.36825315,   0.00000000 ] # b*
- [   0.00000000,   0.00000000,   0.03640008 ] # c*
natom: 8      
lattice:
- [     3.135616157639975,     0.000000000000000,     0.000000000000000 ] # a
- [    -1.567808078819987,     2.715523249034063,     0.000000000000000 ] # b
- [     0.000000000000000,     0.000000000000000,    27.472465756841920 ] # c
points:
- symbol: C # 1
  coordinates: [  0.000000000000000,  0.000000000000000,  0.507697734184505 ]
  mass: 12.010700
- symbol: C # 2
  coordinates: [  0.666666984744047,  0.333332985985145,  0.370835537892213 ]
  mass: 12.010700
- symbol: N # 3
  coordinates: [  0.666666984744047,  0.333332985985145,  0.327600735938986 ]
  mass: 14.006700
- symbol: O # 4
  coordinates: [  0.333332985432215,  0.666666983183674,  0.672399264061014 ]
  mass: 15.999400
- symbol: O # 5
  coordinates: [  0.666666984744047,  0.333332985985145,  0.419482581116177 ]
  mass: 15.999400
- symbol: P # 6
  coordinates: [  0.333332985432215,  0.666666983183674,  0.618176941097616 ]
  mass: 30.973762
- symbol: Ti # 7
  coordinates: [  0.333332985432215,  0.666666983183674,  0.466349808720847 ]
  mass: 47.867000
- symbol: Ti # 8
  coordinates: [  0.666666984744047,  0.333332985985145,  0.550011369146085 ]
  mass: 47.867000

phonon:
- q-position: [    0.0000000,    0.0000000,    0.0000000 ]
  distance:    0.0000000
  band:
  - # 1
    frequency:   -1.8450000476
  - # 2
    frequency:   -1.8450000476
  - # 3
    frequency:   -1.2776233549
  - # 4
    frequency:   -1.2776233548
  - # 5
    frequency:   -0.0000050563
  - # 6
    frequency:    0.0000002174
  - # 7
    frequency:    0.0000071406
  - # 8
    frequency:    4.3340032201
  - # 9
    frequency:    4.3340032201
  - # 10
    frequency:    5.3012893378
  - # 11
    frequency:    5.8363522106
  - # 12
    frequency:    5.8363522106
  - # 13
    frequency:    7.8004180363
  - # 14
    frequency:    7.8004180363
  - # 15
    frequency:    9.7412414486
  - # 16
    frequency:   11.3559002400
  - # 17
    frequency:   13.8456891075
  - # 18
    frequency:   13.8456891075
  - # 19
    frequency:   17.9727870648
  - # 20
    frequency:   18.5042456222
  - # 21
    frequency:   18.5042456222
  - # 22
    frequency:   31.8221867854
  - # 23
    frequency:   34.6160771777
  - # 24
    frequency:   67.6038475091

- q-position: [    0.0050505,    0.0000000,    0.0000000 ]
  distance:    0.0018599
  band:
  - # 1
    frequency:   -1.8466123905
  - # 2
    frequency:   -1.8412234091
  - # 3
    frequency:   -1.2758416313
  - # 4
    frequency:   -1.2734224297
  - # 5
    frequency:    0.0028725964
  - # 6
    frequency:    0.0778391739
  - # 7
    frequency:    0.1191671348
  - # 8
    frequency:    4.3340817903
  - # 9
    frequency:    4.3352502595
  - # 10
    frequency:    5.3000372754
  - # 11
    frequency:    5.8362030107
  - # 12
    frequency:    5.8389194393
  - # 13
    frequency:    7.7999147058
  - # 14
    frequency:    7.8007553764
  - # 15
    frequency:    9.7408249247
  - # 16
    frequency:   11.3560495804
  - # 17
    frequency:   13.8457576841
  - # 18
    frequency:   13.8460684840
  - # 19
    frequency:   17.9722958201
  - # 20
    frequency:   18.5032433218
  - # 21
    frequency:   18.5035050381
  - # 22
    frequency:   31.8217512602
  - # 23
    frequency:   34.6158394624
  - # 24
    frequency:   67.6036619851

- q-position: [    0.0101010,    0.0000000,    0.0000000 ]
  distance:    0.0037197
  band:
  - # 1
    frequency:   -1.8513965856
  - # 2
    frequency:   -1.8298821908
  - # 3
    frequency:   -1.2704964945
  - # 4
    frequency:   -1.2607598232
  - # 5
    frequency:    0.0115148173
  - # 6
    frequency:    0.1553408426
  - # 7
    frequency:    0.2384867822
  - # 8
    frequency:    4.3343181359
  - # 9
    frequency:    4.3389731720
  - # 10
    frequency:    5.2963918181
  - # 11
    frequency:    5.8357579011
  - # 12
    frequency:    5.8465188098
  - # 13
    frequency:    7.7984081729
  - # 14
    frequency:    7.8017650447
  - # 15
    frequency:    9.7395776337
  - # 16
    frequency:   11.3564960416
  - # 17
    frequency:   13.8459634446
  - # 18
    frequency:   13.8472057629
  - # 19
    frequency:   17.9708217568
  - # 20
    frequency:   18.5002408032
  - # 21
    frequency:   18.5012841163
  - # 22
    frequency:   31.8204457107
  - # 23
    frequency:   34.6151267415
  - # 24
    frequency:   67.6031057481

- q-position: [    0.0151515,    0.0000000,    0.0000000 ]
  distance:    0.0055796
  band:
  - # 1
    frequency:   -1.8592006894
  - # 2
    frequency:   -1.8109405555
  - # 3
    frequency:   -1.2615855582
  - # 4
    frequency:   -1.2394527029
  - # 5
    frequency:    0.0260063940
  - # 6
    frequency:    0.2321928986
  - # 7
    frequency:    0.3581064499
  - # 8
    frequency:    4.3347141600
  - # 9
    frequency:    4.3451174377
  - # 10
    frequency:    5.2906643827
  - # 11
    frequency:    5.8350243457
  - # 12
    frequency:    5.8588642750
  - # 13
    frequency:    7.7959087772
  - # 14
    frequency:    7.8034400123
  - # 15
    frequency:    9.7375064180
  - # 16
    frequency:   11.3572349313
  - # 17
    frequency:   13.8463064800
  - # 18
    frequency:   13.8490983984
  - # 19
    frequency:   17.9683638820
  - # 20
    frequency:   18.4952512163
  - # 21
    frequency:   18.4975853592
  - # 22
    frequency:   31.8182732121
  - # 23
    frequency:   34.6139402892
  - # 24
    frequency:   67.6021798027

- q-position: [    0.0202020,    0.0000000,    0.0000000 ]
  distance:    0.0074395
  band:
  - # 1
    frequency:   -1.8697915099
  - # 2
    frequency:   -1.7843320823
  - # 3
    frequency:   -1.2490973586
  - # 4
    frequency:   -1.2091851090
  - # 5
    frequency:    0.0465018789
  - # 6
    frequency:    0.3081303058
  - # 7
    frequency:    0.4781633079
  - # 8
    frequency:    4.3352730261
  - # 9
    frequency:    4.3535925156
  - # 10
    frequency:    5.2833141395
  - # 11
    frequency:    5.8340147594
  - # 12
    frequency:    5.8755393536
  - # 13
    frequency:    7.7924336330
  - # 14
    frequency:    7.8057686565
  - # 15
    frequency:    9.7346226833
  - # 16
    frequency:   11.3582583917
  - # 17
    frequency:   13.8467869328
  - # 18
    frequency:   13.8517421638
  - # 19
    frequency:   17.9649205223
  - # 20
    frequency:   18.4882964829
  - # 21
    frequency:   18.4924129719
  - # 22
    frequency:   31.8152388803
  - # 23
    frequency:   34.6122822251
  - # 24
    frequency:   67.6008858199

- q-position: [    0.0252525,    0.0000000,    0.0000000 ]
  distance:    0.0092993
  band:
  - # 1
    frequency:   -1.8828792146
  - # 2
    frequency:   -1.7499487903
  - # 3
    frequency:   -1.2330024272
  - # 4
    frequency:   -1.1694910825
  - # 5
    frequency:    0.0732694069
  - # 6
    frequency:    0.3829503751
  - # 7
    frequency:    0.5987783036
  - # 8
    frequency:    4.3359991452
  - # 9
    frequency:    4.3642723514
  - # 10
    frequency:    5.2748841124
  - # 11
    frequency:    5.8327464723
  - # 12
    frequency:    5.8960615696
  - # 13
    frequency:    7.7880064532
  - # 14
    frequency:    7.8087348947
  - # 15
    frequency:    9.7309424011
  - # 16
    frequency:   11.3595553444
  - # 17
    frequency:   13.8474049858
  - # 18
    frequency:   13.8551311773
  - # 19
    frequency:   17.9604892988
  - # 20
    frequency:   18.4794073029
  - # 21
    frequency:   18.4857729142
  - # 22
    frequency:   31.8113498577
  - # 23
    frequency:   34.6101555085
  - # 24
    frequency:   67.5992261324

- q-position: [    0.0303030,    0.0000000,    0.0000000 ]
  distance:    0.0111592
  band:
  - # 1
    frequency:   -1.8981433650
  - # 2
    frequency:   -1.7076237777
  - # 3
    frequency:   -1.2132439776
  - # 4
    frequency:   -1.1197328376
  - # 5
    frequency:    0.1067596888
  - # 6
    frequency:    0.4565206025
  - # 7
    frequency:    0.7200496984
  - # 8
    frequency:    4.3368981515
  - # 9
    frequency:    4.3769961445
  - # 10
    frequency:    5.2659457005
  - # 11
    frequency:    5.8312416781
  - # 12
    frequency:    5.9199385331
  - # 13
    frequency:    7.7826573063
  - # 14
    frequency:    7.8123183691
  - # 15
    frequency:    9.7264861091
  - # 16
    frequency:   11.3611114181
  - # 17
    frequency:   13.8481608450
  - # 18
    frequency:   13.8592579361
  - # 19
    frequency:   17.9550670962
  - # 20
    frequency:   18.4686231571
  - # 21
    frequency:   18.4776729717
  - # 22
    frequency:   31.8066152926
  - # 23
    frequency:   34.6075639303
  - # 24
    frequency:   67.5972037282

- q-position: [    0.0353535,    0.0000000,    0.0000000 ]
  distance:    0.0130191
  band:
  - # 1
    frequency:   -1.9152561311
  - # 2
    frequency:   -1.6571051542
  - # 3
    frequency:   -1.1897291507
  - # 4
    frequency:   -1.0590826332
  - # 5
    frequency:    0.1477267715
  - # 6
    frequency:    0.5287795909
  - # 7
    frequency:    0.8420462927
  - # 8
    frequency:    4.3379768672
  - # 9
    frequency:    4.3915694793
  - # 10
    frequency:    5.2570609632
  - # 11
    frequency:    5.8295273695
  - # 12
    frequency:    5.9467061348
  - # 13
    frequency:    7.7764223093
  - # 14
    frequency:    7.8164946739
  - # 15
    frequency:    9.7212789097
  - # 16
    frequency:   11.3629088633
  - # 17
    frequency:   13.8490547193
  - # 18
    frequency:   13.8641133608
  - # 19
    frequency:   17.9486500309
  - # 20
    frequency:   18.4559923027
  - # 21
    frequency:   18.4681228439
  - # 22
    frequency:   31.8010463141
  - # 23
    frequency:   34.6045121031
  - # 24
    frequency:   67.5948222423

- q-position: [    0.0404040,    0.0000000,    0.0000000 ]
  distance:    0.0148789
  band:
  - # 1
    frequency:   -1.9339003556
  - # 2
    frequency:   -1.5980175790
  - # 3
    frequency:   -1.1623205644
  - # 4
    frequency:   -0.9865395558
  - # 5
    frequency:    0.1974384669
  - # 6
    frequency:    0.5997326043
  - # 7
    frequency:    0.9648009430
  - # 8
    frequency:    4.3392432486
  - # 9
    frequency:    4.4077660130
  - # 10
    frequency:    5.2487624929
  - # 11
    frequency:    5.8276352582
  - # 12
    frequency:    5.9759487494
  - # 13
    frequency:    7.7693432611
  - # 14
    frequency:    7.8212356228
  - # 15
    frequency:    9.7153504633
  - # 16
    frequency:   11.3649264568
  - # 17
    frequency:   13.8500867968
  - # 18
    frequency:   13.8696868469
  - # 19
    frequency:   17.9412334265
  - # 20
    frequency:   18.4415717512
  - # 21
    frequency:   18.4571342491
  - # 22
    frequency:   31.7946559997
  - # 23
    frequency:   34.6010054479
  - # 24
    frequency:   67.5920859460

- q-position: [    0.0454545,    0.0000000,    0.0000000 ]
  distance:    0.0167388
  band:
  - # 1
    frequency:   -1.9537819168
  - # 2
    frequency:   -1.5298052787
  - # 3
    frequency:   -1.1308269033
  - # 4
    frequency:   -0.9010810667
  - # 5
    frequency:    0.2580280431
  - # 6
    frequency:    0.6694436559
  - # 7
    frequency:    1.0883052772
  - # 8
    frequency:    4.3407063122
  - # 9
    frequency:    4.4253300389
  - # 10
    frequency:    5.2415458468
  - # 11
    frequency:    5.8256016807
  - # 12
    frequency:    6.0073060713
  - # 13
    frequency:    7.7614672211
  - # 14
    frequency:    7.8265095483
  - # 15
    frequency:    9.7087349737
  - # 16
    frequency:   11.3671394051
  - # 17
    frequency:   13.8512572179
  - # 18
    frequency:   13.8759663258
  - # 19
    frequency:   17.9328118047
  - # 20
    frequency:   18.4254272209
  - # 21
    frequency:   18.4447210432
  - # 22
    frequency:   31.7874593391
  - # 23
    frequency:   34.5970501799
  - # 24
    frequency:   67.5889997357

- q-position: [    0.0505051,    0.0000000,    0.0000000 ]
  distance:    0.0185986
  band:
  - # 1
    frequency:   -1.9746369874
  - # 2
    frequency:   -1.4516455820
  - # 3
    frequency:   -1.0949905345
  - # 4
    frequency:   -0.8022310432
  - # 5
    frequency:    0.3329696400
  - # 6
    frequency:    0.7380258653
  - # 7
    frequency:    1.2125066489
  - # 8
    frequency:    4.3423760345
  - # 9
    frequency:    4.4439803876
  - # 10
    frequency:    5.2358686884
  - # 11
    frequency:    5.8234674892
  - # 12
    frequency:    6.0404718948
  - # 13
    frequency:    7.7528460387
  - # 14
    frequency:    7.8322816288
  - # 15
    frequency:    9.7014711632
  - # 16
    frequency:   11.3695192489
  - # 17
    frequency:   13.8525660479
  - # 18
    frequency:   13.8829383319
  - # 19
    frequency:   17.9233789074
  - # 20
    frequency:   18.4076330465
  - # 21
    frequency:   18.4308993503
  - # 22
    frequency:   31.7794731900
  - # 23
    frequency:   34.5926532914
  - # 24
    frequency:   67.5855691183

- q-position: [    0.0555556,    0.0000000,    0.0000000 ]
  distance:    0.0204585
  band:
  - # 1
    frequency:   -1.9962352876
  - # 2
    frequency:   -1.3623117324
  - # 3
    frequency:   -1.0544693159
  - # 4
    frequency:   -0.6915880831
  - # 5
    frequency:    0.4271306144
  - # 6
    frequency:    0.8056313818
  - # 7
    frequency:    1.3373082336
  - # 8
    frequency:    4.3442632236
  - # 9
    frequency:    4.4634162602
  - # 10
    frequency:    5.2321518757
  - # 11
    frequency:    5.8212779263
  - # 12
    frequency:    6.0751889491
  - # 13
    frequency:    7.7435358400
  - # 14
    frequency:    7.8385142361
  - # 15
    frequency:    9.6936022321
  - # 16
    frequency:   11.3720337795
  - # 17
    frequency:   13.8540132466
  - # 18
    frequency:   13.8905880763
  - # 19
    frequency:   17.9129277651
  - # 20
    frequency:   18.3882720287
  - # 21
    frequency:   18.4156877018
  - # 22
    frequency:   31.7707162306
  - # 23
    frequency:   34.5878225330
  - # 24
    frequency:   67.5818001967

- q-position: [    0.0606061,    0.0000000,    0.0000000 ]
  distance:    0.0223184
  band:
  - # 1
    frequency:   -2.0183804810
  - # 2
    frequency:   -1.2599403857
  - # 3
    frequency:   -1.0088083471
  - # 4
    frequency:   -0.5749240092
  - # 5
    frequency:    0.5442718630
  - # 6
    frequency:    0.8724416802
  - # 7
    frequency:    1.4625727144
  - # 8
    frequency:    4.3463793587
  - # 9
    frequency:    4.4833256317
  - # 10
    frequency:    5.2307792371
  - # 11
    frequency:    5.8190824826
  - # 12
    frequency:    6.1112423700
  - # 13
    frequency:    7.7335964784
  - # 14
    frequency:    7.8451672997
  - # 15
    frequency:    9.6851758003
  - # 16
    frequency:   11.3746469699
  - # 17
    frequency:   13.8555986395
  - # 18
    frequency:   13.8988995264
  - # 19
    frequency:   17.9014508359
  - # 20
    frequency:   18.3674351992
  - # 21
    frequency:   18.3991071826
  - # 22
    frequency:   31.7612089042
  - # 23
    frequency:   34.5825663926
  - # 24
    frequency:   67.5776996523

- q-position: [    0.0656566,    0.0000000,    0.0000000 ]
  distance:    0.0241782
  band:
  - # 1
    frequency:   -2.0409086881
  - # 2
    frequency:   -1.1416015019
  - # 3
    frequency:   -0.9573944674
  - # 4
    frequency:   -0.4594451856
  - # 5
    frequency:    0.6809356185
  - # 6
    frequency:    0.9386586300
  - # 7
    frequency:    1.5881293281
  - # 8
    frequency:    4.3487363967
  - # 9
    frequency:    4.5033967306
  - # 10
    frequency:    5.2320941304
  - # 11
    frequency:    5.8169347352
  - # 12
    frequency:    6.1484531861
  - # 13
    frequency:    7.7230909576
  - # 14
    frequency:    7.8521986831
  - # 15
    frequency:    9.6762438253
  - # 16
    frequency:   11.3773189305
  - # 17
    frequency:   13.8573218881
  - # 18
    frequency:   13.9078554895
  - # 19
    frequency:   17.8889402438
  - # 20
    frequency:   18.3452214706
  - # 21
    frequency:   18.3811815812
  - # 22
    frequency:   31.7509733601
  - # 23
    frequency:   34.5768940722
  - # 24
    frequency:   67.5732747268

- q-position: [    0.0707071,    0.0000000,    0.0000000 ]
  distance:    0.0260381
  band:
  - # 1
    frequency:   -2.0636858511
  - # 2
    frequency:   -1.0024082898
  - # 3
    frequency:   -0.8993799242
  - # 4
    frequency:   -0.3416528982
  - # 5
    frequency:    0.8261465640
  - # 6
    frequency:    1.0044964610
  - # 7
    frequency:    1.7137833584
  - # 8
    frequency:    4.3513465450
  - # 9
    frequency:    4.5233326649
  - # 10
    frequency:    5.2363921030
  - # 11
    frequency:    5.8148921643
  - # 12
    frequency:    6.1866724340
  - # 13
    frequency:    7.7120848331
  - # 14
    frequency:    7.8595645701
  - # 15
    frequency:    9.6668624910
  - # 16
    frequency:   11.3800058940
  - # 17
    frequency:   13.8591824628
  - # 18
    frequency:   13.9174377008
  - # 19
    frequency:   17.8753881485
  - # 20
    frequency:   18.3217371351
  - # 21
    frequency:   18.3619375393
  - # 22
    frequency:   31.7400333875
  - # 23
    frequency:   34.5708154635
  - # 24
    frequency:   67.5685332020

- q-position: [    0.0757576,    0.0000000,    0.0000000 ]
  distance:    0.0278980
  band:
  - # 1
    frequency:   -2.0866044579
  - # 2
    frequency:   -0.8335469386
  - # 3
    frequency:   -0.8333850884
  - # 4
    frequency:   -0.1859554881
  - # 5
    frequency:    0.9704863979
  - # 6
    frequency:    1.0701745882
  - # 7
    frequency:    1.8393266951
  - # 8
    frequency:    4.3542220021
  - # 9
    frequency:    4.5428684955
  - # 10
    frequency:    5.2439101818
  - # 11
    frequency:    5.8130159452
  - # 12
    frequency:    6.2257760862
  - # 13
    frequency:    7.7006456018
  - # 14
    frequency:    7.8672198608
  - # 15
    frequency:    9.6570920633
  - # 16
    frequency:   11.3826602359
  - # 17
    frequency:   13.8611796165
  - # 18
    frequency:   13.9276269134
  - # 19
    frequency:   17.8607872888
  - # 20
    frequency:   18.2970951704
  - # 21
    frequency:   18.3414047008
  - # 22
    frequency:   31.7284143450
  - # 23
    frequency:   34.5643411212
  - # 24
    frequency:   67.5634833785

- q-position: [    0.0808081,    0.0000000,    0.0000000 ]
  distance:    0.0297578
  band:
  - # 1
    frequency:   -2.1095799573
  - # 2
    frequency:   -0.7580475747
  - # 3
    frequency:   -0.6152314006
  - # 4
    frequency:    0.2253554622
  - # 5
    frequency:    1.1099541019
  - # 6
    frequency:    1.1359112047
  - # 7
    frequency:    1.9645479780
  - # 8
    frequency:    4.3573746700
  - # 9
    frequency:    4.5617890414
  - # 10
    frequency:    5.2548145625
  - # 11
    frequency:    5.8113707114
  - # 12
    frequency:    6.2656607699
  - # 13
    frequency:    7.6888420877
  - # 14
    frequency:    7.8751185770
  - # 15
    frequency:    9.6469967037
  - # 16
    frequency:   11.3852305369
  - # 17
    frequency:   13.8633123623
  - # 18
    frequency:   13.9384029912
  - # 19
    frequency:   17.8451317406
  - # 20
    frequency:   18.2714143071
  - # 21
    frequency:   18.3196158543
  - # 22
    frequency:   31.7161430844
  - # 23
    frequency:   34.5574822347
  - # 24
    frequency:   67.5581340530

- q-position: [    0.0858586,    0.0000000,    0.0000000 ]
  distance:    0.0316177
  band:
  - # 1
    frequency:   -2.1325470761
  - # 2
    frequency:   -0.6698437834
  - # 3
    frequency:   -0.2910049277
  - # 4
    frequency:    0.4159318303
  - # 5
    frequency:    1.2019175523
  - # 6
    frequency:    1.2437700209
  - # 7
    frequency:    2.0892410966
  - # 8
    frequency:    4.3608158407
  - # 9
    frequency:    4.5799447868
  - # 10
    frequency:    5.2691894732
  - # 11
    frequency:    5.8100242842
  - # 12
    frequency:    6.3062401647
  - # 13
    frequency:    7.6767438307
  - # 14
    frequency:    7.8832142831
  - # 15
    frequency:    9.6366442375
  - # 16
    frequency:   11.3876616909
  - # 17
    frequency:   13.8655794534
  - # 18
    frequency:   13.9497450020
  - # 19
    frequency:   17.8284179320
  - # 20
    frequency:   18.2448178138
  - # 21
    frequency:   18.2966070690
  - # 22
    frequency:   31.7032478691
  - # 23
    frequency:   34.5502505981
  - # 24
    frequency:   67.5524944946

- q-position: [    0.0909091,    0.0000000,    0.0000000 ]
  distance:    0.0334776
  band:
  - # 1
    frequency:   -2.1554561692
  - # 2
    frequency:   -0.5632744621
  - # 3
    frequency:    0.3202987555
  - # 4
    frequency:    0.6477902204
  - # 5
    frequency:    1.2683928206
  - # 6
    frequency:    1.3723032704
  - # 7
    frequency:    2.2132112794
  - # 8
    frequency:    4.3645558656
  - # 9
    frequency:    4.5972629244
  - # 10
    frequency:    5.2870303519
  - # 11
    frequency:    5.8090473645
  - # 12
    frequency:    6.3474419485
  - # 13
    frequency:    7.6644204891
  - # 14
    frequency:    7.8914605252
  - # 15
    frequency:    9.6261058671
  - # 16
    frequency:   11.3898950628
  - # 17
    frequency:   13.8679793683
  - # 18
    frequency:   13.9616313112
  - # 19
    frequency:   17.8106459502
  - # 20
    frequency:   18.2174319623
  - # 21
    frequency:   18.2724178189
  - # 22
    frequency:   31.6897582878
  - # 23
    frequency:   34.5426585791
  - # 24
    frequency:   67.5465744191

- q-position: [    0.0959596,    0.0000000,    0.0000000 ]
  distance:    0.0353374
  band:
  - # 1
    frequency:   -2.1782696894
  - # 2
    frequency:   -0.4251160303
  - # 3
    frequency:    0.4638714854
  - # 4
    frequency:    0.8721446475
  - # 5
    frequency:    1.3355196809
  - # 6
    frequency:    1.4961910066
  - # 7
    frequency:    2.3362785165
  - # 8
    frequency:    4.3686038140
  - # 9
    frequency:    4.6137512108
  - # 10
    frequency:    5.3082438259
  - # 11
    frequency:    5.8085131811
  - # 12
    frequency:    6.3892051663
  - # 13
    frequency:    7.6519412609
  - # 14
    frequency:    7.8998112977
  - # 15
    frequency:    9.6154558253
  - # 16
    frequency:   11.3918687000
  - # 17
    frequency:   13.8705102983
  - # 18
    frequency:   13.9740396748
  - # 19
    frequency:   17.7918211561
  - # 20
    frequency:   18.1893841524
  - # 21
    frequency:   18.2470910947
  - # 22
    frequency:   31.6757051638
  - # 23
    frequency:   34.5347190860
  - # 24
    frequency:   67.5403839635

- q-position: [    0.1010101,    0.0000000,    0.0000000 ]
  distance:    0.0371973
  band:
  - # 1
    frequency:   -2.2009588445
  - # 2
    frequency:   -0.1983934763
  - # 3
    frequency:    0.5638010165
  - # 4
    frequency:    1.0640667429
  - # 5
    frequency:    1.4034605146
  - # 6
    frequency:    1.6160505574
  - # 7
    frequency:    2.4582784591
  - # 8
    frequency:    4.3729671299
  - # 9
    frequency:    4.6294938608
  - # 10
    frequency:    5.3326554061
  - # 11
    frequency:    5.8084970895
  - # 12
    frequency:    6.4314779196
  - # 13
    frequency:    7.6393743346
  - # 14
    frequency:    7.9082215455
  - # 15
    frequency:    9.6047709606
  - # 16
    frequency:   11.3935175981
  - # 17
    frequency:   13.8731701416
  - # 18
    frequency:   13.9869473315
  - # 19
    frequency:   17.7719560947
  - # 20
    frequency:   18.1608007081
  - # 21
    frequency:   18.2206734991
  - # 22
    frequency:   31.6611204588
  - # 23
    frequency:   34.5264455338
  - # 24
    frequency:   67.5339336583

- q-position: [    0.1060606,    0.0000000,    0.0000000 ]
  distance:    0.0390572
  band:
  - # 1
    frequency:   -2.2235004929
  - # 2
    frequency:    0.3263081734
  - # 3
    frequency:    0.6520899464
  - # 4
    frequency:    1.2330604472
  - # 5
    frequency:    1.4723544290
  - # 6
    frequency:    1.7324048428
  - # 7
    frequency:    2.5790611947
  - # 8
    frequency:    4.3776512993
  - # 9
    frequency:    4.6446406200
  - # 10
    frequency:    5.3600238669
  - # 11
    frequency:    5.8090761165
  - # 12
    frequency:    6.4742152949
  - # 13
    frequency:    7.6267863730
  - # 14
    frequency:    7.9166477126
  - # 15
    frequency:    9.5941302495
  - # 16
    frequency:   11.3947740228
  - # 17
    frequency:   13.8759565009
  - # 18
    frequency:   14.0003310923
  - # 19
    frequency:   17.7510726448
  - # 20
    frequency:   18.1318043955
  - # 21
    frequency:   18.1932153246
  - # 22
    frequency:   31.6460371739
  - # 23
    frequency:   34.5178518088
  - # 24
    frequency:   67.5272344002

- q-position: [    0.1111111,    0.0000000,    0.0000000 ]
  distance:    0.0409170
  band:
  - # 1
    frequency:   -2.2458743316
  - # 2
    frequency:    0.5064116666
  - # 3
    frequency:    0.7356366548
  - # 4
    frequency:    1.3861907749
  - # 5
    frequency:    1.5423151644
  - # 6
    frequency:    1.8456760080
  - # 7
    frequency:    2.6984883930
  - # 8
    frequency:    4.3826595361
  - # 9
    frequency:    4.6593916140
  - # 10
    frequency:    5.3900597896
  - # 11
    frequency:    5.8103284456
  - # 12
    frequency:    6.5173774764
  - # 13
    frequency:    7.6142420395
  - # 14
    frequency:    7.9250483476
  - # 15
    frequency:    9.5836142307
  - # 16
    frequency:   11.3955678878
  - # 17
    frequency:   13.8788666863
  - # 18
    frequency:   14.0141674281
  - # 19
    frequency:   17.7292042998
  - # 20
    frequency:   18.1025117703
  - # 21
    frequency:   18.1647706118
  - # 22
    frequency:   31.6304892452
  - # 23
    frequency:   34.5089522324
  - # 24
    frequency:   67.5202974225

- q-position: [    0.1161616,    0.0000000,    0.0000000 ]
  distance:    0.0427769
  band:
  - # 1
    frequency:   -2.2680604206
  - # 2
    frequency:    0.6404982865
  - # 3
    frequency:    0.8169009122
  - # 4
    frequency:    1.5276939456
  - # 5
    frequency:    1.6134299673
  - # 6
    frequency:    1.9561981433
  - # 7
    frequency:    2.8164293159
  - # 8
    frequency:    4.3879925023
  - # 9
    frequency:    4.6739810655
  - # 10
    frequency:    5.4224452241
  - # 11
    frequency:    5.8123328387
  - # 12
    frequency:    6.5609280086
  - # 13
    frequency:    7.6018035700
  - # 14
    frequency:    7.9333847773
  - # 15
    frequency:    9.5733043566
  - # 16
    frequency:   11.3958271868
  - # 17
    frequency:   13.8818977225
  - # 18
    frequency:   14.0284325542
  - # 19
    frequency:   17.7063984142
  - # 20
    frequency:   18.0730305146
  - # 21
    frequency:   18.1353971843
  - # 22
    frequency:   31.6145114367
  - # 23
    frequency:   34.4997615239
  - # 24
    frequency:   67.5131342662

- q-position: [    0.1212121,    0.0000000,    0.0000000 ]
  distance:    0.0446367
  band:
  - # 1
    frequency:   -2.2900370866
  - # 2
    frequency:    0.7533340561
  - # 3
    frequency:    0.8969876652
  - # 4
    frequency:    1.6602225848
  - # 5
    frequency:    1.6857594561
  - # 6
    frequency:    2.0642332764
  - # 7
    frequency:    2.9327561211
  - # 8
    frequency:    4.3936480735
  - # 9
    frequency:    4.6886625000
  - # 10
    frequency:    5.4568518584
  - # 11
    frequency:    5.8151679915
  - # 12
    frequency:    6.6048321907
  - # 13
    frequency:    7.5895303963
  - # 14
    frequency:    7.9416218573
  - # 15
    frequency:    9.5632822641
  - # 16
    frequency:   11.3954784783
  - # 17
    frequency:   13.8850463620
  - # 18
    frequency:   14.0431025112
  - # 19
    frequency:   17.6827182063
  - # 20
    frequency:   18.0434569733
  - # 21
    frequency:   18.1051566608
  - # 22
    frequency:   31.5981392302
  - # 23
    frequency:   34.4902947624
  - # 24
    frequency:   67.5057567501

- q-position: [    0.1262626,    0.0000000,    0.0000000 ]
  distance:    0.0464966
  band:
  - # 1
    frequency:   -2.3117792344
  - # 2
    frequency:    0.8532087575
  - # 3
    frequency:    0.9764488185
  - # 4
    frequency:    1.7593384236
  - # 5
    frequency:    1.7855321025
  - # 6
    frequency:    2.1699859670
  - # 7
    frequency:    3.0473388089
  - # 8
    frequency:    4.3996211632
  - # 9
    frequency:    4.7036970522
  - # 10
    frequency:    5.4929560646
  - # 11
    frequency:    5.8189118218
  - # 12
    frequency:    6.6490556023
  - # 13
    frequency:    7.5774788234
  - # 14
    frequency:    7.9497288075
  - # 15
    frequency:    9.5536289646
  - # 16
    frequency:   11.3944474186
  - # 17
    frequency:   13.8883091008
  - # 18
    frequency:   14.0581532426
  - # 19
    frequency:   17.6582442816
  - # 20
    frequency:   18.0138741201
  - # 21
    frequency:   18.0741144420
  - # 22
    frequency:   31.5814087118
  - # 23
    frequency:   34.4805673482
  - # 24
    frequency:   67.4981769399

- q-position: [    0.1313131,    0.0000000,    0.0000000 ]
  distance:    0.0483565
  band:
  - # 1
    frequency:   -2.3332570864
  - # 2
    frequency:    0.9440859877
  - # 3
    frequency:    1.0555677530
  - # 4
    frequency:    1.8341774468
  - # 5
    frequency:    1.9048398261
  - # 6
    frequency:    2.2736154737
  - # 7
    frequency:    3.1600400974
  - # 8
    frequency:    4.4059036209
  - # 9
    frequency:    4.7193454276
  - # 10
    frequency:    5.5304502151
  - # 11
    frequency:    5.8236406903
  - # 12
    frequency:    6.6935627690
  - # 13
    frequency:    7.5657017641
  - # 14
    frequency:    7.9576801362
  - # 15
    frequency:    9.5444239624
  - # 16
    frequency:   11.3926593399
  - # 17
    frequency:   13.8916822000
  - # 18
    frequency:   14.0735606683
  - # 19
    frequency:   17.6330754614
  - # 20
    frequency:   17.9843501698
  - # 21
    frequency:   18.0423396706
  - # 22
    frequency:   31.5643564565
  - # 23
    frequency:   34.4705949635
  - # 24
    frequency:   67.4904071178

- q-position: [    0.1363636,    0.0000000,    0.0000000 ]
  distance:    0.0502163
  band:
  - # 1
    frequency:   -2.3544353494
  - # 2
    frequency:    1.0282139320
  - # 3
    frequency:    1.1344821002
  - # 4
    frequency:    1.9102651078
  - # 5
    frequency:    2.0190229129
  - # 6
    frequency:    2.3752455857
  - # 7