nqpoint: 300    
npath: 3      
segment_nqpoint:
- 100
- 100
- 100
labels:
- [ 'G', 'M' ]
- [ 'M', 'K' ]
- [ 'K', 'G' ]
reciprocal_lattice:
- [   0.29967632,   0.17301821,   0.00000000 ] # a*
- [   0.00000000,   0.34603641,   0.00000000 ] # b*
- [   0.00000000,   0.00000000,   0.03706739 ] # c*
natom: 8      
lattice:
- [     3.336933631938618,     0.000000000000000,     0.000000000000000 ] # a
- [    -1.668466815969309,     2.889869296000815,     0.000000000000000 ] # b
- [     0.000000000000000,     0.000000000000000,    26.977887746064340 ] # c
points:
- symbol: C # 1
  coordinates: [  0.000000000000000,  0.000000000000000,  0.521134662455489 ]
  mass: 12.010700
- symbol: C # 2
  coordinates: [  0.333332985432215,  0.666666983183674,  0.621658926370753 ]
  mass: 12.010700
- symbol: C # 3
  coordinates: [  0.666666984744047,  0.333332985985145,  0.377627683887096 ]
  mass: 12.010700
- symbol: Hf # 4
  coordinates: [  0.333332985432215,  0.666666983183674,  0.478098095245005 ]
  mass: 178.490000
- symbol: Hf # 5
  coordinates: [  0.666666984744047,  0.333332985985145,  0.567510591151783 ]
  mass: 178.490000
- symbol: N # 6
  coordinates: [  0.333332985432215,  0.666666983183674,  0.666393452122175 ]
  mass: 14.006700
- symbol: N # 7
  coordinates: [  0.666666984744047,  0.333332985985145,  0.333606547877825 ]
  mass: 14.006700
- symbol: O # 8
  coordinates: [  0.666666984744047,  0.333332985985145,  0.427297036139299 ]
  mass: 15.999400

phonon:
- q-position: [    0.0000000,    0.0000000,    0.0000000 ]
  distance:    0.0000000
  band:
  - # 1
    frequency:   -0.0000042280
  - # 2
    frequency:    0.0000003666
  - # 3
    frequency:    0.0000033311
  - # 4
    frequency:    1.5163804294
  - # 5
    frequency:    1.5163804294
  - # 6
    frequency:    1.8285172921
  - # 7
    frequency:    1.8285172921
  - # 8
    frequency:    3.8449616375
  - # 9
    frequency:    3.8449616375
  - # 10
    frequency:    4.9808720395
  - # 11
    frequency:    5.9815160105
  - # 12
    frequency:    5.9815160105
  - # 13
    frequency:    7.6151528099
  - # 14
    frequency:    7.6151528099
  - # 15
    frequency:    7.9712047923
  - # 16
    frequency:    8.5363308588
  - # 17
    frequency:   13.8350676800
  - # 18
    frequency:   13.8350676800
  - # 19
    frequency:   17.1301512339
  - # 20
    frequency:   18.7314860650
  - # 21
    frequency:   18.7314860650
  - # 22
    frequency:   31.6336432279
  - # 23
    frequency:   60.1937377448
  - # 24
    frequency:   67.9428217595

- q-position: [    0.0050505,    0.0000000,    0.0000000 ]
  distance:    0.0017477
  band:
  - # 1
    frequency:    0.0013008386
  - # 2
    frequency:    0.0284924954
  - # 3
    frequency:    0.0818742628
  - # 4
    frequency:    1.5158903507
  - # 5
    frequency:    1.5175856907
  - # 6
    frequency:    1.8282419993
  - # 7
    frequency:    1.8288930746
  - # 8
    frequency:    3.8448059126
  - # 9
    frequency:    3.8451350838
  - # 10
    frequency:    4.9808434326
  - # 11
    frequency:    5.9816463596
  - # 12
    frequency:    5.9817122974
  - # 13
    frequency:    7.6153367100
  - # 14
    frequency:    7.6156874974
  - # 15
    frequency:    7.9709378007
  - # 16
    frequency:    8.5364826175
  - # 17
    frequency:   13.8351054809
  - # 18
    frequency:   13.8352561495
  - # 19
    frequency:   17.1299961527
  - # 20
    frequency:   18.7309522356
  - # 21
    frequency:   18.7311690946
  - # 22
    frequency:   31.6331844646
  - # 23
    frequency:   60.1936719666
  - # 24
    frequency:   67.9425653253

- q-position: [    0.0101010,    0.0000000,    0.0000000 ]
  distance:    0.0034953
  band:
  - # 1
    frequency:    0.0051956149
  - # 2
    frequency:    0.0570129763
  - # 3
    frequency:    0.1636679751
  - # 4
    frequency:    1.5144217997
  - # 5
    frequency:    1.5211895890
  - # 6
    frequency:    1.8274156434
  - # 7
    frequency:    1.8300218181
  - # 8
    frequency:    3.8443404685
  - # 9
    frequency:    3.8456573524
  - # 10
    frequency:    4.9807573724
  - # 11
    frequency:    5.9820374154
  - # 12
    frequency:    5.9823013418
  - # 13
    frequency:    7.6158869925
  - # 14
    frequency:    7.6172912732
  - # 15
    frequency:    7.9701370294
  - # 16
    frequency:    8.5369364259
  - # 17
    frequency:   13.8352189950
  - # 18
    frequency:   13.8358212929
  - # 19
    frequency:   17.1295307594
  - # 20
    frequency:   18.7293529523
  - # 21
    frequency:   18.7302184621
  - # 22
    frequency:   31.6318091576
  - # 23
    frequency:   60.1934747526
  - # 24
    frequency:   67.9417965445

- q-position: [    0.0151515,    0.0000000,    0.0000000 ]
  distance:    0.0052430
  band:
  - # 1
    frequency:    0.0116613667
  - # 2
    frequency:    0.0855890800
  - # 3
    frequency:    0.2452986462
  - # 4
    frequency:    1.5119798259
  - # 5
    frequency:    1.5271568072
  - # 6
    frequency:    1.8260368685
  - # 7
    frequency:    1.8319080943
  - # 8
    frequency:    3.8435704717
  - # 9
    frequency:    3.8465341647
  - # 10
    frequency:    4.9806131702
  - # 11
    frequency:    5.9826892005
  - # 12
    frequency:    5.9832836673
  - # 13
    frequency:    7.6167994116
  - # 14
    frequency:    7.6199632310
  - # 15
    frequency:    7.9688031078
  - # 16
    frequency:    8.5376879001
  - # 17
    frequency:   13.8354085525
  - # 18
    frequency:   13.8367623133
  - # 19
    frequency:   17.1287546093
  - # 20
    frequency:   18.7266948230
  - # 21
    frequency:   18.7286350157
  - # 22
    frequency:   31.6295202529
  - # 23
    frequency:   60.1931464645
  - # 24
    frequency:   67.9405169798

- q-position: [    0.0202020,    0.0000000,    0.0000000 ]
  distance:    0.0069906
  band:
  - # 1
    frequency:    0.0206610994
  - # 2
    frequency:    0.1142477278
  - # 3
    frequency:    0.3266798063
  - # 4
    frequency:    1.5085728273
  - # 5
    frequency:    1.5354295607
  - # 6
    frequency:    1.8241036697
  - # 7
    frequency:    1.8345608210
  - # 8
    frequency:    3.8425044505
  - # 9
    frequency:    3.8477748335
  - # 10
    frequency:    4.9804097738
  - # 11
    frequency:    5.9836017434
  - # 12
    frequency:    5.9846600524
  - # 13
    frequency:    7.6180669185
  - # 14
    frequency:    7.6237017036
  - # 15
    frequency:    7.9669371527
  - # 16
    frequency:    8.5387297962
  - # 17
    frequency:   13.8356746934
  - # 18
    frequency:   13.8380778791
  - # 19
    frequency:   17.1276669767
  - # 20
    frequency:   18.7229888367
  - # 21
    frequency:   18.7264202090
  - # 22
    frequency:   31.6263226529
  - # 23
    frequency:   60.1926877040
  - # 24
    frequency:   67.9387292309

- q-position: [    0.0252525,    0.0000000,    0.0000000 ]
  distance:    0.0087383
  band:
  - # 1
    frequency:    0.0321454952
  - # 2
    frequency:    0.1430147191
  - # 3
    frequency:    0.4077187613
  - # 4
    frequency:    1.5042125257
  - # 5
    frequency:    1.5459290221
  - # 6
    frequency:    1.8216137742
  - # 7
    frequency:    1.8379952882
  - # 8
    frequency:    3.8411541738
  - # 9
    frequency:    3.8493919369
  - # 10
    frequency:    4.9801459063
  - # 11
    frequency:    5.9847750638
  - # 12
    frequency:    5.9864313945
  - # 13
    frequency:    7.6196797011
  - # 14
    frequency:    7.6285040259
  - # 15
    frequency:    7.9645408749
  - # 16
    frequency:    8.5400521042
  - # 17
    frequency:   13.8360181518
  - # 18
    frequency:   13.8397661185
  - # 19
    frequency:   17.1262668780
  - # 20
    frequency:   18.7182503269
  - # 21
    frequency:   18.7235761597
  - # 22
    frequency:   31.6222232037
  - # 23
    frequency:   60.1920993110
  - # 24
    frequency:   67.9364369255

- q-position: [    0.0303030,    0.0000000,    0.0000000 ]
  distance:    0.0104860
  band:
  - # 1
    frequency:    0.0460550402
  - # 2
    frequency:    0.1719142660
  - # 3
    frequency:    0.4883140123
  - # 4
    frequency:    1.4989139386
  - # 5
    frequency:    1.5585569715
  - # 6
    frequency:    1.8185651714
  - # 7
    frequency:    1.8422361479
  - # 8
    frequency:    3.8395344861
  - # 9
    frequency:    3.8514008796
  - # 10
    frequency:    4.9798202470
  - # 11
    frequency:    5.9862091517
  - # 12
    frequency:    5.9885985252
  - # 13
    frequency:    7.6216252417
  - # 14
    frequency:    7.6343661971
  - # 15
    frequency:    7.9616167403
  - # 16
    frequency:    8.5416421778
  - # 17
    frequency:   13.8364398347
  - # 18
    frequency:   13.8418246123
  - # 19
    frequency:   17.1245531030
  - # 20
    frequency:   18.7124989212
  - # 21
    frequency:   18.7201057290
  - # 22
    frequency:   31.6172306789
  - # 23
    frequency:   60.1913823618
  - # 24
    frequency:   67.9336447086

- q-position: [    0.0353535,    0.0000000,    0.0000000 ]
  distance:    0.0122336
  band:
  - # 1
    frequency:    0.0623223350
  - # 2
    frequency:    0.2009684497
  - # 3
    frequency:    0.5683521835
  - # 4
    frequency:    1.4926953516
  - # 5
    frequency:    1.5731974090
  - # 6
    frequency:    1.8149567909
  - # 7
    frequency:    1.8473215148
  - # 8
    frequency:    3.8376631023
  - # 9
    frequency:    3.8538193571
  - # 10
    frequency:    4.9794316455
  - # 11
    frequency:    5.9879039375
  - # 12
    frequency:    5.9911619855
  - # 13
    frequency:    7.6238883898
  - # 14
    frequency:    7.6412824319
  - # 15
    frequency:    7.9581682019
  - # 16
    frequency:    8.5434848996
  - # 17
    frequency:   13.8369407951
  - # 18
    frequency:   13.8442503846
  - # 19
    frequency:   17.1225242547
  - # 20
    frequency:   18.7057584757
  - # 21
    frequency:   18.7160126203
  - # 22
    frequency:   31.6113557572
  - # 23
    frequency:   60.1905381654
  - # 24
    frequency:   67.9303582277

- q-position: [    0.0404040,    0.0000000,    0.0000000 ]
  distance:    0.0139813
  band:
  - # 1
    frequency:    0.0808743717
  - # 2
    frequency:    0.2301965729
  - # 3
    frequency:    0.6477042552
  - # 4
    frequency:    1.4855782970
  - # 5
    frequency:    1.5897179021
  - # 6
    frequency:    1.8107893271
  - # 7
    frequency:    1.8533083433
  - # 8
    frequency:    3.8355603693
  - # 9
    frequency:    3.8566667415
  - # 10
    frequency:    4.9789793555
  - # 11
    frequency:    5.9898592550
  - # 12
    frequency:    5.9941217688
  - # 13
    frequency:    7.6264514521
  - # 14
    frequency:    7.6492445813
  - # 15
    frequency:    7.9542000290
  - # 16
    frequency:    8.5455628790
  - # 17
    frequency:   13.8375222001
  - # 18
    frequency:   13.8470398931
  - # 19
    frequency:   17.1201787970
  - # 20
    frequency:   18.6980569959
  - # 21
    frequency:   18.7113014936
  - # 22
    frequency:   31.6046109964
  - # 23
    frequency:   60.1895682606
  - # 24
    frequency:   67.9265841152

- q-position: [    0.0454545,    0.0000000,    0.0000000 ]
  distance:    0.0157289
  band:
  - # 1
    frequency:    0.1016345990
  - # 2
    frequency:    0.2596143872
  - # 3
    frequency:    0.7262208399
  - # 4
    frequency:    1.4775875468
  - # 5
    frequency:    1.6079705730
  - # 6
    frequency:    1.8060662120
  - # 7
    frequency:    1.8602792102
  - # 8
    frequency:    3.8332489990
  - # 9
    frequency:    3.8599634118
  - # 10
    frequency:    4.9784632748
  - # 11
    frequency:    5.9920747935
  - # 12
    frequency:    5.9974770415
  - # 13
    frequency:    7.6292942996
  - # 14
    frequency:    7.6582413859
  - # 15
    frequency:    7.9497187787
  - # 16
    frequency:    8.5478566830
  - # 17
    frequency:   13.8381852946
  - # 18
    frequency:   13.8501890169
  - # 19
    frequency:   17.1175151079
  - # 20
    frequency:   18.6894265417
  - # 21
    frequency:   18.7059780922
  - # 22
    frequency:   31.5970108021
  - # 23
    frequency:   60.1884744112
  - # 24
    frequency:   67.9223299677

- q-position: [    0.0505051,    0.0000000,    0.0000000 ]
  distance:    0.0174766
  band:
  - # 1
    frequency:    0.1245246457
  - # 2
    frequency:    0.2892331649
  - # 3
    frequency:    0.8037261689
  - # 4
    frequency:    1.4687511259
  - # 5
    frequency:    1.6277929021
  - # 6
    frequency:    1.8007947399
  - # 7
    frequency:    1.8683504820
  - # 8
    frequency:    3.8307537792
  - # 9
    frequency:    3.8637300507
  - # 10
    frequency:    4.9778841782
  - # 11
    frequency:    5.9945500402
  - # 12
    frequency:    6.0012258517
  - # 13
    frequency:    7.6323944901
  - # 14
    frequency:    7.6682574906
  - # 15
    frequency:    7.9447334883
  - # 16
    frequency:    8.5503450952
  - # 17
    frequency:   13.8389313615
  - # 18
    frequency:   13.8536930445
  - # 19
    frequency:   17.1145315405
  - # 20
    frequency:   18.6799031200
  - # 21
    frequency:   18.7000493789
  - # 22
    frequency:   31.5885713909
  - # 23
    frequency:   60.1872586018
  - # 24
    frequency:   67.9176043226

- q-position: [    0.0555556,    0.0000000,    0.0000000 ]
  distance:    0.0192242
  band:
  - # 1
    frequency:    0.1494656314
  - # 2
    frequency:    0.3190585867
  - # 3
    frequency:    0.8800103766
  - # 4
    frequency:    1.4591003546
  - # 5
    frequency:    1.6490090528
  - # 6
    frequency:    1.7949873524
  - # 7
    frequency:    1.8776814557
  - # 8
    frequency:    3.8281012690
  - # 9
    frequency:    3.8679869315
  - # 10
    frequency:    4.9772439297
  - # 11
    frequency:    5.9972842115
  - # 12
    frequency:    6.0053648370
  - # 13
    frequency:    7.6357274098
  - # 14
    frequency:    7.6792720933
  - # 15
    frequency:    7.9392567263
  - # 16
    frequency:    8.5530054038
  - # 17
    frequency:   13.8397616783
  - # 18
    frequency:   13.8575466616
  - # 19
    frequency:   17.1112264873
  - # 20
    frequency:   18.6695265614
  - # 21
    frequency:   18.6935236760
  - # 22
    frequency:   31.5793107501
  - # 23
    frequency:   60.1859230316
  - # 24
    frequency:   67.9124166318

- q-position: [    0.0606061,    0.0000000,    0.0000000 ]
  distance:    0.0209719
  band:
  - # 1
    frequency:    0.1763790456
  - # 2
    frequency:    0.3490894046
  - # 3
    frequency:    0.9548196267
  - # 4
    frequency:    1.4486699324
  - # 5
    frequency:    1.6714333275
  - # 6
    frequency:    1.7886630956
  - # 7
    frequency:    1.8884832496
  - # 8
    frequency:    3.8253194856
  - # 9
    frequency:    3.8727532177
  - # 10
    frequency:    4.9765456639
  - # 11
    frequency:    6.0002761742
  - # 12
    frequency:    6.0098889431
  - # 13
    frequency:    7.6392664296
  - # 14
    frequency:    7.6912569813
  - # 15
    frequency:    7.9333062553
  - # 16
    frequency:    8.5558137130
  - # 17
    frequency:   13.8406774723
  - # 18
    frequency:   13.8617439381
  - # 19
    frequency:   17.1075984499
  - # 20
    frequency:   18.6583403837
  - # 21
    frequency:   18.6864108058
  - # 22
    frequency:   31.5692485917
  - # 23
    frequency:   60.1844701091
  - # 24
    frequency:   67.9067772321

- q-position: [    0.0656566,    0.0000000,    0.0000000 ]
  distance:    0.0227196
  band:
  - # 1
    frequency:    0.2051872187
  - # 2
    frequency:    0.3793158401
  - # 3
    frequency:    1.0278436834
  - # 4
    frequency:    1.4374980742
  - # 5
    frequency:    1.6948787653
  - # 6
    frequency:    1.7818492673
  - # 7
    frequency:    1.9010248088
  - # 8
    frequency:    3.8224375874
  - # 9
    frequency:    3.8780462982
  - # 10
    frequency:    4.9757939266
  - # 11
    frequency:    6.0035243556
  - # 12
    frequency:    6.0147911640
  - # 13
    frequency:    7.6429830803
  - # 14
    frequency:    7.7041734836
  - # 15
    frequency:    7.9269077868
  - # 16
    frequency:    8.5587452791
  - # 17
    frequency:   13.8416798737
  - # 18
    frequency:   13.8662783167
  - # 19
    frequency:   17.1036461108
  - # 20
    frequency:   18.6463916408
  - # 21
    frequency:   18.6787222269
  - # 22
    frequency:   31.5584063015
  - # 23
    frequency:   60.1829024450
  - # 24
    frequency:   67.9006973137

- q-position: [    0.0707071,    0.0000000,    0.0000000 ]
  distance:    0.0244672
  band:
  - # 1
    frequency:    0.2358134372
  - # 2
    frequency:    0.4097176624
  - # 3
    frequency:    1.0987008823
  - # 4
    frequency:    1.4256267197
  - # 5
    frequency:    1.7191754893
  - # 6
    frequency:    1.7745832768
  - # 7
    frequency:    1.9156314647
  - # 8
    frequency:    3.8194855592
  - # 9
    frequency:    3.8838811766
  - # 10
    frequency:    4.9749947689
  - # 11
    frequency:    6.0070266459
  - # 12
    frequency:    6.0200623125
  - # 13
    frequency:    7.6468472439
  - # 14
    frequency:    7.7179673814
  - # 15
    frequency:    7.9200997931
  - # 16
    frequency:    8.5617748656
  - # 17
    frequency:   13.8427698688
  - # 18
    frequency:   13.8711426016
  - # 19
    frequency:   17.0993684075
  - # 20
    frequency:   18.6337307578
  - # 21
    frequency:   18.6704711616
  - # 22
    frequency:   31.5468068842
  - # 23
    frequency:   60.1812228452
  - # 24
    frequency:   67.8941888858

- q-position: [    0.0757576,    0.0000000,    0.0000000 ]
  distance:    0.0262149
  band:
  - # 1
    frequency:    0.2681817724
  - # 2
    frequency:    0.4402618848
  - # 3
    frequency:    1.1669214699
  - # 4
    frequency:    1.4131018400
  - # 5
    frequency:    1.7442038781
  - # 6
    frequency:    1.7669147453
  - # 7
    frequency:    1.9326700343
  - # 8
    frequency:    3.8164939037
  - # 9
    frequency:    3.8902699332
  - # 10
    frequency:    4.9741557900
  - # 11
    frequency:    6.0107802917
  - # 12
    frequency:    6.0256908324
  - # 13
    frequency:    7.6508273613
  - # 14
    frequency:    7.7325597444
  - # 15
    frequency:    7.9129424126
  - # 16
    frequency:    8.5648771184
  - # 17
    frequency:   13.8439482539
  - # 18
    frequency:   13.8763289496
  - # 19
    frequency:   17.0947646069
  - # 20
    frequency:   18.6204113522
  - # 21
    frequency:   18.6616727097
  - # 22
    frequency:   31.5344749031
  - # 23
    frequency:   60.1794343032
  - # 24
    frequency:   67.8872647401

- q-position: [    0.0808081,    0.0000000,    0.0000000 ]
  distance:    0.0279625
  band:
  - # 1
    frequency:    0.3022166938
  - # 2
    frequency:    0.4709000046
  - # 3
    frequency:    1.2319325848
  - # 4
    frequency:    1.3999738787
  - # 5
    frequency:    1.7589078744
  - # 6
    frequency:    1.7699438666
  - # 7
    frequency:    1.9525159144
  - # 8
    frequency:    3.8134933437
  - # 9
    frequency:    3.8972212742
  - # 10
    frequency:    4.9732861306
  - # 11
    frequency:    6.0147817850
  - # 12
    frequency:    6.0316626571
  - # 13
    frequency:    7.6548906580
  - # 14
    frequency:    7.7478290871
  - # 15
    frequency:    7.9055350608
  - # 16
    frequency:    8.5680269583
  - # 17
    frequency:   13.8452155903
  - # 18
    frequency:   13.8818288629
  - # 19
    frequency:   17.0898343798
  - # 20
    frequency:   18.6064900414
  - # 21
    frequency:   18.6523439445
  - # 22
    frequency:   31.5214364154
  - # 23
    frequency:   60.1775399920
  - # 24
    frequency:   67.8799384119

- q-position: [    0.0858586,    0.0000000,    0.0000000 ]
  distance:    0.0297102
  band:
  - # 1
    frequency:    0.3378425369
  - # 2
    frequency:    0.5015647002
  - # 3
    frequency:    1.2930525119
  - # 4
    frequency:    1.3862983759
  - # 5
    frequency:    1.7506441153
  - # 6
    frequency:    1.7965300969
  - # 7
    frequency:    1.9755048573
  - # 8
    frequency:    3.8105145370
  - # 9
    frequency:    3.9047401800
  - # 10
    frequency:    4.9723964162
  - # 11
    frequency:    6.0190267499
  - # 12
    frequency:    6.0379611230
  - # 13
    frequency:    7.6590033840
  - # 14
    frequency:    7.7635737003
  - # 15
    frequency:    7.8980538921
  - # 16
    frequency:    8.5711999894
  - # 17
    frequency:   13.8465721626
  - # 18
    frequency:   13.8876331843
  - # 19
    frequency:   17.0845778720
  - # 20
    frequency:   18.5920262365
  - # 21
    frequency:   18.6425039876
  - # 22
    frequency:   31.5077189028
  - # 23
    frequency:   60.1755432550
  - # 24
    frequency:   67.8722241391

- q-position: [    0.0909091,    0.0000000,    0.0000000 ]
  distance:    0.0314579
  band:
  - # 1
    frequency:    0.3749828814
  - # 2
    frequency:    0.5321658909
  - # 3
    frequency:    1.3495082263
  - # 4
    frequency:    1.3721368452
  - # 5
    frequency:    1.7422251550
  - # 6
    frequency:    1.8242846887
  - # 7
    frequency:    2.0018836812
  - # 8
    frequency:    3.8075878053
  - # 9
    frequency:    3.9128276607
  - # 10
    frequency:    4.9714986571
  - # 11
    frequency:    6.0235098284
  - # 12
    frequency:    6.0445669397
  - # 13
    frequency:    7.6631310708
  - # 14
    frequency:    7.7794256015
  - # 15
    frequency:    7.8908376686
  - # 16
    frequency:    8.5743729248
  - # 17
    frequency:   13.8480179399
  - # 18
    frequency:   13.8937320956
  - # 19
    frequency:   17.0789957736
  - # 20
    frequency:   18.5770819231
  - # 21
    frequency:   18.6321740582
  - # 22
    frequency:   31.4933511981
  - # 23
    frequency:   60.1734475976
  - # 24
    frequency:   67.8641368195

- q-position: [    0.0959596,    0.0000000,    0.0000000 ]
  distance:    0.0332055
  band:
  - # 1
    frequency:    0.4135598844
  - # 2
    frequency:    0.5625860612
  - # 3
    frequency:    1.3575579930
  - # 4
    frequency:    1.4004952402
  - # 5
    frequency:    1.7337762226
  - # 6
    frequency:    1.8536881718
  - # 7
    frequency:    2.0317803974
  - # 8
    frequency:    3.8047428791
  - # 9
    frequency:    3.9214806236
  - # 10
    frequency:    4.9706061111
  - # 11
    frequency:    6.0282245717
  - # 12
    frequency:    6.0514582211
  - # 13
    frequency:    7.6672388022
  - # 14
    frequency:    7.7946436535
  - # 15
    frequency:    7.8845944870
  - # 16
    frequency:    8.5775240287
  - # 17
    frequency:   13.8495525426
  - # 18
    frequency:   13.9001151197
  - # 19
    frequency:   17.0730893815
  - # 20
    frequency:   18.5617214286
  - # 21
    frequency:   18.6213774936
  - # 22
    frequency:   31.4783634063
  - # 23
    frequency:   60.1712566770
  - # 24
    frequency:   67.8556919663

- q-position: [    0.1010101,    0.0000000,    0.0000000 ]
  distance:    0.0349532
  band:
  - # 1
    frequency:    0.4534935939
  - # 2
    frequency:    0.5926747746
  - # 3
    frequency:    1.3426393953
  - # 4
    frequency:    1.4452925252
  - # 5
    frequency:    1.7254496733
  - # 6
    frequency:    1.8852647524
  - # 7
    frequency:    2.0652048440
  - # 8
    frequency:    3.8020086581
  - # 9
    frequency:    3.9306918550
  - # 10
    frequency:    4.9697331164
  - # 11
    frequency:    6.0331633372
  - # 12
    frequency:    6.0586105771
  - # 13
    frequency:    7.6712914983
  - # 14
    frequency:    7.8076595511
  - # 15
    frequency:    7.8808556568
  - # 16
    frequency:    8.5806335786
  - # 17
    frequency:   13.8511752134
  - # 18
    frequency:   13.9067711269
  - # 19
    frequency:   17.0668606564
  - # 20
    frequency:   18.5460111777
  - # 21
    frequency:   18.6101397403
  - # 22
    frequency:   31.4627868227
  - # 23
    frequency:   60.1689742926
  - # 24
    frequency:   67.8469056619

- q-position: [    0.1060606,    0.0000000,    0.0000000 ]
  distance:    0.0367008
  band:
  - # 1
    frequency:    0.4947012500
  - # 2
    frequency:    0.6222423494
  - # 3
    frequency:    1.3274697636
  - # 4
    frequency:    1.4834159503
  - # 5
    frequency:    1.7174287370
  - # 6
    frequency:    1.9194072493
  - # 7
    frequency:    2.1020710928
  - # 8
    frequency:    3.7994129862
  - # 9
    frequency:    3.9404501116
  - # 10
    frequency:    4.9688949043
  - # 11
    frequency:    6.0383171976
  - # 12
    frequency:    6.0659972654
  - # 13
    frequency:    7.6752542126
  - # 14
    frequency:    7.8156846678
  - # 15
    frequency:    7.8823687327
  - # 16
    frequency:    8.5836843477
  - # 17
    frequency:   13.8528847953
  - # 18
    frequency:   13.9136883450
  - # 19
    frequency:   17.0603122700
  - # 20
    frequency:   18.5300194352
  - # 21
    frequency:   18.5984883113
  - # 22
    frequency:   31.4466538459
  - # 23
    frequency:   60.1666043759
  - # 24
    frequency:   67.8377945106

- q-position: [    0.1111111,    0.0000000,    0.0000000 ]
  distance:    0.0384485
  band:
  - # 1
    frequency:    0.5370965629
  - # 2
    frequency:    0.6510527982
  - # 3
    frequency:    1.3121519271
  - # 4
    frequency:    1.5147495145
  - # 5
    frequency:    1.7099312009
  - # 6
    frequency:    1.9562229127
  - # 7
    frequency:    2.1422211777
  - # 8
    frequency:    3.7969824410
  - # 9
    frequency:    3.9507403184
  - # 10
    frequency:    4.9681073998
  - # 11
    frequency:    6.0436758636
  - # 12
    frequency:    6.0735894016
  - # 13
    frequency:    7.6790924384
  - # 14
    frequency:    7.8165306417
  - # 15
    frequency:    7.8912768136
  - # 16
    frequency:    8.5866621151
  - # 17
    frequency:   13.8546797167
  - # 18
    frequency:   13.9208543751
  - # 19
    frequency:   17.0534476424
  - # 20
    frequency:   18.5138160372
  - # 21
    frequency:   18.5864527121
  - # 22
    frequency:   31.4299978876
  - # 23
    frequency:   60.1641509796
  - # 24
    frequency:   67.8283755899

- q-position: [    0.1161616,    0.0000000,    0.0000000 ]
  distance:    0.0401961
  band:
  - # 1
    frequency:    0.5805889322
  - # 2
    frequency:    0.6788163690
  - # 3
    frequency:    1.2968065994
  - # 4
    frequency:    1.5395797663
  - # 5
    frequency:    1.7032126127
  - # 6
    frequency:    1.9954893859
  - # 7
    frequency:    2.1854355537
  - # 8
    frequency:    3.7947421355
  - # 9
    frequency:    3.9615438609
  - # 10
    frequency:    4.9673870192
  - # 11
    frequency:    6.0492276244
  - # 12
    frequency:    6.0813562246
  - # 13
    frequency:    7.6827724239
  - # 14
    frequency:    7.8114367035
  - # 15
    frequency:    7.9062910923
  - # 16
    frequency:    8.5895562071
  - # 17
    frequency:   13.8565579837
  - # 18
    frequency:   13.9282562128
  - # 19
    frequency:   17.0462709656
  - # 20
    frequency:   18.4974721120
  - # 21
    frequency:   18.5740643321
  - # 22
    frequency:   31.4128532778
  - # 23
    frequency:   60.1616182669
  - # 24
    frequency:   67.8186664009

- q-position: [    0.1212121,    0.0000000,    0.0000000 ]
  distance:    0.0419438
  band:
  - # 1
    frequency:    0.6250825493
  - # 2
    frequency:    0.7051824562
  - # 3
    frequency:    1.2815768217
  - # 4
    frequency:    1.5585110180
  - # 5
    frequency:    1.6975683362
  - # 6
    frequency:    2.0367428924
  - # 7
    frequency:    2.2314306680
  - # 8
    frequency:    3.7927155317
  - # 9
    frequency:    3.9728389612
  - # 10
    frequency:    4.9667504706
  - # 11
    frequency:    6.0549593095
  - # 12
    frequency:    6.0892654128
  - # 13
    frequency:    7.6862614930
  - # 14
    frequency:    7.8028809936
  - # 15
    frequency:    7.9248793964
  - # 16
    frequency:    8.5923600777
  - # 17
    frequency:   13.8585171799
  - # 18
    frequency:   13.9358802740
  - # 19
    frequency:   17.0387872122
  - # 20
    frequency:   18.4810597904
  - # 21
    frequency:   18.5613563054
  - # 22
    frequency:   31.3952551677
  - # 23
    frequency:   60.1590105003
  - # 24
    frequency:   67.8086848178

- q-position: [    0.1262626,    0.0000000,    0.0000000 ]
  distance:    0.0436915
  band:
  - # 1
    frequency:    0.6704752854
  - # 2
    frequency:    0.7297343631
  - # 3
    frequency:    1.2666325866
  - # 4
    frequency:    1.5723147415
  - # 5
    frequency:    1.6933334662
  - # 6
    frequency:    2.0794341422
  - # 7
    frequency:    2.2798548700
  - # 8
    frequency:    3.7909242646
  - # 9
    frequency:    3.9846011209
  - # 10
    frequency:    4.9662145639
  - # 11
    frequency:    6.0608562726
  - # 12
    frequency:    6.0972834465
  - # 13
    frequency:    7.6895283688
  - # 14
    frequency:    7.7923818218
  - # 15
    frequency:    7.9454647516
  - # 16
    frequency:    8.5950719378
  - # 17
    frequency:   13.8605544753
  - # 18
    frequency:   13.9437124281
  - # 19
    frequency:   17.0310021266
  - # 20
    frequency:   18.4646519075
  - # 21
    frequency:   18.5483633407
  - # 22
    frequency:   31.3772394279
  - # 23
    frequency:   60.1563320304
  - # 24
    frequency:   67.7984490367

- q-position: [    0.1313131,    0.0000000,    0.0000000 ]
  distance:    0.0454391
  band:
  - # 1
    frequency:    0.7166572251
  - # 2
    frequency:    0.7519884469
  - # 3
    frequency:    1.2521744325
  - # 4
    frequency:    1.5817900230
  - # 5
    frequency:    1.6908792679
  - # 6
    frequency:    2.1230636867
  - # 7
    frequency:    2.3302942050
  - # 8
    frequency:    3.7893879755
  - # 9
    frequency:    3.9968036146
  - # 10
    frequency:    4.9657960334
  - # 11
    frequency:    6.0669024015
  - # 12
    frequency:    6.1053760116
  - # 13
    frequency:    7.6925434966
  - # 14
    frequency:    7.7806646091
  - # 15
    frequency:    7.9672582083
  - # 16
    frequency:    8.5976954428
  - # 17
    frequency:   13.8626666425
  - # 18
    frequency:   13.9517380362
  - # 19
    frequency:   17.0229221961
  - # 20
    frequency:   18.4483216967
  - # 21
    frequency:   18.5351215248
  - # 22
    frequency:   31.3588425453
  - # 23
    frequency:   60.1535872843
  - # 24
    frequency:   67.7879775244

- q-position: [    0.1363636,    0.0000000,    0.0000000 ]
  distance:    0.0471868
  band:
  - # 1
    frequency:    0.7635086321
  - # 2
    frequency:    0.7714015064
  - # 3
    frequency:    1.2384336974
  - # 4
    frequency:    1.5876772590
  - # 5
    frequency:    1.6906045795
  - # 6
    frequency:    2.1672511747
  - # 7