nqpoint: 300    
npath: 3      
segment_nqpoint:
- 100
- 100
- 100
labels:
- [ 'G', 'M' ]
- [ 'M', 'K' ]
- [ 'K', 'G' ]
reciprocal_lattice:
- [   0.29393858,   0.16970552,   0.00000000 ] # a*
- [   0.00000000,   0.33941104,   0.00000000 ] # b*
- [   0.00000000,   0.00000000,   0.04000904 ] # c*
natom: 6      
lattice:
- [     3.402071227326630,     0.000000000000000,     0.000000000000000 ] # a
- [    -1.701035613663315,     2.946280108343629,     0.000000000000000 ] # b
- [     0.000000000000000,     0.000000000000000,    24.994348825716074 ] # c
points:
- symbol: Br # 1
  coordinates: [  0.666666984744047,  0.333332985985145,  0.360081395308852 ]
  mass: 79.904000
- symbol: C # 2
  coordinates: [  0.000000000000000,  0.000000000000000,  0.485090698115458 ]
  mass: 12.010700
- symbol: C # 3
  coordinates: [  0.333332985432215,  0.666666983183674,  0.591632941225141 ]
  mass: 12.010700
- symbol: Hf # 4
  coordinates: [  0.333332985432215,  0.666666983183674,  0.438354294214705 ]
  mass: 178.490000
- symbol: Hf # 5
  coordinates: [  0.666666984744047,  0.333332985985145,  0.533881845177231 ]
  mass: 178.490000
- symbol: N # 6
  coordinates: [  0.333332985432215,  0.666666983183674,  0.639918604691148 ]
  mass: 14.006700

phonon:
- q-position: [    0.0000000,    0.0000000,    0.0000000 ]
  distance:    0.0000000
  band:
  - # 1
    frequency:   -2.2347339323
  - # 2
    frequency:   -2.2347339323
  - # 3
    frequency:   -0.0000110494
  - # 4
    frequency:   -0.0000002816
  - # 5
    frequency:    0.0000083473
  - # 6
    frequency:    2.8524192817
  - # 7
    frequency:    2.8524192818
  - # 8
    frequency:    4.2263652607
  - # 9
    frequency:    4.2263652607
  - # 10
    frequency:    4.3486298684
  - # 11
    frequency:    6.6167242610
  - # 12
    frequency:    6.8983643403
  - # 13
    frequency:    6.8983643403
  - # 14
    frequency:    8.2579274337
  - # 15
    frequency:   15.9621768690
  - # 16
    frequency:   17.6250240306
  - # 17
    frequency:   17.6250240306
  - # 18
    frequency:   60.2000471821

- q-position: [    0.0050505,    0.0000000,    0.0000000 ]
  distance:    0.0017142
  band:
  - # 1
    frequency:   -2.2342918672
  - # 2
    frequency:   -2.2336653726
  - # 3
    frequency:    0.0015190435
  - # 4
    frequency:    0.0420234300
  - # 5
    frequency:    0.0835312243
  - # 6
    frequency:    2.8527355864
  - # 7
    frequency:    2.8537325114
  - # 8
    frequency:    4.2248014716
  - # 9
    frequency:    4.2262760539
  - # 10
    frequency:    4.3502109990
  - # 11
    frequency:    6.6162754020
  - # 12
    frequency:    6.8985194094
  - # 13
    frequency:    6.8990551185
  - # 14
    frequency:    8.2579779241
  - # 15
    frequency:   15.9620480176
  - # 16
    frequency:   17.6246786882
  - # 17
    frequency:   17.6249067594
  - # 18
    frequency:   60.1999842864

- q-position: [    0.0101010,    0.0000000,    0.0000000 ]
  distance:    0.0034284
  band:
  - # 1
    frequency:   -2.2329704542
  - # 2
    frequency:   -2.2304668443
  - # 3
    frequency:    0.0060678849
  - # 4
    frequency:    0.0840927777
  - # 5
    frequency:    0.1670351479
  - # 6
    frequency:    2.8536841373
  - # 7
    frequency:    2.8576626448
  - # 8
    frequency:    4.2203321287
  - # 9
    frequency:    4.2260091020
  - # 10
    frequency:    4.3547343047
  - # 11
    frequency:    6.6149308596
  - # 12
    frequency:    6.8989837201
  - # 13
    frequency:    6.9011249508
  - # 14
    frequency:    8.2581284503
  - # 15
    frequency:   15.9616614215
  - # 16
    frequency:   17.6236443805
  - # 17
    frequency:   17.6245552081
  - # 18
    frequency:   60.1997957071

- q-position: [    0.0151515,    0.0000000,    0.0000000 ]
  distance:    0.0051426
  band:
  - # 1
    frequency:   -2.2307839973
  - # 2
    frequency:   -2.2251597123
  - # 3
    frequency:    0.0136218044
  - # 4
    frequency:    0.1262535288
  - # 5
    frequency:    0.2504837761
  - # 6
    frequency:    2.8552638407
  - # 7
    frequency:    2.8641812661
  - # 8
    frequency:    4.2134924617
  - # 9
    frequency:    4.2255664068
  - # 10
    frequency:    4.3616703381
  - # 11
    frequency:    6.6126965608
  - # 12
    frequency:    6.8997545823
  - # 13
    frequency:    6.9045664952
  - # 14
    frequency:    8.2583761933
  - # 15
    frequency:   15.9610169561
  - # 16
    frequency:   17.6219262578
  - # 17
    frequency:   17.6239701629
  - # 18
    frequency:   60.1994817670

- q-position: [    0.0202020,    0.0000000,    0.0000000 ]
  distance:    0.0068568
  band:
  - # 1
    frequency:   -2.2277561899
  - # 2
    frequency:   -2.2177792926
  - # 3
    frequency:    0.0241404139
  - # 4
    frequency:    0.1685503013
  - # 5
    frequency:    0.3338477485
  - # 6
    frequency:    2.8574728557
  - # 7
    frequency:    2.8732418372
  - # 8
    frequency:    4.2048854139
  - # 9
    frequency:    4.2249512906
  - # 10
    frequency:    4.3704256942
  - # 11
    frequency:    6.6095818344
  - # 12
    frequency:    6.9008275117
  - # 13
    frequency:    6.9093680263
  - # 14
    frequency:    8.2587165074
  - # 15
    frequency:   15.9601144180
  - # 16
    frequency:   17.6195328775
  - # 17
    frequency:   17.6231529305
  - # 18
    frequency:   60.1990430037

- q-position: [    0.0252525,    0.0000000,    0.0000000 ]
  distance:    0.0085710
  band:
  - # 1
    frequency:   -2.2239198942
  - # 2
    frequency:   -2.2083744191
  - # 3
    frequency:    0.0375687841
  - # 4
    frequency:    0.2110264063
  - # 5
    frequency:    0.4170956975
  - # 6
    frequency:    2.8603085687
  - # 7
    frequency:    2.8847808723
  - # 8
    frequency:    4.1950247043
  - # 9
    frequency:    4.2241683757
  - # 10
    frequency:    4.3804998000
  - # 11
    frequency:    6.6055987103
  - # 12
    frequency:    6.9021962292
  - # 13
    frequency:    6.9155140780
  - # 14
    frequency:    8.2591429979
  - # 15
    frequency:   15.9589535315
  - # 16
    frequency:   17.6164761636
  - # 17
    frequency:   17.6221053329
  - # 18
    frequency:   60.1984801675

- q-position: [    0.0303030,    0.0000000,    0.0000000 ]
  distance:    0.0102852
  band:
  - # 1
    frequency:   -2.2193168276
  - # 2
    frequency:   -2.1970068452
  - # 3
    frequency:    0.0538389262
  - # 4
    frequency:    0.2537234044
  - # 5
    frequency:    0.5001936616
  - # 6
    frequency:    2.8637675583
  - # 7
    frequency:    2.8987194755
  - # 8
    frequency:    4.1842959403
  - # 9
    frequency:    4.2232235562
  - # 10
    frequency:    4.3915236038
  - # 11
    frequency:    6.6007611437
  - # 12
    frequency:    6.9038526615
  - # 13
    frequency:    6.9229861424
  - # 14
    frequency:    8.2596476274
  - # 15
    frequency:   15.9575339575
  - # 16
    frequency:   17.6127713508
  - # 17
    frequency:   17.6208296993
  - # 18
    frequency:   60.1977942202

- q-position: [    0.0353535,    0.0000000,    0.0000000 ]
  distance:    0.0119994
  band:
  - # 1
    frequency:   -2.2139971538
  - # 2
    frequency:   -2.1837504927
  - # 3
    frequency:    0.0728715270
  - # 4
    frequency:    0.2966806572
  - # 5
    frequency:    0.5831045699
  - # 6
    frequency:    2.8678455526
  - # 7
    frequency:    2.9149651501
  - # 8
    frequency:    4.1729753401
  - # 9
    frequency:    4.2221239603
  - # 10
    frequency:    4.4032406104
  - # 11
    frequency:    6.5950842888
  - # 12
    frequency:    6.9057869438
  - # 13
    frequency:    6.9317632975
  - # 14
    frequency:    8.2602208480
  - # 15
    frequency:   15.9558553068
  - # 16
    frequency:   17.6084369135
  - # 17
    frequency:   17.6193288550
  - # 18
    frequency:   60.1969863319

- q-position: [    0.0404040,    0.0000000,    0.0000000 ]
  distance:    0.0137136
  band:
  - # 1
    frequency:   -2.2080189746
  - # 2
    frequency:   -2.1686905611
  - # 3
    frequency:    0.0945778342
  - # 4
    frequency:    0.3399348767
  - # 5
    frequency:    0.6657878148
  - # 6
    frequency:    2.8725373800
  - # 7
    frequency:    2.9334137791
  - # 8
    frequency:    4.1612604324
  - # 9
    frequency:    4.2208779057
  - # 10
    frequency:    4.4154759014
  - # 11
    frequency:    6.5885839114
  - # 12
    frequency:    6.9079874262
  - # 13
    frequency:    6.9418226816
  - # 14
    frequency:    8.2608517572
  - # 15
    frequency:   15.9539171555
  - # 16
    frequency:   17.6034944781
  - # 17
    frequency:   17.6176061074
  - # 18
    frequency:   60.1960578788

- q-position: [    0.0454545,    0.0000000,    0.0000000 ]
  distance:    0.0154278
  band:
  - # 1
    frequency:   -2.2014477197
  - # 2
    frequency:   -2.1519225185
  - # 3
    frequency:    0.1188615931
  - # 4
    frequency:    0.3835196778
  - # 5
    frequency:    0.7481989295
  - # 6
    frequency:    2.8778369152
  - # 7
    frequency:    2.9539516798
  - # 8
    frequency:    4.1492959170
  - # 9
    frequency:    4.2194948470
  - # 10
    frequency:    4.4281099696
  - # 11
    frequency:    6.5812759801
  - # 12
    frequency:    6.9104406858
  - # 13
    frequency:    6.9531397724
  - # 14
    frequency:    8.2615282728
  - # 15
    frequency:   15.9517190660
  - # 16
    frequency:   17.5979687210
  - # 17
    frequency:   17.6156652273
  - # 18
    frequency:   60.1950104392

- q-position: [    0.0505051,    0.0000000,    0.0000000 ]
  distance:    0.0171420
  band:
  - # 1
    frequency:   -2.1943554329
  - # 2
    frequency:   -2.1335510001
  - # 3
    frequency:    0.1456209417
  - # 4
    frequency:    0.4274651401
  - # 5
    frequency:    0.8302893825
  - # 6
    frequency:    2.8837370231
  - # 7
    frequency:    2.9764576445
  - # 8
    frequency:    4.1371919646
  - # 9
    frequency:    4.2179853143
  - # 10
    frequency:    4.4410600967
  - # 11
    frequency:    6.5731764385
  - # 12
    frequency:    6.9131315461
  - # 13
    frequency:    6.9656884780
  - # 14
    frequency:    8.2622373249
  - # 15
    frequency:   15.9492606111
  - # 16
    frequency:   17.5918872519
  - # 17
    frequency:   17.6135104262
  - # 18
    frequency:   60.1938457897

- q-position: [    0.0555556,    0.0000000,    0.0000000 ]
  distance:    0.0188562
  band:
  - # 1
    frequency:   -2.1868199540
  - # 2
    frequency:   -2.1136886434
  - # 3
    frequency:    0.1747501878
  - # 4
    frequency:    0.4717973892
  - # 5
    frequency:    0.9120064980
  - # 6
    frequency:    2.8902295019
  - # 7
    frequency:    3.0008048936
  - # 8
    frequency:    4.1250363734
  - # 9
    frequency:    4.2163608449
  - # 10
    frequency:    4.4542678697
  - # 11
    frequency:    6.5643011279
  - # 12
    frequency:    6.9160431057
  - # 13
    frequency:    6.9794410694
  - # 14
    frequency:    8.2629650588
  - # 15
    frequency:   15.9465414039
  - # 16
    frequency:   17.5852804824
  - # 17
    frequency:   17.6111463286
  - # 18
    frequency:   60.1925659008

- q-position: [    0.0606061,    0.0000000,    0.0000000 ]
  distance:    0.0205704
  band:
  - # 1
    frequency:   -2.1789239996
  - # 2
    frequency:   -2.0924548939
  - # 3
    frequency:    0.2061414088
  - # 4
    frequency:    0.5165382080
  - # 5
    frequency:    0.9932935025
  - # 6
    frequency:    2.8973050287
  - # 7
    frequency:    3.0268628874
  - # 8
    frequency:    4.1129024778
  - # 9
    frequency:    4.2146339072
  - # 10
    frequency:    4.4676909510
  - # 11
    frequency:    6.5546658217
  - # 12
    frequency:    6.9191567793
  - # 13
    frequency:    6.9943680006
  - # 14
    frequency:    8.2636970462
  - # 15
    frequency:   15.9435611323
  - # 16
    frequency:   17.5781814808
  - # 17
    frequency:   17.6085779386
  - # 18
    frequency:   60.1911729315

- q-position: [    0.0656566,    0.0000000,    0.0000000 ]
  distance:    0.0222846
  band:
  - # 1
    frequency:   -2.1707541497
  - # 2
    frequency:   -2.0699748158
  - # 3
    frequency:    0.2396858313
  - # 4
    frequency:    0.5617046930
  - # 5
    frequency:    1.0740896929
  - # 6
    frequency:    2.9049531092
  - # 7
    frequency:    3.0544989582
  - # 8
    frequency:    4.1008542793
  - # 9
    frequency:    4.2128178171
  - # 10
    frequency:    4.4812976436
  - # 11
    frequency:    6.5442863314
  - # 12
    frequency:    6.9224523513
  - # 13
    frequency:    7.0104376636
  - # 14
    frequency:    8.2644185009
  - # 15
    frequency:   15.9403195994
  - # 16
    frequency:   17.5706258134
  - # 17
    frequency:   17.6058106004
  - # 18
    frequency:   60.1896692243

- q-position: [    0.0707071,    0.0000000,    0.0000000 ]
  distance:    0.0239988
  band:
  - # 1
    frequency:   -2.1623997507
  - # 2
    frequency:   -2.0463779407
  - # 3
    frequency:    0.2752749673
  - # 4
    frequency:    0.6073089684
  - # 5
    frequency:    1.1543307119
  - # 6
    frequency:    2.9131620343
  - # 7
    frequency:    3.0835797451
  - # 8
    frequency:    4.0889497920
  - # 9
    frequency:    4.2109266473
  - # 10
    frequency:    4.4950632682
  - # 11
    frequency:    6.5331786467
  - # 12
    frequency:    6.9259080460
  - # 13
    frequency:    7.0276161166
  - # 14
    frequency:    8.2651144935
  - # 15
    frequency:   15.9368167689
  - # 16
    frequency:   17.5626513736
  - # 17
    frequency:   17.6028499525
  - # 18
    frequency:   60.1880572988

- q-position: [    0.0757576,    0.0000000,    0.0000000 ]
  distance:    0.0257130
  band:
  - # 1
    frequency:   -2.1539517511
  - # 2
    frequency:   -2.0217971811
  - # 3
    frequency:    0.3128014962
  - # 4
    frequency:    0.6533579742
  - # 5
    frequency:    1.2339489083
  - # 6
    frequency:    2.9219188460
  - # 7
    frequency:    3.1139724238
  - # 8
    frequency:    4.0772432433
  - # 9
    frequency:    4.2089751298
  - # 10
    frequency:    4.5089677233
  - # 11
    frequency:    6.5213590867
  - # 12
    frequency:    6.9295006153
  - # 13
    frequency:    7.0458668200
  - # 14
    frequency:    8.2657701627
  - # 15
    frequency:   15.9330528164
  - # 16
    frequency:   17.5542981986
  - # 17
    frequency:   17.5997018755
  - # 18
    frequency:   60.1863398458

- q-position: [    0.0808081,    0.0000000,    0.0000000 ]
  distance:    0.0274272
  band:
  - # 1
    frequency:   -2.1455014908
  - # 2
    frequency:   -1.9963678294
  - # 3
    frequency:    0.3521598940
  - # 4
    frequency:    0.6998533398
  - # 5
    frequency:    1.3128737574
  - # 6
    frequency:    2.9312093147
  - # 7
    frequency:    3.1455457385
  - # 8
    frequency:    4.0657865357
  - # 9
    frequency:    4.2069785523
  - # 10
    frequency:    4.5229938282
  - # 11
    frequency:    6.5088444425
  - # 12
    frequency:    6.9332054446
  - # 13
    frequency:    7.0651504026
  - # 14
    frequency:    8.2663709189
  - # 15
    frequency:   15.9290281858
  - # 16
    frequency:   17.5456082749
  - # 17
    frequency:   17.5963724333
  - # 18
    frequency:   60.1845197198

- q-position: [    0.0858586,    0.0000000,    0.0000000 ]
  distance:    0.0291414
  band:
  - # 1
    frequency:   -2.1371394698
  - # 2
    frequency:   -1.9702266516
  - # 3
    frequency:    0.3932468229
  - # 4
    frequency:    0.7467913550
  - # 5
    frequency:    1.3910323066
  - # 6
    frequency:    2.9410179293
  - # 7
    frequency:    3.1781708464
  - # 8
    frequency:    4.0546302336
  - # 9
    frequency:    4.2049526477
  - # 10
    frequency:    4.5371261958
  - # 11
    frequency:    6.4956521025
  - # 12
    frequency:    6.9369966805
  - # 13
    frequency:    7.0854244736
  - # 14
    frequency:    8.2669026380
  - # 15
    frequency:   15.9247436498
  - # 16
    frequency:   17.5366253338
  - # 17
    frequency:   17.5928678071
  - # 18
    frequency:   60.1825999326

- q-position: [    0.0909091,    0.0000000,    0.0000000 ]
  distance:    0.0308555
  band:
  - # 1
    frequency:   -2.1289541262
  - # 2
    frequency:   -1.9435110734
  - # 3
    frequency:    0.4359613001
  - # 4
    frequency:    0.7941630453
  - # 5
    frequency:    1.4683496176
  - # 6
    frequency:    2.9513279028
  - # 7
    frequency:    3.2117219928
  - # 8
    frequency:    4.0438242428
  - # 9
    frequency:    4.2029134790
  - # 10
    frequency:    4.5513504709
  - # 11
    frequency:    6.4818001546
  - # 12
    frequency:    6.9408473790
  - # 13
    frequency:    7.1066434915
  - # 14
    frequency:    8.2673518420
  - # 15
    frequency:   15.9202003760
  - # 16
    frequency:   17.5273946373
  - # 17
    frequency:   17.5891942243
  - # 18
    frequency:   60.1805836448

- q-position: [    0.0959596,    0.0000000,    0.0000000 ]
  distance:    0.0325697
  band:
  - # 1
    frequency:   -2.1210306572
  - # 2
    frequency:   -1.9163584437
  - # 3
    frequency:    0.4802046707
  - # 4
    frequency:    0.8419543517
  - # 5
    frequency:    1.5447491729
  - # 6
    frequency:    2.9621211929
  - # 7
    frequency:    3.2460770311
  - # 8
    frequency:    4.0334182977
  - # 9
    frequency:    4.2008773189
  - # 10
    frequency:    4.5656528263
  - # 11
    frequency:    6.4673074649
  - # 12
    frequency:    6.9447296753
  - # 13
    frequency:    7.1287586956
  - # 14
    frequency:    8.2677058644
  - # 15
    frequency:   15.9153999939
  - # 16
    frequency:   17.5179627554
  - # 17
    frequency:   17.5853578812
  - # 18
    frequency:   60.1784741582

- q-position: [    0.1010101,    0.0000000,    0.0000000 ]
  distance:    0.0342839
  band:
  - # 1
    frequency:   -2.1134499138
  - # 2
    frequency:   -1.8889053539
  - # 3
    frequency:    0.5258804180
  - # 4
    frequency:    0.8901464121
  - # 5
    frequency:    1.6201532230
  - # 6
    frequency:    2.9733785400
  - # 7
    frequency:    3.2811178047
  - # 8
    frequency:    4.0234623320
  - # 9
    frequency:    4.1988605254
  - # 10
    frequency:    4.5800196446
  - # 11
    frequency:    6.4521937337
  - # 12
    frequency:    6.9486149757
  - # 13
    frequency:    7.1517181018
  - # 14
    frequency:    8.2679529998
  - # 15
    frequency:   15.9103446657
  - # 16
    frequency:   17.5083773372
  - # 17
    frequency:   17.5813648609
  - # 18
    frequency:   60.1762749074

- q-position: [    0.1060606,    0.0000000,    0.0000000 ]
  distance:    0.0359981
  band:
  - # 1
    frequency:   -2.1062874050
  - # 2
    frequency:   -1.8612869796
  - # 3
    frequency:    0.5728938469
  - # 4
    frequency:    0.9387159335
  - # 5
    frequency:    1.6944830559
  - # 6
    frequency:    2.9850795215
  - # 7
    frequency:    3.3167303999
  - # 8
    frequency:    4.0140067892
  - # 9
    frequency:    4.1968794139
  - # 10
    frequency:    4.5944373339
  - # 11
    frequency:    6.4364795307
  - # 12
    frequency:    6.9524741707
  - # 13
    frequency:    7.1754665647
  - # 14
    frequency:    8.2680826349
  - # 15
    frequency:   15.9050371557
  - # 16
    frequency:   17.4986868746
  - # 17
    frequency:   17.5772210479
  - # 18
    frequency:   60.1739894511

- q-position: [    0.1111111,    0.0000000,    0.0000000 ]
  distance:    0.0377123
  band:
  - # 1
    frequency:   -2.0996124364
  - # 2
    frequency:   -1.8336364134
  - # 3
    frequency:    0.6211516833
  - # 4
    frequency:    0.9876356386
  - # 5
    frequency:    1.7676591839
  - # 6
    frequency:    2.9972026223
  - # 7
    frequency:    3.3528052763
  - # 8
    frequency:    4.0051029129
  - # 9
    frequency:    4.1949501271
  - # 10
    frequency:    4.6088922433
  - # 11
    frequency:    6.4201863111
  - # 12
    frequency:    6.9562778676
  - # 13
    frequency:    7.1999459045
  - # 14
    frequency:    8.2680853624
  - # 15
    frequency:   15.8994808997
  - # 16
    frequency:   17.4889404628
  - # 17
    frequency:   17.5729320404
  - # 18
    frequency:   60.1716214630

- q-position: [    0.1161616,    0.0000000,    0.0000000 ]
  distance:    0.0394265
  band:
  - # 1
    frequency:   -2.0934874090
  - # 2
    frequency:   -1.8060839569
  - # 3
    frequency:    0.6705616359
  - # 4
    frequency:    1.0368747660
  - # 5
    frequency:    1.8396014458
  - # 6
    frequency:    3.0097253214
  - # 7
    frequency:    3.3892372689
  - # 8
    frequency:    3.9968030527
  - # 9
    frequency:    4.1930885041
  - # 10
    frequency:    4.6233706496
  - # 11
    frequency:    6.4033364178
  - # 12
    frequency:    6.9599966420
  - # 13
    frequency:    7.2250950935
  - # 14
    frequency:    8.2679530773
  - # 15
    frequency:   15.8936800702
  - # 16
    frequency:   17.4791875561
  - # 17
    frequency:   17.5685030617
  - # 18
    frequency:   60.1691747225

- q-position: [    0.1212121,    0.0000000,    0.0000000 ]
  distance:    0.0411407
  band:
  - # 1
    frequency:   -2.0879672935
  - # 2
    frequency:   -1.7787563509
  - # 3
    frequency:    0.7210319693
  - # 4
    frequency:    1.0863996019
  - # 5
    frequency:    1.9102290416
  - # 6
    frequency:    3.0226241910
  - # 7
    frequency:    3.4259254488
  - # 8
    frequency:    3.9891610178
  - # 9
    frequency:    4.1913099484
  - # 10
    frequency:    4.6378587973
  - # 11
    frequency:    6.3859530684
  - # 12
    frequency:    6.9636013043
  - # 13
    frequency:    7.2508505012
  - # 14
    frequency:    8.2676790553
  - # 15
    frequency:   15.8876396360
  - # 16
    frequency:   17.4694777226
  - # 17
    frequency:   17.5639388725
  - # 18
    frequency:   60.1666531053

- q-position: [    0.1262626,    0.0000000,    0.0000000 ]
  distance:    0.0428549
  band:
  - # 1
    frequency:   -2.0830992866
  - # 2
    frequency:   -1.7517759337
  - # 3
    frequency:    0.7724711376
  - # 4
    frequency:    1.1361740150
  - # 5
    frequency:    1.9794605183
  - # 6
    frequency:    3.0358750095
  - # 7
    frequency:    3.4627728083
  - # 8
    frequency:    3.9822325175
  - # 9
    frequency:    4.1896292986
  - # 10
    frequency:    4.6523429746
  - # 11
    frequency:    6.3680603329
  - # 12
    frequency:    6.9670631807
  - # 13
    frequency:    7.2771461890
  - # 14
    frequency:    8.2672580163
  - # 15
    frequency:   15.8813654149
  - # 16
    frequency:   17.4598603985
  - # 17
    frequency:   17.5592436864
  - # 18
    frequency:   60.1640605737

- q-position: [    0.1313131,    0.0000000,    0.0000000 ]
  distance:    0.0445691
  band:
  - # 1
    frequency:   -2.0789226517
  - # 2
    frequency:   -1.7252597325
  - # 3
    frequency:    0.8247875221
  - # 4
    frequency:    1.1861599753
  - # 5
    frequency:    2.0472137404
  - # 6
    frequency:    3.0494528825
  - # 7
    frequency:    3.4996857156
  - # 8
    frequency:    3.9760757440
  - # 9
    frequency:    4.1880607005
  - # 10
    frequency:    4.6668096141
  - # 11
    frequency:    6.3496831019
  - # 12
    frequency:    6.9703544029
  - # 13
    frequency:    7.3039142492
  - # 14
    frequency:    8.2666861734
  - # 15
    frequency:   15.8748641156
  - # 16
    frequency:   17.4503846431
  - # 17
    frequency:   17.5544210906
  - # 18
    frequency:   60.1614011665

- q-position: [    0.1363636,    0.0000000,    0.0000000 ]
  distance:    0.0462833
  band:
  - # 1
    frequency:   -2.0754687331
  - # 2
    frequency:   -1.6993185108
  - # 3
    frequency:    0.8778893078
  - # 4
    frequency:    1.2363180309
  - # 5
    frequency:    2.1134058810
  - # 6
    frequency:    3.0633323716
  - # 7
    frequency:    3.5365730429
  - # 8
    frequency:    3.9707521794
  - # 9
    frequency:    4.1866174847
  - # 10
    frequency:    4.6812454090
  - # 11
    frequency:    6.3308470470
  - # 12
    frequency:    6.9734482045
  - # 13
    frequency:    7.3310851794
  - # 14
    frequency:    8.2659612707
  - # 15
    frequency:   15.8681433671
  - # 16
    frequency:   17.4410988963
  - # 17
    frequency:   17.5494739737
  - # 18
    frequency:   60.1586789891

- q-position: [    0.1414141,    0.0000000,    0.0000000 ]
  distance:    0.0479975
  band:
  - # 1
    frequency:   -2.0727611298
  - # 2
    frequency:   -1.6740558067
  - # 3
    frequency:    0.9316845208
  - # 4
    frequency:    1.2866077307
  - # 5
    frequency:    2.1779534800
  - # 6
    frequency:    3.0774876274
  - # 7
    frequency:    3.5733448085
  - # 8
    frequency:    3.9663277687
  - # 9
    frequency:    4.1853120496
  - # 10
    frequency:    4.6956374354
  - # 11
    frequency:    6.3115785775
  - # 12
    frequency:    6.9763192194
  - # 13
    frequency:    7.3585882818
  - # 14
    frequency:    8.2650826119
  - # 15
    frequency:   15.8612117345
  - # 16
    frequency:   17.4320507410
  - # 17
    frequency:   17.5444044626
  - # 18
    frequency:   60.1558982032

- q-position: [    0.1464646,    0.0000000,    0.0000000 ]
  distance:    0.0497117
  band:
  - # 1
    frequency:   -2.0708160096
  - # 2
    frequency:   -1.6495670060
  - # 3
    frequency:    0.9860812299
  - # 4
    frequency:    1.3369879784
  - # 5
    frequency:    2.2407726157
  - # 6
    frequency:    3.0918925237
  - # 7
    frequency:    3.6099100675
  - # 8
    frequency:    3.9628746982
  - # 9
    frequency:    4.1841557517
  - # 10
    frequency:    4.7099732767
  - # 11
    frequency:    6.2919047914
  - # 12
    frequency:    6.9789437777
  - # 13
    frequency:    7.3863520781
  - # 14
    frequency:    8.2640510843
  - # 15
    frequency:   15.8540787172
  - # 16
    frequency:   17.4232866706
  - # 17
    frequency:   17.5392138712
  - # 18
    frequency:   60.1530630171

- q-position: [    0.1515152,    0.0000000,    0.0000000 ]
  distance:    0.0514259
  band:
  - # 1
    frequency:   -2.0696425383
  - # 2
    frequency:   -1.6259384972
  - # 3
    frequency:    1.0409879002
  - # 4
    frequency:    1.3874173130
  - # 5
    frequency:    2.3017792420
  - # 6
    frequency:    3.1065207898
  - # 7
    frequency:    3.6461735956
  - # 8
    frequency:    3.9604742019
  - # 9
    frequency:    4.1831588061
  - # 10
    frequency:    4.7242411441
  - # 11
    frequency:    6.2718534256
  - # 12
    frequency:    6.9813001942
  - # 13
    frequency:    7.4143047282
  - # 14
    frequency:    8.2628691804
  - # 15
    frequency:   15.8467547283
  - # 16
    frequency:   17.4148518639
  - # 17
    frequency:   17.5339026633
  - # 18
    frequency:   60.1501776745

- q-position: [    0.1565657,    0.0000000,    0.0000000 ]
  distance:    0.0531401
  band:
  - # 1
    frequency:   -2.0692434000
  - # 2
    frequency:   -1.6032469515
  - # 3
    frequency:    1.0963138666
  - # 4
    frequency:    1.4378541175
  - # 5
    frequency:    2.3608897403
  - # 6
    frequency:    3.1213461384
  - # 7
    frequency:    3.6820305791
  - # 8
    frequency:    3.9592211504
  - # 9
    frequency:    4.1823301969
  - # 10
    frequency:    4.7384299895
  - # 11
    frequency:    6.2514528044
  - # 12
    frequency:    6.9833690459
  - # 13
    frequency:    7.4423744390
  - # 14
    frequency:    8.2615410235
  - # 15
    frequency:   15.8392510547
  - # 16
    frequency:   17.4067899689
  - # 17
    frequency:   17.5284704300
  - # 18
    frequency:   60.1472464451

- q-position: [    0.1616162,    0.0000000,    0.0000000 ]
  distance:    0.0548543
  band:
  - # 1
    frequency:   -2.0696153833
  - # 2
    frequency:   -1.5815587593
  - # 3
    frequency:    1.1519698887
  - # 4
    frequency:    1.4882567573
  - # 5
    frequency:    2.4180217352
  - # 6
    frequency:    3.1363423872
  - # 7
    frequency:    3.7173579249
  - # 8
    frequency:    3.9592317702
  - # 9
    frequency:    4.1816776013
  - # 10
    frequency:    4.7525296094
  - # 11
    frequency:    6.2307317896
  - # 12
    frequency:    6.9851334317
  - # 13
    frequency:    7.4704898538
  - # 14
    frequency:    8.2600724015
  - # 15
    frequency:   15.8315797945
  - # 16
    frequency:   17.3991428965
  - # 17
    frequency:   17.5229158854
  - # 18
    frequency:   60.1442736142

- q-position: [    0.1666667,    0.0000000,    0.0000000 ]
  distance:    0.0565685
  band:
  - # 1
    frequency:   -2.0707500080
  - # 2
    frequency:   -1.5609296418
  - # 3
    frequency:    1.2078687374
  - # 4
    frequency:    1.5385836597
  - # 5
    frequency:    2.4730952091
  - # 6
    frequency:    3.1514835699
  - # 7
    frequency:    3.7519997676
  - # 8
    frequency:    3.9606568890
  - # 9
    frequency:    4.1812073266
  - # 10
    frequency:    4.7665307367
  - # 11
    frequency:    6.2097197327
  - # 12
    frequency:    6.9865792118
  - # 13
    frequency:    7.4985804057
  - # 14
    frequency:    8.2584708142
  - # 15
    frequency:   15.8237537730
  - # 16
    frequency:   17.3919506263
  - # 17
    frequency:   17.5172368802
  - # 18
    frequency:   60.1412634723

- q-position: [    0.1717172,    0.0000000,    0.0000000 ]
  distance:    0.0582827
  band:
  - # 1
    frequency:   -2.0726341728
  - # 2
    frequency:   -1.5414044409
  - # 3
    frequency:    1.2639257678
  - # 4
    frequency:    1.5887933443
  - # 5
    frequency:    2.5260339437
  - # 6
    frequency:    3.1667440379
  - # 7
    frequency:    3.7857431281
  - # 8
    frequency:    3.9637047309
  - # 9
    frequency:    4.1809242634
  - # 10
    frequency:    4.7804251196
  - # 11
    frequency:    6.1884464308
  - # 12
    frequency:    6.9876952206
  - # 13
    frequency:    7.5265766253
  - # 14
    frequency:    8.2567455422
  - # 15
    frequency:   15.8157864349
  - # 16
    frequency:   17.3852510241
  - # 17
    frequency:   17.5114304361
  - # 18
    frequency:   60.1382203052

- q-position: [    0.1767677,    0.0000000,    0.0000000 ]
  distance:    0.0599969
  band:
  - # 1
    frequency:   -2.0752508031
  - # 2
    frequency:   -1.5230170782
  - # 3
    frequency:    1.3200594385
  - # 4
    frequency:    1.6388444170
  - # 5
    frequency:    2.5767672884
  - # 6
    frequency:    3.1820985481
  - # 7
    frequency:    3.8182781560
  - # 8
    frequency:    3.9686788301
  - # 9
    frequency:    4.1808318547
  - # 10
    frequency:    4.7942055874
  - # 11
    frequency:    6.1669420894
  - # 12
    frequency:    6.9884734491
  - # 13
    frequency:    7.5544103861
  - # 14