nqpoint: 300    
npath: 3      
segment_nqpoint:
- 100
- 100
- 100
labels:
- [ 'G', 'M' ]
- [ 'M', 'K' ]
- [ 'K', 'G' ]
reciprocal_lattice:
- [   0.30345333,   0.17519886,   0.00000000 ] # a*
- [   0.00000000,   0.35039773,   0.00000000 ] # b*
- [   0.00000000,   0.00000000,   0.03435464 ] # c*
natom: 8      
lattice:
- [     3.295399642824870,     0.000000000000000,     0.000000000000000 ] # a
- [    -1.647699821412434,     2.853899806308983,     0.000000000000000 ] # b
- [     0.000000000000000,     0.000000000000000,    29.108149895924676 ] # c
points:
- symbol: C # 1
  coordinates: [  0.000000000000000,  0.000000000000000,  0.494284467015366 ]
  mass: 12.010700
- symbol: C # 2
  coordinates: [  0.666666984744047,  0.333332985985145,  0.362339564375338 ]
  mass: 12.010700
- symbol: Cl # 3
  coordinates: [  0.333332985432215,  0.666666983183674,  0.690808243320883 ]
  mass: 35.453000
- symbol: Hf # 4
  coordinates: [  0.333332985432215,  0.666666983183674,  0.451267767883751 ]
  mass: 178.490000
- symbol: Hf # 5
  coordinates: [  0.666666984744047,  0.333332985985145,  0.543017716470549 ]
  mass: 178.490000
- symbol: N # 6
  coordinates: [  0.666666984744047,  0.333332985985145,  0.406002319450106 ]
  mass: 14.006700
- symbol: O # 7
  coordinates: [  0.333332985432215,  0.666666983183674,  0.572911908932185 ]
  mass: 15.999400
- symbol: S # 8
  coordinates: [  0.666666984744047,  0.333332985985145,  0.309191756679117 ]
  mass: 32.065000

phonon:
- q-position: [    0.0000000,    0.0000000,    0.0000000 ]
  distance:    0.0000000
  band:
  - # 1
    frequency:   -1.7615588751
  - # 2
    frequency:   -1.7615588751
  - # 3
    frequency:   -0.0000027276
  - # 4
    frequency:    0.0000001326
  - # 5
    frequency:    0.0000036922
  - # 6
    frequency:    0.5567877775
  - # 7
    frequency:    0.5567877775
  - # 8
    frequency:    1.2588334365
  - # 9
    frequency:    2.9911857584
  - # 10
    frequency:    2.9911857584
  - # 11
    frequency:    4.8325961303
  - # 12
    frequency:    7.0378931097
  - # 13
    frequency:    7.7348841748
  - # 14
    frequency:    7.7348841748
  - # 15
    frequency:   11.8009589776
  - # 16
    frequency:   11.8009589776
  - # 17
    frequency:   12.6142915608
  - # 18
    frequency:   12.6142915608
  - # 19
    frequency:   14.0346600463
  - # 20
    frequency:   15.1961420334
  - # 21
    frequency:   15.1961420334
  - # 22
    frequency:   19.8148936134
  - # 23
    frequency:   26.8194223853
  - # 24
    frequency:   54.8106964825

- q-position: [    0.0050505,    0.0000000,    0.0000000 ]
  distance:    0.0017697
  band:
  - # 1
    frequency:   -1.7653705393
  - # 2
    frequency:   -1.7626654450
  - # 3
    frequency:   -0.0030262446
  - # 4
    frequency:    0.0445865820
  - # 5
    frequency:    0.0651300741
  - # 6
    frequency:    0.5608750898
  - # 7
    frequency:    0.5646911510
  - # 8
    frequency:    1.2597814574
  - # 9
    frequency:    2.9910633867
  - # 10
    frequency:    2.9921804592
  - # 11
    frequency:    4.8323127570
  - # 12
    frequency:    7.0372434149
  - # 13
    frequency:    7.7347031096
  - # 14
    frequency:    7.7354929199
  - # 15
    frequency:   11.7995517838
  - # 16
    frequency:   11.8007045450
  - # 17
    frequency:   12.6145846565
  - # 18
    frequency:   12.6147173525
  - # 19
    frequency:   14.0345621402
  - # 20
    frequency:   15.1957245502
  - # 21
    frequency:   15.1959584674
  - # 22
    frequency:   19.8139476299
  - # 23
    frequency:   26.8190317222
  - # 24
    frequency:   54.8098399583

- q-position: [    0.0101010,    0.0000000,    0.0000000 ]
  distance:    0.0035394
  band:
  - # 1
    frequency:   -1.7767761198
  - # 2
    frequency:   -1.7659804210
  - # 3
    frequency:   -0.0116671174
  - # 4
    frequency:    0.0895407194
  - # 5
    frequency:    0.1314577670
  - # 6
    frequency:    0.5729075202
  - # 7
    frequency:    0.5877051415
  - # 8
    frequency:    1.2626143799
  - # 9
    frequency:    2.9906983764
  - # 10
    frequency:    2.9951573777
  - # 11
    frequency:    4.8314635334
  - # 12
    frequency:    7.0352955248
  - # 13
    frequency:    7.7341606190
  - # 14
    frequency:    7.7373178246
  - # 15
    frequency:   11.7953304307
  - # 16
    frequency:   11.7999424343
  - # 17
    frequency:   12.6154658897
  - # 18
    frequency:   12.6159935173
  - # 19
    frequency:   14.0342674507
  - # 20
    frequency:   15.1944739214
  - # 21
    frequency:   15.1954087961
  - # 22
    frequency:   19.8111145416
  - # 23
    frequency:   26.8178609652
  - # 24
    frequency:   54.8072723845

- q-position: [    0.0151515,    0.0000000,    0.0000000 ]
  distance:    0.0053091
  band:
  - # 1
    frequency:   -1.7956807969
  - # 2
    frequency:   -1.7714894279
  - # 3
    frequency:   -0.0248213352
  - # 4
    frequency:    0.1351745744
  - # 5
    frequency:    0.1998536934
  - # 6
    frequency:    0.5922533906
  - # 7
    frequency:    0.6240053815
  - # 8
    frequency:    1.2673020800
  - # 9
    frequency:    2.9900970243
  - # 10
    frequency:    3.0000951805
  - # 11
    frequency:    4.8300511350
  - # 12
    frequency:    7.0320530199
  - # 13
    frequency:    7.7332588184
  - # 14
    frequency:    7.7403548920
  - # 15
    frequency:   11.7882958091
  - # 16
    frequency:   11.7986762112
  - # 17
    frequency:   12.6169409051
  - # 18
    frequency:   12.6181164227
  - # 19
    frequency:   14.0337730730
  - # 20
    frequency:   15.1923956023
  - # 21
    frequency:   15.1944961232
  - # 22
    frequency:   19.8064089001
  - # 23
    frequency:   26.8159138075
  - # 24
    frequency:   54.8029997509

- q-position: [    0.0202020,    0.0000000,    0.0000000 ]
  distance:    0.0070787
  band:
  - # 1
    frequency:   -1.8219083562
  - # 2
    frequency:   -1.7791679638
  - # 3
    frequency:   -0.0411319893
  - # 4
    frequency:    0.1817100528
  - # 5
    frequency:    0.2707132088
  - # 6
    frequency:    0.6180194796
  - # 7
    frequency:    0.6712310991
  - # 8
    frequency:    1.2738050005
  - # 9
    frequency:    2.9892697706
  - # 10
    frequency:    3.0069590262
  - # 11
    frequency:    4.8280799800
  - # 12
    frequency:    7.0275218577
  - # 13
    frequency:    7.7320012372
  - # 14
    frequency:    7.7445974441
  - # 15
    frequency:   11.7784500711
  - # 16
    frequency:   11.7969118352
  - # 17
    frequency:   12.6190184897
  - # 18
    frequency:   12.6210800107
  - # 19
    frequency:   14.0330741971
  - # 20
    frequency:   15.1894986626
  - # 21
    frequency:   15.1932256998
  - # 22
    frequency:   19.7998548434
  - # 23
    frequency:   26.8131963910
  - # 24
    frequency:   54.7970320202

- q-position: [    0.0252525,    0.0000000,    0.0000000 ]
  distance:    0.0088484
  band:
  - # 1
    frequency:   -1.8551849264
  - # 2
    frequency:   -1.7889807004
  - # 3
    frequency:   -0.0592883530
  - # 4
    frequency:    0.2292716897
  - # 5
    frequency:    0.3439960495
  - # 6
    frequency:    0.6492109019
  - # 7
    frequency:    0.7270303008
  - # 8
    frequency:    1.2820891871
  - # 9
    frequency:    2.9882311170
  - # 10
    frequency:    3.0157015844
  - # 11
    frequency:    4.8255561667
  - # 12
    frequency:    7.0217103552
  - # 13
    frequency:    7.7303928234
  - # 14
    frequency:    7.7500361004
  - # 15
    frequency:   11.7657975578
  - # 16
    frequency:   11.7946576817
  - # 17
    frequency:   12.6217097150
  - # 18
    frequency:   12.6248757922
  - # 19
    frequency:   14.0321641531
  - # 20
    frequency:   15.1857957512
  - # 21
    frequency:   15.1916050384
  - # 22
    frequency:   19.7914859231
  - # 23
    frequency:   26.8097172862
  - # 24
    frequency:   54.7893830975

- q-position: [    0.0303030,    0.0000000,    0.0000000 ]
  distance:    0.0106181
  band:
  - # 1
    frequency:   -1.8951318564
  - # 2
    frequency:   -1.8008807136
  - # 3
    frequency:   -0.0781304245
  - # 4
    frequency:    0.2779003878
  - # 5
    frequency:    0.4193525937
  - # 6
    frequency:    0.6848572657
  - # 7
    frequency:    0.7893551839
  - # 8
    frequency:    1.2921463195
  - # 9
    frequency:    2.9869995122
  - # 10
    frequency:    3.0262643651
  - # 11
    frequency:    4.8224873898
  - # 12
    frequency:    7.0146291617
  - # 13
    frequency:    7.7284399504
  - # 14
    frequency:    7.7566587524
  - # 15
    frequency:   11.7503459681
  - # 16
    frequency:   11.7919245715
  - # 17
    frequency:   12.6250268707
  - # 18
    frequency:   12.6294928431
  - # 19
    frequency:   14.0310344749
  - # 20
    frequency:   15.1813030492
  - # 21
    frequency:   15.1896440683
  - # 22
    frequency:   19.7813448650
  - # 23
    frequency:   26.8054874641
  - # 24
    frequency:   54.7800707874

- q-position: [    0.0353535,    0.0000000,    0.0000000 ]
  distance:    0.0123878
  band:
  - # 1
    frequency:   -1.9412727245
  - # 2
    frequency:   -1.8148088074
  - # 3
    frequency:   -0.0966393675
  - # 4
    frequency:    0.3275758709
  - # 5
    frequency:    0.4962512784
  - # 6
    frequency:    0.7240862052
  - # 7
    frequency:    0.8565302877
  - # 8
    frequency:    1.3040196034
  - # 9
    frequency:    2.9855972059
  - # 10
    frequency:    3.0385792742
  - # 11
    frequency:    4.8188828341
  - # 12
    frequency:    7.0062912176
  - # 13
    frequency:    7.7261504242
  - # 14
    frequency:    7.7644505377
  - # 15
    frequency:   11.7321076624
  - # 16
    frequency:   11.7887258023
  - # 17
    frequency:   12.6289822973
  - # 18
    frequency:   12.6349178028
  - # 19
    frequency:   14.0296749795
  - # 20
    frequency:   15.1760402075
  - # 21
    frequency:   15.1873553257
  - # 22
    frequency:   19.7694832626
  - # 23
    frequency:   26.8005202601
  - # 24
    frequency:   54.7691167397

- q-position: [    0.0404040,    0.0000000,    0.0000000 ]
  distance:    0.0141575
  band:
  - # 1
    frequency:   -1.9930534037
  - # 2
    frequency:   -1.8306930849
  - # 3
    frequency:   -0.1138936852
  - # 4
    frequency:    0.3782384806
  - # 5
    frequency:    0.5740722242
  - # 6
    frequency:    0.7661517326
  - # 7
    frequency:    0.9271947207
  - # 8
    frequency:    1.3178393474
  - # 9
    frequency:    2.9840500717
  - # 10
    frequency:    3.0525703036
  - # 11
    frequency:    4.8147530501
  - # 12
    frequency:    6.9967116984
  - # 13
    frequency:    7.7235334917
  - # 14
    frequency:    7.7733938194
  - # 15
    frequency:   11.7111009982
  - # 16
    frequency:   11.7850771818
  - # 17
    frequency:   12.6335872238
  - # 18
    frequency:   12.6411348785
  - # 19
    frequency:   14.0280738634
  - # 20
    frequency:   15.1700302722
  - # 21
    frequency:   15.1847541732
  - # 22
    frequency:   19.7559612056
  - # 23
    frequency:   26.7948313290
  - # 24
    frequency:   54.7565463830

- q-position: [    0.0454545,    0.0000000,    0.0000000 ]
  distance:    0.0159272
  band:
  - # 1
    frequency:   -2.0498697809
  - # 2
    frequency:   -1.8484488832
  - # 3
    frequency:   -0.1290206046
  - # 4
    frequency:    0.4298060431
  - # 5
    frequency:    0.6521617212
  - # 6
    frequency:    0.8104340627
  - # 7
    frequency:    1.0001903097
  - # 8
    frequency:    1.3338778771
  - # 9
    frequency:    2.9823873989
  - # 10
    frequency:    3.0681552684
  - # 11
    frequency:    4.8101098133
  - # 12
    frequency:    6.9859079418
  - # 13
    frequency:    7.7205998488
  - # 14
    frequency:    7.7834681711
  - # 15
    frequency:   11.6873516100
  - # 16
    frequency:   11.7809970572
  - # 17
    frequency:   12.6388507015
  - # 18
    frequency:   12.6481258567
  - # 19
    frequency:   14.0262178134
  - # 20
    frequency:   15.1632995961
  - # 21
    frequency:   15.1818590411
  - # 22
    frequency:   19.7408468461
  - # 23
    frequency:   26.7884385930
  - # 24
    frequency:   54.7423888461

- q-position: [    0.0505051,    0.0000000,    0.0000000 ]
  distance:    0.0176969
  band:
  - # 1
    frequency:   -2.1110966393
  - # 2
    frequency:   -1.8679791425
  - # 3
    frequency:   -0.1411420686
  - # 4
    frequency:    0.4821852516
  - # 5
    frequency:    0.7298522286
  - # 6
    frequency:    0.8564256343
  - # 7
    frequency:    1.0744140914
  - # 8
    frequency:    1.3526451655
  - # 9
    frequency:    2.9806416552
  - # 10
    frequency:    3.0852475076
  - # 11
    frequency:    4.8049659708
  - # 12
    frequency:    6.9738993591
  - # 13
    frequency:    7.7173616470
  - # 14
    frequency:    7.7946503733
  - # 15
    frequency:   11.6608935676
  - # 16
    frequency:   11.7765063384
  - # 17
    frequency:   12.6447787015
  - # 18
    frequency:   12.6558701266
  - # 19
    frequency:   14.0240921344
  - # 20
    frequency:   15.1558777376
  - # 21
    frequency:   15.1786916802
  - # 22
    frequency:   19.7242159040
  - # 23
    frequency:   26.7813621797
  - # 24
    frequency:   54.7266768693

- q-position: [    0.0555556,    0.0000000,    0.0000000 ]
  distance:    0.0194665
  band:
  - # 1
    frequency:   -2.1761127189
  - # 2
    frequency:   -1.8891752155
  - # 3
    frequency:   -0.1493015519
  - # 4
    frequency:    0.5352786567
  - # 5
    frequency:    0.8064545336
  - # 6
    frequency:    0.9037127618
  - # 7
    frequency:    1.1486048849
  - # 8
    frequency:    1.3750692076
  - # 9
    frequency:    2.9788482207
  - # 10
    frequency:    3.1037574847
  - # 11
    frequency:    4.7993352788
  - # 12
    frequency:    6.9607073323
  - # 13
    frequency:    7.7138324994
  - # 14
    frequency:    7.8069144199
  - # 15
    frequency:   11.6317703774
  - # 16
    frequency:   11.7716285132
  - # 17
    frequency:   12.6513734119
  - # 18
    frequency:   12.6643447144
  - # 19
    frequency:   14.0216808933
  - # 20
    frequency:   15.1477973461
  - # 21
    frequency:   15.1752774182
  - # 22
    frequency:   19.7061511160
  - # 23
    frequency:   26.7736243535
  - # 24
    frequency:   54.7094467032

- q-position: [    0.0606061,    0.0000000,    0.0000000 ]
  distance:    0.0212362
  band:
  - # 1
    frequency:   -2.2443194567
  - # 2
    frequency:   -1.9119180750
  - # 3
    frequency:   -0.1523424998
  - # 4
    frequency:    0.5889886613
  - # 5
    frequency:    0.8812290468
  - # 6
    frequency:    0.9519577697
  - # 7
    frequency:    1.2209983906
  - # 8
    frequency:    1.4028283996
  - # 9
    frequency:    2.9770450953
  - # 10
    frequency:    3.1235942329
  - # 11
    frequency:    4.7932322358
  - # 12
    frequency:    6.9463551007
  - # 13
    frequency:    7.7100274827
  - # 14
    frequency:    7.8202315380
  - # 15
    frequency:   11.6000358151
  - # 16
    frequency:   11.7663896498
  - # 17
    frequency:   12.6586327460
  - # 18
    frequency:   12.6735243326
  - # 19
    frequency:   14.0189670810
  - # 20
    frequency:   15.1390940354
  - # 21
    frequency:   15.1716454073
  - # 22
    frequency:   19.6867416314
  - # 23
    frequency:   26.7652494375
  - # 24
    frequency:   54.6907379976

- q-position: [    0.0656566,    0.0000000,    0.0000000 ]
  distance:    0.0230059
  band:
  - # 1
    frequency:   -2.3151530691
  - # 2
    frequency:   -1.9360798357
  - # 3
    frequency:   -0.1486637848
  - # 4
    frequency:    0.6432196583
  - # 5
    frequency:    0.9533458401
  - # 6
    frequency:    1.0008835678
  - # 7
    frequency:    1.2889188116
  - # 8
    frequency:    1.4387620605
  - # 9
    frequency:    2.9752725804
  - # 10
    frequency:    3.1446666145
  - # 11
    frequency:    4.7866719176
  - # 12
    frequency:    6.9308676422
  - # 13
    frequency:    7.7059631363
  - # 14
    frequency:    7.8345702184
  - # 15
    frequency:   11.5657546001
  - # 16
    frequency:   11.7608183873
  - # 17
    frequency:   12.6665500501
  - # 18
    frequency:   12.6833814433
  - # 19
    frequency:   14.0159327947
  - # 20
    frequency:   15.1298062451
  - # 21
    frequency:   15.1678288537
  - # 22
    frequency:   19.6660823602
  - # 23
    frequency:   26.7562637268
  - # 24
    frequency:   54.6705936792

- q-position: [    0.0707071,    0.0000000,    0.0000000 ]
  distance:    0.0247756
  band:
  - # 1
    frequency:   -2.3880909318
  - # 2
    frequency:   -1.9615254833
  - # 3
    frequency:   -0.1356024901
  - # 4
    frequency:    0.6978790755
  - # 5
    frequency:    1.0218530562
  - # 6
    frequency:    1.0502611125
  - # 7
    frequency:    1.3493171592
  - # 8
    frequency:    1.4863308430
  - # 9
    frequency:    2.9735729372
  - # 10
    frequency:    3.1668843718
  - # 11
    frequency:    4.7796698196
  - # 12
    frequency:    6.9142715548
  - # 13
    frequency:    7.7016574569
  - # 14
    frequency:    7.8498962583
  - # 15
    frequency:   11.5290029349
  - # 16
    frequency:   11.7549459096
  - # 17
    frequency:   12.6751139817
  - # 18
    frequency:   12.6938863373
  - # 19
    frequency:   14.0125594428
  - # 20
    frequency:   15.1199750902
  - # 21
    frequency:   15.1638652149
  - # 22
    frequency:   19.6442732772
  - # 23
    frequency:   26.7466953945
  - # 24
    frequency:   54.6490598197

- q-position: [    0.0757576,    0.0000000,    0.0000000 ]
  distance:    0.0265453
  band:
  - # 1
    frequency:   -2.4626537044
  - # 2
    frequency:   -1.9881146993
  - # 3
    frequency:   -0.1072020977
  - # 4
    frequency:    0.7528777938
  - # 5
    frequency:    1.0856952779
  - # 6
    frequency:    1.0998995388
  - # 7
    frequency:    1.4018447638
  - # 8
    frequency:    1.5464973174
  - # 9
    frequency:    2.9719900238
  - # 10
    frequency:    3.1901589645
  - # 11
    frequency:    4.7722417141
  - # 12
    frequency:    6.8965949475
  - # 13
    frequency:    7.6971298866
  - # 14
    frequency:    7.8661728136
  - # 15
    frequency:   11.4898689375
  - # 16
    frequency:   11.7488059046
  - # 17
    frequency:   12.6843085229
  - # 18
    frequency:   12.7050072273
  - # 19
    frequency:   14.0088279763
  - # 20
    frequency:   15.1096441998
  - # 21
    frequency:   15.1597963567
  - # 22
    frequency:   19.6214186907
  - # 23
    frequency:   26.7365743881
  - # 24
    frequency:   54.6261854937

- q-position: [    0.0808081,    0.0000000,    0.0000000 ]
  distance:    0.0283150
  band:
  - # 1
    frequency:   -2.5384046181
  - # 2
    frequency:   -2.0157036784
  - # 3
    frequency:   -0.0291601102
  - # 4
    frequency:    0.8081302013
  - # 5
    frequency:    1.1438459396
  - # 6
    frequency:    1.1496385245
  - # 7
    frequency:    1.4503655080
  - # 8
    frequency:    1.6160588993
  - # 9
    frequency:    2.9705689141
  - # 10
    frequency:    3.2144041937
  - # 11
    frequency:    4.7644035327
  - # 12
    frequency:    6.8778673469
  - # 13
    frequency:    7.6924012944
  - # 14
    frequency:    7.8833604612
  - # 15
    frequency:   11.4484529965
  - # 16
    frequency:   11.7424345056
  - # 17
    frequency:   12.6941130914
  - # 18
    frequency:   12.7167103554
  - # 19
    frequency:   14.0047191477
  - # 20
    frequency:   15.0988595454
  - # 21
    frequency:   15.1556686553
  - # 22
    frequency:   19.5976264803
  - # 23
    frequency:   26.7259323186
  - # 24
    frequency:   54.6020226273

- q-position: [    0.0858586,    0.0000000,    0.0000000 ]
  distance:    0.0300847
  band:
  - # 1
    frequency:   -2.6149470786
  - # 2
    frequency:   -2.0441468541
  - # 3
    frequency:    0.1186553491
  - # 4
    frequency:    0.8635540265
  - # 5
    frequency:    1.1955852592
  - # 6
    frequency:    1.1993424359
  - # 7
    frequency:    1.4992993069
  - # 8
    frequency:    1.6910085445
  - # 9
    frequency:    2.9693555006
  - # 10
    frequency:    3.2395366236
  - # 11
    frequency:    4.7561712832
  - # 12
    frequency:    6.8581196290
  - # 13
    frequency:    7.6874939501
  - # 14
    frequency:    7.9014172683
  - # 15
    frequency:   11.4048680708
  - # 16
    frequency:   11.7358702164
  - # 17
    frequency:   12.7045027144
  - # 18
    frequency:   12.7289601132
  - # 19
    frequency:   14.0002138024
  - # 20
    frequency:   15.0876692601
  - # 21
    frequency:   15.1515330385
  - # 22
    frequency:   19.5730073125
  - # 23
    frequency:   26.7148023411
  - # 24
    frequency:   54.5766258382

- q-position: [    0.0909091,    0.0000000,    0.0000000 ]
  distance:    0.0318543
  band:
  - # 1
    frequency:   -2.6919214183
  - # 2
    frequency:   -2.0732984697
  - # 3
    frequency:    0.1838702127
  - # 4
    frequency:    0.9190700319
  - # 5
    frequency:    1.2408078654
  - # 6
    frequency:    1.2488958567
  - # 7
    frequency:    1.5510733439
  - # 8
    frequency:    1.7687618488
  - # 9
    frequency:    2.9683960853
  - # 10
    frequency:    3.2654758086
  - # 11
    frequency:    4.7475610157
  - # 12
    frequency:    6.8373839852
  - # 13
    frequency:    7.6824314886
  - # 14
    frequency:    7.9202988701
  - # 15
    frequency:   11.3592399473
  - # 16
    frequency:   11.7291538187
  - # 17
    frequency:   12.7154482352
  - # 18
    frequency:   12.7417191729
  - # 19
    frequency:   13.9952932024
  - # 20
    frequency:   15.0761234487
  - # 21
    frequency:   15.1474449535
  - # 22
    frequency:   19.5476738420
  - # 23
    frequency:   26.7032190272
  - # 24
    frequency:   54.5500522669

- q-position: [    0.0959596,    0.0000000,    0.0000000 ]
  distance:    0.0336240
  band:
  - # 1
    frequency:   -2.7690013497
  - # 2
    frequency:   -2.1030139582
  - # 3
    frequency:    0.2425184154
  - # 4
    frequency:    0.9746016160
  - # 5
    frequency:    1.2801106543
  - # 6
    frequency:    1.2982001825
  - # 7
    frequency:    1.6062517827
  - # 8
    frequency:    1.8479286162
  - # 9
    frequency:    2.9677369620
  - # 10
    frequency:    3.2921443403
  - # 11
    frequency:    4.7385888510
  - # 12
    frequency:    6.8156939311
  - # 13
    frequency:    7.6772388639
  - # 14
    frequency:    7.9399585526
  - # 15
    frequency:   11.3117074620
  - # 16
    frequency:   11.7223282629
  - # 17
    frequency:   12.7269165313
  - # 18
    frequency:   12.7549486275
  - # 19
    frequency:   13.9899393834
  - # 20
    frequency:   15.0642739908
  - # 21
    frequency:   15.1434642574
  - # 22
    frequency:   19.5217399070
  - # 23
    frequency:   26.6912182309
  - # 24
    frequency:   54.5223614004

- q-position: [    0.1010101,    0.0000000,    0.0000000 ]
  distance:    0.0353937
  band:
  - # 1
    frequency:   -2.8458904555
  - # 2
    frequency:   -2.1331511111
  - # 3
    frequency:    0.2992306435
  - # 4
    frequency:    1.0300743535
  - # 5
    frequency:    1.3145603403
  - # 6
    frequency:    1.3471710343
  - # 7
    frequency:    1.6643177379
  - # 8
    frequency:    1.9277550377
  - # 9
    frequency:    2.9674239945
  - # 10
    frequency:    3.3194677223
  - # 11
    frequency:    4.7292710927
  - # 12
    frequency:    6.7930843669
  - # 13
    frequency:    7.6719422927
  - # 14
    frequency:    7.9603473415
  - # 15
    frequency:   11.2624226802
  - # 16
    frequency:   11.7154385422
  - # 17
    frequency:   12.7388707283
  - # 18
    frequency:   12.7686081383
  - # 19
    frequency:   13.9841355437
  - # 20
    frequency:   15.0521743371
  - # 21
    frequency:   15.1396550260
  - # 22
    frequency:   19.4953197266
  - # 23
    frequency:   26.6788369459
  - # 24
    frequency:   54.4936148882

- q-position: [    0.1060606,    0.0000000,    0.0000000 ]
  distance:    0.0371634
  band:
  - # 1
    frequency:   -2.9223189021
  - # 2
    frequency:   -2.1635710367
  - # 3
    frequency:    0.3554938982
  - # 4
    frequency:    1.0854154960
  - # 5
    frequency:    1.3453375233
  - # 6
    frequency:    1.3957363032
  - # 7
    frequency:    1.7243418936
  - # 8
    frequency:    2.0078047604
  - # 9
    frequency:    2.9675021946
  - # 10
    frequency:    3.3473740821
  - # 11
    frequency:    4.7196244417
  - # 12
    frequency:    6.7695916966
  - # 13
    frequency:    7.6665691855
  - # 14
    frequency:    7.9814140948
  - # 15
    frequency:   11.2115510190
  - # 16
    frequency:   11.7085315499
  - # 17
    frequency:   12.7512704005
  - # 18
    frequency:   12.7826560881
  - # 19
    frequency:   13.9778664612
  - # 20
    frequency:   15.0398793004
  - # 21
    frequency:   15.1360852775
  - # 22
    frequency:   19.4685271098
  - # 23
    frequency:   26.6661131574
  - # 24
    frequency:   54.4638763520

- q-position: [    0.1111111,    0.0000000,    0.0000000 ]
  distance:    0.0389331
  band:
  - # 1
    frequency:   -2.9980404653
  - # 2
    frequency:   -2.1941389183
  - # 3
    frequency:    0.4119173010
  - # 4
    frequency:    1.1405534500
  - # 5
    frequency:    1.3734892097
  - # 6
    frequency:    1.4438346864
  - # 7
    frequency:    1.7853779729
  - # 8
    frequency:    2.0878062942
  - # 9
    frequency:    2.9680153059
  - # 10
    frequency:    3.3757937221
  - # 11
    frequency:    4.7096663407
  - # 12
    frequency:    6.7452540137
  - # 13
    frequency:    7.6611480644
  - # 14
    frequency:    8.0031055995
  - # 15
    frequency:   11.1592712941
  - # 16
    frequency:   11.7016559213
  - # 17
    frequency:   12.7640717556
  - # 18
    frequency:   12.7970497363
  - # 19
    frequency:   13.9711189315
  - # 20
    frequency:   15.0274448429
  - # 21
    frequency:   15.1328266165
  - # 22
    frequency:   19.4414746842
  - # 23
    frequency:   26.6530856865
  - # 24
    frequency:   54.4332111892

- q-position: [    0.1161616,    0.0000000,    0.0000000 ]
  distance:    0.0407028
  band:
  - # 1
    frequency:   -3.0728298950
  - # 2
    frequency:   -2.2247245905
  - # 3
    frequency:    0.4687632129
  - # 4
    frequency:    1.1954172435
  - # 5
    frequency:    1.3998411565
  - # 6
    frequency:    1.4914146073
  - # 7
    frequency:    1.8466205155
  - # 8
    frequency:    2.1675796102
  - # 9
    frequency:    2.9690053976
  - # 10
    frequency:    3.4046585141
  - # 11
    frequency:    4.6994154760
  - # 12
    frequency:    6.7201113566
  - # 13
    frequency:    7.6557084679
  - # 14
    frequency:    8.0253666711
  - # 15
    frequency:   11.1057756632
  - # 16
    frequency:   11.6948618594
  - # 17
    frequency:   12.7772278033
  - # 18
    frequency:   12.8117453769
  - # 19
    frequency:   13.9638822176
  - # 20
    frequency:   15.0149278610
  - # 21
    frequency:   15.1299538011
  - # 22
    frequency:   19.4142731527
  - # 23
    frequency:   26.6397940303
  - # 24
    frequency:   54.4016863707

- q-position: [    0.1212121,    0.0000000,    0.0000000 ]
  distance:    0.0424725
  band:
  - # 1
    frequency:   -3.1464806154
  - # 2
    frequency:   -2.2552029573
  - # 3
    frequency:    0.5261293819
  - # 4
    frequency:    1.2499359891
  - # 5
    frequency:    1.4250072992
  - # 6
    frequency:    1.5384334432
  - # 7
    frequency:    1.9074305634
  - # 8
    frequency:    2.2469988290
  - # 9
    frequency:    2.9705124749
  - # 10
    frequency:    3.4339011330
  - # 11
    frequency:    4.6888924696
  - # 12
    frequency:    6.6942060368
  - # 13
    frequency:    7.6502808419
  - # 14
    frequency:    8.0481402535
  - # 15
    frequency:   11.0512694345
  - # 16
    frequency:   11.6882009450
  - # 17
    frequency:   12.7906885124
  - # 18
    frequency:   12.8266984945
  - # 19
    frequency:   13.9561484996
  - # 20
    frequency:   15.0023859684
  - # 21
    frequency:   15.1275442432
  - # 22
    frequency:   19.3870305860
  - # 23
    frequency:   26.6262781957
  - # 24
    frequency:   54.3693702341

- q-position: [    0.1262626,    0.0000000,    0.0000000 ]
  distance:    0.0442421
  band:
  - # 1
    frequency:   -3.2188027350
  - # 2
    frequency:   -2.2854542757
  - # 3
    frequency:    0.5840252997
  - # 4
    frequency:    1.3040383504
  - # 5
    frequency:    1.4494325393
  - # 6
    frequency:    1.5848569957
  - # 7
    frequency:    1.9673119027
  - # 8
    frequency:    2.3259718965
  - # 9
    frequency:    2.9725741102
  - # 10
    frequency:    3.4634541332
  - # 11
    frequency:    4.6781207966
  - # 12
    frequency:    6.6675830379
  - # 13
    frequency:    7.6448964148
  - # 14
    frequency:    8.0713675211
  - # 15
    frequency:   10.9959707108
  - # 16
    frequency:   11.6817259325
  - # 17
    frequency:   12.8044009627
  - # 18
    frequency:   12.8418639193
  - # 19
    frequency:   13.9479133081
  - # 20
    frequency:   14.9898772796
  - # 21
    frequency:   15.1256774538
  - # 22
    frequency:   19.3598517565
  - # 23
    frequency:   26.6125785301
  - # 24
    frequency:   54.3363322727

- q-position: [    0.1313131,    0.0000000,    0.0000000 ]
  distance:    0.0460118
  band:
  - # 1
    frequency:   -3.2896213364
  - # 2
    frequency:   -2.3153643287
  - # 3
    frequency:    0.6424083699
  - # 4
    frequency:    1.3576520154
  - # 5
    frequency:    1.4734368318
  - # 6
    frequency:    1.6306591584
  - # 7
    frequency:    2.0258783565
  - # 8
    frequency:    2.4044286839
  - # 9
    frequency:    2.9752251030
  - # 10
    frequency:    3.4932488665
  - # 11
    frequency:    4.6671279636
  - # 12
    frequency:    6.6402904790
  - # 13
    frequency:    7.6395870602
  - # 14
    frequency:    8.0949879790
  - # 15
    frequency:   10.9401098343
  - # 16
    frequency:   11.6754905302
  - # 17
    frequency:   12.8183094984
  - # 18
    frequency:   12.8571959778
  - # 19
    frequency:   13.9391759250
  - # 20
    frequency:   14.9774601949
  - # 21
    frequency:   15.1244344476
  - # 22
    frequency:   19.3328375214
  - # 23
    frequency:   26.5987355484
  - # 24
    frequency:   54.3026429215

- q-position: [    0.1363636,    0.0000000,    0.0000000 ]
  distance:    0.0477815
  band:
  - # 1
    frequency:   -3.3587750122
  - # 2
    frequency:   -2.3448245096
  - # 3
    frequency:    0.7012023321
  - # 4
    frequency:    1.4107031843
  - # 5
    frequency:    1.4972504596
  - # 6
    frequency:    1.6758217373
  - # 7