nqpoint: 300    
npath: 3      
segment_nqpoint:
- 100
- 100
- 100
labels:
- [ 'G', 'M' ]
- [ 'M', 'K' ]
- [ 'K', 'G' ]
reciprocal_lattice:
- [   0.29266625,   0.16897094,   0.00000000 ] # a*
- [   0.00000000,   0.33794188,   0.00000000 ] # b*
- [   0.00000000,   0.00000000,   0.04185516 ] # c*
natom: 5      
lattice:
- [     3.416861337599827,     0.000000000000000,     0.000000000000000 ] # a
- [    -1.708430668799913,     2.959088719566942,     0.000000000000000 ] # b
- [     0.000000000000000,     0.000000000000000,    23.891914593578573 ] # c
points:
- symbol: Br # 1
  coordinates: [  0.666666984744047,  0.333332985985145,  0.376696474648329 ]
  mass: 79.904000
- symbol: Cl # 2
  coordinates: [  0.333332985432215,  0.666666983183674,  0.623303525351671 ]
  mass: 35.453000
- symbol: N # 3
  coordinates: [  0.000000000000000,  0.000000000000000,  0.503926947014756 ]
  mass: 14.006700
- symbol: Sc # 4
  coordinates: [  0.333332985432215,  0.666666983183674,  0.454550294545876 ]
  mass: 44.955912
- symbol: Sc # 5
  coordinates: [  0.666666984744047,  0.333332985985145,  0.553217756075919 ]
  mass: 44.955912

phonon:
- q-position: [    0.0000000,    0.0000000,    0.0000000 ]
  distance:    0.0000000
  band:
  - # 1
    frequency:   -0.0000096568
  - # 2
    frequency:    0.0000001740
  - # 3
    frequency:    0.0000082765
  - # 4
    frequency:    3.2669221398
  - # 5
    frequency:    3.2669221399
  - # 6
    frequency:    4.6119789928
  - # 7
    frequency:    5.5019528943
  - # 8
    frequency:    5.5019528944
  - # 9
    frequency:    6.6826526269
  - # 10
    frequency:    6.6826526269
  - # 11
    frequency:    8.5030653031
  - # 12
    frequency:   11.2983041195
  - # 13
    frequency:   12.4318754526
  - # 14
    frequency:   12.4318754526
  - # 15
    frequency:   12.7387235771

- q-position: [    0.0050505,    0.0000000,    0.0000000 ]
  distance:    0.0017068
  band:
  - # 1
    frequency:    0.0018414447
  - # 2
    frequency:    0.0534433709
  - # 3
    frequency:    0.0545248559
  - # 4
    frequency:    3.2674212999
  - # 5
    frequency:    3.2687674169
  - # 6
    frequency:    4.6112692334
  - # 7
    frequency:    5.5020303940
  - # 8
    frequency:    5.5025390754
  - # 9
    frequency:    6.6831068656
  - # 10
    frequency:    6.6831163591
  - # 11
    frequency:    8.5027993617
  - # 12
    frequency:   11.2966621625
  - # 13
    frequency:   12.4300393018
  - # 14
    frequency:   12.4319497541
  - # 15
    frequency:   12.7387598063

- q-position: [    0.0101010,    0.0000000,    0.0000000 ]
  distance:    0.0034136
  band:
  - # 1
    frequency:    0.0073499667
  - # 2
    frequency:    0.1069074111
  - # 3
    frequency:    0.1093153415
  - # 4
    frequency:    3.2689174147
  - # 5
    frequency:    3.2742840534
  - # 6
    frequency:    4.6091473094
  - # 7
    frequency:    5.5022626046
  - # 8
    frequency:    5.5042989342
  - # 9
    frequency:    6.6844603796
  - # 10
    frequency:    6.6845051244
  - # 11
    frequency:    8.5020042437
  - # 12
    frequency:   11.2917338364
  - # 13
    frequency:   12.4245408070
  - # 14
    frequency:   12.4321710078
  - # 15
    frequency:   12.7388647958

- q-position: [    0.0151515,    0.0000000,    0.0000000 ]
  distance:    0.0051203
  band:
  - # 1
    frequency:    0.0164786628
  - # 2
    frequency:    0.1604126967
  - # 3
    frequency:    0.1646312671
  - # 4
    frequency:    3.2714063923
  - # 5
    frequency:    3.2834151505
  - # 6
    frequency:    4.6056351928
  - # 7
    frequency:    5.5026486691
  - # 8
    frequency:    5.5072361924
  - # 9
    frequency:    6.6866858530
  - # 10
    frequency:    6.6868116461
  - # 11
    frequency:    8.5006880395
  - # 12
    frequency:   11.2835117861
  - # 13
    frequency:   12.4154094399
  - # 14
    frequency:   12.4325342668
  - # 15
    frequency:   12.7390278773

- q-position: [    0.0202020,    0.0000000,    0.0000000 ]
  distance:    0.0068271
  band:
  - # 1
    frequency:    0.0291523268
  - # 2
    frequency:    0.2139796111
  - # 3
    frequency:    0.2207210044
  - # 4
    frequency:    3.2748814294
  - # 5
    frequency:    3.2960680976
  - # 6
    frequency:    4.6007692016
  - # 7
    frequency:    5.5031871829
  - # 8
    frequency:    5.5113563255
  - # 9
    frequency:    6.6897387124
  - # 10
    frequency:    6.6900238567
  - # 11
    frequency:    8.4988641391
  - # 12
    frequency:   11.2719837879
  - # 13
    frequency:   12.4026931172
  - # 14
    frequency:   12.4330313001
  - # 15
    frequency:   12.7392325519

- q-position: [    0.0252525,    0.0000000,    0.0000000 ]
  distance:    0.0085339
  band:
  - # 1
    frequency:    0.0452714467
  - # 2
    frequency:    0.2676282409
  - # 3
    frequency:    0.2778162499
  - # 4
    frequency:    3.2793330351
  - # 5
    frequency:    3.3121176936
  - # 6
    frequency:    4.5945995366
  - # 7
    frequency:    5.5038762295
  - # 8
    frequency:    5.5166655458
  - # 9
    frequency:    6.6935584967
  - # 10
    frequency:    6.6941249873
  - # 11
    frequency:    8.4965510892
  - # 12
    frequency:   11.2571328174
  - # 13
    frequency:   12.3864567965
  - # 14
    frequency:   12.4336506159
  - # 15
    frequency:   12.7394579978

- q-position: [    0.0303030,    0.0000000,    0.0000000 ]
  distance:    0.0102407
  band:
  - # 1
    frequency:    0.0647172559
  - # 2
    frequency:    0.3213782618
  - # 3
    frequency:    0.3361273620
  - # 4
    frequency:    3.2847490669
  - # 5
    frequency:    3.3314101293
  - # 6
    frequency:    4.5871896239
  - # 7
    frequency:    5.5047134284
  - # 8
    frequency:    5.5231695158
  - # 9
    frequency:    6.6980706656
  - # 10
    frequency:    6.6990936930
  - # 11
    frequency:    8.4937723873
  - # 12
    frequency:   11.2389371738
  - # 13
    frequency:   12.3667811071
  - # 14
    frequency:   12.4343774914
  - # 15
    frequency:   12.7396805612

- q-position: [    0.0353535,    0.0000000,    0.0000000 ]
  distance:    0.0119474
  band:
  - # 1
    frequency:    0.0873573130
  - # 2
    frequency:    0.3752488115
  - # 3
    frequency:    0.3958394311
  - # 4
    frequency:    3.2911147762
  - # 5
    frequency:    3.3537675114
  - # 6
    frequency:    4.5786152632
  - # 7
    frequency:    5.5056959941
  - # 8
    frequency:    5.5308718972
  - # 9
    frequency:    6.7031887520
  - # 10
    frequency:    6.7049042127
  - # 11
    frequency:    8.4905562094
  - # 12
    frequency:   11.2173706917
  - # 13
    frequency:   12.3437612710
  - # 14
    frequency:   12.4351940136
  - # 15
    frequency:   12.7398749451

- q-position: [    0.0404040,    0.0000000,    0.0000000 ]
  distance:    0.0136542
  band:
  - # 1
    frequency:    0.1130511149
  - # 2
    frequency:    0.4292583505
  - # 3
    frequency:    0.4571092182
  - # 4
    frequency:    3.2984128662
  - # 5
    frequency:    3.3789925944
  - # 6
    frequency:    4.5689635996
  - # 7
    frequency:    5.5068208043
  - # 8
    frequency:    5.5397728411
  - # 9
    frequency:    6.7088167552
  - # 10
    frequency:    6.7115265631
  - # 11
    frequency:    8.4869350641
  - # 12
    frequency:   11.1924030805
  - # 13
    frequency:   12.3175063929
  - # 14
    frequency:   12.4360791277
  - # 15
    frequency:   12.7400149834

- q-position: [    0.0454545,    0.0000000,    0.0000000 ]
  distance:    0.0153610
  band:
  - # 1
    frequency:    0.1416552975
  - # 2
    frequency:    0.4834245076
  - # 3
    frequency:    0.5200630421
  - # 4
    frequency:    3.3066235622
  - # 5
    frequency:    3.4068734100
  - # 6
    frequency:    4.5583319552
  - # 7
    frequency:    5.5080844765
  - # 8
    frequency:    5.5498675080
  - # 9
    frequency:    6.7148516776
  - # 10
    frequency:    6.7189267653
  - # 11
    frequency:    8.4829453667
  - # 12
    frequency:   11.1640004420
  - # 13
    frequency:   12.2881390484
  - # 14
    frequency:   12.4370086961
  - # 15
    frequency:   12.7400740293

- q-position: [    0.0505051,    0.0000000,    0.0000000 ]
  distance:    0.0170678
  band:
  - # 1
    frequency:    0.1730280820
  - # 2
    frequency:    0.5377639130
  - # 3
    frequency:    0.5847956444
  - # 4
    frequency:    3.3157246943
  - # 5
    frequency:    3.4371875299
  - # 6
    frequency:    4.5468265766
  - # 7
    frequency:    5.5094834493
  - # 8
    frequency:    5.5611446774
  - # 9
    frequency:    6.7211861121
  - # 10
    frequency:    6.7270671026
  - # 11
    frequency:    8.4786269255
  - # 12
    frequency:   11.1321260245
  - # 13
    frequency:   12.2557950117
  - # 14
    frequency:   12.4379555653
  - # 15
    frequency:   12.7400250646

- q-position: [    0.0555556,    0.0000000,    0.0000000 ]
  distance:    0.0187745
  band:
  - # 1
    frequency:    0.2070327493
  - # 2
    frequency:    0.5922920186
  - # 3
    frequency:    0.6513699905
  - # 4
    frequency:    3.3256917928
  - # 5
    frequency:    3.4697057564
  - # 6
    frequency:    4.5345613760
  - # 7
    frequency:    5.5110140679
  - # 8
    frequency:    5.5735854823
  - # 9
    frequency:    6.7277108086
  - # 10
    frequency:    6.7359064071
  - # 11
    frequency:    8.4740223322
  - # 12
    frequency:   11.0967412801
  - # 13
    frequency:   12.2206229434
  - # 14
    frequency:   12.4388896438
  - # 15
    frequency:   12.7398406553

- q-position: [    0.0606061,    0.0000000,    0.0000000 ]
  distance:    0.0204813
  band:
  - # 1
    frequency:    0.2435400550
  - # 2
    frequency:    0.6470229082
  - # 3
    frequency:    0.7198179107
  - # 4
    frequency:    3.3364981969
  - # 5
    frequency:    3.5041950911
  - # 6
    frequency:    4.5216567594
  - # 7
    frequency:    5.5126726723
  - # 8
    frequency:    5.5871622731
  - # 9
    frequency:    6.7343171612
  - # 10
    frequency:    6.7454003732
  - # 11
    frequency:    8.4691762475
  - # 12
    frequency:   11.0578072942
  - # 13
    frequency:   12.1827838794
  - # 14
    frequency:   12.4397779886
  - # 15
    frequency:   12.7394928560

- q-position: [    0.0656566,    0.0000000,    0.0000000 ]
  distance:    0.0221881
  band:
  - # 1
    frequency:    0.2824296133
  - # 2
    frequency:    0.7019691008
  - # 3
    frequency:    0.7901414334
  - # 4
    frequency:    3.3481151749
  - # 5
    frequency:    3.5404208836
  - # 6
    frequency:    4.5082386516
  - # 7
    frequency:    5.5144556853
  - # 8
    frequency:    5.6018375946
  - # 9
    frequency:    6.7408995789
  - # 10
    frequency:    6.7555018939
  - # 11
    frequency:    8.4641345746
  - # 12
    frequency:   11.0152866565
  - # 13
    frequency:   12.1424503988
  - # 14
    frequency:   12.4405849027
  - # 15
    frequency:   12.7389531325

- q-position: [    0.0707071,    0.0000000,    0.0000000 ]
  distance:    0.0238949
  band:
  - # 1
    frequency:    0.3235903644
  - # 2
    frequency:    0.7571413507
  - # 3
    frequency:    0.8623146352
  - # 4
    frequency:    3.3605120570
  - # 5
    frequency:    3.5781480873
  - # 6
    frequency:    4.4944378426
  - # 7
    frequency:    5.5163597008
  - # 8
    frequency:    5.6175632438
  - # 9
    frequency:    6.7473577166
  - # 10
    frequency:    6.7661614177
  - # 11
    frequency:    8.4589435119
  - # 12
    frequency:   10.9691458326
  - # 13
    frequency:   12.0998053932
  - # 14
    frequency:   12.4412720417
  - # 15
    frequency:   12.7381923411

- q-position: [    0.0757576,    0.0000000,    0.0000000 ]
  distance:    0.0256017
  band:
  - # 1
    frequency:    0.3669202943
  - # 2
    frequency:    0.8125484479
  - # 3
    frequency:    0.9362858212
  - # 4
    frequency:    3.3736563781
  - # 5
    frequency:    3.6171415600
  - # 6
    frequency:    4.4803898019
  - # 7
    frequency:    5.5183815701
  - # 8
    frequency:    5.6342793712
  - # 9
    frequency:    6.7535985554
  - # 10
    frequency:    6.7773273212
  - # 11
    frequency:    8.4536484789
  - # 12
    frequency:   10.9193580812
  - # 13
    frequency:   12.0550404037
  - # 14
    frequency:   12.4417985316
  - # 15
    frequency:   12.7371807763

- q-position: [    0.0808081,    0.0000000,    0.0000000 ]
  distance:    0.0273084
  band:
  - # 1
    frequency:    0.4123255972
  - # 2
    frequency:    0.8681970233
  - # 3
    frequency:    1.0119798571
  - # 4
    frequency:    3.3875140297
  - # 5
    frequency:    3.6571653227
  - # 6
    frequency:    4.4662351385
  - # 7
    frequency:    5.5205184869
  - # 8
    frequency:    5.6519135843
  - # 9
    frequency:    6.7595383287
  - # 10
    frequency:    6.7889462929
  - # 11
    frequency:    8.4482929085
  - # 12
    frequency:   10.8659069370
  - # 13
    frequency:   12.0083535348
  - # 14
    frequency:   12.4421210965
  - # 15
    frequency:   12.7358882887

- q-position: [    0.0858586,    0.0000000,    0.0000000 ]
  distance:    0.0290152
  band:
  - # 1
    frequency:    0.4597194703
  - # 2
    frequency:    0.9240913629
  - # 3
    frequency:    1.0893004984
  - # 4
    frequency:    3.4020494199
  - # 5
    frequency:    3.6979806362
  - # 6
    frequency:    4.4521209388
  - # 7
    frequency:    5.5227680687
  - # 8
    frequency:    5.6703800196
  - # 9
    frequency:    6.7651042922
  - # 10
    frequency:    6.8009637255
  - # 11
    frequency:    8.4429169012
  - # 12
    frequency:   10.8087902471
  - # 13
    frequency:   11.9599469999
  - # 14
    frequency:   12.4421941972
  - # 15
    frequency:   12.7342844624

- q-position: [    0.0909091,    0.0000000,    0.0000000 ]
  distance:    0.0307220
  band:
  - # 1
    frequency:    0.5090207049
  - # 2
    frequency:    0.9802332360
  - # 3
    frequency:    1.1681325876
  - # 4
    frequency:    3.4172256385
  - # 5
    frequency:    3.7393426551
  - # 6
    frequency:    4.4382033057
  - # 7
    frequency:    5.5251284366
  - # 8
    frequency:    5.6895783563
  - # 9
    frequency:    6.7702363322
  - # 10
    frequency:    6.8133241089
  - # 11
    frequency:    8.4375557358
  - # 12
    frequency:   10.7480247189
  - # 13
    frequency:   11.9100243951
  - # 14
    frequency:   12.4419701810
  - # 15
    frequency:   12.7323388416

- q-position: [    0.0959596,    0.0000000,    0.0000000 ]
  distance:    0.0324288
  band:
  - # 1
    frequency:    0.5601522108
  - # 2
    frequency:    1.0366217398
  - # 3
    frequency:    1.2483440281
  - # 4
    frequency:    3.4330046266
  - # 5
    frequency:    3.7809952630
  - # 6
    frequency:    4.4246515602
  - # 7
    frequency:    5.5275982918
  - # 8
    frequency:    5.7093927621
  - # 9
    frequency:    6.7748883979
  - # 10
    frequency:    6.8259714226
  - # 11
    frequency:    8.4322382329
  - # 12
    frequency:   10.6836509036
  - # 13
    frequency:   11.8587878380
  - # 14
    frequency:   12.4413994412
  - # 15
    frequency:   12.7300211925

- q-position: [    0.1010101,    0.0000000,    0.0000000 ]
  distance:    0.0341355
  band:
  - # 1
    frequency:    0.6130395729
  - # 2
    frequency:    1.0932531651
  - # 3
    frequency:    1.3297874675
  - # 4
    frequency:    3.4493473475
  - # 5
    frequency:    3.8226634631
  - # 6
    frequency:    4.4116547836
  - # 7
    frequency:    5.5301769896
  - # 8
    frequency:    5.7296907752
  - # 9
    frequency:    6.7790297273
  - # 10
    frequency:    6.8388495194
  - # 11
    frequency:    8.4269849647
  - # 12
    frequency:   10.6157385207
  - # 13
    frequency:   11.8064351362
  - # 14
    frequency:   12.4404305889
  - # 15
    frequency:   12.7273017905

- q-position: [    0.1060606,    0.0000000,    0.0000000 ]
  distance:    0.0358423
  band:
  - # 1
    frequency:    0.6676097098
  - # 2
    frequency:    1.1501208857
  - # 3
    frequency:    1.4123016533
  - # 4
    frequency:    3.4662139578
  - # 5
    frequency:    3.8640423857
  - # 6
    frequency:    4.3994316724
  - # 7
    frequency:    5.5328646104
  - # 8
    frequency:    5.7503221543
  - # 9
    frequency:    6.7826458186
  - # 10
    frequency:    6.8519024991
  - # 11
    frequency:    8.4218063050
  - # 12
    frequency:   10.5443920219
  - # 13
    frequency:   11.7531571623
  - # 14
    frequency:   12.4390106348
  - # 15
    frequency:   12.7241517213

- q-position: [    0.1111111,    0.0000000,    0.0000000 ]
  distance:    0.0375491
  band:
  - # 1
    frequency:    0.7237896722
  - # 2
    frequency:    1.2072152732
  - # 3
    frequency:    1.4957124357
  - # 4
    frequency:    3.4835639776
  - # 5
    frequency:    3.9047816194
  - # 6
    frequency:    4.3882450181
  - # 7
    frequency:    5.5356620286
  - # 8
    frequency:    5.7711177557
  - # 9
    frequency:    6.7857390663
  - # 10
    frequency:    6.8650750652
  - # 11
    frequency:    8.4167003072
  - # 12
    frequency:   10.4697563091
  - # 13
    frequency:   11.6991356069
  - # 14
    frequency:   12.4370851815
  - # 15
    frequency:   12.7205431867

- q-position: [    0.1161616,    0.0000000,    0.0000000 ]
  distance:    0.0392559
  band:
  - # 1
    frequency:    0.7815055988
  - # 2
    frequency:    1.2645236395
  - # 3
    frequency:    1.5798334096
  - # 4
    frequency:    3.5013564561
  - # 5
    frequency:    3.9444634131
  - # 6
    frequency:    4.3784222707
  - # 7
    frequency:    5.5385709784
  - # 8
    frequency:    5.7918885359
  - # 9
    frequency:    6.7883289541
  - # 10
    frequency:    6.8783128621
  - # 11
    frequency:    8.4116504003
  - # 12
    frequency:   10.3920225525
  - # 13
    frequency:   11.6445412479
  - # 14
    frequency:   12.4345986275
  - # 15
    frequency:   12.7164498081

- q-position: [    0.1212121,    0.0000000,    0.0000000 ]
  distance:    0.0409627
  band:
  - # 1
    frequency:    0.8406818303
  - # 2
    frequency:    1.3220302079
  - # 3
    frequency:    1.6644661860
  - # 4
    frequency:    3.5195501348
  - # 5
    frequency:    3.9825740959
  - # 6
    frequency:    4.3703828325
  - # 7
    frequency:    5.5415941165
  - # 8
    frequency:    5.8124248292
  - # 9
    frequency:    6.7904516519
  - # 10
    frequency:    6.8915627893
  - # 11
    frequency:    8.4066228888
  - # 12
    frequency:   10.3114341003
  - # 13
    frequency:   11.5895328329
  - # 14
    frequency:   12.4314943800
  - # 15
    frequency:   12.7118469202

- q-position: [    0.1262626,    0.0000000,    0.0000000 ]
  distance:    0.0426694
  band:
  - # 1
    frequency:    0.9012401660
  - # 2
    frequency:    1.3797161126
  - # 3
    frequency:    1.7494002862
  - # 4
    frequency:    3.5381036040
  - # 5
    frequency:    4.0184719763
  - # 6
    frequency:    4.3646688084
  - # 7
    frequency:    5.5447350817
  - # 8
    frequency:    5.8324961034
  - # 9
    frequency:    6.7921588241
  - # 10
    frequency:    6.9047732891
  - # 11
    frequency:    8.4015642510
  - # 12
    frequency:   10.2282925144
  - # 13
    frequency:   11.5342566095
  - # 14
    frequency:   12.4277150788
  - # 15
    frequency:   12.7067118506

- q-position: [    0.1313131,    0.0000000,    0.0000000 ]
  distance:    0.0443762
  band:
  - # 1
    frequency:    0.9630992446
  - # 2
    frequency:    1.4375594265
  - # 3
    frequency:    1.8344126421
  - # 4
    frequency:    3.5569754548
  - # 5
    frequency:    4.0513665052
  - # 6
    frequency:    4.3619644020
  - # 7
    frequency:    5.5479985501
  - # 8
    frequency:    5.8518514663
  - # 9
    frequency:    6.7935154177
  - # 10
    frequency:    6.9178946053
  - # 11
    frequency:    8.3963982503
  - # 12
    frequency:   10.1429637869
  - # 13
    frequency:   11.4788464823
  - # 14
    frequency:   12.4232028290
  - # 15
    frequency:   12.7010241777

- q-position: [    0.1363636,    0.0000000,    0.0000000 ]
  distance:    0.0460830
  band:
  - # 1
    frequency:    1.0261740203
  - # 2
    frequency:    1.4955352171
  - # 3
    frequency:    1.9192666776
  - # 4
    frequency:    3.5761244256
  - # 5
    frequency:    4.0803474179
  - # 6
    frequency:    4.3630652196
  - # 7
    frequency:    5.5513902845
  - # 8
    frequency:    5.8702212544
  - # 9
    frequency:    6.7945961737
  - # 10
    frequency:    6.9308790123
  - # 11
    frequency:    8.3910229253
  - # 12
    frequency:   10.0558847668
  - # 13
    frequency:   11.4234247257
  - # 14
    frequency:   12.4178994426
  - # 15
    frequency:   12.6947659648

- q-position: [    0.1414141,    0.0000000,    0.0000000 ]
  distance:    0.0477898
  band:
  - # 1
    frequency:    1.0903753017
  - # 2
    frequency:    1.5536156279
  - # 3
    frequency:    2.0037109305
  - # 4
    frequency:    3.5955095427
  - # 5
    frequency:    4.1045274099
  - # 6
    frequency:    4.3687338931
  - # 7
    frequency:    5.5549171785
  - # 8
    frequency:    5.8873200829
  - # 9
    frequency:    6.7954806196
  - # 10
    frequency:    6.9436810109
  - # 11
    frequency:    8.3853076200
  - # 12
    frequency:    9.9675697148
  - # 13
    frequency:   11.3681031433
  - # 14
    frequency:   12.4117466886
  - # 15
    frequency:   12.6879219662

- q-position: [    0.1464646,    0.0000000,    0.0000000 ]
  distance:    0.0494965
  band:
  - # 1
    frequency:    1.1556093174
  - # 2
    frequency:    1.6117699854
  - # 3
    frequency:    2.0874771586
  - # 4
    frequency:    3.6150902570
  - # 5
    frequency:    4.1233272282
  - # 6
    frequency:    4.3794131154
  - # 7
    frequency:    5.5585872911
  - # 8
    frequency:    5.9028517431
  - # 9
    frequency:    6.7962463764
  - # 10
    frequency:    6.9562574926
  - # 11
    frequency:    8.3790903992
  - # 12
    frequency:    9.8786166679
  - # 13
    frequency:   11.3129845500
  - # 14
    frequency:   12.4046865500
  - # 15
    frequency:   12.6804798003

- q-position: [    0.1515152,    0.0000000,    0.0000000 ]
  distance:    0.0512033
  band:
  - # 1
    frequency:    1.2217772649
  - # 2
    frequency:    1.6699649274
  - # 3
    frequency:    2.1702778546
  - # 4
    frequency:    3.6348265776
  - # 5
    frequency:    4.1367737574
  - # 6
    frequency:    4.3949254852
  - # 7
    frequency:    5.5624098730
  - # 8
    frequency:    5.9165162760
  - # 9
    frequency:    6.7969607903
  - # 10
    frequency:    6.9685678708
  - # 11
    frequency:    8.3721765052
  - # 12
    frequency:    9.7897128764
  - # 13
    frequency:   11.2581644519
  - # 14
    frequency:   12.3966614882
  - # 15
    frequency:   12.6724300892

- q-position: [    0.1565657,    0.0000000,    0.0000000 ]
  distance:    0.0529101
  band:
  - # 1
    frequency:    1.2887747934
  - # 2
    frequency:    1.7281645526
  - # 3
    frequency:    2.2518030778
  - # 4
    frequency:    3.6546792028
  - # 5
    frequency:    4.1455527926
  - # 6
    frequency:    4.4144184691
  - # 7
    frequency:    5.5663953794
  - # 8
    frequency:    5.9280194091
  - # 9
    frequency:    6.7976712015
  - # 10
    frequency:    6.9805741794
  - # 11
    frequency:    8.3643390003
  - # 12
    frequency:    9.7016379121
  - # 13
    frequency:   11.2037328119
  - # 14
    frequency:   12.3876147121
  - # 15
    frequency:   12.6637665595

- q-position: [    0.1616162,    0.0000000,    0.0000000 ]
  distance:    0.0546169
  band:
  - # 1
    frequency:    1.3564913554
  - # 2
    frequency:    1.7863305881
  - # 3
    frequency:    2.3317164913
  - # 4
    frequency:    3.6746096507
  - # 5
    frequency:    4.1507461952
  - # 6
    frequency:    4.4366248188
  - # 7
    frequency:    5.5705554704
  - # 8
    frequency:    5.9370843187
  - # 9
    frequency:    6.7983945967
  - # 10
    frequency:    6.9922411404
  - # 11
    frequency:    8.3553234429
  - # 12
    frequency:    9.6152620996
  - # 13
    frequency:   11.1497758138
  - # 14
    frequency:   12.3774904525
  - # 15
    frequency:   12.6544861054

- q-position: [    0.1666667,    0.0000000,    0.0000000 ]
  distance:    0.0563236
  band:
  - # 1
    frequency:    1.4248093443
  - # 2
    frequency:    1.8444225722
  - # 3
    frequency:    2.4096504877
  - # 4
    frequency:    3.6945803915
  - # 5
    frequency:    4.1534862557
  - # 6
    frequency:    4.4602057225
  - # 7
    frequency:    5.5749029931
  - # 8
    frequency:    5.9434654021
  - # 9
    frequency:    6.7991079154
  - # 10
    frequency:    7.0035362004
  - # 11
    frequency:    8.3448592982
  - # 12
    frequency:    9.5315367464
  - # 13
    frequency:   11.0963775605
  - # 14
    frequency:   12.3662342401
  - # 15
    frequency:   12.6445888086

- q-position: [    0.1717172,    0.0000000,    0.0000000 ]
  distance:    0.0580304
  band:
  - # 1
    frequency:    1.4936029043
  - # 2
    frequency:    1.9023980510
  - # 3
    frequency:    2.4852002914
  - # 4
    frequency:    3.7145549825
  - # 5
    frequency:    4.1547466968
  - # 6
    frequency:    4.4839574771
  - # 7
    frequency:    5.5794519465
  - # 8
    frequency:    5.9469634943
  - # 9
    frequency:    6.7997408008
  - # 10
    frequency:    7.0144295397
  - # 11
    frequency:    8.3326814922
  - # 12
    frequency:    9.4514715522
  - # 13
    frequency:   11.0436216736
  - # 14
    frequency:   12.3537931855
  - # 15
    frequency:   12.6340779179

- q-position: [    0.1767677,    0.0000000,    0.0000000 ]
  distance:    0.0597372
  band:
  - # 1
    frequency:    1.5627362474
  - # 2
    frequency:    1.9602127848
  - # 3
    frequency:    2.5579169598
  - # 4
    frequency:    3.7344982076
  - # 5
    frequency:    4.1552887506
  - # 6
    frequency:    4.5068636605
  - # 7
    frequency:    5.5842174246
  - # 8
    frequency:    5.9474418124
  - # 9
    frequency:    6.8001729304
  - # 10
    frequency:    7.0248940544
  - # 11
    frequency:    8.3185653846
  - # 12
    frequency:    9.3760942938
  - # 13
    frequency:   10.9915927771
  - # 14
    frequency:   12.3401162609
  - # 15
    frequency:   12.6229597831

- q-position: [    0.1818182,    0.0000000,    0.0000000 ]
  distance:    0.0614440
  band:
  - # 1
    frequency:    1.6320612334
  - # 2
    frequency:    2.0178209641
  - # 3
    frequency:    2.6272992960
  - # 4
    frequency:    3.7543762234
  - # 5
    frequency:    4.1556863775
  - # 6
    frequency:    4.5280694558
  - # 7
    frequency:    5.5892155357
  - # 8
    frequency:    5.9448419201
  - # 9
    frequency:    6.8002380687
  - # 10
    frequency:    7.0349053146
  - # 11
    frequency:    8.3023762508
  - # 12
    frequency:    9.3063897203
  - # 13
    frequency:   10.9403778732
  - # 14
    frequency:   12.3251545824
  - # 15
    frequency:   12.6112437472

- q-position: [    0.1868687,    0.0000000,    0.0000000 ]
  distance:    0.0631508
  band:
  - # 1
    frequency:    1.7014138401
  - # 2
    frequency:    2.0751754310
  - # 3
    frequency:    2.6927848595
  - # 4
    frequency:    3.7741567131
  - # 5
    frequency:    4.1563703724
  - # 6
    frequency:    4.5468395584
  - # 7
    frequency:    5.5944632972
  - # 8
    frequency:    5.9391990771
  - # 9
    frequency:    6.7997364752
  - # 10
    frequency:    7.0444415012
  - # 11
    frequency:    8.2841289283
  - # 12
    frequency:    9.2432199211
  - # 13
    frequency:   10.8900676244
  - # 14
    frequency:   12.3088616900
  - # 15
    frequency:   12.5989419931

- q-position: [    0.1919192,    0.0000000,    0.0000000 ]
  distance:    0.0648575
  band:
  - # 1
    frequency:    1.7706089285
  - # 2
    frequency:    2.1322279053
  - # 3
    frequency:    2.7537405854
  - # 4
    frequency:    3.7938090483
  - # 5
    frequency:    4.1576651769
  - # 6
    frequency:    4.5625276454
  - # 7
    frequency:    5.5999785035
  - # 8
    frequency:    5.9306562929
  - # 9
    frequency:    6.7984562056
  - # 10
    frequency:    7.0534833239
  - # 11
    frequency:    8.2640448015
  - # 12
    frequency:    9.1872373076
  - # 13
    frequency:   10.8407575678
  - # 14
    frequency:   12.2911938268
  - # 15
    frequency:   12.5860693482

- q-position: [    0.1969697,    0.0000000,    0.0000000 ]
  distance:    0.0665643
  band:
  - # 1
    frequency:    1.8394323382
  - # 2
    frequency:    2.1889292124
  - # 3
    frequency:    2.8094540857
  - # 4
    frequency:    3.8133044600
  - # 5
    frequency:    4.1598111342
  - # 6
    frequency:    4.5745672180
  - # 7
    frequency:    5.6057795654
  - # 8
    frequency:    5.9194759266
  - # 9
    frequency:    6.7962021570
  - # 10
    frequency:    7.0620139238
  - # 11
    frequency:    8.2425853511
  - # 12
    frequency:    9.1388104740
  - # 13
    frequency:   10.7925492853
  - # 14
    frequency:   12.2721102144
  - # 15
    frequency:   12.5726430464

- q-position: [    0.2020202,    0.0000000,    0.0000000 ]
  distance:    0.0682711
  band:
  - # 1
    frequency:    1.9076286886
  - # 2
    frequency:    2.2452295111
  - # 3
    frequency:    2.8591276760
  - # 4
    frequency:    3.8326162187
  - # 5
    frequency:    4.1629713611
  - # 6
    frequency:    4.5824878639
  - # 7
    frequency:    5.6118853226
  - # 8
    frequency:    5.9060466157
  - # 9
    frequency:    6.7928296191
  - # 10
    frequency:    7.0700187626
  - # 11
    frequency:    8.2204408605
  - # 12
    frequency:    9.0979859754
  - # 13
    frequency:   10.7455515541
  - # 14
    frequency:   12.2515733232
  - # 15
    frequency:   12.5586824498

- q-position: [    0.2070707,    0.0000000,    0.0000000 ]
  distance:    0.0699779
  band:
  - # 1
    frequency:    1.9748820666
  - # 2
    frequency:    2.3010785215
  - # 3
    frequency:    2.9018788368
  - # 4
    frequency:    3.8517198212
  - # 5
    frequency:    4.1672234872
  - # 6
    frequency:    4.5859600337
  - # 7
    frequency:    5.6183148271
  - # 8
    frequency:    5.8908818577
  - # 9
    frequency:    6.7882770069
  - # 10
    frequency:    7.0774855028
  - # 11
    frequency:    8.1984646490
  - # 12
    frequency:    9.0645001614
  - # 13
    frequency:   10.6998814912
  - # 14
    frequency:   12.2295491380
  - # 15
    frequency:   12.5442087333

- q-position: [    0.2121212,    0.0000000,    0.0000000 ]
  distance:    0.0716846
  band:
  - # 1
    frequency:    2.0407845601