nqpoint: 300    
npath: 3      
segment_nqpoint:
- 100
- 100
- 100
labels:
- [ 'G', 'M' ]
- [ 'M', 'K' ]
- [ 'K', 'G' ]
reciprocal_lattice:
- [   0.29824904,   0.17219416,   0.00000000 ] # a*
- [   0.00000000,   0.34438833,   0.00000000 ] # b*
- [   0.00000000,   0.00000000,   0.04171809 ] # c*
natom: 6      
lattice:
- [     3.352902645898336,     0.000000000000000,     0.000000000000000 ] # a
- [    -1.676451322949167,     2.903698867760450,     0.000000000000000 ] # b
- [     0.000000000000000,     0.000000000000000,    23.970419514855660 ] # c
points:
- symbol: N # 1
  coordinates: [  0.000000000000000,  0.000000000000000,  0.466631690218129 ]
  mass: 14.006700
- symbol: N # 2
  coordinates: [  0.333332985432214,  0.666666983183674,  0.568560596039418 ]
  mass: 14.006700
- symbol: O # 3
  coordinates: [  0.333332985432214,  0.666666983183674,  0.624537234551850 ]
  mass: 15.999400
- symbol: O # 4
  coordinates: [  0.666666984744047,  0.333332985985145,  0.375462765448150 ]
  mass: 15.999400
- symbol: Zr # 5
  coordinates: [  0.333332985432214,  0.666666983183674,  0.414070567639058 ]
  mass: 91.224000
- symbol: Zr # 6
  coordinates: [  0.666666984744047,  0.333332985985145,  0.529311608947226 ]
  mass: 91.224000

phonon:
- q-position: [    0.0000000,    0.0000000,    0.0000000 ]
  distance:    0.0000000
  band:
  - # 1
    frequency:   -7.0409866282
  - # 2
    frequency:   -7.0409866282
  - # 3
    frequency:   -0.0000126292
  - # 4
    frequency:    0.0000002944
  - # 5
    frequency:    0.0000105888
  - # 6
    frequency:    2.1243576555
  - # 7
    frequency:    2.1243576556
  - # 8
    frequency:    5.2880492841
  - # 9
    frequency:    7.4008827243
  - # 10
    frequency:    7.4008827243
  - # 11
    frequency:    9.0362376114
  - # 12
    frequency:   10.1901404448
  - # 13
    frequency:   10.1901404448
  - # 14
    frequency:   12.9841919113
  - # 15
    frequency:   12.9841919113
  - # 16
    frequency:   14.6316828336
  - # 17
    frequency:   15.5268764489
  - # 18
    frequency:   37.2327220753

- q-position: [    0.0050505,    0.0000000,    0.0000000 ]
  distance:    0.0017393
  band:
  - # 1
    frequency:   -7.0419654272
  - # 2
    frequency:   -7.0403283217
  - # 3
    frequency:    0.0021643194
  - # 4
    frequency:    0.0649114803
  - # 5
    frequency:    0.1160819758
  - # 6
    frequency:    2.1252275850
  - # 7
    frequency:    2.1271822626
  - # 8
    frequency:    5.2881057280
  - # 9
    frequency:    7.4008698947
  - # 10
    frequency:    7.4044438393
  - # 11
    frequency:    9.0354157003
  - # 12
    frequency:   10.1902514715
  - # 13
    frequency:   10.1918014032
  - # 14
    frequency:   12.9833795462
  - # 15
    frequency:   12.9837551047
  - # 16
    frequency:   14.6311828139
  - # 17
    frequency:   15.5271574615
  - # 18
    frequency:   37.2321035581

- q-position: [    0.0101010,    0.0000000,    0.0000000 ]
  distance:    0.0034787
  band:
  - # 1
    frequency:   -7.0449001000
  - # 2
    frequency:   -7.0383533328
  - # 3
    frequency:    0.0086302045
  - # 4
    frequency:    0.1297850918
  - # 5
    frequency:    0.2319607234
  - # 6
    frequency:    2.1278336468
  - # 7
    frequency:    2.1356362208
  - # 8
    frequency:    5.2882742137
  - # 9
    frequency:    7.4008336144
  - # 10
    frequency:    7.4150890890
  - # 11
    frequency:    9.0329753132
  - # 12
    frequency:   10.1905851760
  - # 13
    frequency:   10.1967724906
  - # 14
    frequency:   12.9809440756
  - # 15
    frequency:   12.9824457483
  - # 16
    frequency:   14.6296805770
  - # 17
    frequency:   15.5280027877
  - # 18
    frequency:   37.2302488462

- q-position: [    0.0151515,    0.0000000,    0.0000000 ]
  distance:    0.0052180
  band:
  - # 1
    frequency:   -7.0497854703
  - # 2
    frequency:   -7.0350614217
  - # 3
    frequency:    0.0193225123
  - # 4
    frequency:    0.1945830056
  - # 5
    frequency:    0.3474327378
  - # 6
    frequency:    2.1321646995
  - # 7
    frequency:    2.1496614872
  - # 8
    frequency:    5.2885522100
  - # 9
    frequency:    7.4007804993
  - # 10
    frequency:    7.4327041706
  - # 11
    frequency:    9.0289917068
  - # 12
    frequency:   10.1911434230
  - # 13
    frequency:   10.2050195289
  - # 14
    frequency:   12.9768903892
  - # 15
    frequency:   12.9802670289
  - # 16
    frequency:   14.6271697852
  - # 17
    frequency:   15.5294191016
  - # 18
    frequency:   37.2271604572

- q-position: [    0.0202020,    0.0000000,    0.0000000 ]
  distance:    0.0069573
  band:
  - # 1
    frequency:   -7.0566128979
  - # 2
    frequency:   -7.0304520865
  - # 3
    frequency:    0.0341205738
  - # 4
    frequency:    0.2592674684
  - # 5
    frequency:    0.4622940269
  - # 6
    frequency:    2.1382023015
  - # 7
    frequency:    2.1691662220
  - # 8
    frequency:    5.2889355220
  - # 9
    frequency:    7.4007215416
  - # 10
    frequency:    7.4570984842
  - # 11
    frequency:    9.0235878997
  - # 12
    frequency:   10.1919292919
  - # 13
    frequency:   10.2164893381
  - # 14
    frequency:   12.9712266903
  - # 15
    frequency:   12.9772242443
  - # 16
    frequency:   14.6236405156
  - # 17
    frequency:   15.5314169022
  - # 18
    frequency:   37.2228425819

- q-position: [    0.0252525,    0.0000000,    0.0000000 ]
  distance:    0.0086967
  band:
  - # 1
    frequency:   -7.0653702606
  - # 2
    frequency:   -7.0245244165
  - # 3
    frequency:    0.0528655136
  - # 4
    frequency:    0.3238008407
  - # 5
    frequency:    0.5763400660
  - # 6
    frequency:    2.1459208982
  - # 7
    frequency:    2.1940313055
  - # 8
    frequency:    5.2894183286
  - # 9
    frequency:    7.4006720585
  - # 10
    frequency:    7.4880048432
  - # 11
    frequency:    9.0169317112
  - # 12
    frequency:   10.1929470345
  - # 13
    frequency:   10.2311148537
  - # 14
    frequency:   12.9639645785
  - # 15
    frequency:   12.9733247836
  - # 16
    frequency:   14.6190801782
  - # 17
    frequency:   15.5340096174
  - # 18
    frequency:   37.2173010761

- q-position: [    0.0303030,    0.0000000,    0.0000000 ]
  distance:    0.0104360
  band:
  - # 1
    frequency:   -7.0760419299
  - # 2
    frequency:   -7.0172769005
  - # 3
    frequency:    0.0753687222
  - # 4
    frequency:    0.3881456323
  - # 5
    frequency:    0.6893660140
  - # 6
    frequency:    2.1552880792
  - # 7
    frequency:    2.2241179888
  - # 8
    frequency:    5.2899932366
  - # 9
    frequency:    7.4006516190
  - # 10
    frequency:    7.5250787731
  - # 11
    frequency:    9.0092327902
  - # 12
    frequency:   10.1942020170
  - # 13
    frequency:   10.2488213129
  - # 14
    frequency:   12.9551191713
  - # 15
    frequency:   12.9685781001
  - # 16
    frequency:   14.6134747208
  - # 17
    frequency:   15.5372124277
  - # 18
    frequency:   37.2105434502

- q-position: [    0.0353535,    0.0000000,    0.0000000 ]
  distance:    0.0121753
  band:
  - # 1
    frequency:   -7.0886087425
  - # 2
    frequency:   -7.0087072017
  - # 3
    frequency:    0.1014207896
  - # 4
    frequency:    0.4522645369
  - # 5
    frequency:    0.8011673255
  - # 6
    frequency:    2.1662648984
  - # 7
    frequency:    2.2592755851
  - # 8
    frequency:    5.2906513544
  - # 9
    frequency:    7.4006839490
  - # 10
    frequency:    7.5678970926
  - # 11
    frequency:    9.0007405608
  - # 12
    frequency:   10.1957006465
  - # 13
    frequency:   10.2695327991
  - # 14
    frequency:   12.9447092697
  - # 15
    frequency:   12.9629956758
  - # 16
    frequency:   14.6068100439
  - # 17
    frequency:   15.5410408842
  - # 18
    frequency:   37.2025788543

- q-position: [    0.0404040,    0.0000000,    0.0000000 ]
  distance:    0.0139147
  band:
  - # 1
    frequency:   -7.1030479694
  - # 2
    frequency:   -6.9988119134
  - # 3
    frequency:    0.1308000590
  - # 4
    frequency:    0.5161204646
  - # 5
    frequency:    0.9115409133
  - # 6
    frequency:    2.1788062510
  - # 7
    frequency:    2.2993481915
  - # 8
    frequency:    5.2913823863
  - # 9
    frequency:    7.4007968131
  - # 10
    frequency:    7.6159553714
  - # 11
    frequency:    8.9917440246
  - # 12
    frequency:   10.1974502840
  - # 13
    frequency:   10.2931784988
  - # 14
    frequency:   12.9327575756
  - # 15
    frequency:   12.9565909798
  - # 16
    frequency:   14.5990735388
  - # 17
    frequency:   15.5455094050
  - # 18
    frequency:   37.1934180618

- q-position: [    0.0454545,    0.0000000,    0.0000000 ]
  distance:    0.0156540
  band:
  - # 1
    frequency:   -7.1193332847
  - # 2
    frequency:   -6.9875863105
  - # 3
    frequency:    0.1632801761
  - # 4
    frequency:    0.5796765741
  - # 5
    frequency:    1.0202870256
  - # 6
    frequency:    2.1928613002
  - # 7
    frequency:    2.3441796510
  - # 8
    frequency:    5.2921747483
  - # 9
    frequency:    7.4010218725
  - # 10
    frequency:    7.6686637640
  - # 11
    frequency:    8.9825742945
  - # 12
    frequency:   10.1994591440
  - # 13
    frequency:   10.3196981768
  - # 14
    frequency:   12.9192909693
  - # 15
    frequency:   12.9493794194
  - # 16
    frequency:   14.5902556527
  - # 17
    frequency:   15.5506297442
  - # 18
    frequency:   37.1830734488

- q-position: [    0.0505051,    0.0000000,    0.0000000 ]
  distance:    0.0173933
  band:
  - # 1
    frequency:   -7.1374347364
  - # 2
    frequency:   -6.9750241121
  - # 3
    frequency:    0.1986362655
  - # 4
    frequency:    0.6428963044
  - # 5
    frequency:    1.1272119816
  - # 6
    frequency:    2.2083739445
  - # 7
    frequency:    2.3936162481
  - # 8
    frequency:    5.2930157066
  - # 9
    frequency:    7.4013945185
  - # 10
    frequency:    7.7253406516
  - # 11
    frequency:    8.9736106394
  - # 12
    frequency:   10.2017361833
  - # 13
    frequency:   10.3490465309
  - # 14
    frequency:   12.9043408585
  - # 15
    frequency:   12.9413782849
  - # 16
    frequency:   14.5803513852
  - # 17
    frequency:   15.5564095254
  - # 18
    frequency:   37.1715589712

- q-position: [    0.0555556,    0.0000000,    0.0000000 ]
  distance:    0.0191327
  band:
  - # 1
    frequency:   -7.1573187221
  - # 2
    frequency:   -6.9611172688
  - # 3
    frequency:    0.2366496139
  - # 4
    frequency:    0.7057434067
  - # 5
    frequency:    1.2321318459
  - # 6
    frequency:    2.2252833178
  - # 7
    frequency:    2.4475069424
  - # 8
    frequency:    5.2938915371
  - # 9
    frequency:    7.4019536793
  - # 10
    frequency:    7.7852035496
  - # 11
    frequency:    8.9652906396
  - # 12
    frequency:   10.2042909795
  - # 13
    frequency:   10.3811962386
  - # 14
    frequency:   12.8879436150
  - # 15
    frequency:   12.9326066886
  - # 16
    frequency:   14.5693616310
  - # 17
    frequency:   15.5628509232
  - # 18
    frequency:   37.1588901388

- q-position: [    0.0606061,    0.0000000,    0.0000000 ]
  distance:    0.0208720
  band:
  - # 1
    frequency:   -7.1789479724
  - # 2
    frequency:   -6.9458557880
  - # 3
    frequency:    0.2771109215
  - # 4
    frequency:    0.7681819777
  - # 5
    frequency:    1.3348769955
  - # 6
    frequency:    2.2435243136
  - # 7
    frequency:    2.5057012542
  - # 8
    frequency:    5.2947877057
  - # 9
    frequency:    7.4027416005
  - # 10
    frequency:    7.8473570212
  - # 11
    frequency:    8.9581246832
  - # 12
    frequency:   10.2071336018
  - # 13
    frequency:   10.4161395981
  - # 14
    frequency:   12.8701411135
  - # 15
    frequency:   12.9230854979
  - # 16
    frequency:   14.5572942945
  - # 17
    frequency:   15.5699495651
  - # 18
    frequency:   37.1450839865

- q-position: [    0.0656566,    0.0000000,    0.0000000 ]
  distance:    0.0226114
  band:
  - # 1
    frequency:   -7.2022815439
  - # 2
    frequency:   -6.9292276064
  - # 3
    frequency:    0.3198223025
  - # 4
    frequency:    0.8301764961
  - # 5
    frequency:    1.4352973517
  - # 6
    frequency:    2.2630281265
  - # 7
    frequency:    2.5680452188
  - # 8
    frequency:    5.2956890674
  - # 9
    frequency:    7.4038035989
  - # 10
    frequency:    7.9107781919
  - # 11
    frequency:    8.9527141309
  - # 12
    frequency:   10.2102744749
  - # 13
    frequency:   10.4538887181
  - # 14
    frequency:   12.8509813986
  - # 15
    frequency:   12.9128372647
  - # 16
    frequency:   14.5441651250
  - # 17
    frequency:   15.5776937027
  - # 18
    frequency:   37.1301590432

- q-position: [    0.0707071,    0.0000000,    0.0000000 ]
  distance:    0.0243507
  band:
  - # 1
    frequency:   -7.2272748261
  - # 2
    frequency:   -6.9112185177
  - # 3
    frequency:    0.3645982687
  - # 4
    frequency:    0.8916918622
  - # 5
    frequency:    1.5332678289
  - # 6
    frequency:    2.2837228016
  - # 7
    frequency:    2.6343761010
  - # 8
    frequency:    5.2965800810
  - # 9
    frequency:    7.4051877869
  - # 10
    frequency:    7.9743024843
  - # 11
    frequency:    8.9497704540
  - # 12
    frequency:   10.2137242385
  - # 13
    frequency:   10.4944742142
  - # 14
    frequency:   12.8305195078
  - # 15
    frequency:   12.9018861489
  - # 16
    frequency:   14.5299982430
  - # 17
    frequency:   15.5860636821
  - # 18
    frequency:   37.1141352972

- q-position: [    0.0757576,    0.0000000,    0.0000000 ]
  distance:    0.0260900
  band:
  - # 1
    frequency:   -7.2538795631
  - # 2
    frequency:   -6.8918121614
  - # 3
    frequency:    0.4112659424
  - # 4
    frequency:    0.9526934431
  - # 5
    frequency:    1.6286933439
  - # 6
    frequency:    2.3055337860
  - # 7
    frequency:    2.7045167795
  - # 8
    frequency:    5.2974450368
  - # 9
    frequency:    7.4069447707
  - # 10
    frequency:    8.0366162492
  - # 11
    frequency:    8.9501286133
  - # 12
    frequency:   10.2174936034
  - # 13
    frequency:   10.5379423541
  - # 14
    frequency:   12.8088184904
  - # 15
    frequency:   12.8902578394
  - # 16
    frequency:   14.5148263526
  - # 17
    frequency:   15.5950317186
  - # 18
    frequency:   37.0970341606

- q-position: [    0.0808081,    0.0000000,    0.0000000 ]
  distance:    0.0278294
  band:
  - # 1
    frequency:   -7.2820438939
  - # 2
    frequency:   -6.8709900716
  - # 3
    frequency:    0.4596647224
  - # 4
    frequency:    1.0131471241
  - # 5
    frequency:    1.7215126099
  - # 6
    frequency:    2.3283844770
  - # 7
    frequency:    2.7782708136
  - # 8
    frequency:    5.2982682936
  - # 9
    frequency:    7.4091273198
  - # 10
    frequency:    8.0962697106
  - # 11
    frequency:    8.9547412355
  - # 12
    frequency:   10.2215932060
  - # 13
    frequency:   10.5843505627
  - # 14
    frequency:   12.7859506766
  - # 15
    frequency:   12.8779794718
  - # 16
    frequency:   14.4986906552
  - # 17
    frequency:   15.6045619629
  - # 18
    frequency:   37.0788784295

- q-position: [    0.0858586,    0.0000000,    0.0000000 ]
  distance:    0.0295687
  band:
  - # 1
    frequency:   -7.3117124125
  - # 2
    frequency:   -6.8487317889
  - # 3
    frequency:    0.5096455948
  - # 4
    frequency:    1.0730193667
  - # 5
    frequency:    1.8116999773
  - # 6
    frequency:    2.3521967601
  - # 7
    frequency:    2.8554191287
  - # 8
    frequency:    5.2990345222
  - # 9
    frequency:    7.4117900100
  - # 10
    frequency:    8.1517316421
  - # 11
    frequency:    8.9646321505
  - # 12
    frequency:   10.2260334632
  - # 13
    frequency:   10.6337611865
  - # 14
    frequency:   12.7619992687
  - # 15
    frequency:   12.8650795427
  - # 16
    frequency:   14.4816404998
  - # 17
    frequency:   15.6146108254
  - # 18
    frequency:   37.0596922435

- q-position: [    0.0909091,    0.0000000,    0.0000000 ]
  distance:    0.0313080
  band:
  - # 1
    frequency:   -7.3428262502
  - # 2
    frequency:   -6.8250150290
  - # 3
    frequency:    0.5610702384
  - # 4
    frequency:    1.1322772754
  - # 5
    frequency:    1.8992648077
  - # 6
    frequency:    2.3768915333
  - # 7
    frequency:    2.9357189941
  - # 8
    frequency:    5.2997289504
  - # 9
    frequency:    7.4149888405
  - # 10
    frequency:    8.2015093565
  - # 11
    frequency:    8.9807856668
  - # 12
    frequency:   10.2308244285
  - # 13
    frequency:   10.6862334200
  - # 14
    frequency:   12.7370603611
  - # 15
    frequency:   12.8515878229
  - # 16
    frequency:   14.4637328153
  - # 17
    frequency:   15.6251275191
  - # 18
    frequency:   37.0395010418

- q-position: [    0.0959596,    0.0000000,    0.0000000 ]
  distance:    0.0330474
  band:
  - # 1
    frequency:   -7.3753231813
  - # 2
    frequency:   -6.7998159041
  - # 3
    frequency:    0.6138100378
  - # 4
    frequency:    1.1908886713
  - # 5
    frequency:    1.9842482589
  - # 6
    frequency:    2.4023892153
  - # 7
    frequency:    3.0189055402
  - # 8
    frequency:    5.3003376066
  - # 9
    frequency:    7.4187808267
  - # 10
    frequency:    8.2443395003
  - # 11
    frequency:    9.0039659801
  - # 12
    frequency:   10.2359756513
  - # 13
    frequency:   10.7418133375
  - # 14
    frequency:   12.7112455331
  - # 15
    frequency:   12.8375352693
  - # 16
    frequency:   14.4450313807
  - # 17
    frequency:   15.6360547712
  - # 18
    frequency:   37.0183315182

- q-position: [    0.1010101,    0.0000000,    0.0000000 ]
  distance:    0.0347867
  band:
  - # 1
    frequency:   -7.4091377526
  - # 2
    frequency:   -6.7731091913
  - # 3
    frequency:    0.6677450832
  - # 4
    frequency:    1.2488221746
  - # 5
    frequency:    2.0667177965
  - # 6
    frequency:    2.4286102319
  - # 7
    frequency:    3.1046955837
  - # 8
    frequency:    5.3008475583
  - # 9
    frequency:    7.4232235720
  - # 10
    frequency:    8.2794075067
  - # 11
    frequency:    9.0345086272
  - # 12
    frequency:   10.2414960395
  - # 13
    frequency:   10.8005220399
  - # 14
    frequency:   12.6846852305
  - # 15
    frequency:   12.8229539353
  - # 16
    frequency:   14.4256059894
  - # 17
    frequency:   15.6473296542
  - # 18
    frequency:   36.9962115735

- q-position: [    0.1060606,    0.0000000,    0.0000000 ]
  distance:    0.0365260
  band:
  - # 1
    frequency:   -7.4442014392
  - # 2
    frequency:   -6.7448686387
  - # 3
    frequency:    0.7227632081
  - # 4
    frequency:    1.3060472942
  - # 5
    frequency:    2.1467601253
  - # 6
    frequency:    2.4554754811
  - # 7
    frequency:    3.1927931326
  - # 8
    frequency:    5.3012471434
  - # 9
    frequency:    7.4283748196
  - # 10
    frequency:    8.3065017981
  - # 11
    frequency:    9.0721774959
  - # 12
    frequency:   10.2473937276
  - # 13
    frequency:   10.8623419991
  - # 14
    frequency:   12.6575332411
  - # 15
    frequency:   12.8078768817
  - # 16
    frequency:   14.4055315642
  - # 17
    frequency:   15.6588844918
  - # 18
    frequency:   36.9731702660

- q-position: [    0.1111111,    0.0000000,    0.0000000 ]
  distance:    0.0382654
  band:
  - # 1
    frequency:   -7.4804428231
  - # 2
    frequency:   -6.7150673009
  - # 3
    frequency:    0.7787590966
  - # 4
    frequency:    1.3625345236
  - # 5
    frequency:    2.2244734289
  - # 6
    frequency:    2.4829067748
  - # 7
    frequency:    3.2828957176
  - # 8
    frequency:    5.3015261917
  - # 9
    frequency:    7.4342919897
  - # 10
    frequency:    8.3260145804
  - # 11
    frequency:    9.1161749754
  - # 12
    frequency:   10.2536759509
  - # 13
    frequency:   10.9272017211
  - # 14
    frequency:   12.6299727205
  - # 15
    frequency:   12.7923380874
  - # 16
    frequency:   14.3848872754
  - # 17
    frequency:   15.6706477972
  - # 18
    frequency:   36.9492377611

- q-position: [    0.1161616,    0.0000000,    0.0000000 ]
  distance:    0.0400047
  band:
  - # 1
    frequency:   -7.5177877981
  - # 2
    frequency:   -6.6836778972
  - # 3
    frequency:    0.8356334745
  - # 4
    frequency:    1.4182554417
  - # 5
    frequency:    2.2999597981
  - # 6
    frequency:    2.5108272543
  - # 7
    frequency:    3.3747006930
  - # 8
    frequency:    5.3016762360
  - # 9
    frequency:    7.4410317044
  - # 10
    frequency:    8.3387861373
  - # 11
    frequency:    9.1653076107
  - # 12
    frequency:   10.2603489257
  - # 13
    frequency:   10.9949587888
  - # 14
    frequency:   12.6022244333
  - # 15
    frequency:   12.7763723614
  - # 16
    frequency:   14.3637557088
  - # 17
    frequency:   15.6825452113
  - # 18
    frequency:   36.9244452781

- q-position: [    0.1212121,    0.0000000,    0.0000000 ]
  distance:    0.0417440
  band:
  - # 1
    frequency:   -7.5561597970
  - # 2
    frequency:   -6.6506731799
  - # 3
    frequency:    0.8932923900
  - # 4
    frequency:    1.4731828170
  - # 5
    frequency:    2.3733185511
  - # 6
    frequency:    2.5391617811
  - # 7
    frequency:    3.4679108119
  - # 8
    frequency:    5.3016907161
  - # 9
    frequency:    7.4486493061
  - # 10
    frequency:    8.3458791486
  - # 11
    frequency:    9.2182199453
  - # 12
    frequency:   10.2674177370
  - # 13
    frequency:   11.0653810986
  - # 14
    frequency:   12.5745581977
  - # 15
    frequency:   12.7600152556
  - # 16
    frequency:   14.3422221269
  - # 17
    frequency:   15.6945004148
  - # 18
    frequency:   36.8988250367

- q-position: [    0.1262626,    0.0000000,    0.0000000 ]
  distance:    0.0434834
  band:
  - # 1
    frequency:   -7.5954800412
  - # 2
    frequency:   -6.6160263086
  - # 3
    frequency:    0.9516465783
  - # 4
    frequency:    1.5272907124
  - # 5
    frequency:    2.4446408805
  - # 6
    frequency:    2.5678373011
  - # 7
    frequency:    3.5622386376
  - # 8
    frequency:    5.3015651805
  - # 9
    frequency:    7.4571983730
  - # 10
    frequency:    8.3483817628
  - # 11
    frequency:    9.2735970681
  - # 12
    frequency:   10.2748862337
  - # 13
    frequency:   11.1381255973
  - # 14
    frequency:   12.5473089753
  - # 15
    frequency:   12.7433029796
  - # 16
    frequency:   14.3203738593
  - # 17
    frequency:   15.7064359952
  - # 18
    frequency:   36.8724102011

- q-position: [    0.1313131,    0.0000000,    0.0000000 ]
  distance:    0.0452227
  band:
  - # 1
    frequency:   -7.6356678103
  - # 2
    frequency:   -6.5797112188
  - # 3
    frequency:    1.0106109059
  - # 4
    frequency:    1.5805545888
  - # 5
    frequency:    2.5140059974
  - # 6
    frequency:    2.5967831817
  - # 7
    frequency:    3.6574096094
  - # 8
    frequency:    5.3012974948
  - # 9
    frequency:    7.4667302384
  - # 10
    frequency:    8.3472864002
  - # 11
    frequency:    9.3302883334
  - # 12
    frequency:   10.2827569322
  - # 13
    frequency:   11.2127130093
  - # 14
    frequency:   12.5208996785
  - # 15
    frequency:   12.7262723173
  - # 16
    frequency:   14.2982998578
  - # 17
    frequency:   15.7182742571
  - # 18
    frequency:   36.8452348234

- q-position: [    0.1363636,    0.0000000,    0.0000000 ]
  distance:    0.0469620
  band:
  - # 1
    frequency:   -7.6766407300
  - # 2
    frequency:   -6.5417029798
  - # 3
    frequency:    1.0701038829
  - # 4
    frequency:    1.6329514041
  - # 5
    frequency:    2.5814787258
  - # 6
    frequency:    2.6259315226
  - # 7
    frequency:    3.7531637869
  - # 8
    frequency:    5.3008880780
  - # 9
    frequency:    7.4772935177
  - # 10
    frequency:    8.3434395375
  - # 11
    frequency:    9.3873567470
  - # 12
    frequency:   10.2910309271
  - # 13
    frequency:   11.2884959989
  - # 14
    frequency:   12.4958734987
  - # 15
    frequency:   12.7089605466
  - # 16
    frequency:   14.2760904494
  - # 17
    frequency:   15.7299379689
  - # 18
    frequency:   36.8173337859

- q-position: [    0.1414141,    0.0000000,    0.0000000 ]
  distance:    0.0487014
  band:
  - # 1
    frequency:   -7.7183150747
  - # 2
    frequency:   -6.5019781340
  - # 3
    frequency:    1.1300472330
  - # 4
    frequency:    1.6844597061
  - # 5
    frequency:    2.6471083680
  - # 6
    frequency:    2.6552174375
  - # 7
    frequency:    3.8492564176
  - # 8
    frequency:    5.3003401925
  - # 9
    frequency:    7.4889336514
  - # 10
    frequency:    8.3375368591
  - # 11
    frequency:    9.4440797479
  - # 12
    frequency:   10.2997078114
  - # 13
    frequency:   11.3646173149
  - # 14
    frequency:   12.4729390819
  - # 15
    frequency:   12.6914053603
  - # 16
    frequency:   14.2538373207
  - # 17
    frequency:   15.7413510431
  - # 18
    frequency:   36.7887427418

- q-position: [    0.1464646,    0.0000000,    0.0000000 ]
  distance:    0.0504407
  band:
  - # 1
    frequency:   -7.7606060833
  - # 2
    frequency:   -6.4605150124
  - # 3
    frequency:    1.1903655125
  - # 4
    frequency:    1.7350597154
  - # 5
    frequency:    2.6845793089
  - # 6
    frequency:    2.7109285951
  - # 7
    frequency:    3.9454575170
  - # 8
    frequency:    5.2996603391
  - # 9
    frequency:    7.5016924664
  - # 10
    frequency:    8.3301400375
  - # 11
    frequency:    9.4999255892
  - # 12
    frequency:   10.3087856041
  - # 13
    frequency:   11.4399549465
  - # 14
    frequency:   12.4530310373
  - # 15
    frequency:   12.6736447917
  - # 16
    frequency:   14.2316337743
  - # 17
    frequency:   15.7524391512
  - # 18
    frequency:   36.7594980557

- q-position: [    0.1515152,    0.0000000,    0.0000000 ]
  distance:    0.0521800
  band:
  - # 1
    frequency:   -7.8034282842
  - # 2
    frequency:   -6.4172940209
  - # 3
    frequency:    1.2509857674
  - # 4
    frequency:    1.7847333966
  - # 5
    frequency:    2.7139590122
  - # 6
    frequency:    2.7729581145
  - # 7
    frequency:    4.0415506313
  - # 8
    frequency:    5.2988588314
  - # 9
    frequency:    7.5156077656
  - # 10
    frequency:    8.3217002372
  - # 11
    frequency:    9.5545209473
  - # 12
    frequency:   10.3182606866
  - # 13
    frequency:   11.5130563260
  - # 14
    frequency:   12.4373829869
  - # 15
    frequency:   12.6557171416
  - # 16
    frequency:   14.2095753036
  - # 17
    frequency:   15.7631302766
  - # 18
    frequency:   36.7296367426

- q-position: [    0.1565657,    0.0000000,    0.0000000 ]
  distance:    0.0539194
  band:
  - # 1
    frequency:   -7.8466958270
  - # 2
    frequency:   -6.3722978924
  - # 3
    frequency:    1.3118372217
  - # 4
    frequency:    1.8334645159
  - # 5
    frequency:    2.7433021114
  - # 6
    frequency:    2.8332018860
  - # 7
    frequency:    4.1373308738
  - # 8
    frequency:    5.2979506762
  - # 9
    frequency:    7.5307129472
  - # 10
    frequency:    8.3125810118
  - # 11
    frequency:    9.6076179423
  - # 12
    frequency:   10.3281277477
  - # 13
    frequency:   11.5820799843
  - # 14
    frequency:   12.4275938492
  - # 15
    frequency:   12.6376609091
  - # 16
    frequency:   14.1877605460
  - # 17
    frequency:   15.7733552089
  - # 18
    frequency:   36.6991964065

- q-position: [    0.1616162,    0.0000000,    0.0000000 ]
  distance:    0.0556587
  band:
  - # 1
    frequency:   -7.8903228175
  - # 2
    frequency:   -6.3255119021
  - # 3
    frequency:    1.3728509900
  - # 4
    frequency:    1.8812386825
  - # 5
    frequency:    2.7725580223
  - # 6
    frequency:    2.8916527024
  - # 7
    frequency:    4.2326022104
  - # 8
    frequency:    5.2969569678
  - # 9
    frequency:    7.5470366617
  - # 10
    frequency:    8.3030778105
  - # 11
    frequency:    9.6590641839
  - # 12
    frequency:   10.3383797366
  - # 13
    frequency:   11.6448003453
  - # 14
    frequency:   12.4256307670
  - # 15
    frequency:   12.6195147255
  - # 16
    frequency:   14.1662926935
  - # 17
    frequency:   15.7830479864
  - # 18
    frequency:   36.6682151784

- q-position: [    0.1666667,    0.0000000,    0.0000000 ]
  distance:    0.0573981
  band:
  - # 1
    frequency:   -7.9342236526
  - # 2
    frequency:   -6.2769240420
  - # 3
    frequency:    1.4339598097
  - # 4
    frequency:    1.9280433728
  - # 5
    frequency:    2.8016801443
  - # 6
    frequency:    2.9482929909
  - # 7
    frequency:    4.3271737711
  - # 8
    frequency:    5.2959071554
  - # 9
    frequency:    7.5646025110
  - # 10
    frequency:    8.2934335525
  - # 11
    frequency:    9.7087770990
  - # 12
    frequency:   10.3490078244
  - # 13
    frequency:   11.6987852873
  - # 14
    frequency:   12.4336582447
  - # 15
    frequency:   12.6013172905
  - # 16
    frequency:   14.1452814652
  - # 17
    frequency:   15.7921462908
  - # 18
    frequency:   36.6367316533

- q-position: [    0.1717172,    0.0000000,    0.0000000 ]
  distance:    0.0591374
  band:
  - # 1
    frequency:   -7.9783133525
  - # 2
    frequency:   -6.2265251525
  - # 3
    frequency:    1.4950977896
  - # 4
    frequency:    1.9738679366
  - # 5
    frequency:    2.8306259588
  - # 6
    frequency:    3.0030967293
  - # 7
    frequency:    4.4208546524
  - # 8
    frequency:    5.2948428169
  - # 9
    frequency:    7.5834287914
  - # 10
    frequency:    8.2838506301
  - # 11
    frequency:    9.7567226969
  - # 12
    frequency:   10.3600013748
  - # 13
    frequency:   11.7418605041
  - # 14
    frequency:   12.4535788056
  - # 15
    frequency:   12.5831073115
  - # 16
    frequency:   14.1248457811
  - # 17
    frequency:   15.8005918021
  - # 18
    frequency:   36.6047848273

- q-position: [    0.1767677,    0.0000000,    0.0000000 ]
  distance:    0.0608767
  band:
  - # 1
    frequency:   -8.0225078869
  - # 2
    frequency:   -6.1743090088
  - # 3
    frequency:    1.5562001724
  - # 4
    frequency:    2.0187035849
  - # 5
    frequency:    2.8593570928
  - # 6
    frequency:    3.0560314015
  - # 7
    frequency:    4.5134461005
  - # 8
    frequency:    5.2938241229
  - # 9
    frequency:    7.6035282871
  - # 10
    frequency:    8.2744999752
  - # 11
    frequency:    9.8028984630
  - # 12
    frequency:   10.3713479231
  - # 13
    frequency:   11.7727914265
  - # 14