nqpoint: 300    
npath: 3      
segment_nqpoint:
- 100
- 100
- 100
labels:
- [ 'G', 'M' ]
- [ 'M', 'K' ]
- [ 'K', 'G' ]
reciprocal_lattice:
- [   0.29677291,   0.17134192,   0.00000000 ] # a*
- [   0.00000000,   0.34268384,   0.00000000 ] # b*
- [   0.00000000,   0.00000000,   0.03869519 ] # c*
natom: 7      
lattice:
- [     3.369579769965469,     0.000000000000000,     0.000000000000000 ] # a
- [    -1.684789884982734,     2.918141680843578,     0.000000000000000 ] # b
- [     0.000000000000000,     0.000000000000000,    25.843005143103554 ] # c
points:
- symbol: C # 1
  coordinates: [  0.333332985432215,  0.666666983183674,  0.605686565734304 ]
  mass: 12.010700
- symbol: H # 2
  coordinates: [  0.666666984744047,  0.333332985985145,  0.348256712025681 ]
  mass: 1.007940
- symbol: N # 3
  coordinates: [  0.000000000000000,  0.000000000000000,  0.430802340209004 ]
  mass: 14.006700
- symbol: N # 4
  coordinates: [  0.333332985432215,  0.666666983183674,  0.651743287974319 ]
  mass: 14.006700
- symbol: S # 5
  coordinates: [  0.333332985432215,  0.666666983183674,  0.540957232667748 ]
  mass: 32.065000
- symbol: Sc # 6
  coordinates: [  0.333332985432215,  0.666666983183674,  0.385162293959190 ]
  mass: 44.955912
- symbol: Sc # 7
  coordinates: [  0.666666984744047,  0.333332985985145,  0.477326194103447 ]
  mass: 44.955912

phonon:
- q-position: [    0.0000000,    0.0000000,    0.0000000 ]
  distance:    0.0000000
  band:
  - # 1
    frequency:   -0.0000231372
  - # 2
    frequency:    0.0000004907
  - # 3
    frequency:    0.0000308524
  - # 4
    frequency:    2.0474422597
  - # 5
    frequency:    2.0474422598
  - # 6
    frequency:    4.1942420081
  - # 7
    frequency:    4.1942420082
  - # 8
    frequency:    5.7054335853
  - # 9
    frequency:    7.3284780657
  - # 10
    frequency:    7.3284780658
  - # 11
    frequency:   10.2317374661
  - # 12
    frequency:   10.2317374662
  - # 13
    frequency:   10.5114052405
  - # 14
    frequency:   11.4189055574
  - # 15
    frequency:   11.4189055575
  - # 16
    frequency:   11.5294749885
  - # 17
    frequency:   20.8678547254
  - # 18
    frequency:   25.3021626112
  - # 19
    frequency:   25.9131525038
  - # 20
    frequency:   25.9131525040
  - # 21
    frequency:   65.1220493055

- q-position: [    0.0050505,    0.0000000,    0.0000000 ]
  distance:    0.0017307
  band:
  - # 1
    frequency:    0.0024116757
  - # 2
    frequency:    0.0947017835
  - # 3
    frequency:    0.1018028804
  - # 4
    frequency:    2.0479888859
  - # 5
    frequency:    2.0490093023
  - # 6
    frequency:    4.1947879900
  - # 7
    frequency:    4.1963602772
  - # 8
    frequency:    5.7052497255
  - # 9
    frequency:    7.3285915485
  - # 10
    frequency:    7.3290728149
  - # 11
    frequency:   10.2315695567
  - # 12
    frequency:   10.2318082238
  - # 13
    frequency:   10.5098320834
  - # 14
    frequency:   11.3952284524
  - # 15
    frequency:   11.4198634357
  - # 16
    frequency:   11.5521379563
  - # 17
    frequency:   20.8677763405
  - # 18
    frequency:   25.2999507121
  - # 19
    frequency:   25.9130288158
  - # 20
    frequency:   25.9152265878
  - # 21
    frequency:   65.1219503588

- q-position: [    0.0101010,    0.0000000,    0.0000000 ]
  distance:    0.0034615
  band:
  - # 1
    frequency:    0.0096235480
  - # 2
    frequency:    0.1892858213
  - # 3
    frequency:    0.2035302879
  - # 4
    frequency:    2.0496299494
  - # 5
    frequency:    2.0536996523
  - # 6
    frequency:    4.1964259004
  - # 7
    frequency:    4.2026956790
  - # 8
    frequency:    5.7047011925
  - # 9
    frequency:    7.3289315084
  - # 10
    frequency:    7.3308502286
  - # 11
    frequency:   10.2310340152
  - # 12
    frequency:   10.2320199514
  - # 13
    frequency:   10.5050687212
  - # 14
    frequency:   11.3482957866
  - # 15
    frequency:   11.4227318532
  - # 16
    frequency:   11.5961130199
  - # 17
    frequency:   20.8675412470
  - # 18
    frequency:   25.2934111697
  - # 19
    frequency:   25.9126574534
  - # 20
    frequency:   25.9213532902
  - # 21
    frequency:   65.1216536679

- q-position: [    0.0151515,    0.0000000,    0.0000000 ]
  distance:    0.0051922
  band:
  - # 1
    frequency:    0.0215668772
  - # 2
    frequency:    0.2836334493
  - # 3
    frequency:    0.3051044906
  - # 4
    frequency:    2.0523691074
  - # 5
    frequency:    2.0614817855
  - # 6
    frequency:    4.1991556276
  - # 7
    frequency:    4.2131903952
  - # 8
    frequency:    5.7037970985
  - # 9
    frequency:    7.3294964858
  - # 10
    frequency:    7.3337898821
  - # 11
    frequency:   10.2300281577
  - # 12
    frequency:   10.2323710396
  - # 13
    frequency:   10.4969926645
  - # 14
    frequency:   11.2956522897
  - # 15
    frequency:   11.4274951724
  - # 16
    frequency:   11.6441079936
  - # 17
    frequency:   20.8671496288
  - # 18
    frequency:   25.2828137988
  - # 19
    frequency:   25.9120375250
  - # 20
    frequency:   25.9312646105
  - # 21
    frequency:   65.1211596795

- q-position: [    0.0202020,    0.0000000,    0.0000000 ]
  distance:    0.0069229
  band:
  - # 1
    frequency:    0.0381304623
  - # 2
    frequency:    0.3776241114
  - # 3
    frequency:    0.4064432151
  - # 4
    frequency:    2.0562127987
  - # 5
    frequency:    2.0723057754
  - # 6
    frequency:    4.2029769613
  - # 7
    frequency:    4.2277493546
  - # 8
    frequency:    5.7025525502
  - # 9
    frequency:    7.3302840667
  - # 10
    frequency:    7.3378579782
  - # 11
    frequency:   10.2283541195
  - # 12
    frequency:   10.2328588893
  - # 13
    frequency:   10.4854351705
  - # 14
    frequency:   11.2418274032
  - # 15
    frequency:   11.4341273792
  - # 16
    frequency:   11.6920058432
  - # 17
    frequency:   20.8666017939
  - # 18
    frequency:   25.2685540883
  - # 19
    frequency:   25.9111675505
  - # 20
    frequency:   25.9445680824
  - # 21
    frequency:   65.1204691371

- q-position: [    0.0252525,    0.0000000,    0.0000000 ]
  distance:    0.0086536
  band:
  - # 1
    frequency:    0.0591652057
  - # 2
    frequency:    0.4711343501
  - # 3
    frequency:    0.5074572993
  - # 4
    frequency:    2.0611707739
  - # 5
    frequency:    2.0861069298
  - # 6
    frequency:    4.2078895574
  - # 7
    frequency:    4.2462420530
  - # 8
    frequency:    5.7009885519
  - # 9
    frequency:    7.3312909088
  - # 10
    frequency:    7.3430076939
  - # 11
    frequency:   10.2256688430
  - # 12
    frequency:   10.2334800309
  - # 13
    frequency:   10.4702518621
  - # 14
    frequency:   11.1886570991
  - # 15
    frequency:   11.4425921602
  - # 16
    frequency:   11.7385225418
  - # 17
    frequency:   20.8658981775
  - # 18
    frequency:   25.2510941655
  - # 19
    frequency:   25.9100454715
  - # 20
    frequency:   25.9608058057
  - # 21
    frequency:   65.1195830791

- q-position: [    0.0303030,    0.0000000,    0.0000000 ]
  distance:    0.0103844
  band:
  - # 1
    frequency:    0.0844898691
  - # 2
    frequency:    0.5640366940
  - # 3
    frequency:    0.6080482621
  - # 4
    frequency:    2.0672568679
  - # 5
    frequency:    2.1028103762
  - # 6
    frequency:    4.2138928857
  - # 7
    frequency:    4.2685048725
  - # 8
    frequency:    5.6991319188
  - # 9
    frequency:    7.3325127747
  - # 10
    frequency:    7.3491796216
  - # 11
    frequency:   10.2213914049
  - # 12
    frequency:   10.2342302799
  - # 13
    frequency:   10.4514579614
  - # 14
    frequency:   11.1373536453
  - # 15
    frequency:   11.4528430185
  - # 16
    frequency:   11.7830951503
  - # 17
    frequency:   20.8650393448
  - # 18
    frequency:   25.2309101155
  - # 19
    frequency:   25.9086686649
  - # 20
    frequency:   25.9795071238
  - # 21
    frequency:   65.1185028368

- q-position: [    0.0353535,    0.0000000,    0.0000000 ]
  distance:    0.0121151
  band:
  - # 1
    frequency:    0.1138974650
  - # 2
    frequency:    0.6561984076
  - # 3
    frequency:    0.7081057673
  - # 4
    frequency:    2.0744900463
  - # 5
    frequency:    2.1223362106
  - # 6
    frequency:    4.2209861629
  - # 7
    frequency:    4.2943437039
  - # 8
    frequency:    5.6970152447
  - # 9
    frequency:    7.3339445697
  - # 10
    frequency:    7.3563022687
  - # 11
    frequency:   10.2145435109
  - # 12
    frequency:   10.2351049182
  - # 13
    frequency:   10.4294603061
  - # 14
    frequency:   11.0888968040
  - # 15
    frequency:   11.4648234357
  - # 16
    frequency:   11.8254186545
  - # 17
    frequency:   20.8640259950
  - # 18
    frequency:   25.2084548872
  - # 19
    frequency:   25.9070339595
  - # 20
    frequency:   26.0002257132
  - # 21
    frequency:   65.1172300307

- q-position: [    0.0404040,    0.0000000,    0.0000000 ]
  distance:    0.0138458
  band:
  - # 1
    frequency:    0.1471617766
  - # 2
    frequency:    0.7474800514
  - # 3
    frequency:    0.8075049759
  - # 4
    frequency:    2.0828957669
  - # 5
    frequency:    2.1446048434
  - # 6
    frequency:    4.2291682667
  - # 7
    frequency:    4.3235366488
  - # 8
    frequency:    5.6946769825
  - # 9
    frequency:    7.3355803799
  - # 10
    frequency:    7.3642925702
  - # 11
    frequency:   10.2035198190
  - # 12
    frequency:   10.2360988907
  - # 13
    frequency:   10.4053877988
  - # 14
    frequency:   11.0440708563
  - # 15
    frequency:   11.4784670862
  - # 16
    frequency:   11.8653088719
  - # 17
    frequency:   20.8628589649
  - # 18
    frequency:   25.1841377077
  - # 19
    frequency:   25.9051376568
  - # 20
    frequency:   26.0225601648
  - # 21
    frequency:   65.1157665671

- q-position: [    0.0454545,    0.0000000,    0.0000000 ]
  distance:    0.0155765
  band:
  - # 1
    frequency:    0.1840435817
  - # 2
    frequency:    0.8377337913
  - # 3
    frequency:    0.9061038011
  - # 4
    frequency:    2.0925077068
  - # 5
    frequency:    2.1695422249
  - # 6
    frequency:    4.2384376327
  - # 7
    frequency:    4.3558365731
  - # 8
    frequency:    5.6921617029
  - # 9
    frequency:    7.3374135085
  - # 10
    frequency:    7.3730563640
  - # 11
    frequency:   10.1859285431
  - # 12
    frequency:   10.2372070057
  - # 13
    frequency:   10.3813600879
  - # 14
    frequency:   11.0034074071
  - # 15
    frequency:   11.4936981104
  - # 16
    frequency:   11.9026512473
  - # 17
    frequency:   20.8615392334
  - # 18
    frequency:   25.1583163229
  - # 19
    frequency:   25.9029755550
  - # 20
    frequency:   26.0461617401
  - # 21
    frequency:   65.1141146338

- q-position: [    0.0505051,    0.0000000,    0.0000000 ]
  distance:    0.0173073
  band:
  - # 1
    frequency:    0.2242962665
  - # 2
    frequency:    0.9268013908
  - # 3
    frequency:    1.0037401215
  - # 4
    frequency:    2.1033699134
  - # 5
    frequency:    2.1970846918
  - # 6
    frequency:    4.2487921319
  - # 7
    frequency:    4.3909732945
  - # 8
    frequency:    5.6895206064
  - # 9
    frequency:    7.3394365062
  - # 10
    frequency:    7.3824887803
  - # 11
    frequency:   10.1589844046
  - # 12
    frequency:   10.2384241276
  - # 13
    frequency:   10.3601764834
  - # 14
    frequency:   10.9671274635
  - # 15
    frequency:   11.5104314527
  - # 16
    frequency:   11.9373779951
  - # 17
    frequency:   20.8600679239
  - # 18
    frequency:   25.1312973340
  - # 19
    frequency:   25.9005429756
  - # 20
    frequency:   26.0707340305
  - # 21
    frequency:   65.1122766951

- q-position: [    0.0555556,    0.0000000,    0.0000000 ]
  distance:    0.0190380
  band:
  - # 1
    frequency:    0.2676706390
  - # 2
    frequency:    1.0145118188
  - # 3
    frequency:    1.1002290751
  - # 4
    frequency:    2.1155394337
  - # 5
    frequency:    2.2271832043
  - # 6
    frequency:    4.2602289296
  - # 7
    frequency:    4.4286552008
  - # 8
    frequency:    5.6868123703
  - # 9
    frequency:    7.3416411928
  - # 10
    frequency:    7.3924744957
  - # 11
    frequency:   10.1208266659
  - # 12
    frequency:   10.2397453533
  - # 13
    frequency:   10.3440192762
  - # 14
    frequency:   10.9351331849
  - # 15
    frequency:   11.5285732652
  - # 16
    frequency:   11.9694563226
  - # 17
    frequency:   20.8584463076
  - # 18
    frequency:   25.1033407382
  - # 19
    frequency:   25.8978347936
  - # 20
    frequency:   26.0960284147
  - # 21
    frequency:   65.1102554858

- q-position: [    0.0606061,    0.0000000,    0.0000000 ]
  distance:    0.0207687
  band:
  - # 1
    frequency:    0.3139188580
  - # 2
    frequency:    1.1006784254
  - # 3
    frequency:    1.1953606550
  - # 4
    frequency:    2.1290894592
  - # 5
    frequency:    2.2598067179
  - # 6
    frequency:    4.2727443250
  - # 7
    frequency:    4.4685701239
  - # 8
    frequency:    5.6841044203
  - # 9
    frequency:    7.3440186692
  - # 10
    frequency:    7.4028878090
  - # 11
    frequency:   10.0716269413
  - # 12
    frequency:   10.2411661655
  - # 13
    frequency:   10.3333003961
  - # 14
    frequency:   10.9070618519
  - # 15
    frequency:   11.5480213793
  - # 16
    frequency:   11.9988815812
  - # 17
    frequency:   20.8566758038
  - # 18
    frequency:   25.0746660891
  - # 19
    frequency:   25.8948454697
  - # 20
    frequency:   26.1218378980
  - # 21
    frequency:   65.1080540054

- q-position: [    0.0656566,    0.0000000,    0.0000000 ]
  distance:    0.0224994
  band:
  - # 1
    frequency:    0.3627974770
  - # 2
    frequency:    1.1850956901
  - # 3
    frequency:    1.2888979781
  - # 4
    frequency:    2.1441129680
  - # 5
    frequency:    2.2949443387
  - # 6
    frequency:    4.2863335742
  - # 7
    frequency:    4.5103853224
  - # 8
    frequency:    5.6814747138
  - # 9
    frequency:    7.3465593174
  - # 10
    frequency:    7.4135925030
  - # 11
    frequency:   10.0130865164
  - # 12
    frequency:   10.2426825564
  - # 13
    frequency:   10.3270767835
  - # 14
    frequency:   10.8823794960
  - # 15
    frequency:   11.5686658420
  - # 16
    frequency:   12.0256728321
  - # 17
    frequency:   20.8547579806
  - # 18
    frequency:   25.0454588119
  - # 19
    frequency:   25.8915690853
  - # 20
    frequency:   26.1479907980
  - # 21
    frequency:   65.1056755108

- q-position: [    0.0707071,    0.0000000,    0.0000000 ]
  distance:    0.0242302
  band:
  - # 1
    frequency:    0.4140696602
  - # 2
    frequency:    1.2675356649
  - # 3
    frequency:    1.3805767919
  - # 4
    frequency:    2.1607267294
  - # 5
    frequency:    2.3326057483
  - # 6
    frequency:    4.3009906964
  - # 7
    frequency:    4.5537464598
  - # 8
    frequency:    5.6790141203
  - # 9
    frequency:    7.3492527900
  - # 10
    frequency:    7.4244414706
  - # 11
    frequency:    9.9472683279
  - # 12
    frequency:   10.2442911200
  - # 13
    frequency:   10.3241264064
  - # 14
    frequency:   10.8604782813
  - # 15
    frequency:   11.5903895121
  - # 16
    frequency:   12.0498696780
  - # 17
    frequency:   20.8526945520
  - # 18
    frequency:   25.0158759649
  - # 19
    frequency:   25.8879993795
  - # 20
    frequency:   26.1743449854
  - # 21
    frequency:   65.1031235094

- q-position: [    0.0757576,    0.0000000,    0.0000000 ]
  distance:    0.0259609
  band:
  - # 1
    frequency:    0.4675066559
  - # 2
    frequency:    1.3477444617
  - # 3
    frequency:    1.4701070088
  - # 4
    frequency:    2.1790753058
  - # 5
    frequency:    2.3728191638
  - # 6
    frequency:    4.3167082674
  - # 7
    frequency:    4.5982755158
  - # 8
    frequency:    5.6768294562
  - # 9
    frequency:    7.3520879881
  - # 10
    frequency:    7.4352761035
  - # 11
    frequency:    9.8759899341
  - # 12
    frequency:   10.2459891128
  - # 13
    frequency:   10.3234849424
  - # 14
    frequency:   10.8407518812
  - # 15
    frequency:   11.6130687093
  - # 16
    frequency:   12.0715297805
  - # 17
    frequency:   20.8504873745
  - # 18
    frequency:   24.9860511847
  - # 19
    frequency:   25.8841297885
  - # 20
    frequency:   26.2007829443
  - # 21
    frequency:   65.1004017509

- q-position: [    0.0808081,    0.0000000,    0.0000000 ]
  distance:    0.0276916
  band:
  - # 1
    frequency:    0.5228886265
  - # 2
    frequency:    1.4254395283
  - # 3
    frequency:    1.5571772510
  - # 4
    frequency:    2.1993342925
  - # 5
    frequency:    2.4156259025
  - # 6
    frequency:    4.3334772031
  - # 7
    frequency:    4.6435676431
  - # 8
    frequency:    5.6750471772
  - # 9
    frequency:    7.3550530325
  - # 10
    frequency:    7.4459254708
  - # 11
    frequency:    9.8007266085
  - # 12
    frequency:   10.2477744823
  - # 13
    frequency:   10.3245019910
  - # 14
    frequency:   10.8226411636
  - # 15
    frequency:   11.6365739078
  - # 16
    frequency:   12.0907267490
  - # 17
    frequency:   20.8481384411
  - # 18
    frequency:   24.9560987825
  - # 19
    frequency:   25.8799534860
  - # 20
    frequency:   26.2272076826
  - # 21
    frequency:   65.0975142187

- q-position: [    0.0858586,    0.0000000,    0.0000000 ]
  distance:    0.0294223
  band:
  - # 1
    frequency:    0.5800049275
  - # 2
    frequency:    1.5003090764
  - # 3
    frequency:    1.6414634268
  - # 4
    frequency:    2.2217114171
  - # 5
    frequency:    2.4610705710
  - # 6
    frequency:    4.3512865378
  - # 7
    frequency:    4.6891871165
  - # 8
    frequency:    5.6738176121
  - # 9
    frequency:    7.3581352284
  - # 10
    frequency:    7.4562053626
  - # 11
    frequency:    9.7226797606
  - # 12
    frequency:   10.2496458679
  - # 13
    frequency:   10.3267569758
  - # 14
    frequency:   10.8056549568
  - # 15
    frequency:   11.6607704643
  - # 16
    frequency:   12.1075482157
  - # 17
    frequency:   20.8456498730
  - # 18
    frequency:   24.9261170682
  - # 19
    frequency:   25.8754634263
  - # 20
    frequency:   26.2535394161
  - # 21
    frequency:   65.0944651215

- q-position: [    0.0909091,    0.0000000,    0.0000000 ]
  distance:    0.0311531
  band:
  - # 1
    frequency:    0.6386539176
  - # 2
    frequency:    1.5720158468
  - # 3
    frequency:    1.7226420518
  - # 4
    frequency:    2.2464432978
  - # 5
    frequency:    2.5091861854
  - # 6
    frequency:    4.3701232010
  - # 7
    frequency:    4.7346627497
  - # 8
    frequency:    5.6733194047
  - # 9
    frequency:    7.3613210295
  - # 10
    frequency:    7.4659173405
  - # 11
    frequency:    9.6428601897
  - # 12
    frequency:   10.2516025761
  - # 13
    frequency:   10.3299764163
  - # 14
    frequency:   10.7893747154
  - # 15
    frequency:   11.6855193701
  - # 16
    frequency:   12.1220939872
  - # 17
    frequency:   20.8430239097
  - # 18
    frequency:   24.8961910153
  - # 19
    frequency:   25.8706523877
  - # 20
    frequency:   26.2797129136
  - # 21
    frequency:   65.0912588833

- q-position: [    0.0959596,    0.0000000,    0.0000000 ]
  distance:    0.0328838
  band:
  - # 1
    frequency:    0.6986423586
  - # 2
    frequency:    1.6402081949
  - # 3
    frequency:    1.8004081696
  - # 4
    frequency:    2.2737848626
  - # 5
    frequency:    2.5599743751
  - # 6
    frequency:    4.3899717988
  - # 7
    frequency:    4.7794835437
  - # 8
    frequency:    5.6737634572
  - # 9
    frequency:    7.3645960047
  - # 10
    frequency:    7.4748480380
  - # 11
    frequency:    9.5621533033
  - # 12
    frequency:   10.2536445359
  - # 13
    frequency:   10.3339775183
  - # 14
    frequency:   10.7734508632
  - # 15
    frequency:   11.7106780169
  - # 16
    frequency:   12.1344742046
  - # 17
    frequency:   20.8402628970
  - # 18
    frequency:   24.8663943825
  - # 19
    frequency:   25.8655130179
  - # 20
    frequency:   26.3056753864
  - # 21
    frequency:   65.0879001339

- q-position: [    0.1010101,    0.0000000,    0.0000000 ]
  distance:    0.0346145
  band:
  - # 1
    frequency:    0.7597844436
  - # 2
    frequency:    1.7045416253
  - # 3
    frequency:    1.8744962703
  - # 4
    frequency:    2.3039882868
  - # 5
    frequency:    2.6133822623
  - # 6
    frequency:    4.4108144062
  - # 7
    frequency:    4.8230959234
  - # 8
    frequency:    5.6753950875
  - # 9
    frequency:    7.3679448118
  - # 10
    frequency:    7.4827690967
  - # 11
    frequency:    9.4813659244
  - # 12
    frequency:   10.2557722374
  - # 13
    frequency:   10.3386329358
  - # 14
    frequency:   10.7575960210
  - # 15
    frequency:   11.7361009663
  - # 16
    frequency:   12.1448074760
  - # 17
    frequency:   20.8373692735
  - # 18
    frequency:   24.8367913994
  - # 19
    frequency:   25.8600378812
  - # 20
    frequency:   26.3313848134
  - # 21
    frequency:   65.0843936987

- q-position: [    0.1060606,    0.0000000,    0.0000000 ]
  distance:    0.0363453
  band:
  - # 1
    frequency:    0.8219004616
  - # 2
    frequency:    1.7647123023
  - # 3
    frequency:    1.9447008606
  - # 4
    frequency:    2.3372699096
  - # 5
    frequency:    2.6692793457
  - # 6
    frequency:    4.4326303733
  - # 7
    frequency:    4.8649047298
  - # 8
    frequency:    5.6784923209
  - # 9
    frequency:    7.3713511842
  - # 10
    frequency:    7.4894383152
  - # 11
    frequency:    9.4012590636
  - # 12
    frequency:   10.2579866582
  - # 13
    frequency:   10.3438488490
  - # 14
    frequency:   10.7415780586
  - # 15
    frequency:   11.7616407131
  - # 16
    frequency:   12.1532189654
  - # 17
    frequency:   20.8343455554
  - # 18
    frequency:   24.8074381049
  - # 19
    frequency:   25.8542195054
  - # 20
    frequency:   26.3568086143
  - # 21
    frequency:   65.0807445879

- q-position: [    0.1111111,    0.0000000,    0.0000000 ]
  distance:    0.0380760
  band:
  - # 1
    frequency:    0.8848150777
  - # 2
    frequency:    1.8204997279
  - # 3
    frequency:    2.0108920847
  - # 4
    frequency:    2.3737679278
  - # 5
    frequency:    2.7274389680
  - # 6
    frequency:    4.4553961544
  - # 7
    frequency:    4.9042810310
  - # 8
    frequency:    5.6833573731
  - # 9
    frequency:    7.3747979331
  - # 10
    frequency:    7.4946028275
  - # 11
    frequency:    9.3225699899
  - # 12
    frequency:   10.2602891829
  - # 13
    frequency:   10.3495507445
  - # 14
    frequency:   10.7252144317
  - # 15
    frequency:   11.7871484363
  - # 16
    frequency:   12.1598384418
  - # 17
    frequency:   20.8311943203
  - # 18
    frequency:   24.7783834128
  - # 19
    frequency:   25.8480504314
  - # 20
    frequency:   26.3819225931
  - # 21
    frequency:   65.0769579859

- q-position: [    0.1161616,    0.0000000,    0.0000000 ]
  distance:    0.0398067
  band:
  - # 1
    frequency:    0.9483551674
  - # 2
    frequency:    1.8718093163
  - # 3
    frequency:    2.0730219798
  - # 4
    frequency:    2.4135001288
  - # 5
    frequency:    2.7875287696
  - # 6
    frequency:    4.4790851615
  - # 7
    frequency:    4.9405803380
  - # 8
    frequency:    5.6902978960
  - # 9
    frequency:    7.3782669703
  - # 10
    frequency:    7.4980053904
  - # 11
    frequency:    9.2460253380
  - # 12
    frequency:   10.2626815182
  - # 13
    frequency:   10.3556733442
  - # 14
    frequency:   10.7083684857
  - # 15
    frequency:   11.8124747282
  - # 16
    frequency:   12.1647983029
  - # 17
    frequency:   20.8279181904
  - # 18
    frequency:   24.7496699642
  - # 19
    frequency:   25.8415232635
  - # 20
    frequency:   26.4067100940
  - # 21
    frequency:   65.0730392397

- q-position: [    0.1212121,    0.0000000,    0.0000000 ]
  distance:    0.0415374
  band:
  - # 1
    frequency:    1.0123470962
  - # 2
    frequency:    1.9187006412
  - # 3
    frequency:    2.1311189789
  - # 4
    frequency:    2.4563358800
  - # 5
    frequency:    2.8491125257
  - # 6
    frequency:    4.5036676484
  - # 7
    frequency:    4.9731741398
  - # 8
    frequency:    5.6995952937
  - # 9
    frequency:    7.3817393540
  - # 10
    frequency:    7.4993950699
  - # 11
    frequency:    9.1723457642
  - # 12
    frequency:   10.2651656072
  - # 13
    frequency:   10.3621523375
  - # 14
    frequency:   10.6909481401
  - # 15
    frequency:   11.8374702984
  - # 16
    frequency:   12.1682316066
  - # 17
    frequency:   20.8245198151
  - # 18
    frequency:   24.7213348139
  - # 19
    frequency:   25.8346307207
  - # 20
    frequency:   26.4311613202
  - # 21
    frequency:   65.0689938477

- q-position: [    0.1262626,    0.0000000,    0.0000000 ]
  distance:    0.0432682
  band:
  - # 1
    frequency:    1.0766132701
  - # 2
    frequency:    1.9613888818
  - # 3
    frequency:    2.1852714768
  - # 4
    frequency:    2.5019948473
  - # 5
    frequency:    2.9116626093
  - # 6
    frequency:    4.5291106280
  - # 7
    frequency:    5.0014947874
  - # 8
    frequency:    5.7114603818
  - # 9
    frequency:    7.3851953605
  - # 10
    frequency:    7.4985436485
  - # 11
    frequency:    9.1022419092
  - # 12
    frequency:   10.2677435458
  - # 13
    frequency:   10.3689160715
  - # 14
    frequency:   10.6729074882
  - # 15
    frequency:   11.8619866471
  - # 16
    frequency:   12.1702701457
  - # 17
    frequency:   20.8210018538
  - # 18
    frequency:   24.6934099869
  - # 19
    frequency:   25.8273656901
  - # 20
    frequency:   26.4552727774
  - # 21
    frequency:   65.0648274480

- q-position: [    0.1313131,    0.0000000,    0.0000000 ]
  distance:    0.0449989
  band:
  - # 1
    frequency:    1.1409676883
  - # 2
    frequency:    2.0002168821
  - # 3
    frequency:    2.2356041543
  - # 4
    frequency:    2.5500750246
  - # 5
    frequency:    2.9745795348
  - # 6
    frequency:    4.5553778244
  - # 7
    frequency:    5.0250884187
  - # 8
    frequency:    5.7259821149
  - # 9
    frequency:    7.3886145821
  - # 10
    frequency:    7.4952687063
  - # 11
    frequency:    9.0364012525
  - # 12
    frequency:   10.2704175023
  - # 13
    frequency:   10.3758752425
  - # 14
    frequency:   10.6542523569
  - # 15
    frequency:   11.8858767052
  - # 16
    frequency:   12.1710426142
  - # 17
    frequency:   20.8173669588
  - # 18
    frequency:   24.6659229372
  - # 19
    frequency:   25.8197212811
  - # 20
    frequency:   26.4790468118
  - # 21
    frequency:   65.0605458061

- q-position: [    0.1363636,    0.0000000,    0.0000000 ]
  distance:    0.0467296
  band:
  - # 1
    frequency:    1.2052100951
  - # 2
    frequency:    2.0356074787
  - # 3
    frequency:    2.2822520299
  - # 4
    frequency:    2.6001004236
  - # 5
    frequency:    3.0372139210
  - # 6
    frequency:    4.5824296599
  - # 7
    frequency:    5.0436646522
  - # 8
    frequency:    5.7430811984
  - # 9
    frequency:    7.3919760517
  - # 10
    frequency:    7.4894633113
  - # 11
    frequency:    8.9754660019
  - # 12
    frequency:   10.2731896434
  - # 13
    frequency:   10.3829078176
  - # 14
    frequency:   10.6350519520
  - # 15
    frequency:   11.9089954398
  - # 16
    frequency:   12.1706729118
  - # 17
    frequency:   20.8136177594
  - # 18
    frequency:   24.6388969290
  - # 19
    frequency:   25.8116908822
  - # 20
    frequency:   26.5024912170
  - # 21
    frequency:   65.0561548033

- q-position: [    0.1414141,    0.0000000,    0.0000000 ]
  distance:    0.0484603
  band:
  - # 1
    frequency:    1.2691181205
  - # 2
    frequency:    2.0680119493
  - # 3
    frequency:    2.3253366662
  - # 4
    frequency:    2.6515725757
  - # 5
    frequency:    3.0988870168
  - # 6
    frequency:    4.6102232781
  - # 7
    frequency:    5.0571292242
  - # 8
    frequency:    5.7624831078
  - # 9
    frequency:    7.3952583926
  - # 10
    frequency:    7.4811304301
  - # 11
    frequency:    8.9200035572
  - # 12
    frequency:   10.2760620658
  - # 13
    frequency:   10.3898345305
  - # 14
    frequency:   10.6154607822
  - # 15
    frequency:   11.9312004227
  - # 16
    frequency:   12.1692786364
  - # 17
    frequency:   20.8097568467
  - # 18
    frequency:   24.6123513617
  - # 19
    frequency:   25.8032682187
  - # 20
    frequency:   26.5256188920
  - # 21
    frequency:   65.0516604242

- q-position: [    0.1464646,    0.0000000,    0.0000000 ]
  distance:    0.0501911
  band:
  - # 1
    frequency:    1.3324364899
  - # 2
    frequency:    2.0978677574
  - # 3
    frequency:    2.3649474077
  - # 4
    frequency:    2.7040126774
  - # 5
    frequency:    3.1589079207
  - # 6
    frequency:    4.6387125987
  - # 7
    frequency:    5.0655900395
  - # 8
    frequency:    5.7837208629
  - # 9
    frequency:    7.3984399909
  - # 10
    frequency:    7.4704176817
  - # 11
    frequency:    8.8704731545
  - # 12
    frequency:   10.2790367348
  - # 13
    frequency:   10.3963767415
  - # 14
    frequency:   10.5957587384
  - # 15
    frequency:   11.9523523641
  - # 16
    frequency:   12.1669698065
  - # 17
    frequency:   20.8057867600
  - # 18
    frequency:   24.5863020509
  - # 19
    frequency:   25.7944474126
  - # 20
    frequency:   26.5484475325
  - # 21
    frequency:   65.0470687447

- q-position: [    0.1515152,    0.0000000,    0.0000000 ]
  distance:    0.0519218
  band:
  - # 1
    frequency:    1.3948618964
  - # 2
    frequency:    2.1255713782
  - # 3
    frequency:    2.4011290439
  - # 4
    frequency:    2.7569886029
  - # 5
    frequency:    3.2165877900
  - # 6
    frequency:    4.6678484024
  - # 7
    frequency:    5.0693370150
  - # 8
    frequency:    5.8061680331
  - # 9
    frequency:    7.4014991883
  - # 10
    frequency:    7.4576455682
  - # 11
    frequency:    8.8271943852
  - # 12
    frequency:   10.2821154301
  - # 13
    frequency:   10.4020833025
  - # 14
    frequency:   10.5764224455
  - # 15
    frequency:   11.9723156103
  - # 16
    frequency:   12.1638478501
  - # 17
    frequency:   20.8017099748
  - # 18
    frequency:   24.5607614780
  - # 19
    frequency:   25.7852230456
  - # 20
    frequency:   26.5709993441
  - # 21
    frequency:   65.0423859192
