nqpoint: 300    
npath: 3      
segment_nqpoint:
- 100
- 100
- 100
labels:
- [ 'G', 'M' ]
- [ 'M', 'K' ]
- [ 'K', 'G' ]
reciprocal_lattice:
- [   0.28736747,   0.16591169,   0.00000000 ] # a*
- [   0.00000000,   0.33182338,   0.00000000 ] # b*
- [   0.00000000,   0.00000000,   0.03946139 ] # c*
natom: 6      
lattice:
- [     3.479864953701377,     0.000000000000000,     0.000000000000000 ] # a
- [    -1.739932476850688,     3.013651451618778,     0.000000000000000 ] # b
- [     0.000000000000000,     0.000000000000000,    25.341226893797927 ] # c
points:
- symbol: Br # 1
  coordinates: [  0.666666984744047,  0.333332985985145,  0.355152496669476 ]
  mass: 79.904000
- symbol: Cl # 2
  coordinates: [  0.333332985432215,  0.666666983183674,  0.644847503330524 ]
  mass: 35.453000
- symbol: N # 3
  coordinates: [  0.000000000000000,  0.000000000000000,  0.457718658093977 ]
  mass: 14.006700
- symbol: O # 4
  coordinates: [  0.333332985432215,  0.666666983183674,  0.537937253557878 ]
  mass: 15.999400
- symbol: Zr # 5
  coordinates: [  0.333332985432215,  0.666666983183674,  0.436155759741366 ]
  mass: 91.224000
- symbol: Zr # 6
  coordinates: [  0.666666984744047,  0.333332985985145,  0.572079807024657 ]
  mass: 91.224000

phonon:
- q-position: [    0.0000000,    0.0000000,    0.0000000 ]
  distance:    0.0000000
  band:
  - # 1
    frequency:  -20.6362565085
  - # 2
    frequency:  -20.6362565080
  - # 3
    frequency:   -0.0000239332
  - # 4
    frequency:    0.0000000849
  - # 5
    frequency:    0.0000183894
  - # 6
    frequency:    1.4824226638
  - # 7
    frequency:    1.6416261925
  - # 8
    frequency:    1.6416261927
  - # 9
    frequency:    3.6664634735
  - # 10
    frequency:    3.6664634736
  - # 11
    frequency:    4.8337367004
  - # 12
    frequency:    4.8337367005
  - # 13
    frequency:    6.3980474673
  - # 14
    frequency:    8.2034940484
  - # 15
    frequency:   13.5232999071
  - # 16
    frequency:   15.3349412982
  - # 17
    frequency:   16.4926597543
  - # 18
    frequency:   16.4926597544

- q-position: [    0.0050505,    0.0000000,    0.0000000 ]
  distance:    0.0016759
  band:
  - # 1
    frequency:  -20.6324352704
  - # 2
    frequency:  -20.6300617661
  - # 3
    frequency:   -0.0757444809
  - # 4
    frequency:   -0.0135252088
  - # 5
    frequency:    0.0064953599
  - # 6
    frequency:    1.4810709377
  - # 7
    frequency:    1.6416619463
  - # 8
    frequency:    1.6457528232
  - # 9
    frequency:    3.6667065929
  - # 10
    frequency:    3.6682338013
  - # 11
    frequency:    4.8325948531
  - # 12
    frequency:    4.8335483863
  - # 13
    frequency:    6.3976979389
  - # 14
    frequency:    8.2027661070
  - # 15
    frequency:   13.5188333524
  - # 16
    frequency:   15.3332730944
  - # 17
    frequency:   16.4920753743
  - # 18
    frequency:   16.4983433604

- q-position: [    0.0101010,    0.0000000,    0.0000000 ]
  distance:    0.0033518
  band:
  - # 1
    frequency:  -20.6209774578
  - # 2
    frequency:  -20.6114842273
  - # 3
    frequency:   -0.1511809134
  - # 4
    frequency:   -0.0326283206
  - # 5
    frequency:    0.0215288233
  - # 6
    frequency:    1.4776810501
  - # 7
    frequency:    1.6417580166
  - # 8
    frequency:    1.6574894991
  - # 9
    frequency:    3.6674343609
  - # 10
    frequency:    3.6735335268
  - # 11
    frequency:    4.8291788892
  - # 12
    frequency:    4.8329899994
  - # 13
    frequency:    6.3966491041
  - # 14
    frequency:    8.2005793814
  - # 15
    frequency:   13.5055052118
  - # 16
    frequency:   15.3283541187
  - # 17
    frequency:   16.4903231180
  - # 18
    frequency:   16.5152372852

- q-position: [    0.0151515,    0.0000000,    0.0000000 ]
  distance:    0.0050276
  band:
  - # 1
    frequency:  -20.6019007638
  - # 2
    frequency:  -20.5805439407
  - # 3
    frequency:   -0.2260091491
  - # 4
    frequency:   -0.0568091233
  - # 5
    frequency:    0.0416916789
  - # 6
    frequency:    1.4737657242
  - # 7
    frequency:    1.6418822113
  - # 8
    frequency:    1.6753857150
  - # 9
    frequency:    3.6686420366
  - # 10
    frequency:    3.6823290138
  - # 11
    frequency:    4.8235174724
  - # 12
    frequency:    4.8320812316
  - # 13
    frequency:    6.3949002129
  - # 14
    frequency:    8.1969251725
  - # 15
    frequency:   13.4835249365
  - # 16
    frequency:   15.3204223132
  - # 17
    frequency:   16.4874056369
  - # 18
    frequency:   16.5428949862

- q-position: [    0.0202020,    0.0000000,    0.0000000 ]
  distance:    0.0067035
  band:
  - # 1
    frequency:  -20.5752346424
  - # 2
    frequency:  -20.5372742744
  - # 3
    frequency:   -0.2999438318
  - # 4
    frequency:   -0.0853151580
  - # 5
    frequency:    0.0656918252
  - # 6
    frequency:    1.4708945991
  - # 7
    frequency:    1.6419852440
  - # 8
    frequency:    1.6979624976
  - # 9
    frequency:    3.6703218130
  - # 10
    frequency:    3.6945646472
  - # 11
    frequency:    4.8156581390
  - # 12
    frequency:    4.8308549890
  - # 13
    frequency:    6.3924500141
  - # 14
    frequency:    8.1917890014
  - # 15
    frequency:   13.4532254023
  - # 16
    frequency:   15.3098189084
  - # 17
    frequency:   16.4833273495
  - # 18
    frequency:   16.5806439512

- q-position: [    0.0252525,    0.0000000,    0.0000000 ]
  distance:    0.0083794
  band:
  - # 1
    frequency:  -20.5410202574
  - # 2
    frequency:  -20.4817218455
  - # 3
    frequency:   -0.3727194824
  - # 4
    frequency:   -0.1175703785
  - # 5
    frequency:    0.0928450108
  - # 6
    frequency:    1.4703185523
  - # 7
    frequency:    1.6420065365
  - # 8
    frequency:    1.7240698145
  - # 9
    frequency:    3.6724629573
  - # 10
    frequency:    3.7101634514
  - # 11
    frequency:    4.8056669392
  - # 12
    frequency:    4.8293575301
  - # 13
    frequency:    6.3892967533
  - # 14
    frequency:    8.1851506401
  - # 15
    frequency:   13.4150413592
  - # 16
    frequency:   15.2969278665
  - # 17
    frequency:   16.4780944408
  - # 18
    frequency:   16.6276680717

- q-position: [    0.0303030,    0.0000000,    0.0000000 ]
  distance:    0.0100553
  band:
  - # 1
    frequency:  -20.4993104100
  - # 2
    frequency:  -20.4139464218
  - # 3
    frequency:   -0.4440933698
  - # 4
    frequency:   -0.1530606579
  - # 5
    frequency:    0.1227186321
  - # 6
    frequency:    1.4729386095
  - # 7
    frequency:    1.6418810648
  - # 8
    frequency:    1.7528949554
  - # 9
    frequency:    3.6750520042
  - # 10
    frequency:    3.7290278609
  - # 11
    frequency:    4.7936279315
  - # 12
    frequency:    4.8276486746
  - # 13
    frequency:    6.3854381709
  - # 14
    frequency:    8.1769841618
  - # 15
    frequency:   13.3694840247
  - # 16
    frequency:   15.2821222233
  - # 17
    frequency:   16.4717148610
  - # 18
    frequency:   16.6830870719

- q-position: [    0.0353535,    0.0000000,    0.0000000 ]
  distance:    0.0117311
  band:
  - # 1
    frequency:  -20.4501694467
  - # 2
    frequency:  -20.3340207956
  - # 3
    frequency:   -0.5138461514
  - # 4
    frequency:   -0.1912779714
  - # 5
    frequency:    0.1550111708
  - # 6
    frequency:    1.4793722373
  - # 7
    frequency:    1.6415463805
  - # 8
    frequency:    1.7838723476
  - # 9
    frequency:    3.6780729987
  - # 10
    frequency:    3.7510405502
  - # 11
    frequency:    4.7796425240
  - # 12
    frequency:    4.8258021045
  - # 13
    frequency:    6.3808715005
  - # 14
    frequency:    8.1672580131
  - # 15
    frequency:   13.3171151144
  - # 16
    frequency:   15.2657279038
  - # 17
    frequency:   16.4641983238
  - # 18
    frequency:   16.7460191286

- q-position: [    0.0404040,    0.0000000,    0.0000000 ]
  distance:    0.0134070
  band:
  - # 1
    frequency:  -20.3936731474
  - # 2
    frequency:  -20.2420306295
  - # 3
    frequency:   -0.5817805851
  - # 4
    frequency:   -0.2317015549
  - # 5
    frequency:    0.1894966133
  - # 6
    frequency:    1.4900141277
  - # 7
    frequency:    1.6409490953
  - # 8
    frequency:    1.8166017021
  - # 9
    frequency:    3.6815077856
  - # 10
    frequency:    3.7760652083
  - # 11
    frequency:    4.7638286576
  - # 12
    frequency:    4.8239057877
  - # 13
    frequency:    6.3755934677
  - # 14
    frequency:    8.1559351197
  - # 15
    frequency:   13.2585230495
  - # 16
    frequency:   15.2480065905
  - # 17
    frequency:   16.4555563037
  - # 18
    frequency:   16.8156223526

- q-position: [    0.0454545,    0.0000000,    0.0000000 ]
  distance:    0.0150829
  band:
  - # 1
    frequency:  -20.3299085930
  - # 2
    frequency:  -20.1380742742
  - # 3
    frequency:   -0.6477187963
  - # 4
    frequency:   -0.2737995877
  - # 5
    frequency:    0.2259941253
  - # 6
    frequency:    1.5050774687
  - # 7
    frequency:    1.6400503607
  - # 8
    frequency:    1.8507923370
  - # 9
    frequency:    3.6853363409
  - # 10
    frequency:    3.8039471259
  - # 11
    frequency:    4.7463198291
  - # 12
    frequency:    4.8220625700
  - # 13
    frequency:    6.3696002898
  - # 14
    frequency:    8.1429730338
  - # 15
    frequency:   13.1943031608
  - # 16
    frequency:   15.2291535652
  - # 17
    frequency:   16.4458020324
  - # 18
    frequency:   16.8911173835

- q-position: [    0.0505051,    0.0000000,    0.0000000 ]
  distance:    0.0167588
  band:
  - # 1
    frequency:  -20.2589740137
  - # 2
    frequency:  -20.0222625579
  - # 3
    frequency:   -0.7114986310
  - # 4
    frequency:   -0.3170415711
  - # 5
    frequency:    0.2643500812
  - # 6
    frequency:    1.5246239830
  - # 7
    frequency:    1.6388301229
  - # 8
    frequency:    1.8862279155
  - # 9
    frequency:    3.6895371409
  - # 10
    frequency:    3.8345134420
  - # 11
    frequency:    4.7272639468
  - # 12
    frequency:    4.8203909970
  - # 13
    frequency:    6.3628876764
  - # 14
    frequency:    8.1283241393
  - # 15
    frequency:   13.1250427215
  - # 16
    frequency:   15.2093047185
  - # 17
    frequency:   16.4349504937
  - # 18
    frequency:   16.9717960634

- q-position: [    0.0555556,    0.0000000,    0.0000000 ]
  distance:    0.0184346
  band:
  - # 1
    frequency:  -20.1809786188
  - # 2
    frequency:  -19.8947185484
  - # 3
    frequency:   -0.7729695710
  - # 4
    frequency:   -0.3609141913
  - # 5
    frequency:    0.3044271411
  - # 6
    frequency:    1.5485905666
  - # 7
    frequency:    1.6372901329
  - # 8
    frequency:    1.9227441421
  - # 9
    frequency:    3.6940875661
  - # 10
    frequency:    3.8675728874
  - # 11
    frequency:    4.7068220205
  - # 12
    frequency:    4.8190264516
  - # 13
    frequency:    6.3554508290
  - # 14
    frequency:    8.1119359333
  - # 15
    frequency:   13.0513108149
  - # 16
    frequency:   15.1885476780
  - # 17
    frequency:   16.4230184174
  - # 18
    frequency:   17.0570212137

- q-position: [    0.0606061,    0.0000000,    0.0000000 ]
  distance:    0.0201105
  band:
  - # 1
    frequency:  -20.0960424059
  - # 2
    frequency:  -19.7555772871
  - # 3
    frequency:   -0.8319885836
  - # 4
    frequency:   -0.4049354084
  - # 5
    frequency:    0.3460977300
  - # 6
    frequency:    1.5768158835
  - # 7
    frequency:    1.6354558188
  - # 8
    frequency:    1.9602142678
  - # 9
    frequency:    3.6989643340
  - # 10
    frequency:    3.9029148474
  - # 11
    frequency:    4.6851666845
  - # 12
    frequency:    4.8181227132
  - # 13
    frequency:    6.3472844404
  - # 14
    frequency:    8.0937514052
  - # 15
    frequency:   12.9736524860
  - # 16
    frequency:   15.1669336431
  - # 17
    frequency:   16.4100242704
  - # 18
    frequency:   17.1462214620

- q-position: [    0.0656566,    0.0000000,    0.0000000 ]
  distance:    0.0217864
  band:
  - # 1
    frequency:  -20.0042959528
  - # 2
    frequency:  -19.6049854948
  - # 3
    frequency:   -0.8884161615
  - # 4
    frequency:   -0.4486637189
  - # 5
    frequency:    0.3892403848
  - # 6
    frequency:    1.6090668446
  - # 7
    frequency:    1.6333771874
  - # 8
    frequency:    1.9985393083
  - # 9
    frequency:    3.7041439606
  - # 10
    frequency:    3.9403075642
  - # 11
    frequency:    4.6624805589
  - # 12
    frequency:    4.8178540624
  - # 13
    frequency:    6.3383826910
  - # 14
    frequency:    8.0737095459
  - # 15
    frequency:   12.8925863404
  - # 16
    frequency:   15.1444880595
  - # 17
    frequency:   16.3959882461
  - # 18
    frequency:   17.2388837978

- q-position: [    0.0707071,    0.0000000,    0.0000000 ]
  distance:    0.0234623
  band:
  - # 1
    frequency:  -19.9058801901
  - # 2
    frequency:  -19.4431012507
  - # 3
    frequency:   -0.9421127019
  - # 4
    frequency:   -0.4917017072
  - # 5
    frequency:    0.4337379660
  - # 6
    frequency:    1.6311289310
  - # 7
    frequency:    1.6450633442
  - # 8
    frequency:    2.0376411758
  - # 9
    frequency:    3.7096032460
  - # 10
    frequency:    3.9794953142
  - # 11
    frequency:    4.6389544571
  - # 12
    frequency:    4.8184180631
  - # 13
    frequency:    6.3287392411
  - # 14
    frequency:    8.0517460188
  - # 15
    frequency:   12.8086046793
  - # 16
    frequency:   15.1212193711
  - # 17
    frequency:   16.3809322512
  - # 18
    frequency:   17.3345455022

- q-position: [    0.0757576,    0.0000000,    0.0000000 ]
  distance:    0.0251381
  band:
  - # 1
    frequency:  -19.8009461551
  - # 2
    frequency:  -19.2700936425
  - # 3
    frequency:   -0.9929352965
  - # 4
    frequency:   -0.5336946318
  - # 5
    frequency:    0.4794770459
  - # 6
    frequency:    1.6288098952
  - # 7
    frequency:    1.6844995582
  - # 8
    frequency:    2.0774576887
  - # 9
    frequency:    3.7153197845
  - # 10
    frequency:    4.0201944405
  - # 11
    frequency:    4.6147854528
  - # 12
    frequency:    4.8200391178
  - # 13
    frequency:    6.3183472175
  - # 14
    frequency:    8.0277940377
  - # 15
    frequency:   12.7221753257
  - # 16
    frequency:   15.0971257458
  - # 17
    frequency:   16.3648798894
  - # 18
    frequency:   17.4327863657

- q-position: [    0.0808081,    0.0000000,    0.0000000 ]
  distance:    0.0268140
  band:
  - # 1
    frequency:  -19.6896547274
  - # 2
    frequency:  -19.0861423907
  - # 3
    frequency:   -1.0407349457
  - # 4
    frequency:   -0.5743256258
  - # 5
    frequency:    0.5263479810
  - # 6
    frequency:    1.6265420265
  - # 7
    frequency:    1.7270607839
  - # 8
    frequency:    2.1179388522
  - # 9
    frequency:    3.7212724988
  - # 10
    frequency:    4.0620882456
  - # 11
    frequency:    4.5901748253
  - # 12
    frequency:    4.8229727916
  - # 13
    frequency:    6.3071991936
  - # 14
    frequency:    8.0017854993
  - # 15
    frequency:   12.6337444271
  - # 16
    frequency:   15.0721999942
  - # 17
    frequency:   16.3478564414
  - # 18
    frequency:   17.5332216504

- q-position: [    0.0858586,    0.0000000,    0.0000000 ]
  distance:    0.0284899
  band:
  - # 1
    frequency:  -19.5721763459
  - # 2
    frequency:  -18.8914374441
  - # 3
    frequency:   -1.0853541718
  - # 4
    frequency:   -0.6133092269
  - # 5
    frequency:    0.5742453252
  - # 6
    frequency:    1.6244688831
  - # 7
    frequency:    1.7724356143
  - # 8
    frequency:    2.1590440608
  - # 9
    frequency:    3.7274421982
  - # 10
    frequency:    4.1048210031
  - # 11
    frequency:    4.5653259062
  - # 12
    frequency:    4.8275106577
  - # 13
    frequency:    6.2952871637
  - # 14
    frequency:    7.9736524294
  - # 15
    frequency:   12.5437396706
  - # 16
    frequency:   15.0464330194
  - # 17
    frequency:   16.3298888418
  - # 18
    frequency:   17.6354959764

- q-position: [    0.0909091,    0.0000000,    0.0000000 ]
  distance:    0.0301658
  band:
  - # 1
    frequency:  -19.4486907069
  - # 2
    frequency:  -18.6861785498
  - # 3
    frequency:   -1.1266249884
  - # 4
    frequency:   -0.6503846451
  - # 5
    frequency:    0.6230683434
  - # 6
    frequency:    1.6227537629
  - # 7
    frequency:    1.8203238390
  - # 8
    frequency:    2.2007400234
  - # 9
    frequency:    3.7338121636
  - # 10
    frequency:    4.1479918331
  - # 11
    frequency:    4.5404418553
  - # 12
    frequency:    4.8339849403
  - # 13
    frequency:    6.2826025141
  - # 14
    frequency:    7.9433288055
  - # 15
    frequency:   12.4525734917
  - # 16
    frequency:   15.0198161421
  - # 17
    frequency:   16.3110056514
  - # 18
    frequency:   17.7392781608

- q-position: [    0.0959596,    0.0000000,    0.0000000 ]
  distance:    0.0318416
  band:
  - # 1
    frequency:  -19.3193864426
  - # 2
    frequency:  -18.4705747962
  - # 3
    frequency:   -1.1643671610
  - # 4
    frequency:   -0.6853097167
  - # 5
    frequency:    0.6727214661
  - # 6
    frequency:    1.6215774785
  - # 7
    frequency:    1.8704407567
  - # 8
    frequency:    2.2429993203
  - # 9
    frequency:    3.7403687585
  - # 10
    frequency:    4.1911500099
  - # 11
    frequency:    4.5157234018
  - # 12
    frequency:    4.8427714145
  - # 13
    frequency:    6.2691360003
  - # 14
    frequency:    7.9107528267
  - # 15
    frequency:   12.3606459751
  - # 16
    frequency:   14.9923426008
  - # 17
    frequency:   16.2912370249
  - # 18
    frequency:   17.8442569569

- q-position: [    0.1010101,    0.0000000,    0.0000000 ]
  distance:    0.0335175
  band:
  - # 1
    frequency:  -19.1844607796
  - # 2
    frequency:  -18.2448441299
  - # 3
    frequency:   -1.1983866854
  - # 4
    frequency:   -0.7178560472
  - # 5
    frequency:    0.7231145776
  - # 6
    frequency:    1.6211358030
  - # 7
    frequency:    1.9225186185
  - # 8
    frequency:    2.2857995759
  - # 9
    frequency:    3.7471020663
  - # 10
    frequency:    4.2337944878
  - # 11
    frequency:    4.4913665865
  - # 12
    frequency:    4.8542878061
  - # 13
    frequency:    6.2548777440
  - # 14
    frequency:    7.8758697044
  - # 15
    frequency:   12.2683472447
  - # 16
    frequency:   14.9640084685
  - # 17
    frequency:   16.2706146746
  - # 18
    frequency:   17.9501376063

- q-position: [    0.1060606,    0.0000000,    0.0000000 ]
  distance:    0.0351934
  band:
  - # 1
    frequency:  -19.0441191764
  - # 2
    frequency:  -18.0092128477
  - # 3
    frequency:   -1.2284743942
  - # 4
    frequency:   -0.7478055139
  - # 5
    frequency:    0.7741630685
  - # 6
    frequency:    1.6216366059
  - # 7
    frequency:    1.9763057922
  - # 8
    frequency:    2.3291233036
  - # 9
    frequency:    3.7540065504
  - # 10
    frequency:    4.2753818276
  - # 11
    frequency:    4.4675605504
  - # 12
    frequency:    4.8689835243
  - # 13
    frequency:    6.2398172776
  - # 14
    frequency:    7.8386350483
  - # 15
    frequency:   12.1760592087
  - # 16
    frequency:   14.9348131708
  - # 17
    frequency:   16.2491718278
  - # 18
    frequency:   18.0566391022

- q-position: [    0.1111111,    0.0000000,    0.0000000 ]
  distance:    0.0368693
  band:
  - # 1
    frequency:  -18.8985749391
  - # 2
    frequency:  -17.7639150649
  - # 3
    frequency:   -1.2544045816
  - # 4
    frequency:   -0.7749480711
  - # 5
    frequency:    0.8257876046
  - # 6
    frequency:    1.6232967131
  - # 7
    frequency:    2.0315640334
  - # 8
    frequency:    2.3729585517
  - # 9
    frequency:    3.7610817287
  - # 10
    frequency:    4.3153475050
  - # 11
    frequency:    4.4444854139
  - # 12
    frequency:    4.8873157515
  - # 13
    frequency:    6.2239436838
  - # 14
    frequency:    7.7990189154
  - # 15
    frequency:   12.0841565896
  - # 16
    frequency:   14.9047597389
  - # 17
    frequency:   16.2269431795
  - # 18
    frequency:   18.1634920649

- q-position: [    0.1161616,    0.0000000,    0.0000000 ]
  distance:    0.0385451
  band:
  - # 1
    frequency:  -18.7480488130
  - # 2
    frequency:  -17.5091921601
  - # 3
    frequency:   -1.2759335109
  - # 4
    frequency:   -0.7990806831
  - # 5
    frequency:    0.8779135736
  - # 6
    frequency:    1.6263385396
  - # 7
    frequency:    2.0880640203
  - # 8
    frequency:    2.4173005583
  - # 9
    frequency:    3.7683328492
  - # 10
    frequency:    4.3531441726
  - # 11
    frequency:    4.4223103007
  - # 12
    frequency:    4.9097082915
  - # 13
    frequency:    6.2072459031
  - # 14
    frequency:    7.7570105817
  - # 15
    frequency:   11.9930072058
  - # 16
    frequency:   14.8738548944
  - # 17
    frequency:   16.2039648393
  - # 18
    frequency:   18.2704371336

- q-position: [    0.1212121,    0.0000000,    0.0000000 ]
  distance:    0.0402210
  band:
  - # 1
    frequency:  -18.5927685490
  - # 2
    frequency:  -17.2452921995
  - # 3
    frequency:   -1.2927976279
  - # 4
    frequency:   -0.8200071447
  - # 5
    frequency:    0.9304701715
  - # 6
    frequency:    1.6309865681
  - # 7
    frequency:    2.1455790919
  - # 8
    frequency:    2.4621547065
  - # 9
    frequency:    3.7757715435
  - # 10
    frequency:    4.3882950643
  - # 11
    frequency:    4.4011915590
  - # 12
    frequency:    4.9364949201
  - # 13
    frequency:    6.1897133340
  - # 14
    frequency:    7.7126240724
  - # 15
    frequency:   11.9029715169
  - # 16
    frequency:   14.8421090311
  - # 17
    frequency:   16.1802742720
  - # 18
    frequency:   18.3772237901

- q-position: [    0.1262626,    0.0000000,    0.0000000 ]
  distance:    0.0418969
  band:
  - # 1
    frequency:  -18.4329684422
  - # 2
    frequency:  -16.9724693420
  - # 3
    frequency:   -1.3047112483
  - # 4
    frequency:   -0.8375385307
  - # 5
    frequency:    0.9833890858
  - # 6
    frequency:    1.6374637710
  - # 7
    frequency:    2.2038769540
  - # 8
    frequency:    2.5075411488
  - # 9
    frequency:    3.7834164257
  - # 10
    frequency:    4.3812712434
  - # 11
    frequency:    4.4204516653
  - # 12
    frequency:    4.9678579794
  - # 13
    frequency:    6.1713369216
  - # 14
    frequency:    7.6659044583
  - # 15
    frequency:   11.8144014770
  - # 16
    frequency:   14.8095361409
  - # 17
    frequency:   16.1559102320
  - # 18
    frequency:   18.4836095401

- q-position: [    0.1313131,    0.0000000,    0.0000000 ]
  distance:    0.0435728
  band:
  - # 1
    frequency:  -18.2688888411
  - # 2
    frequency:  -16.6909832288
  - # 3
    frequency:   -1.3113634055
  - # 4
    frequency:   -0.8514940126
  - # 5
    frequency:    1.0366027202
  - # 6
    frequency:    1.6459880980
  - # 7
    frequency:    2.2627090194
  - # 8
    frequency:    2.5535014924
  - # 9
    frequency:    3.7912935938
  - # 10
    frequency:    4.3626759204
  - # 11
    frequency:    4.4494369132
  - # 12
    frequency:    5.0037807180
  - # 13
    frequency:    6.1521110490
  - # 14
    frequency:    7.6169348797
  - # 15
    frequency:   11.7276387752
  - # 16
    frequency:   14.7761537104
  - # 17
    frequency:   16.1309126917
  - # 18
    frequency:   18.5893593859

- q-position: [    0.1363636,    0.0000000,    0.0000000 ]
  distance:    0.0452486
  band:
  - # 1
    frequency:  -18.1007756238
  - # 2
    frequency:  -16.4010983617
  - # 3
    frequency:   -1.3124134194
  - # 4
    frequency:   -0.8617017801
  - # 5
    frequency:    1.0900418904
  - # 6
    frequency:    1.6567691684
  - # 7
    frequency:    2.3217971423
  - # 8
    frequency:    2.6001078003
  - # 9
    frequency:    3.7994369814
  - # 10
    frequency:    4.3455158672
  - # 11
    frequency:    4.4752562991
  - # 12
    frequency:    5.0440306138
  - # 13
    frequency:    6.1320367354
  - # 14
    frequency:    7.5658442008
  - # 15
    frequency:   11.6430125750
  - # 16
    frequency:   14.7419826092
  - # 17
    frequency:   16.1053227630
  - # 18
    frequency:   18.6942455347

- q-position: [    0.1414141,    0.0000000,    0.0000000 ]
  distance:    0.0469245
  band:
  - # 1
    frequency:  -17.9288796383
  - # 2
    frequency:  -16.1030834739
  - # 3
    frequency:   -1.3074845550
  - # 4
    frequency:   -0.8679998052
  - # 5
    frequency:    1.1436329021
  - # 6
    frequency:    1.6700053158
  - # 7
    frequency:    2.3808179974
  - # 8
    frequency:    2.6474736561
  - # 9
    frequency:    3.8078884976
  - # 10
    frequency:    4.3298847358
  - # 11
    frequency:    4.4980719316
  - # 12
    frequency:    5.0881779646
  - # 13
    frequency:    6.1111269551
  - # 14
    frequency:    7.5128151178
  - # 15
    frequency:   11.5608368973
  - # 16
    frequency:   14.7070469791
  - # 17
    frequency:   16.0791826119
  - # 18
    frequency:   18.7980472940

- q-position: [    0.1464646,    0.0000000,    0.0000000 ]
  distance:    0.0486004
  band:
  - # 1
    frequency:  -17.7534561052
  - # 2
    frequency:  -15.7972109025
  - # 3
    frequency:   -1.2961548332
  - # 4
    frequency:   -0.8702361759
  - # 5
    frequency:    1.1972938989
  - # 6
    frequency:    1.6858811277
  - # 7
    frequency:    2.4393866011
  - # 8
    frequency:    2.6957657902
  - # 9
    frequency:    3.8166978937
  - # 10
    frequency:    4.3158597526
  - # 11
    frequency:    4.5181509334
  - # 12
    frequency:    5.1356372970
  - # 13
    frequency:    6.0894153942
  - # 14
    frequency:    7.4580924432
  - # 15
    frequency:   11.4814078138
  - # 16
    frequency:   14.6713741318
  - # 17
    frequency:   16.0525353673
  - # 18
    frequency:   18.9005511147

- q-position: [    0.1515152,    0.0000000,    0.0000000 ]
  distance:    0.0502763
  band:
  - # 1
    frequency:  -17.5747639771
  - # 2
    frequency:  -15.4837559699
  - # 3
    frequency:   -1.2779435398
  - # 4
    frequency:   -0.8682687040
  - # 5
    frequency:    1.2509303390
  - # 6
    frequency:    1.7045656014
  - # 7
    frequency:    2.4970428933
  - # 8
    frequency:    2.7452123783
  - # 9
    frequency:    3.8259222928
  - # 10
    frequency:    4.3035025180
  - # 11
    frequency:    4.5358077903
  - # 12
    frequency:    5.1857101495
  - # 13
    frequency:    6.0669708113
  - # 14
    frequency:    7.4019911685
  - # 15
    frequency:   11.4050006352
  - # 16
    frequency:   14.6349944566
  - # 17
    frequency:   16.0254250219
  - # 18
    frequency:   19.0015507453

- q-position: [    0.1565657,    0.0000000,    0.0000000 ]
  distance:    0.0519521
  band:
  - # 1
    frequency:  -17.3930652539
  - # 2
    frequency:  -15.1629963871
  - # 3
    frequency:   -1.2522910946
  - # 4
    frequency:   -0.8619634730
  - # 5
    frequency:    1.3044294238
  - # 6
    frequency:    1.7262110007
  - # 7
    frequency:    2.5532487587
  - # 8
    frequency:    2.7961007091
  - # 9
    frequency:    3.8356253351
  - # 10
    frequency:    4.2928604657
  - # 11
    frequency:    4.5513569297
  - # 12
    frequency:    5.2376098544
  - # 13
    frequency:    6.0439205754
  - # 14
    frequency:    7.3449037576
  - # 15
    frequency:   11.3318672847
  - # 16
    frequency:   14.5979413385
  - # 17
    frequency:   15.9978963273
  - # 18
    frequency:   19.1008474707

- q-position: [    0.1616162,    0.0000000,    0.0000000 ]
  distance:    0.0536280
  band:
  - # 1
    frequency:  -17.2086242502
  - # 2
    frequency:  -14.8352116938
  - # 3
    frequency:   -1.2185283307
  - # 4
    frequency:   -0.8511919289
  - # 5
    frequency:    1.3576532506
  - # 6
    frequency:    1.7509524432
  - # 7
    frequency:    2.6074054391
  - # 8
    frequency:    2.8487544400
  - # 9
    frequency:    3.8458758988
  - # 10
    frequency:    4.2839690221
  - # 11
    frequency:    4.5650827082
  - # 12
    frequency:    5.2904558283
  - # 13
    frequency:    6.0204893153
  - # 14
    frequency:    7.2873059714
  - # 15
    frequency:   11.2622340323
  - # 16
    frequency:   14.5602510870
  - # 17
    frequency:   15.9699946816
  - # 18
    frequency:   19.1982504091

- q-position: [    0.1666667,    0.0000000,    0.0000000 ]
  distance:    0.0553039
  band:
  - # 1
    frequency:  -17.0217068115
  - # 2
    frequency:  -14.5006827572
  - # 3
    frequency:   -1.1758281845
  - # 4
    frequency:   -0.8358260172
  - # 5
    frequency:    1.4104303942
  - # 6
    frequency:    1.7789081851
  - # 7
    frequency:    2.6588981159
  - # 8
    frequency:    2.9034839673
  - # 9
    frequency:    3.8567463813
  - # 10
    frequency:    4.2768545032
  - # 11
    frequency:    4.5772262912
  - # 12
    frequency:    5.3432289786
  - # 13
    frequency:    5.9970623442
  - # 14
    frequency:    7.2297603742
  - # 15
    frequency:   11.1962997422
  - # 16
    frequency:   14.5219628717
  - # 17
    frequency:   15.9417660109
  - # 18
    frequency:   19.2935768486

- q-position: [    0.1717172,    0.0000000,    0.0000000 ]
  distance:    0.0569798
  band:
  - # 1
    frequency:  -16.8325794788
  - # 2
    frequency:  -14.1596913555
  - # 3
    frequency:   -1.1231265990
  - # 4
    frequency:   -0.8157306999
  - # 5
    frequency:    1.4625455236
  - # 6
    frequency:    1.8101804872
  - # 7
    frequency:    2.7071610547
  - # 8
    frequency:    2.9605170404
  - # 9
    frequency:    3.8683105360
  - # 10
    frequency:    4.2715377745
  - # 11
    frequency:    4.5879853723
  - # 12
    frequency:    5.3946784785
  - # 13
    frequency:    5.9742884603
  - # 14
    frequency:    7.1729165884
  - # 15
    frequency:   11.1342347424
  - # 16
    frequency:   14.4831186649
  - # 17
    frequency:   15.9132566444
  - # 18
    frequency:   19.3866526063

- q-position: [    0.1767677,    0.0000000,    0.0000000 ]
  distance:    0.0586556
  band:
  - # 1
    frequency:  -16.6415085993
  - # 2
    frequency:  -13.8125198823
  - # 3
    frequency:   -1.0589859193
  - # 4
    frequency:   -0.7907528946
  - # 5
    frequency:    1.5137265316
  - # 6
    frequency:    1.8448568693
  - # 7
    frequency:    2.7517386679
  - # 8
    frequency:    3.0199350834
  - # 9
    frequency:    3.8806408679
  - # 10
    frequency:    4.2680387098
  - # 11
    frequency:    4.5975224032
  - # 12
    frequency:    5.4431684235
  - # 13
    frequency:    5.9532386139
  - # 14