nqpoint: 300    
npath: 3      
segment_nqpoint:
- 100
- 100
- 100
labels:
- [ 'G', 'M' ]
- [ 'M', 'K' ]
- [ 'K', 'G' ]
reciprocal_lattice:
- [   0.30232276,   0.17454613,   0.00000000 ] # a*
- [   0.00000000,   0.34909226,   0.00000000 ] # b*
- [   0.00000000,   0.00000000,   0.04207935 ] # c*
natom: 6      
lattice:
- [     3.307723158326014,     0.000000000000000,     0.000000000000000 ] # a
- [    -1.653861579163007,     2.864572283785852,     0.000000000000000 ] # b
- [     0.000000000000000,     0.000000000000000,    23.764625757608709 ] # c
points:
- symbol: C # 1
  coordinates: [  0.000000000000000,  0.000000000000000,  0.525671053074396 ]
  mass: 12.010700
- symbol: H # 2
  coordinates: [  0.333332985432215,  0.666666983183674,  0.621285851845638 ]
  mass: 1.007940
- symbol: H # 3
  coordinates: [  0.666666984744047,  0.333332985985145,  0.378714148154362 ]
  mass: 1.007940
- symbol: O # 4
  coordinates: [  0.666666984744047,  0.333332985985145,  0.420082876249870 ]
  mass: 15.999400
- symbol: Sc # 5
  coordinates: [  0.333332985432215,  0.666666983183674,  0.471952520669618 ]
  mass: 44.955912
- symbol: Sc # 6
  coordinates: [  0.666666984744047,  0.333332985985145,  0.578049063675475 ]
  mass: 44.955912

phonon:
- q-position: [    0.0000000,    0.0000000,    0.0000000 ]
  distance:    0.0000000
  band:
  - # 1
    frequency:   -0.0000034890
  - # 2
    frequency:    0.0000023945
  - # 3
    frequency:    0.0000029093
  - # 4
    frequency:    5.2903949304
  - # 5
    frequency:    5.2903949304
  - # 6
    frequency:    7.0624024003
  - # 7
    frequency:    7.0624024003
  - # 8
    frequency:    8.9672297537
  - # 9
    frequency:    9.7780529941
  - # 10
    frequency:    9.7780529941
  - # 11
    frequency:   11.5730271969
  - # 12
    frequency:   11.5730271969
  - # 13
    frequency:   13.9929185684
  - # 14
    frequency:   19.6124914587
  - # 15
    frequency:   25.4255904539
  - # 16
    frequency:   25.4255904539
  - # 17
    frequency:   27.6275652214
  - # 18
    frequency:  115.3377667007

- q-position: [    0.0050505,    0.0000000,    0.0000000 ]
  distance:    0.0017631
  band:
  - # 1
    frequency:   -0.0306947206
  - # 2
    frequency:    0.0980737399
  - # 3
    frequency:    0.1530214939
  - # 4
    frequency:    5.2907725866
  - # 5
    frequency:    5.2921119549
  - # 6
    frequency:    7.0628423632
  - # 7
    frequency:    7.0671375245
  - # 8
    frequency:    8.9665347292
  - # 9
    frequency:    9.7784624437
  - # 10
    frequency:    9.7799855553
  - # 11
    frequency:   11.5737461927
  - # 12
    frequency:   11.5818200937
  - # 13
    frequency:   13.9933239167
  - # 14
    frequency:   19.6102547508
  - # 15
    frequency:   25.4256395735
  - # 16
    frequency:   25.4275340779
  - # 17
    frequency:   27.6265549431
  - # 18
    frequency:  115.3377350059

- q-position: [    0.0101010,    0.0000000,    0.0000000 ]
  distance:    0.0035262
  band:
  - # 1
    frequency:   -0.0348969295
  - # 2
    frequency:    0.1960912722
  - # 3
    frequency:    0.3019087585
  - # 4
    frequency:    5.2919042905
  - # 5
    frequency:    5.2972496856
  - # 6
    frequency:    7.0641579046
  - # 7
    frequency:    7.0811546033
  - # 8
    frequency:    8.9644999828
  - # 9
    frequency:    9.7796894933
  - # 10
    frequency:    9.7857233237
  - # 11
    frequency:   11.5758985733
  - # 12
    frequency:   11.6081906299
  - # 13
    frequency:   13.9945472975
  - # 14
    frequency:   19.6035547133
  - # 15
    frequency:   25.4257860499
  - # 16
    frequency:   25.4333533287
  - # 17
    frequency:   27.6235328445
  - # 18
    frequency:  115.3376400512

- q-position: [    0.0151515,    0.0000000,    0.0000000 ]
  distance:    0.0052893
  band:
  - # 1
    frequency:   -0.0382112674
  - # 2
    frequency:    0.2939966689
  - # 3
    frequency:    0.4516019844
  - # 4
    frequency:    5.2937862528
  - # 5
    frequency:    5.3057689798
  - # 6
    frequency:    7.0663360567
  - # 7
    frequency:    7.1039024797
  - # 8
    frequency:    8.9612704244
  - # 9
    frequency:    9.7817302567
  - # 10
    frequency:    9.7950938168
  - # 11
    frequency:   11.5794705471
  - # 12
    frequency:   11.6521075938
  - # 13
    frequency:   13.9966106854
  - # 14
    frequency:   19.5924214750
  - # 15
    frequency:   25.4260272455
  - # 16
    frequency:   25.4430132843
  - # 17
    frequency:   27.6185252688
  - # 18
    frequency:  115.3374822257

- q-position: [    0.0202020,    0.0000000,    0.0000000 ]
  distance:    0.0070524
  band:
  - # 1
    frequency:   -0.0376045096
  - # 2
    frequency:    0.3917345566
  - # 3
    frequency:    0.6014385604
  - # 4
    frequency:    5.2964121739
  - # 5
    frequency:    5.3176073629
  - # 6
    frequency:    7.0693554547
  - # 7
    frequency:    7.1345068812
  - # 8
    frequency:    8.9570689283
  - # 9
    frequency:    9.7845782956
  - # 10
    frequency:    9.8078318018
  - # 11
    frequency:   11.5844392260
  - # 12
    frequency:   11.7134975052
  - # 13
    frequency:   13.9995505960
  - # 14
    frequency:   19.5769048271
  - # 15
    frequency:   25.4263587944
  - # 16
    frequency:   25.4564555304
  - # 17
    frequency:   27.6115765775
  - # 18
    frequency:  115.3372621754

- q-position: [    0.0252525,    0.0000000,    0.0000000 ]
  distance:    0.0088155
  band:
  - # 1
    frequency:   -0.0266922285
  - # 2
    frequency:    0.4892503848
  - # 3
    frequency:    0.7512519258
  - # 4
    frequency:    5.2997732676
  - # 5
    frequency:    5.3326825830
  - # 6
    frequency:    7.0731866997
  - # 7
    frequency:    7.1718320473
  - # 8
    frequency:    8.9521732232
  - # 9
    frequency:    9.7882246776
  - # 10
    frequency:    9.8236065999
  - # 11
    frequency:   11.5907727730
  - # 12
    frequency:   11.7922158873
  - # 13
    frequency:   14.0034179458
  - # 14
    frequency:   19.5570736167
  - # 15
    frequency:   25.4267746473
  - # 16
    frequency:   25.4735977893
  - # 17
    frequency:   27.6027498619
  - # 18
    frequency:  115.3369808000

- q-position: [    0.0303030,    0.0000000,    0.0000000 ]
  distance:    0.0105786
  band:
  - # 1
    frequency:    0.0332286654
  - # 2
    frequency:    0.5864906811
  - # 3
    frequency:    0.9009667660
  - # 4
    frequency:    5.3038582969
  - # 5
    frequency:    5.3508966242
  - # 6
    frequency:    7.0777928537
  - # 7
    frequency:    7.2145578422
  - # 8
    frequency:    8.9468911092
  - # 9
    frequency:    9.7926580546
  - # 10
    frequency:    9.8420507601
  - # 11
    frequency:   11.5984306107
  - # 12
    frequency:   11.8880133937
  - # 13
    frequency:   14.0082779076
  - # 14
    frequency:   19.5330149535
  - # 15
    frequency:   25.4272671343
  - # 16
    frequency:   25.4943332962
  - # 17
    frequency:   27.5921279955
  - # 18
    frequency:  115.3366392480

- q-position: [    0.0353535,    0.0000000,    0.0000000 ]
  distance:    0.0123416
  band:
  - # 1
    frequency:    0.0676471599
  - # 2
    frequency:    0.6834032928
  - # 3
    frequency:    1.0505347849
  - # 4
    frequency:    5.3086536213
  - # 5
    frequency:    5.3721396161
  - # 6
    frequency:    7.0831300503
  - # 7
    frequency:    7.2612644758
  - # 8
    frequency:    8.9415379371
  - # 9
    frequency:    9.7978647619
  - # 10
    frequency:    9.8627849848
  - # 11
    frequency:   11.6073636927
  - # 12
    frequency:   12.0005018677
  - # 13
    frequency:   14.0142098398
  - # 14
    frequency:   19.5048332800
  - # 15
    frequency:   25.4278270436
  - # 16
    frequency:   25.5185298160
  - # 17
    frequency:   27.5798150850
  - # 18
    frequency:  115.3362389108

- q-position: [    0.0404040,    0.0000000,    0.0000000 ]
  distance:    0.0141047
  band:
  - # 1
    frequency:    0.1015573726
  - # 2
    frequency:    0.7799376102
  - # 3
    frequency:    1.1999179655
  - # 4
    frequency:    5.3141432590
  - # 5
    frequency:    5.3962932610
  - # 6
    frequency:    7.0891482054
  - # 7
    frequency:    7.3105165082
  - # 8
    frequency:    8.9364185656
  - # 9
    frequency:    9.8038289348
  - # 10
    frequency:    9.8854363720
  - # 11
    frequency:   11.6175148390
  - # 12
    frequency:   12.1291252532
  - # 13
    frequency:   14.0213074371
  - # 14
    frequency:   19.4726493669
  - # 15
    frequency:   25.4284437183
  - # 16
    frequency:   25.5460281756
  - # 17
    frequency:   27.5659383993
  - # 18
    frequency:  115.3357814149

- q-position: [    0.0454545,    0.0000000,    0.0000000 ]
  distance:    0.0158678
  band:
  - # 1
    frequency:    0.1377917775
  - # 2
    frequency:    0.8760447694
  - # 3
    frequency:    1.3490827001
  - # 4
    frequency:    5.3203089640
  - # 5
    frequency:    5.4232336190
  - # 6
    frequency:    7.0957918090
  - # 7
    frequency:    7.3609385307
  - # 8
    frequency:    8.9318143389
  - # 9
    frequency:    9.8105326414
  - # 10
    frequency:    9.9096493125
  - # 11
    frequency:   11.6288191371
  - # 12
    frequency:   12.2731392354
  - # 13
    frequency:   14.0296793856
  - # 14
    frequency:   19.4365992995
  - # 15
    frequency:   25.4291051670
  - # 16
    frequency:   25.5766401556
  - # 17
    frequency:   27.5506508765
  - # 18
    frequency:  115.3352686139

- q-position: [    0.0505051,    0.0000000,    0.0000000 ]
  distance:    0.0176309
  band:
  - # 1
    frequency:    0.1769485595
  - # 2
    frequency:    0.9716778331
  - # 3
    frequency:    1.4979972084
  - # 4
    frequency:    5.3271303197
  - # 5
    frequency:    5.4528332667
  - # 6
    frequency:    7.1030007766
  - # 7
    frequency:    7.4112766704
  - # 8
    frequency:    8.9279745217
  - # 9
    frequency:    9.8179560290
  - # 10
    frequency:    9.9350900530
  - # 11
    frequency:   11.6412044094
  - # 12
    frequency:   12.4316016614
  - # 13
    frequency:   14.0394510883
  - # 14
    frequency:   19.3968335263
  - # 15
    frequency:   25.4297981907
  - # 16
    frequency:   25.6101455718
  - # 17
    frequency:   27.5341343304
  - # 18
    frequency:  115.3347025787

- q-position: [    0.0555556,    0.0000000,    0.0000000 ]
  distance:    0.0193940
  band:
  - # 1
    frequency:    0.2191795814
  - # 2
    frequency:    1.0667919475
  - # 3
    frequency:    1.6466301596
  - # 4
    frequency:    5.3345848507
  - # 5
    frequency:    5.4849629396
  - # 6
    frequency:    7.1107113405
  - # 7
    frequency:    7.4604425120
  - # 8
    frequency:    8.9251111650
  - # 9
    frequency:    9.8260774816
  - # 10
    frequency:    9.9614467590
  - # 11
    frequency:   11.6545917486
  - # 12
    frequency:   12.6033732937
  - # 13
    frequency:   14.0507686326
  - # 14
    frequency:   19.3535160440
  - # 15
    frequency:   25.4305085221
  - # 16
    frequency:   25.6462883618
  - # 17
    frequency:   27.5166034975
  - # 18
    frequency:  115.3340855861

- q-position: [    0.0606061,    0.0000000,    0.0000000 ]
  distance:    0.0211571
  band:
  - # 1
    frequency:    0.2644851755
  - # 2
    frequency:    1.1613444746
  - # 3
    frequency:    1.7949498057
  - # 4
    frequency:    5.3426481539
  - # 5
    frequency:    5.5194928017
  - # 6
    frequency:    7.1188569597
  - # 7
    frequency:    7.5075386474
  - # 8
    frequency:    8.9233963927
  - # 9
    frequency:    9.8348737861
  - # 10
    frequency:    9.9884270478
  - # 11
    frequency:   11.6688961184
  - # 12
    frequency:   12.7871251633
  - # 13
    frequency:   14.0638075985
  - # 14
    frequency:   19.3068237952
  - # 15
    frequency:   25.4312209785
  - # 16
    frequency:   25.6847714933
  - # 17
    frequency:   27.4983110719
  - # 18
    frequency:  115.3334201077

- q-position: [    0.0656566,    0.0000000,    0.0000000 ]
  distance:    0.0229202
  band:
  - # 1
    frequency:    0.3128007064
  - # 2
    frequency:    1.2552950997
  - # 3
    frequency:    1.9429233647
  - # 4
    frequency:    5.3512940473
  - # 5
    frequency:    5.5562934669
  - # 6
    frequency:    7.1273692293
  - # 7
    frequency:    7.5518673275
  - # 8
    frequency:    8.9229613640
  - # 9
    frequency:    9.8443203052
  - # 10
    frequency:   10.0157546431
  - # 11
    frequency:   11.6840270186
  - # 12
    frequency:   12.9813436626
  - # 13
    frequency:   14.0787929681
  - # 14
    frequency:   19.2569463607
  - # 15
    frequency:   25.4319196254
  - # 16
    frequency:   25.7252505393
  - # 17
    frequency:   27.4795538599
  - # 18
    frequency:  115.3327087965

- q-position: [    0.0707071,    0.0000000,    0.0000000 ]
  distance:    0.0246833
  band:
  - # 1
    frequency:    0.3640299048
  - # 2
    frequency:    1.3486059132
  - # 3
    frequency:    2.0905165428
  - # 4
    frequency:    5.3604947387
  - # 5
    frequency:    5.5952368637
  - # 6
    frequency:    7.1361787705
  - # 7
    frequency:    7.5929252375
  - # 8
    frequency:    8.9238964910
  - # 9
    frequency:    9.8543911543
  - # 10
    frequency:   10.0431663156
  - # 11
    frequency:   11.6998892117
  - # 12
    frequency:   13.1843130844
  - # 13
    frequency:   14.0960469907
  - # 14
    frequency:   19.2040860364
  - # 15
    frequency:   25.4325879499
  - # 16
    frequency:   25.7673258453
  - # 17
    frequency:   27.4606801184
  - # 18
    frequency:  115.3319544737

- q-position: [    0.0757576,    0.0000000,    0.0000000 ]
  distance:    0.0264464
  band:
  - # 1
    frequency:    0.4180600975
  - # 2
    frequency:    1.4412414679
  - # 3
    frequency:    2.2376931422
  - # 4
    frequency:    5.3702210129
  - # 5
    frequency:    5.6361969994
  - # 6
    frequency:    7.1452160864
  - # 7
    frequency:    7.6303881231
  - # 8
    frequency:    8.9262527544
  - # 9
    frequency:    9.8650593807
  - # 10
    frequency:   10.0704097807
  - # 11
    frequency:   11.7163835056
  - # 12
    frequency:   13.3940195014
  - # 13
    frequency:   14.1161175093
  - # 14
    frequency:   19.1484583991
  - # 15
    frequency:   25.4332090429
  - # 16
    frequency:   25.8105333860
  - # 17
    frequency:   27.4420979827
  - # 18
    frequency:  115.3311601139

- q-position: [    0.0808081,    0.0000000,    0.0000000 ]
  distance:    0.0282095
  band:
  - # 1
    frequency:    0.4747700695
  - # 2
    frequency:    1.5331688129
  - # 3
    frequency:    2.3844147248
  - # 4
    frequency:    5.3804424349
  - # 5
    frequency:    5.6790506496
  - # 6
    frequency:    7.1544123696
  - # 7
    frequency:    7.6640889742
  - # 8
    frequency:    8.9300441095
  - # 9
    frequency:    9.8762971426
  - # 10
    frequency:   10.0972428164
  - # 11
    frequency:   11.7334075870
  - # 12
    frequency:   13.6077733856
  - # 13
    frequency:   14.1401861590
  - # 14
    frequency:   19.0902934946
  - # 15
    frequency:   25.4337657880
  - # 16
    frequency:   25.8543347405
  - # 17
    frequency:   27.4242845695
  - # 18
    frequency:  115.3303288300

- q-position: [    0.0858586,    0.0000000,    0.0000000 ]
  distance:    0.0299726
  band:
  - # 1
    frequency:    0.5340345151
  - # 2
    frequency:    1.6243575040
  - # 3
    frequency:    2.5306403149
  - # 4
    frequency:    5.3911275701
  - # 5
    frequency:    5.7236779817
  - # 6
    frequency:    7.1637002499
  - # 7
    frequency:    7.6939929733
  - # 8
    frequency:    8.9352509902
  - # 9
    frequency:    9.8880758871
  - # 10
    frequency:   10.1234335875
  - # 11
    frequency:   11.7508568970
  - # 12
    frequency:   13.8205545567
  - # 13
    frequency:   14.1717503981
  - # 14
    frequency:   19.0298378141
  - # 15
    frequency:   25.4342410549
  - # 16
    frequency:   25.8981071978
  - # 17
    frequency:   27.4077947748
  - # 18
    frequency:  115.3294638574

- q-position: [    0.0909091,    0.0000000,    0.0000000 ]
  distance:    0.0317357
  band:
  - # 1
    frequency:    0.5957267403
  - # 2
    frequency:    1.7147795931
  - # 3
    frequency:    2.6763261270
  - # 4
    frequency:    5.4022442173
  - # 5
    frequency:    5.7699631111
  - # 6
    frequency:    7.1730144767
  - # 7
    frequency:    7.7201717053
  - # 8
    frequency:    8.9418248381
  - # 9
    frequency:    9.9003665249
  - # 10
    frequency:   10.1487619830
  - # 11
    frequency:   11.7686255418
  - # 12
    frequency:   14.0155927980
  - # 13
    frequency:   14.2260644206
  - # 14
    frequency:   18.9673572928
  - # 15
    frequency:   25.4346178972
  - # 16
    frequency:   25.9411359343
  - # 17
    frequency:   27.3932678656
  - # 18
    frequency:  115.3285685382

- q-position: [    0.0959596,    0.0000000,    0.0000000 ]
  distance:    0.0334988
  band:
  - # 1
    frequency:    0.6597203898
  - # 2
    frequency:    1.8044095969
  - # 3
    frequency:    2.8214253110
  - # 4
    frequency:    5.4137596538
  - # 5
    frequency:    5.8177945835
  - # 6
    frequency:    7.1822925268
  - # 7
    frequency:    7.7427784149
  - # 8
    frequency:    8.9496934490
  - # 9
    frequency:    9.9131396010
  - # 10
    frequency:   10.1730216914
  - # 11
    frequency:   11.7866072266
  - # 12
    frequency:   14.1390063638
  - # 13
    frequency:   14.3555158420
  - # 14
    frequency:   18.9031416476
  - # 15
    frequency:   25.4348797502
  - # 16
    frequency:   25.9826115282
  - # 17
    frequency:   27.3814286542
  - # 18
    frequency:  115.3276463040

- q-position: [    0.1010101,    0.0000000,    0.0000000 ]
  distance:    0.0352618
  band:
  - # 1
    frequency:    0.7258905892
  - # 2
    frequency:    1.8932244481
  - # 3
    frequency:    2.9658877077
  - # 4
    frequency:    5.4256408884
  - # 5
    frequency:    5.8670657806
  - # 6
    frequency:    7.1914751389
  - # 7
    frequency:    7.7620254785
  - # 8
    frequency:    8.9587668002
  - # 9
    frequency:    9.9263654604
  - # 10
    frequency:   10.1960227097
  - # 11
    frequency:   11.8046962045
  - # 12
    frequency:   14.1951357035
  - # 13
    frequency:   14.5543004503
  - # 14
    frequency:   18.8375105044
  - # 15
    frequency:   25.4350106299
  - # 16
    frequency:   26.0216376272
  - # 17
    frequency:   27.3730784993
  - # 18
    frequency:  115.3267006590

- q-position: [    0.1060606,    0.0000000,    0.0000000 ]
  distance:    0.0370249
  band:
  - # 1
    frequency:    0.7941147110
  - # 2
    frequency:    1.9812034293
  - # 3
    frequency:    3.1096596100
  - # 4
    frequency:    5.4378549218
  - # 5
    frequency:    5.9176752422
  - # 6
    frequency:    7.2005067712
  - # 7
    frequency:    7.7781647756
  - # 8
    frequency:    8.9689429508
  - # 9
    frequency:    9.9400144071
  - # 10
    frequency:   10.2175939967
  - # 11
    frequency:   11.8227882267
  - # 12
    frequency:   14.2350100611
  - # 13
    frequency:   14.7699572092
  - # 14
    frequency:   18.7708219536
  - # 15
    frequency:   25.4349953281
  - # 16
    frequency:   26.0572547529
  - # 17
    frequency:   27.3690702198
  - # 18
    frequency:  115.3257351632

- q-position: [    0.1111111,    0.0000000,    0.0000000 ]
  distance:    0.0387880
  band:
  - # 1
    frequency:    0.8642728884
  - # 2
    frequency:    2.0683280924
  - # 3
    frequency:    3.2526835266
  - # 4
    frequency:    5.4503690096
  - # 5
    frequency:    5.9695269069
  - # 6
    frequency:    7.2093359844
  - # 7
    frequency:    7.7914712722
  - # 8
    frequency:    8.9801136060
  - # 9
    frequency:    9.9540568574
  - # 10
    frequency:   10.2375860134
  - # 11
    frequency:   11.8407814848
  - # 12
    frequency:   14.2721934419
  - # 13
    frequency:   14.9875168089
  - # 14
    frequency:   18.7034844440
  - # 15
    frequency:   25.4348196043
  - # 16
    frequency:   26.0884857314
  - # 17
    frequency:   27.3702615038
  - # 18
    frequency:  115.3247534151

- q-position: [    0.1161616,    0.0000000,    0.0000000 ]
  distance:    0.0405511
  band:
  - # 1
    frequency:    0.9362483495
  - # 2
    frequency:    2.1545821649
  - # 3
    frequency:    3.3948979480
  - # 4
    frequency:    5.4631509253
  - # 5
    frequency:    6.0225302678
  - # 6
    frequency:    7.2179157539
  - # 7
    frequency:    7.8022298461
  - # 8
    frequency:    8.9921690101
  - # 9
    frequency:    9.9684634853
  - # 10
    frequency:   10.2558729439
  - # 11
    frequency:   11.8585775315
  - # 12
    frequency:   14.3097882193
  - # 13
    frequency:   15.2024849693
  - # 14
    frequency:   18.6359732949
  - # 15
    frequency:   25.4344703706
  - # 16
    frequency:   26.1144043532
  - # 17
    frequency:   27.3774452833
  - # 18
    frequency:  115.3237590340

- q-position: [    0.1212121,    0.0000000,    0.0000000 ]
  distance:    0.0423142
  band:
  - # 1
    frequency:    1.0099276217
  - # 2
    frequency:    2.2399514453
  - # 3
    frequency:    3.5362371136
  - # 4
    frequency:    5.4761692220
  - # 5
    frequency:    6.0766004458
  - # 6
    frequency:    7.2262037142
  - # 7
    frequency:    7.8107251786
  - # 8
    frequency:    9.0050019491
  - # 9
    frequency:    9.9832053597
  - # 10
    frequency:   10.2723544406
  - # 11
    frequency:   11.8760821703
  - # 12
    frequency:   14.3487776738
  - # 13
    frequency:   15.4124781432
  - # 14
    frequency:   18.5688536096
  - # 15
    frequency:   25.4339358684
  - # 16
    frequency:   26.1342206944
  - # 17
    frequency:   27.3912637125
  - # 18
    frequency:  115.3227556436

- q-position: [    0.1262626,    0.0000000,    0.0000000 ]
  distance:    0.0440773
  band:
  - # 1
    frequency:    1.0852006394
  - # 2
    frequency:    2.3244236894
  - # 3
    frequency:    3.6766307824
  - # 4
    frequency:    5.4893934875
  - # 5
    frequency:    6.1316581815
  - # 6
    frequency:    7.2341623411
  - # 7
    frequency:    7.8172343926
  - # 8
    frequency:    9.0185107716
  - # 9
    frequency:    9.9982540749
  - # 10
    frequency:   10.2869567937
  - # 11
    frequency:   11.8932063015
  - # 12
    frequency:   14.3895341468
  - # 13
    frequency:   15.6156831868
  - # 14
    frequency:   18.5028119539
  - # 15
    frequency:   25.4332058358
  - # 16
    frequency:   26.1473661582
  - # 17
    frequency:   27.4121227548
  - # 18
    frequency:  115.3217468545

- q-position: [    0.1313131,    0.0000000,    0.0000000 ]
  distance:    0.0458404
  band:
  - # 1
    frequency:    1.1619607795
  - # 2
    frequency:    2.4079884897
  - # 3
    frequency:    3.8160040108
  - # 4
    frequency:    5.5027945925
  - # 5
    frequency:    6.1876297425
  - # 6
    frequency:    7.2417590777
  - # 7
    frequency:    7.8220220380
  - # 8
    frequency:    9.0326014519
  - # 9
    frequency:   10.0135818708
  - # 10
    frequency:   10.2996334752
  - # 11
    frequency:   11.9098667160
  - # 12
    frequency:   14.4321952620
  - # 13
    frequency:   15.8104361719
  - # 14
    frequency:   18.4386996726
  - # 15
    frequency:   25.4322716617
  - # 16
    frequency:   26.1535547578
  - # 17
    frequency:   27.4401309132
  - # 18
    frequency:  115.3207362478

- q-position: [    0.1363636,    0.0000000,    0.0000000 ]
  distance:    0.0476035
  band:
  - # 1
    frequency:    1.2401048415
  - # 2
    frequency:    2.4906371490
  - # 3
    frequency:    3.9542769419
  - # 4
    frequency:    5.5163449274
  - # 5
    frequency:    6.2444467457
  - # 6
    frequency:    7.2489664086
  - # 7
    frequency:    7.8253369934
  - # 8
    frequency:    9.0471887992
  - # 9
    frequency:   10.0291617460
  - # 10
    frequency:   10.3103650563
  - # 11
    frequency:   11.9259868265
  - # 12
    frequency:   14.4767863086
  - # 13
    frequency:   15.9950398880
  - # 14
    frequency:   18.3775905697
  - # 15
    frequency:   25.4311265274
  - # 16
    frequency:   26.1528010452
  - # 17
    frequency:   27.4750817379
  - # 18
    frequency:  115.3197273590

- q-position: [    0.1414141,    0.0000000,    0.0000000 ]
  distance:    0.0493666
  band:
  - # 1
    frequency:    1.3195329892
  - # 2
    frequency:    2.5723625515
  - # 3
    frequency:    4.0913646138
  - # 4
    frequency:    5.5300186262
  - # 5
    frequency:    6.3020458858
  - # 6
    frequency:    7.2557618897
  - # 7
    frequency:    7.8274108694
  - # 8
    frequency:    9.0621969610
  - # 9
    frequency:   10.0449675604
  - # 10
    frequency:   10.3191585367
  - # 11
    frequency:   11.9414973277
  - # 12
    frequency:   14.5232686820
  - # 13
    frequency:   16.1676399723
  - # 14
    frequency:   18.3208533847
  - # 15
    frequency:   25.4297655322
  - # 16
    frequency:   26.1453898102
  - # 17
    frequency:   27.5164850138
  - # 18
    frequency:  115.3187236621

- q-position: [    0.1464646,    0.0000000,    0.0000000 ]
  distance:    0.0511297
  band:
  - # 1
    frequency:    1.4001486619
  - # 2
    frequency:    2.6531590319
  - # 3
    frequency:    4.2271767964
  - # 4
    frequency:    5.5437917750
  - # 5
    frequency:    6.3603685599
  - # 6
    frequency:    7.2621281375
  - # 7
    frequency:    7.8284575407
  - # 8
    frequency:    9.0775593857
  - # 9
    frequency:   10.0609741293
  - # 10
    frequency:   10.3260461562
  - # 11
    frequency:   11.9563367795
  - # 12
    frequency:   14.5715624360
  - # 13
    frequency:   16.3261192257
  - # 14
    frequency:   18.2702316204
  - # 15
    frequency:   25.4281858022
  - # 16
    frequency:   26.1318099752
  - # 17
    frequency:   27.5636342077
  - # 18
    frequency:  115.3177285544

- q-position: [    0.1515152,    0.0000000,    0.0000000 ]
  distance:    0.0528928
  band:
  - # 1
    frequency:    1.4818584667
  - # 2
    frequency:    2.7330222460
  - # 3
    frequency:    4.3616178695
  - # 4
    frequency:    5.5576426027
  - # 5
    frequency:    6.4193603718
  - # 6
    frequency:    7.2680527827
  - # 7
    frequency:    7.8286734952
  - # 8
    frequency:    9.0932183961
  - # 9
    frequency:   10.0771573079
  - # 10
    frequency:   10.3310837827
  - # 11
    frequency:   11.9704521057
  - # 12
    frequency:   14.6215584849
  - # 13
    frequency:   16.4680219044
  - # 14
    frequency:   18.2279035055
  - # 15
    frequency:   25.4263865813
  - # 16
    frequency:   26.1126746415
  - # 17
    frequency:   27.6156882061
  - # 18
    frequency:  115.3167453418

- q-position: [    0.1565657,    0.0000000,    0.0000000 ]
  distance:    0.0546559
  band:
  - # 1
    frequency:    1.5645720583
  - # 2
    frequency:    2.8119490428
  - # 3
    frequency:    4.4945867558
  - # 4
    frequency:    5.5715516521
  - # 5
    frequency:    6.4789704899
  - # 6
    frequency:    7.2735283936
  - # 7
    frequency:    7.8282387553
  - # 8
    frequency:    9.1091245062
  - # 9
    frequency:   10.0934940653
  - # 10
    frequency:   10.3343489828
  - # 11
    frequency:   11.9837990040
  - # 12
    frequency:   14.6731262108
  - # 13
    frequency:   16.5905680400
  - # 14
    frequency:   18.1964563426
  - # 15
    frequency:   25.4243693025
  - # 16
    frequency:   26.0886474498
  - # 17
    frequency:   27.6717471518
  - # 18
    frequency:  115.3157772254

- q-position: [    0.1616162,    0.0000000,    0.0000000 ]
  distance:    0.0564190
  band:
  - # 1
    frequency:    1.6482020111
  - # 2
    frequency:    2.8899373416
  - # 3
    frequency:    4.6259769292
  - # 4
    frequency:    5.5855019290
  - # 5
    frequency:    6.5391508270
  - # 6
    frequency:    7.2785523698
  - # 7
    frequency:    7.8273181929
  - # 8
    frequency:    9.1252355837
  - # 9
    frequency:   10.1099625490
  - # 10
    frequency:   10.3359388858
  - # 11
    frequency:   11.9963422639
  - # 12
    frequency:   14.7261188248
  - # 13
    frequency:   16.6908702751
  - # 14
    frequency:   18.1786604418
  - # 15
    frequency:   25.4221376384
  - # 16
    frequency:   26.0603867266
  - # 17
    frequency:   27.7309108537
  - # 18
    frequency:  115.3148272880

- q-position: [    0.1666667,    0.0000000,    0.0000000 ]
  distance:    0.0581820
  band:
  - # 1
    frequency:    1.7326636907
  - # 2
    frequency:    2.9669860149
  - # 3
    frequency:    4.7556765196
  - # 4
    frequency:    5.5994790288
  - # 5
    frequency:    6.5998549950
  - # 6
    frequency:    7.2831268113
  - # 7
    frequency:    7.8260631213
  - # 8
    frequency:    9.1415159341
  - # 9
    frequency:   10.1265421393
  - # 10
    frequency:   10.3359679489
  - # 11
    frequency:   12.0080559900
  - # 12
    frequency:   14.7803775029
  - # 13
    frequency:   16.7664660752
  - # 14
    frequency:   18.1769287867
  - # 15
    frequency:   25.4196975319
  - # 16
    frequency:   26.0285099127
  - # 17
    frequency:   27.7923172136
  - # 18
    frequency:  115.3138984819

- q-position: [    0.1717172,    0.0000000,    0.0000000 ]
  distance:    0.0599451
  band:
  - # 1
    frequency:    1.8178751264
  - # 2
    frequency:    3.0430947788
  - # 3
    frequency:    4.8835685395
  - # 4
    frequency:    5.6134712366
  - # 5
    frequency:    6.6610369761
  - # 6
    frequency:    7.2872583633
  - # 7
    frequency:    7.8246131023
  - # 8
    frequency:    9.1579353530
  - # 9
    frequency:   10.1432134934
  - # 10
    frequency:   10.3345657223
  - # 11
    frequency:   12.0189237283
  - # 12
    frequency:   14.8357347477
  - # 13
    frequency:   16.8161088984
  - # 14
    frequency:   18.1925184200
  - # 15
    frequency:   25.4170572032
  - # 16
    frequency:   25.9935751888
  - # 17
    frequency:   27.8551636769
  - # 18
    frequency:  115.3129936180

- q-position: [    0.1767677,    0.0000000,    0.0000000 ]
  distance:    0.0617082
  band:
  - # 1
    frequency:    1.9037568882
  - # 2
    frequency:    3.1182640928
  - # 3
    frequency:    5.0095312610
  - # 4
    frequency:    5.6274696019
  - # 5
    frequency:    6.7226494294
  - # 6
    frequency:    7.2909580366
  - # 7
    frequency:    7.8230979611
  - # 8
    frequency:    9.1744681776
  - # 9
    frequency:   10.1599585793
  - # 10
    frequency:   10.3318746977
  - # 11
    frequency:   12.0289384974
  - # 12
    frequency:   14.8920171775
  - # 13
    frequency:   16.8404273191
  - # 14