nqpoint: 300    
npath: 3      
segment_nqpoint:
- 100
- 100
- 100
labels:
- [ 'G', 'M' ]
- [ 'M', 'K' ]
- [ 'K', 'G' ]
reciprocal_lattice:
- [   0.30385689,   0.17543186,   0.00000000 ] # a*
- [   0.00000000,   0.35086371,   0.00000000 ] # b*
- [   0.00000000,   0.00000000,   0.04382060 ] # c*
natom: 5      
lattice:
- [     3.291022971916184,     0.000000000000000,     0.000000000000000 ] # a
- [    -1.645511485958092,     2.850109498114538,     0.000000000000000 ] # b
- [     0.000000000000000,     0.000000000000000,    22.820315409534487 ] # c
points:
- symbol: C # 1
  coordinates: [  0.000000000000000,  0.000000000000000,  0.500000037795486 ]
  mass: 12.010700
- symbol: F # 2
  coordinates: [  0.333332985432215,  0.666666983183674,  0.605614565860043 ]
  mass: 18.998403
- symbol: F # 3
  coordinates: [  0.666666984744047,  0.333332985985145,  0.394385434139957 ]
  mass: 18.998403
- symbol: Sc # 4
  coordinates: [  0.333332985432215,  0.666666983183674,  0.444452431928617 ]
  mass: 44.955912
- symbol: Sc # 5
  coordinates: [  0.666666984744047,  0.333332985985145,  0.555547567507261 ]
  mass: 44.955912

phonon:
- q-position: [    0.0000000,    0.0000000,    0.0000000 ]
  distance:    0.0000000
  band:
  - # 1
    frequency:   -0.0000136555
  - # 2
    frequency:    0.0000001947
  - # 3
    frequency:    0.0000121104
  - # 4
    frequency:    5.1521413705
  - # 5
    frequency:    5.1521413705
  - # 6
    frequency:    7.2874762716
  - # 7
    frequency:    7.2874762716
  - # 8
    frequency:    7.5979298433
  - # 9
    frequency:    7.5979298433
  - # 10
    frequency:    7.7383252477
  - # 11
    frequency:   11.8118196360
  - # 12
    frequency:   13.0775588753
  - # 13
    frequency:   13.0775588753
  - # 14
    frequency:   13.7857685641
  - # 15
    frequency:   20.3279406395

- q-position: [    0.0050505,    0.0000000,    0.0000000 ]
  distance:    0.0017720
  band:
  - # 1
    frequency:    0.0019417708
  - # 2
    frequency:    0.0864293173
  - # 3
    frequency:    0.1486103955
  - # 4
    frequency:    5.1519751366
  - # 5
    frequency:    5.1533477921
  - # 6
    frequency:    7.2868669779
  - # 7
    frequency:    7.2911905252
  - # 8
    frequency:    7.5980390407
  - # 9
    frequency:    7.5981358900
  - # 10
    frequency:    7.7384746485
  - # 11
    frequency:   11.8113611514
  - # 12
    frequency:   13.0772768995
  - # 13
    frequency:   13.0826370071
  - # 14
    frequency:   13.7850285608
  - # 15
    frequency:   20.3266697176

- q-position: [    0.0101010,    0.0000000,    0.0000000 ]
  distance:    0.0035441
  band:
  - # 1
    frequency:    0.0077612643
  - # 2
    frequency:    0.1728297160
  - # 3
    frequency:    0.2971774364
  - # 4
    frequency:    5.1514777332
  - # 5
    frequency:    5.1569625612
  - # 6
    frequency:    7.2850481746
  - # 7
    frequency:    7.3021543097
  - # 8
    frequency:    7.5983950417
  - # 9
    frequency:    7.5987462025
  - # 10
    frequency:    7.7389813373
  - # 11
    frequency:   11.8099867010
  - # 12
    frequency:   13.0764317715
  - # 13
    frequency:   13.0977956975
  - # 14
    frequency:   13.7828865554
  - # 15
    frequency:   20.3228588704

- q-position: [    0.0151515,    0.0000000,    0.0000000 ]
  distance:    0.0053161
  band:
  - # 1
    frequency:    0.0174410880
  - # 2
    frequency:    0.2591722995
  - # 3
    frequency:    0.4456574786
  - # 4
    frequency:    5.1506530490
  - # 5
    frequency:    5.1629722703
  - # 6
    frequency:    7.2820464450
  - # 7
    frequency:    7.3198174925
  - # 8
    frequency:    7.5990864697
  - # 9
    frequency:    7.5997379426
  - # 10
    frequency:    7.7400348996
  - # 11
    frequency:   11.8076992983
  - # 12
    frequency:   13.0750258872
  - # 13
    frequency:   13.1227867532
  - # 14
    frequency:   13.7795962688
  - # 15
    frequency:   20.3165138490

- q-position: [    0.0202020,    0.0000000,    0.0000000 ]
  distance:    0.0070882
  band:
  - # 1
    frequency:    0.0309524701
  - # 2
    frequency:    0.3454282125
  - # 3
    frequency:    0.5940063033
  - # 4
    frequency:    5.1495075461
  - # 5
    frequency:    5.1713548409
  - # 6
    frequency:    7.2779040462
  - # 7
    frequency:    7.3432161322
  - # 8
    frequency:    7.6002707582
  - # 9
    frequency:    7.6010750782
  - # 10
    frequency:    7.7420027312
  - # 11
    frequency:   11.8045039757
  - # 12
    frequency:   13.0730632360
  - # 13
    frequency:   13.1571179709
  - # 14
    frequency:   13.7756546260
  - # 15
    frequency:   20.3076442273

- q-position: [    0.0252525,    0.0000000,    0.0000000 ]
  distance:    0.0088602
  band:
  - # 1
    frequency:    0.0482555810
  - # 2
    frequency:    0.4315686639
  - # 3
    frequency:    0.7421788337
  - # 4
    frequency:    5.1480502308
  - # 5
    frequency:    5.1820799162
  - # 6
    frequency:    7.2726762127
  - # 7
    frequency:    7.3708954627
  - # 8
    frequency:    7.6021796262
  - # 9
    frequency:    7.6027110532
  - # 10
    frequency:    7.7455216809
  - # 11
    frequency:   11.8004077953
  - # 12
    frequency:   13.0705493936
  - # 13
    frequency:   13.1999022434
  - # 14
    frequency:   13.7719461952
  - # 15
    frequency:   20.2962633856

- q-position: [    0.0303030,    0.0000000,    0.0000000 ]
  distance:    0.0106322
  band:
  - # 1
    frequency:    0.0692999829
  - # 2
    frequency:    0.5175649500
  - # 3
    frequency:    0.8901288568
  - # 4
    frequency:    5.1462926133
  - # 5
    frequency:    5.1951093954
  - # 6
    frequency:    7.2664280192
  - # 7
    frequency:    7.4008129238
  - # 8
    frequency:    7.6045918905
  - # 9
    frequency:    7.6050931576
  - # 10
    frequency:    7.7516471047
  - # 11
    frequency:   11.7954198587
  - # 12
    frequency:   13.0674915121
  - # 13
    frequency:   13.2495663775
  - # 14
    frequency:   13.7700258939
  - # 15
    frequency:   20.2823884882

- q-position: [    0.0353535,    0.0000000,    0.0000000 ]
  distance:    0.0124043
  band:
  - # 1
    frequency:    0.0940251986
  - # 2
    frequency:    0.6033884785
  - # 3
    frequency:    1.0378087542
  - # 4
    frequency:    5.1442486569
  - # 5
    frequency:    5.2103980932
  - # 6
    frequency:    7.2592312160
  - # 7
    frequency:    7.4303173981
  - # 8
    frequency:    7.6066593104
  - # 9
    frequency:    7.6092131785
  - # 10
    frequency:    7.7620307371
  - # 11
    frequency:   11.7895513109
  - # 12
    frequency:   13.0638983071
  - # 13
    frequency:   13.3033245304
  - # 14
    frequency:   13.7726356123
  - # 15
    frequency:   20.2660404567

- q-position: [    0.0404040,    0.0000000,    0.0000000 ]
  distance:    0.0141763
  band:
  - # 1
    frequency:    0.1223613911
  - # 2
    frequency:    0.6890107957
  - # 3
    frequency:    1.1851692408
  - # 4
    frequency:    5.1419347153
  - # 5
    frequency:    5.2278945017
  - # 6
    frequency:    7.2511613630
  - # 7
    frequency:    7.4564661016
  - # 8
    frequency:    7.6088535440
  - # 9
    frequency:    7.6143593339
  - # 10
    frequency:    7.7789405722
  - # 11
    frequency:   11.7828153377
  - # 12
    frequency:   13.0597800399
  - # 13
    frequency:   13.3564043954
  - # 14
    frequency:   13.7844673114
  - # 15
    frequency:   20.2472439399

- q-position: [    0.0454545,    0.0000000,    0.0000000 ]
  distance:    0.0159484
  band:
  - # 1
    frequency:    0.1542301378
  - # 2
    frequency:    0.7744036141
  - # 3
    frequency:    1.3321591178
  - # 4
    frequency:    5.1393694613
  - # 5
    frequency:    5.2475416280
  - # 6
    frequency:    7.2422954583
  - # 7
    frequency:    7.4769221539
  - # 8
    frequency:    7.6111156423
  - # 9
    frequency:    7.6196573368
  - # 10
    frequency:    7.8047082596
  - # 11
    frequency:   11.7752271544
  - # 12
    frequency:   13.0551484957
  - # 13
    frequency:   13.4016861324
  - # 14
    frequency:   13.8125133952
  - # 15
    frequency:   20.2260272829

- q-position: [    0.0505051,    0.0000000,    0.0000000 ]
  distance:    0.0177204
  band:
  - # 1
    frequency:    0.1895452787
  - # 2
    frequency:    0.8595388438
  - # 3
    frequency:    1.4787250389
  - # 4
    frequency:    5.1365738034
  - # 5
    frequency:    5.2692778789
  - # 6
    frequency:    7.2327101314
  - # 7
    frequency:    7.4909293188
  - # 8
    frequency:    7.6133892134
  - # 9
    frequency:    7.6237927848
  - # 10
    frequency:    7.8405322400
  - # 11
    frequency:   11.7668039863
  - # 12
    frequency:   13.0500169566
  - # 13
    frequency:   13.4317918896
  - # 14
    frequency:   13.8639673452
  - # 15
    frequency:   20.2024224961

- q-position: [    0.0555556,    0.0000000,    0.0000000 ]
  distance:    0.0194924
  band:
  - # 1
    frequency:    0.2282138145
  - # 2
    frequency:    0.9443886253
  - # 3
    frequency:    1.6248112947
  - # 4
    frequency:    5.1335707954
  - # 5
    frequency:    5.2930379618
  - # 6
    frequency:    7.2224803820
  - # 7
    frequency:    7.4992697132
  - # 8
    frequency:    7.6156216074
  - # 9
    frequency:    7.6258248478
  - # 10
    frequency:    7.8857348799
  - # 11
    frequency:   11.7575650430
  - # 12
    frequency:   13.0444001681
  - # 13
    frequency:   13.4436887413
  - # 14
    frequency:   13.9416126015
  - # 15
    frequency:   20.1764652300

- q-position: [    0.0606061,    0.0000000,    0.0000000 ]
  distance:    0.0212645
  band:
  - # 1
    frequency:    0.2701368299
  - # 2
    frequency:    1.0289253654
  - # 3
    frequency:    1.7703596176
  - # 4
    frequency:    5.1303855352
  - # 5
    frequency:    5.3187537727
  - # 6
    frequency:    7.2116787854
  - # 7
    frequency:    7.5033241892
  - # 8
    frequency:    7.6177646293
  - # 9
    frequency:    7.6255617007
  - # 10
    frequency:    7.9383507445
  - # 11
    frequency:   11.7475314862
  - # 12
    frequency:   13.0383142995
  - # 13
    frequency:   13.4397777419
  - # 14
    frequency:   14.0427276851
  - # 15
    frequency:   20.1481947565

- q-position: [    0.0656566,    0.0000000,    0.0000000 ]
  distance:    0.0230365
  band:
  - # 1
    frequency:    0.3152104160
  - # 2
    frequency:    1.1131217756
  - # 3
    frequency:    1.9153090113
  - # 4
    frequency:    5.1270450567
  - # 5
    frequency:    5.3463552455
  - # 6
    frequency:    7.2003750643
  - # 7
    frequency:    7.5043284942
  - # 8
    frequency:    7.6197748780
  - # 9
    frequency:    7.6232736777
  - # 10
    frequency:    7.9961760710
  - # 11
    frequency:   11.7367263942
  - # 12
    frequency:   13.0317768967
  - # 13
    frequency:   13.4242543043
  - # 14
    frequency:   14.1627228566
  - # 15
    frequency:   20.1176539646

- q-position: [    0.0707071,    0.0000000,    0.0000000 ]
  distance:    0.0248085
  band:
  - # 1
    frequency:    0.3633265698
  - # 2
    frequency:    1.1969509136
  - # 3
    frequency:    2.0595956067
  - # 4
    frequency:    5.1235782131
  - # 5
    frequency:    5.3757711403
  - # 6
    frequency:    7.1886359295
  - # 7
    frequency:    7.5031649031
  - # 8
    frequency:    7.6193430904
  - # 9
    frequency:    7.6216138146
  - # 10
    frequency:    8.0573404135
  - # 11
    frequency:   11.7251747240
  - # 12
    frequency:   13.0248068277
  - # 13
    frequency:   13.4004809654
  - # 14
    frequency:   14.2977674981
  - # 15
    frequency:   20.0848893754

- q-position: [    0.0757576,    0.0000000,    0.0000000 ]
  distance:    0.0265806
  band:
  - # 1
    frequency:    0.4143740509
  - # 2
    frequency:    1.2803862269
  - # 3
    frequency:    2.2031525500
  - # 4
    frequency:    5.1200155542
  - # 5
    frequency:    5.4069297534
  - # 6
    frequency:    7.1765250999
  - # 7
    frequency:    7.5004158494
  - # 8
    frequency:    7.6141069359
  - # 9
    frequency:    7.6232476453
  - # 10
    frequency:    8.1204177538
  - # 11
    frequency:   11.7129032708
  - # 12
    frequency:   13.0174242183
  - # 13
    frequency:   13.3706267653
  - # 14
    frequency:   14.4451539645
  - # 15
    frequency:   20.0499511865

- q-position: [    0.0808081,    0.0000000,    0.0000000 ]
  distance:    0.0283526
  band:
  - # 1
    frequency:    0.4682391802
  - # 2
    frequency:    1.3634015993
  - # 3
    frequency:    2.3459099263
  - # 4
    frequency:    5.1163891966
  - # 5
    frequency:    5.4397595356
  - # 6
    frequency:    7.1641034333
  - # 7
    frequency:    7.4964621249
  - # 8
    frequency:    7.6078246380
  - # 9
    frequency:    7.6246470910
  - # 10
    frequency:    8.1843627964
  - # 11
    frequency:   11.6999406280
  - # 12
    frequency:   13.0096503807
  - # 13
    frequency:   13.3360268509
  - # 14
    frequency:   14.6029439948
  - # 15
    frequency:   20.0128933565

- q-position: [    0.0858586,    0.0000000,    0.0000000 ]
  distance:    0.0301247
  band:
  - # 1
    frequency:    0.5248065716
  - # 2
    frequency:    1.4459713993
  - # 3
    frequency:    2.4877947230
  - # 4
    frequency:    5.1127326884
  - # 5
    frequency:    5.4741896116
  - # 6
    frequency:    7.1514291153
  - # 7
    frequency:    7.4915590135
  - # 8
    frequency:    7.6006881390
  - # 9
    frequency:    7.6257870956
  - # 10
    frequency:    8.2484224982
  - # 11
    frequency:   11.6863171477
  - # 12
    frequency:   13.0015077306
  - # 13
    frequency:   13.2975195269
  - # 14
    frequency:   14.7696399443
  - # 15
    frequency:   19.9737737459

- q-position: [    0.0909091,    0.0000000,    0.0000000 ]
  distance:    0.0318967
  band:
  - # 1
    frequency:    0.5839597882
  - # 2
    frequency:    1.5280705315
  - # 3
    frequency:    2.6287308381
  - # 4
    frequency:    5.1090808694
  - # 5
    frequency:    5.5101501955
  - # 6
    frequency:    7.1385578704
  - # 7
    frequency:    7.4858854820
  - # 8
    frequency:    7.5928390369
  - # 9
    frequency:    7.6266465102
  - # 10
    frequency:    8.3120639175
  - # 11
    frequency:   11.6720649031
  - # 12
    frequency:   12.9930196970
  - # 13
    frequency:   13.2556558363
  - # 14
    frequency:   14.9439850933
  - # 15
    frequency:   19.9326543362

- q-position: [    0.0959596,    0.0000000,    0.0000000 ]
  distance:    0.0336687
  band:
  - # 1
    frequency:    0.6455819238
  - # 2
    frequency:    1.6096744885
  - # 3
    frequency:    2.7686391381
  - # 4
    frequency:    5.1054697261
  - # 5
    frequency:    5.5475729012
  - # 6
    frequency:    7.1255431694
  - # 7
    frequency:    7.4795743275
  - # 8
    frequency:    7.5843829509
  - # 9
    frequency:    7.6272077777
  - # 10
    frequency:    8.3749212838
  - # 11
    frequency:   11.6572176539
  - # 12
    frequency:   12.9842106204
  - # 13
    frequency:   13.2108187287
  - # 14
    frequency:   15.1248552400
  - # 15
    frequency:   19.8896015579

- q-position: [    0.1010101,    0.0000000,    0.0000000 ]
  distance:    0.0354408
  band:
  - # 1
    frequency:    0.7095561076
  - # 2
    frequency:    1.6907594054
  - # 3
    frequency:    2.9074375718
  - # 4
    frequency:    5.1019362432
  - # 5
    frequency:    5.5863909497
  - # 6
    frequency:    7.1124364195
  - # 7
    frequency:    7.4727304890
  - # 8
    frequency:    7.5753998547
  - # 9
    frequency:    7.6274566341
  - # 10
    frequency:    8.4367572884
  - # 11
    frequency:   11.6418108177
  - # 12
    frequency:   12.9751056434
  - # 13
    frequency:   13.1632903431
  - # 14
    frequency:   15.3112023376
  - # 15
    frequency:   19.8446867683

- q-position: [    0.1060606,    0.0000000,    0.0000000 ]
  distance:    0.0372128
  band:
  - # 1
    frequency:    0.7757659392
  - # 2
    frequency:    1.7713021140
  - # 3
    frequency:    3.0450413433
  - # 4
    frequency:    5.0985182526
  - # 5
    frequency:    5.6265392763
  - # 6
    frequency:    7.0992871269
  - # 7
    frequency:    7.4654422268
  - # 8
    frequency:    7.5659512028
  - # 9
    frequency:    7.6273818341
  - # 10
    frequency:    8.4974339064
  - # 11
    frequency:   11.6258814477
  - # 12
    frequency:   12.9657305904
  - # 13
    frequency:   13.1132907697
  - # 14
    frequency:   15.5020261550
  - # 15
    frequency:   19.7979869438

- q-position: [    0.1111111,    0.0000000,    0.0000000 ]
  distance:    0.0389849
  band:
  - # 1
    frequency:    0.8440958557
  - # 2
    frequency:    1.8512801983
  - # 3
    frequency:    3.1813631524
  - # 4
    frequency:    5.0952542780
  - # 5
    frequency:    5.6679545412
  - # 6
    frequency:    7.0861430288
  - # 7
    frequency:    7.4577879782
  - # 8
    frequency:    7.5560848623
  - # 9
    frequency:    7.6269749056
  - # 10
    frequency:    8.5568896212
  - # 11
    frequency:   11.6094682204
  - # 12
    frequency:   12.9561118409
  - # 13
    frequency:   13.0610010372
  - # 14
    frequency:   15.6963606599
  - # 15
    frequency:   19.7495856742

- q-position: [    0.1161616,    0.0000000,    0.0000000 ]
  distance:    0.0407569
  band:
  - # 1
    frequency:    0.9144314399
  - # 2
    frequency:    1.9306720493
  - # 3
    frequency:    3.3163135045
  - # 4
    frequency:    5.0921833788
  - # 5
    frequency:    5.7105750511
  - # 6
    frequency:    7.0730501934
  - # 7
    frequency:    7.4498405371
  - # 8
    frequency:    7.5458386237
  - # 9
    frequency:    7.6262299343
  - # 10
    frequency:    8.6151211443
  - # 11
    frequency:   11.5926114357
  - # 12
    frequency:   12.9462761929
  - # 13
    frequency:   13.0065771677
  - # 14
    frequency:   15.8932678220
  - # 15
    frequency:   19.6995745967

- q-position: [    0.1212121,    0.0000000,    0.0000000 ]
  distance:    0.0425289
  band:
  - # 1
    frequency:    0.9866596756
  - # 2
    frequency:    2.0094569191
  - # 3
    frequency:    3.4498010968
  - # 4
    frequency:    5.0893449909
  - # 5
    frequency:    5.7543405941
  - # 6
    frequency:    7.0600530884
  - # 7
    frequency:    7.4416695377
  - # 8
    frequency:    7.5352428117
  - # 9
    frequency:    7.6251433761
  - # 10
    frequency:    8.6721684825
  - # 11
    frequency:   11.5753530327
  - # 12
    frequency:   12.9362507212
  - # 13
    frequency:   12.9501590285
  - # 14
    frequency:   16.0918347094
  - # 15
    frequency:   19.6480554772

- q-position: [    0.1262626,    0.0000000,    0.0000000 ]
  distance:    0.0443010
  band:
  - # 1
    frequency:    1.0606691566
  - # 2
    frequency:    2.0876149735
  - # 3
    frequency:    3.5817332836
  - # 4
    frequency:    5.0867787668
  - # 5
    frequency:    5.7991921961
  - # 6
    frequency:    7.0471946206
  - # 7
    frequency:    7.4333428418
  - # 8
    frequency:    7.5243223237
  - # 9
    frequency:    7.6237138964
  - # 10
    frequency:    8.7281026246
  - # 11
    frequency:   11.5577366246
  - # 12
    frequency:   12.8918760645
  - # 13
    frequency:   12.9260626296
  - # 14
    frequency:   16.2911713981
  - # 15
    frequency:   19.5951432636

- q-position: [    0.1313131,    0.0000000,    0.0000000 ]
  distance:    0.0460730
  band:
  - # 1
    frequency:    1.1363502571
  - # 2
    frequency:    2.1651273420
  - # 3
    frequency:    3.7120166229
  - # 4
    frequency:    5.0845244129
  - # 5
    frequency:    5.8450718029
  - # 6
    frequency:    7.0345161481
  - # 7
    frequency:    7.4249272128
  - # 8
    frequency:    7.5130982952
  - # 9
    frequency:    7.6219422318
  - # 10
    frequency:    8.7830153523
  - # 11
    frequency:   11.5398075575
  - # 12
    frequency:   12.8318511097
  - # 13
    frequency:   12.9157390988
  - # 14
    frequency:   16.4904079964
  - # 15
    frequency:   19.5409706374

- q-position: [    0.1363636,    0.0000000,    0.0000000 ]
  distance:    0.0478451
  band:
  - # 1
    frequency:    1.2135952690
  - # 2
    frequency:    2.2419761658
  - # 3
    frequency:    3.8405575057
  - # 4
    frequency:    5.0826215269
  - # 5
    frequency:    5.8919218931
  - # 6
    frequency:    7.0220574693
  - # 7
    frequency:    7.4164885289
  - # 8
    frequency:    7.5015895083
  - # 9
    frequency:    7.6198310723
  - # 10
    frequency:    8.8370107976
  - # 11
    frequency:   11.5216129972
  - # 12
    frequency:   12.7702029903
  - # 13
    frequency:   12.9053071323
  - # 14
    frequency:   16.6886892923
  - # 15
    frequency:   19.4856949313

- q-position: [    0.1414141,    0.0000000,    0.0000000 ]
  distance:    0.0496171
  band:
  - # 1
    frequency:    1.2922985130
  - # 2
    frequency:    2.3181446409
  - # 3
    frequency:    3.9672628647
  - # 4
    frequency:    5.0811094332
  - # 5
    frequency:    5.9396850278
  - # 6
    frequency:    7.0098567910
  - # 7
    frequency:    7.4080917083
  - # 8
    frequency:    7.4898136121
  - # 9
    frequency:    7.6173849582
  - # 10
    frequency:    8.8901984418
  - # 11
    frequency:   11.5032020484
  - # 12
    frequency:   12.7070483524
  - # 13
    frequency:   12.8947934012
  - # 14
    frequency:   16.8851652431
  - # 15
    frequency:   19.4295088959

- q-position: [    0.1464646,    0.0000000,    0.0000000 ]
  distance:    0.0513891
  band:
  - # 1
    frequency:    1.3723564264
  - # 2
    frequency:    2.3936170581
  - # 3
    frequency:    4.0920409582
  - # 4
    frequency:    5.0800270164
  - # 5
    frequency:    5.9883033414
  - # 6
    frequency:    6.9979506785
  - # 7
    frequency:    7.3998004639
  - # 8
    frequency:    7.4777881970
  - # 9
    frequency:    7.6146101908
  - # 10
    frequency:    8.9426872927
  - # 11
    frequency:   11.4846259118
  - # 12
    frequency:   12.6425029906
  - # 13
    frequency:   12.8842240904
  - # 14
    frequency:   17.0789745676
  - # 15
    frequency:   19.3726579329

- q-position: [    0.1515152,    0.0000000,    0.0000000 ]
  distance:    0.0531612
  band:
  - # 1
    frequency:    1.4536676346
  - # 2
    frequency:    2.4683788372
  - # 3
    frequency:    4.2148022200
  - # 4
    frequency:    5.0794125547
  - # 5
    frequency:    6.0377179798
  - # 6
    frequency:    6.9863739908
  - # 7
    frequency:    7.3916769671
  - # 8
    frequency:    7.4655317541
  - # 9
    frequency:    7.6115147506
  - # 10
    frequency:    8.9945810122
  - # 11
    frequency:   11.4659380827
  - # 12
    frequency:   12.5766828559
  - # 13
    frequency:   12.8736247478
  - # 14
    frequency:   17.2692166290
  - # 15
    frequency:   19.3154685939

- q-position: [    0.1565657,    0.0000000,    0.0000000 ]
  distance:    0.0549332
  band:
  - # 1
    frequency:    1.5361330069
  - # 2
    frequency:    2.5424165560
  - # 3
    frequency:    4.3354601610
  - # 4
    frequency:    5.0793035507
  - # 5
    frequency:    6.0878684905
  - # 6
    frequency:    6.9751598048
  - # 7
    frequency:    7.3837814672
  - # 8
    frequency:    7.4530645497
  - # 9
    frequency:    7.6081082221
  - # 10
    frequency:    9.0459737941
  - # 11
    frequency:   11.4471945952
  - # 12
    frequency:   12.5097048701
  - # 13
    frequency:   12.8630201390
  - # 14
    frequency:   17.4549025092
  - # 15
    frequency:   19.2583974780

- q-position: [    0.1616162,    0.0000000,    0.0000000 ]
  distance:    0.0567052
  band:
  - # 1
    frequency:    1.6196557023
  - # 2
    frequency:    2.6157179726
  - # 3
    frequency:    4.4539323035
  - # 4
    frequency:    5.0797365606
  - # 5
    frequency:    6.1386921694
  - # 6
    frequency:    6.9643393298
  - # 7
    frequency:    7.3761718824
  - # 8
    frequency:    7.4404094585
  - # 9
    frequency:    7.6044017206
  - # 10
    frequency:    9.0969468171
  - # 11
    frequency:   11.4284543118
  - # 12
    frequency:   12.4416876342
  - # 13
    frequency:   12.8524341089
  - # 14
    frequency:   17.6348672502
  - # 15
    frequency:   19.2021186150

- q-position: [    0.1666667,    0.0000000,    0.0000000 ]
  distance:    0.0584773
  band:
  - # 1
    frequency:    1.7041412049
  - # 2
    frequency:    2.6882720415
  - # 3
    frequency:    4.5701411233
  - # 4
    frequency:    5.0807470214
  - # 5
    frequency:    6.1901233694
  - # 6
    frequency:    6.9539418158
  - # 7
    frequency:    7.3689033401
  - # 8
    frequency:    7.4275928252
  - # 9
    frequency:    7.6004078187
  - # 10
    frequency:    9.1475651250
  - # 11
    frequency:   11.4097792564
  - # 12
    frequency:   12.3727521090
  - # 13
    frequency:   12.8418894531
  - # 14
    frequency:   17.8076063340
  - # 15
    frequency:   19.1476863326

- q-position: [    0.1717172,    0.0000000,    0.0000000 ]
  distance:    0.0602493
  band:
  - # 1
    frequency:    1.7894973526
  - # 2
    frequency:    2.7600689225
  - # 3
    frequency:    4.6840149675
  - # 4
    frequency:    5.0823690759
  - # 5
    frequency:    6.2420927720
  - # 6
    frequency:    6.9439944586
  - # 7
    frequency:    7.3620275725
  - # 8
    frequency:    7.4146454909
  - # 9
    frequency:    7.5961404698
  - # 10
    frequency:    9.1978748064
  - # 11
    frequency:   11.3912349796
  - # 12
    frequency:   12.3030223351
  - # 13
    frequency:   12.8314077997
  - # 14
    frequency:   17.9709600175
  - # 15
    frequency:   19.0968500562

- q-position: [    0.1767677,    0.0000000,    0.0000000 ]
  distance:    0.0620214
  band:
  - # 1
    frequency:    1.8756343592
  - # 2
    frequency:    2.8310999820
  - # 3
    frequency:    4.7954889128
  - # 4
    frequency:    5.0846353951
  - # 5
    frequency:    6.2945266190
  - # 6
    frequency:    6.9345223037
  - # 7
    frequency:    7.3555919076
  - # 8
    frequency:    7.4016042884
  - # 9
    frequency:    7.5916149266
  - # 10
    frequency:    9.2479003670
  - # 11
    frequency:   11.3728909303
  - # 12
    frequency:   12.2326262668
  - # 13
    frequency:   12.8210095053
  - # 14
    frequency:   18.1214977367
  - # 15
    frequency:   19.0526688913

- q-position: [    0.1818182,    0.0000000,    0.0000000 ]
  distance:    0.0637934
  band:
  - # 1
    frequency:    1.9624648310
  - # 2
    frequency:    2.9013577871
  - # 3
    frequency:    4.9045055192
  - # 4
    frequency:    5.0875769976
  - # 5
    frequency:    6.3473458920
  - # 6
    frequency:    6.9255481516
  - # 7
    frequency:    7.3496371120
  - # 8
    frequency:    7.3885147983
  - # 9
    frequency:    7.5868476528
  - # 10
    frequency:    9.2976422062
  - # 11
    frequency:   11.3548207870
  - # 12
    frequency:   12.1616968145
  - # 13
    frequency:   12.8107135643
  - # 14
    frequency:   18.2534114729
  - # 15
    frequency:   19.0206171405

- q-position: [    0.1868687,    0.0000000,    0.0000000 ]
  distance:    0.0655654
  band:
  - # 1
    frequency:    2.0499037788
  - # 2
    frequency:    2.9708360915
  - # 3
    frequency:    5.0110154344
  - # 4
    frequency:    5.0912230663
  - # 5
    frequency:    6.4004654133
  - # 6
    frequency:    6.9170924673
  - # 7
    frequency:    7.3441916678
  - # 8
    frequency:    7.3754378520
  - # 9
    frequency:    7.5818562256
  - # 10
    frequency:    9.3470741278
  - # 11
    frequency:   11.3371026585
  - # 12
    frequency:   12.0903732223
  - # 13
    frequency:   12.8005375358
  - # 14
    frequency:   18.3572645832
  - # 15
    frequency:   19.0098343031

- q-position: [    0.1919192,    0.0000000,    0.0000000 ]
  distance:    0.0673375
  band:
  - # 1
    frequency:    2.1378686247
  - # 2
    frequency:    3.0395298149
  - # 3
    frequency:    5.0956007624
  - # 4
    frequency:    5.1149777993
  - # 5
    frequency:    6.4537928129
  - # 6
    frequency:    6.9091732959
  - # 7
    frequency:    7.3392527155
  - # 8
    frequency:    7.3624696363
  - # 9
    frequency:    7.5766592295
  - # 10
    frequency:    9.3961408289
  - # 11
    frequency:   11.3198189883
  - # 12
    frequency:   12.0188029810
  - # 13
    frequency:   12.7904974861
  - # 14
    frequency:   18.4216850430
  - # 15
    frequency:   19.0314306351

- q-position: [    0.1969697,    0.0000000,    0.0000000 ]
  distance:    0.0691095
  band:
  - # 1
    frequency:    2.2262792052
  - # 2
    frequency:    3.1074350142
  - # 3
    frequency:    5.1007350358
  - # 4
    frequency:    5.2163604052
  - # 5
    frequency:    6.5072272636
  - # 6
    frequency:    6.9018061860
  - # 7
    frequency:    7.3346995678
  - # 8
    frequency:    7.3498296285
  - # 9
    frequency:    7.5712761395
  - # 10
    frequency:    9.4447553324
  - # 11
    frequency:   11.3030558656
  - # 12
    frequency:   11.9471445938
  - # 13
    frequency:   12.7806079508
  - # 14
    frequency:   18.4423227953
  - # 15
    frequency:   19.0895286063

- q-position: [    0.2020202,    0.0000000,    0.0000000 ]
  distance:    0.0708816
  band:
  - # 1
    frequency:    2.3150577692
  - # 2
    frequency:    3.1745488482
  - # 3
    frequency:    5.1066484340
  - # 4
    frequency:    5.3151395563
  - # 5
    frequency:    6.5606578143
  - # 6
    frequency:    6.8950041246
  - # 7
    frequency:    7.3297060209
  - # 8
    frequency:    7.3384503385
  - # 9
    frequency:    7.5657271929
  - # 10
    frequency:    9.4927963518
  - # 11
    frequency:   11.2869011939
  - # 12
    frequency:   11.8755717510
  - # 13
    frequency:   12.7708819141
  - # 14
    frequency:   18.4276815023
  - # 15
    frequency:   19.1754299736

- q-position: [    0.2070707,    0.0000000,    0.0000000 ]
  distance:    0.0726536
  band:
  - # 1
    frequency:    2.4041289715
  - # 2
    frequency:    3.2408695365
  - # 3
    frequency:    5.1133609080
  - # 4
    frequency:    5.4112995943
  - # 5
    frequency:    6.6139610271
  - # 6
    frequency:    6.8887774829
  - # 7
    frequency:    7.3210669019
  - # 8
    frequency:    7.3316537379
  - # 9
    frequency:    7.5600332519
  - # 10
    frequency:    9.5401056106
  - # 11
    frequency:   11.2714406852
  - # 12
    frequency:   11.8042799146
  - # 13
    frequency:   12.7613308079
  - # 14
    frequency:   18.3905736015
  - # 15
    frequency:   19.2761595839

- q-position: [    0.2121212,    0.0000000,    0.0000000 ]
  distance:    0.0744256
  band:
  - # 1
    frequency:    2.4934198626
  - # 2