nqpoint: 300    
npath: 3      
segment_nqpoint:
- 100
- 100
- 100
labels:
- [ 'G', 'M' ]
- [ 'M', 'K' ]
- [ 'K', 'G' ]
reciprocal_lattice:
- [   0.30385689,   0.17543186,   0.00000000 ] # a*
- [   0.00000000,   0.35086371,   0.00000000 ] # b*
- [   0.00000000,   0.00000000,   0.04382060 ] # c*
natom: 5      
lattice:
- [     3.291022971916184,     0.000000000000000,     0.000000000000000 ] # a
- [    -1.645511485958092,     2.850109498114538,     0.000000000000000 ] # b
- [     0.000000000000000,     0.000000000000000,    22.820315409534487 ] # c
points:
- symbol: C # 1
  coordinates: [  0.000000000000000,  0.000000000000000,  0.500000037795486 ]
  mass: 12.010700
- symbol: F # 2
  coordinates: [  0.333332985432215,  0.666666983183674,  0.605614565860043 ]
  mass: 18.998403
- symbol: F # 3
  coordinates: [  0.666666984744047,  0.333332985985145,  0.394385434139957 ]
  mass: 18.998403
- symbol: Sc # 4
  coordinates: [  0.333332985432215,  0.666666983183674,  0.444452431928617 ]
  mass: 44.955912
- symbol: Sc # 5
  coordinates: [  0.666666984744047,  0.333332985985145,  0.555547567507261 ]
  mass: 44.955912

phonon:
- q-position: [    0.0000000,    0.0000000,    0.0000000 ]
  distance:    0.0000000
  band:
  - # 1
    frequency:   -0.0000018928
  - # 2
    frequency:    0.0000010718
  - # 3
    frequency:    0.0000015345
  - # 4
    frequency:    4.9269061305
  - # 5
    frequency:    4.9269061305
  - # 6
    frequency:    6.5881336817
  - # 7
    frequency:    6.5881336817
  - # 8
    frequency:    7.6342501622
  - # 9
    frequency:    7.6342501622
  - # 10
    frequency:    7.7742505295
  - # 11
    frequency:   11.8797870728
  - # 12
    frequency:   12.4544945799
  - # 13
    frequency:   12.4544945799
  - # 14
    frequency:   13.9023666282
  - # 15
    frequency:   20.3942562915

- q-position: [    0.0050505,    0.0000000,    0.0000000 ]
  distance:    0.0017720
  band:
  - # 1
    frequency:    0.0056646955
  - # 2
    frequency:    0.0925900968
  - # 3
    frequency:    0.1421376666
  - # 4
    frequency:    4.9272644297
  - # 5
    frequency:    4.9284124708
  - # 6
    frequency:    6.5886210521
  - # 7
    frequency:    6.5966689208
  - # 8
    frequency:    7.6340102603
  - # 9
    frequency:    7.6342174799
  - # 10
    frequency:    7.7740659315
  - # 11
    frequency:   11.8791798585
  - # 12
    frequency:   12.4551451458
  - # 13
    frequency:   12.4615928406
  - # 14
    frequency:   13.9010008137
  - # 15
    frequency:   20.3928302181

- q-position: [    0.0101010,    0.0000000,    0.0000000 ]
  distance:    0.0035441
  band:
  - # 1
    frequency:    0.0132820420
  - # 2
    frequency:    0.1851328320
  - # 3
    frequency:    0.2842499528
  - # 4
    frequency:    4.9283379384
  - # 5
    frequency:    4.9329231526
  - # 6
    frequency:    6.5900785630
  - # 7
    frequency:    6.6219979502
  - # 8
    frequency:    7.6332997081
  - # 9
    frequency:    7.6341183693
  - # 10
    frequency:    7.7735292908
  - # 11
    frequency:   11.8773602762
  - # 12
    frequency:   12.4570923461
  - # 13
    frequency:   12.4828807327
  - # 14
    frequency:   13.8969304443
  - # 15
    frequency:   20.3885549792

- q-position: [    0.0151515,    0.0000000,    0.0000000 ]
  distance:    0.0053161
  band:
  - # 1
    frequency:    0.0240038232
  - # 2
    frequency:    0.2775811008
  - # 3
    frequency:    0.4263113180
  - # 4
    frequency:    4.9301224931
  - # 5
    frequency:    4.9404133367
  - # 6
    frequency:    6.5924924860
  - # 7
    frequency:    6.6633030332
  - # 8
    frequency:    7.6321471220
  - # 9
    frequency:    7.6339496559
  - # 10
    frequency:    7.7726945961
  - # 11
    frequency:   11.8743345193
  - # 12
    frequency:   12.4603227203
  - # 13
    frequency:   12.5183300353
  - # 14
    frequency:   13.8902410374
  - # 15
    frequency:   20.3814395070

- q-position: [    0.0202020,    0.0000000,    0.0000000 ]
  distance:    0.0070882
  band:
  - # 1
    frequency:    0.0383004096
  - # 2
    frequency:    0.3698883083
  - # 3
    frequency:    0.5682958995
  - # 4
    frequency:    4.9326111642
  - # 5
    frequency:    4.9508422088
  - # 6
    frequency:    6.5958401801
  - # 7
    frequency:    6.7192595154
  - # 8
    frequency:    7.6306042790
  - # 9
    frequency:    7.6337061027
  - # 10
    frequency:    7.7716610944
  - # 11
    frequency:   11.8701129348
  - # 12
    frequency:   12.4648139362
  - # 13
    frequency:   12.5678671845
  - # 14
    frequency:   13.8810909067
  - # 15
    frequency:   20.3714986489

- q-position: [    0.0252525,    0.0000000,    0.0000000 ]
  distance:    0.0088602
  band:
  - # 1
    frequency:    0.0563189966
  - # 2
    frequency:    0.4620086149
  - # 3
    frequency:    0.7101773473
  - # 4
    frequency:    4.9357942722
  - # 5
    frequency:    4.9641538351
  - # 6
    frequency:    6.6000904433
  - # 7
    frequency:    6.7880831241
  - # 8
    frequency:    7.6287530956
  - # 9
    frequency:    7.6333804913
  - # 10
    frequency:    7.7705905214
  - # 11
    frequency:   11.8647100296
  - # 12
    frequency:   12.4705349441
  - # 13
    frequency:   12.6313279593
  - # 14
    frequency:   13.8697407863
  - # 15
    frequency:   20.3587531093

- q-position: [    0.0303030,    0.0000000,    0.0000000 ]
  distance:    0.0106322
  band:
  - # 1
    frequency:    0.0780741299
  - # 2
    frequency:    0.5538971697
  - # 3
    frequency:    0.8519286547
  - # 4
    frequency:    4.9396594137
  - # 5
    frequency:    4.9802783135
  - # 6
    frequency:    6.6052039895
  - # 7
    frequency:    6.8675754422
  - # 8
    frequency:    7.6267172333
  - # 9
    frequency:    7.6329637339
  - # 10
    frequency:    7.7697395430
  - # 11
    frequency:   11.8581444425
  - # 12
    frequency:   12.4774461920
  - # 13
    frequency:   12.7083795758
  - # 14
    frequency:   13.8566107044
  - # 15
    frequency:   20.3432293689

- q-position: [    0.0353535,    0.0000000,    0.0000000 ]
  distance:    0.0124043
  band:
  - # 1
    frequency:    0.1035214240
  - # 2
    frequency:    0.6455103300
  - # 3
    frequency:    0.9935219840
  - # 4
    frequency:    4.9441915013
  - # 5
    frequency:    4.9991331733
  - # 6
    frequency:    6.6111340361
  - # 7
    frequency:    6.9551442048
  - # 8
    frequency:    7.6246802482
  - # 9
    frequency:    7.6324450175
  - # 10
    frequency:    7.7695205609
  - # 11
    frequency:   11.8504388790
  - # 12
    frequency:   12.4854999027
  - # 13
    frequency:   12.7983848196
  - # 14
    frequency:   13.8423906034
  - # 15
    frequency:   20.3249595855

- q-position: [    0.0404040,    0.0000000,    0.0000000 ]
  distance:    0.0141763
  band:
  - # 1
    frequency:    0.1325856897
  - # 2
    frequency:    0.7368058628
  - # 3
    frequency:    1.1349284895
  - # 4
    frequency:    4.9493728190
  - # 5
    frequency:    5.0206249632
  - # 6
    frequency:    6.6178269845
  - # 7
    frequency:    7.0477623095
  - # 8
    frequency:    7.6229116799
  - # 9
    frequency:    7.6318119770
  - # 10
    frequency:    7.7706174051
  - # 11
    frequency:   11.8416200134
  - # 12
    frequency:   12.4946404128
  - # 13
    frequency:   12.9001495946
  - # 14
    frequency:   13.8282649739
  - # 15
    frequency:   20.3039814757

- q-position: [    0.0454545,    0.0000000,    0.0000000 ]
  distance:    0.0159484
  band:
  - # 1
    frequency:    0.1651729053
  - # 2
    frequency:    0.8277431263
  - # 3
    frequency:    1.2761181358
  - # 4
    frequency:    4.9551830989
  - # 5
    frequency:    5.0446509625
  - # 6
    frequency:    6.6252231752
  - # 7
    frequency:    7.1418125678
  - # 8
    frequency:    7.6217963280
  - # 9
    frequency:    7.6310508985
  - # 10
    frequency:    7.7742063812
  - # 11
    frequency:   11.8317183686
  - # 12
    frequency:   12.5048045724
  - # 13
    frequency:   13.0114148156
  - # 14
    frequency:   13.8163927651
  - # 15
    frequency:   20.2803381836

- q-position: [    0.0505051,    0.0000000,    0.0000000 ]
  distance:    0.0177204
  band:
  - # 1
    frequency:    0.2011762576
  - # 2
    frequency:    0.9182832294
  - # 3
    frequency:    1.4170595155
  - # 4
    frequency:    4.9615996213
  - # 5
    frequency:    5.0711009492
  - # 6
    frequency:    6.6332576961
  - # 7
    frequency:    7.2327703728
  - # 8
    frequency:    7.6218346653
  - # 9
    frequency:    7.6301469491
  - # 10
    frequency:    7.7823567045
  - # 11
    frequency:   11.8207681770
  - # 12
    frequency:   12.5159222050
  - # 13
    frequency:   13.1277748779
  - # 14
    frequency:   13.8109629271
  - # 15
    frequency:   20.2540781382

- q-position: [    0.0555556,    0.0000000,    0.0000000 ]
  distance:    0.0194924
  band:
  - # 1
    frequency:    0.2404798240
  - # 2
    frequency:    1.0083891680
  - # 3
    frequency:    1.5577196633
  - # 4
    frequency:    4.9685973408
  - # 5
    frequency:    5.0998589649
  - # 6
    frequency:    6.6418612241
  - # 7
    frequency:    7.3148487109
  - # 8
    frequency:    7.6235014896
  - # 9
    frequency:    7.6290844326
  - # 10
    frequency:    7.7985945850
  - # 11
    frequency:   11.8088072268
  - # 12
    frequency:   12.5279166271
  - # 13
    frequency:   13.2405111207
  - # 14
    frequency:   13.8203398758
  - # 15
    frequency:   20.2252549062

- q-position: [    0.0606061,    0.0000000,    0.0000000 ]
  distance:    0.0212645
  band:
  - # 1
    frequency:    0.2829612060
  - # 2
    frequency:    1.0980259360
  - # 3
    frequency:    1.6980638705
  - # 4
    frequency:    4.9761490424
  - # 5
    frequency:    5.1308050224
  - # 6
    frequency:    6.6509608797
  - # 7
    frequency:    7.3814386349
  - # 8
    frequency:    7.6267632256
  - # 9
    frequency:    7.6278470680
  - # 10
    frequency:    7.8279949264
  - # 11
    frequency:   11.7958766939
  - # 12
    frequency:   12.5407052232
  - # 13
    frequency:   13.3341547719
  - # 14
    frequency:   13.8594868011
  - # 15
    frequency:   20.1939270455

- q-position: [    0.0656566,    0.0000000,    0.0000000 ]
  distance:    0.0230365
  band:
  - # 1
    frequency:    0.3284936140
  - # 2
    frequency:    1.1871606124
  - # 3
    frequency:    1.8380554980
  - # 4
    frequency:    4.9842255266
  - # 5
    frequency:    5.1638167157
  - # 6
    frequency:    6.6604810770
  - # 7
    frequency:    7.4278909875
  - # 8
    frequency:    7.6264182879
  - # 9
    frequency:    7.6304617219
  - # 10
    frequency:    7.8750462057
  - # 11
    frequency:   11.7820209597
  - # 12
    frequency:   12.5542000761
  - # 13
    frequency:   13.3915314682
  - # 14
    frequency:   13.9449163960
  - # 15
    frequency:   20.1601579691

- q-position: [    0.0707071,    0.0000000,    0.0000000 ]
  distance:    0.0248085
  band:
  - # 1
    frequency:    0.3769476028
  - # 2
    frequency:    1.2757624230
  - # 3
    frequency:    1.9776557892
  - # 4
    frequency:    4.9927958252
  - # 5
    frequency:    5.1987707005
  - # 6
    frequency:    6.6703443521
  - # 7
    frequency:    7.4550507466
  - # 8
    frequency:    7.6247815532
  - # 9
    frequency:    7.6327556255
  - # 10
    frequency:    7.9396868789
  - # 11
    frequency:   11.7672874148
  - # 12
    frequency:   12.5683086464
  - # 13
    frequency:   13.4098983877
  - # 14
    frequency:   14.0785585703
  - # 15
    frequency:   20.1240158291

- q-position: [    0.0757576,    0.0000000,    0.0000000 ]
  distance:    0.0265806
  band:
  - # 1
    frequency:    0.4281925391
  - # 2
    frequency:    1.3638027770
  - # 3
    frequency:    2.1168236830
  - # 4
    frequency:    5.0018274460
  - # 5
    frequency:    5.2355440235
  - # 6
    frequency:    6.6804721575
  - # 7
    frequency:    7.4680651370
  - # 8
    frequency:    7.6229206801
  - # 9
    frequency:    7.6325382264
  - # 10
    frequency:    8.0170754753
  - # 11
    frequency:   11.7517262499
  - # 12
    frequency:   12.5829344979
  - # 13
    frequency:   13.4006787773
  - # 14
    frequency:   14.2480397721
  - # 15
    frequency:   20.0855734359

- q-position: [    0.0808081,    0.0000000,    0.0000000 ]
  distance:    0.0283526
  band:
  - # 1
    frequency:    0.4820978408
  - # 2
    frequency:    1.4512552810
  - # 3
    frequency:    2.2555156269
  - # 4
    frequency:    5.0112866462
  - # 5
    frequency:    5.2740152899
  - # 6
    frequency:    6.6907856117
  - # 7
    frequency:    7.4721706805
  - # 8
    frequency:    7.6208201740
  - # 9
    frequency:    7.6297922674
  - # 10
    frequency:    8.1014319417
  - # 11
    frequency:   11.7353902347
  - # 12
    frequency:   12.5979780630
  - # 13
    frequency:   13.3749107541
  - # 14
    frequency:   14.4412553712
  - # 15
    frequency:   20.0449082322

- q-position: [    0.0858586,    0.0000000,    0.0000000 ]
  distance:    0.0301247
  band:
  - # 1
    frequency:    0.5385340065
  - # 2
    frequency:    1.5380957287
  - # 3
    frequency:    2.3936853918
  - # 4
    frequency:    5.0211387288
  - # 5
    frequency:    5.3140656657
  - # 6
    frequency:    6.7012061973
  - # 7
    frequency:    7.4708670080
  - # 8
    frequency:    7.6184655655
  - # 9
    frequency:    7.6249732276
  - # 10
    frequency:    8.1884546832
  - # 11
    frequency:   11.7183344864
  - # 12
    frequency:   12.6133374414
  - # 13
    frequency:   13.3389759753
  - # 14
    frequency:   14.6506671238
  - # 15
    frequency:   20.0021023484

- q-position: [    0.0909091,    0.0000000,    0.0000000 ]
  distance:    0.0318967
  band:
  - # 1
    frequency:    0.5973734555
  - # 2
    frequency:    1.6243020703
  - # 3
    frequency:    2.5312838886
  - # 4
    frequency:    5.0313483612
  - # 5
    frequency:    5.3555797159
  - # 6
    frequency:    6.7116564034
  - # 7
    frequency:    7.4661862539
  - # 8
    frequency:    7.6158437417
  - # 9
    frequency:    7.6185602968
  - # 10
    frequency:    8.2754690768
  - # 11
    frequency:   11.7006162313
  - # 12
    frequency:   12.6289092257
  - # 13
    frequency:   13.2962193135
  - # 14
    frequency:   14.8717119166
  - # 15
    frequency:   19.9572427768

- q-position: [    0.0959596,    0.0000000,    0.0000000 ]
  distance:    0.0336687
  band:
  - # 1
    frequency:    0.6584911931
  - # 2
    frequency:    1.7098543615
  - # 3
    frequency:    2.6682589875
  - # 4
    frequency:    5.0418799096
  - # 5
    frequency:    5.3984460879
  - # 6
    frequency:    6.7220603131
  - # 7
    frequency:    7.4592908799
  - # 8
    frequency:    7.6109288701
  - # 9
    frequency:    7.6129432669
  - # 10
    frequency:    8.3609241954
  - # 11
    frequency:   11.6822945618
  - # 12
    frequency:   12.6445893451
  - # 13
    frequency:   13.2484615023
  - # 14
    frequency:   15.1013173087
  - # 15
    frequency:   19.9104217194

- q-position: [    0.1010101,    0.0000000,    0.0000000 ]
  distance:    0.0354408
  band:
  - # 1
    frequency:    0.7217653195
  - # 2
    frequency:    1.7947346941
  - # 3
    frequency:    2.8045553432
  - # 4
    frequency:    5.0526977861
  - # 5
    frequency:    5.4425580489
  - # 6
    frequency:    6.7323441373
  - # 7
    frequency:    7.4508708200
  - # 8
    frequency:    7.6023520198
  - # 9
    frequency:    7.6097546842
  - # 10
    frequency:    8.4439620983
  - # 11
    frequency:   11.6634301932
  - # 12
    frequency:   12.6602739193
  - # 13
    frequency:   13.1967719562
  - # 14
    frequency:   15.3371546068
  - # 15
    frequency:   19.8617371878

- q-position: [    0.1060606,    0.0000000,    0.0000000 ]
  distance:    0.0372128
  band:
  - # 1
    frequency:    0.7870773991
  - # 2
    frequency:    1.8789271102
  - # 3
    frequency:    2.9401142255
  - # 4
    frequency:    5.0637668008
  - # 5
    frequency:    5.4878138914
  - # 6
    frequency:    6.7424367015
  - # 7
    frequency:    7.4413588212
  - # 8
    frequency:    7.5930279694
  - # 9
    frequency:    7.6062707917
  - # 10
    frequency:    8.5241456731
  - # 11
    frequency:   11.6440852248
  - # 12
    frequency:   12.6758601140
  - # 13
    frequency:   13.1418335111
  - # 14
    frequency:   15.5772962566
  - # 15
    frequency:   19.8112939759

- q-position: [    0.1111111,    0.0000000,    0.0000000 ]
  distance:    0.0389849
  band:
  - # 1
    frequency:    0.8543127096
  - # 2
    frequency:    1.9624175020
  - # 3
    frequency:    3.0748733600
  - # 4
    frequency:    5.0750525166
  - # 5
    frequency:    5.5341172178
  - # 6
    frequency:    6.7522698908
  - # 7
    frequency:    7.4310430347
  - # 8
    frequency:    7.5831046821
  - # 9
    frequency:    7.6024868841
  - # 10
    frequency:    8.6012959560
  - # 11
    frequency:   11.6243229105
  - # 12
    frequency:   12.6912469877
  - # 13
    frequency:   13.0841190732
  - # 14
    frequency:   15.8200566657
  - # 15
    frequency:   19.7592051910

- q-position: [    0.1161616,    0.0000000,    0.0000000 ]
  distance:    0.0407569
  band:
  - # 1
    frequency:    0.9233603877
  - # 2
    frequency:    2.0451934990
  - # 3
    frequency:    3.2087667801
  - # 4
    frequency:    5.0865215993
  - # 5
    frequency:    5.5813771190
  - # 6
    frequency:    6.7617790648
  - # 7
    frequency:    7.4201268597
  - # 8
    frequency:    7.5726973010
  - # 9
    frequency:    7.5984009520
  - # 10
    frequency:    8.6753936125
  - # 11
    frequency:   11.6042074448
  - # 12
    frequency:   12.7063363228
  - # 13
    frequency:   13.0239815876
  - # 14
    frequency:   16.0639145836
  - # 15
    frequency:   19.7055946372

- q-position: [    0.1212121,    0.0000000,    0.0000000 ]
  distance:    0.0425289
  band:
  - # 1
    frequency:    0.9941134872
  - # 2
    frequency:    2.1272443443
  - # 3
    frequency:    3.3417246947
  - # 4
    frequency:    5.0981421586
  - # 5
    frequency:    5.6295082581
  - # 6
    frequency:    6.7709034505
  - # 7
    frequency:    7.4087618436
  - # 8
    frequency:    7.5618997633
  - # 9
    frequency:    7.5940138313
  - # 10
    frequency:    8.7465173899
  - # 11
    frequency:   11.5838037712
  - # 12
    frequency:   12.7210334292
  - # 13
    frequency:   12.9617023221
  - # 14
    frequency:   16.3074717851
  - # 15
    frequency:   19.6506005373

- q-position: [    0.1262626,    0.0000000,    0.0000000 ]
  distance:    0.0443010
  band:
  - # 1
    frequency:    1.0664689666
  - # 2
    frequency:    2.2085607630
  - # 3
    frequency:    3.4736733754
  - # 4
    frequency:    5.1098840756
  - # 5
    frequency:    5.6784308701
  - # 6
    frequency:    6.7795865227
  - # 7
    frequency:    7.3970664781
  - # 8
    frequency:    7.5507924318
  - # 9
    frequency:    7.5893292943
  - # 10
    frequency:    8.8148044862
  - # 11
    frequency:   11.5631774195
  - # 12
    frequency:   12.7352479152
  - # 13
    frequency:   12.8975180511
  - # 14
    frequency:   16.5494271277
  - # 15
    frequency:   19.5943814126

- q-position: [    0.1313131,    0.0000000,    0.0000000 ]
  distance:    0.0460730
  band:
  - # 1
    frequency:    1.1403276183
  - # 2
    frequency:    2.2891348240
  - # 3
    frequency:    3.6045350687
  - # 4
    frequency:    5.1217193120
  - # 5
    frequency:    5.7280706850
  - # 6
    frequency:    6.7877763849
  - # 7
    frequency:    7.3851373573
  - # 8
    frequency:    7.5394471225
  - # 9
    frequency:    7.5843540756
  - # 10
    frequency:    8.8804244401
  - # 11
    frequency:   11.5423943801
  - # 12
    frequency:   12.7488944139
  - # 13
    frequency:   12.8316370175
  - # 14
    frequency:   16.7885552496
  - # 15
    frequency:   19.5371255644

- q-position: [    0.1363636,    0.0000000,    0.0000000 ]
  distance:    0.0478451
  band:
  - # 1
    frequency:    1.2155939523
  - # 2
    frequency:    2.3689597978
  - # 3
    frequency:    3.7342279372
  - # 4
    frequency:    5.1336221977
  - # 5
    frequency:    5.7783587828
  - # 6
    frequency:    6.7954261547
  - # 7
    frequency:    7.3730560577
  - # 8
    frequency:    7.5279304426
  - # 9
    frequency:    7.5790978283
  - # 10
    frequency:    8.9435616792
  - # 11
    frequency:   11.5215210228
  - # 12
    frequency:   12.7618932603
  - # 13
    frequency:   12.7642486524
  - # 14
    frequency:   17.0236828992
  - # 15
    frequency:   19.4790668013

- q-position: [    0.1414141,    0.0000000,    0.0000000 ]
  distance:    0.0496171
  band:
  - # 1
    frequency:    1.2921760460
  - # 2
    frequency:    2.4480300118
  - # 3
    frequency:    3.8626660380
  - # 4
    frequency:    5.1455696928
  - # 5
    frequency:    5.8292313827
  - # 6
    frequency:    6.8024943641
  - # 7
    frequency:    7.3608935403
  - # 8
    frequency:    7.5163060120
  - # 9
    frequency:    7.5735730048
  - # 10
    frequency:    9.0044037667
  - # 11
    frequency:   11.5006240687
  - # 12
    frequency:   12.6955296885
  - # 13
    frequency:   12.7741711115
  - # 14
    frequency:   17.2536557653
  - # 15
    frequency:   19.4205114813

- q-position: [    0.1464646,    0.0000000,    0.0000000 ]
  distance:    0.0513891
  band:
  - # 1
    frequency:    1.3699853686
  - # 2
    frequency:    2.5263407066
  - # 3
    frequency:    3.9897593462
  - # 4
    frequency:    5.1575416229
  - # 5
    frequency:    5.8806295673
  - # 6
    frequency:    6.8089453756
  - # 7
    frequency:    7.3487130770
  - # 8
    frequency:    7.5046359362
  - # 9
    frequency:    7.5677946623
  - # 10
    frequency:    9.0631334577
  - # 11
    frequency:   11.4797706224
  - # 12
    frequency:   12.6256481222
  - # 13
    frequency:   12.7856615028
  - # 14
    frequency:   17.4772846230
  - # 15
    frequency:   19.3618870999

- q-position: [    0.1515152,    0.0000000,    0.0000000 ]
  distance:    0.0531612
  band:
  - # 1
    frequency:    1.4489365876
  - # 2
    frequency:    2.6038878937
  - # 3
    frequency:    4.1154138287
  - # 4
    frequency:    5.1695208835
  - # 5
    frequency:    5.9324989405
  - # 6
    frequency:    6.8147498151
  - # 7
    frequency:    7.3365722774
  - # 8
    frequency:    7.4929817603
  - # 9
    frequency:    7.5617801933
  - # 10
    frequency:    9.1199233126
  - # 11
    frequency:   11.4590282710
  - # 12
    frequency:   12.5547658650
  - # 13
    frequency:   12.7963053371
  - # 14
    frequency:   17.6932485177
  - # 15
    frequency:   19.3038342824

- q-position: [    0.1565657,    0.0000000,    0.0000000 ]
  distance:    0.0549332
  band:
  - # 1
    frequency:    1.5289473659
  - # 2
    frequency:    2.6806682181
  - # 3
    frequency:    4.2395315820
  - # 4
    frequency:    5.1814936140
  - # 5
    frequency:    5.9847892126
  - # 6
    frequency:    6.8198850171
  - # 7
    frequency:    7.3245245563
  - # 8
    frequency:    7.4814050596
  - # 9
    frequency:    7.5555489853
  - # 10
    frequency:    9.1749320075
  - # 11
    frequency:   11.4384652553
  - # 12
    frequency:   12.4830405893
  - # 13
    frequency:   12.8060513012
  - # 14
    frequency:   17.8999052660
  - # 15
    frequency:   19.2473917368

- q-position: [    0.1616162,    0.0000000,    0.0000000 ]
  distance:    0.0567052
  band:
  - # 1
    frequency:    1.6099381532
  - # 2
    frequency:    2.7566788272
  - # 3
    frequency:    4.3620110406
  - # 4
    frequency:    5.1934493389
  - # 5
    frequency:    6.0374537026
  - # 6
    frequency:    6.8243354733
  - # 7
    frequency:    7.3126202527
  - # 8
    frequency:    7.4699677676
  - # 9
    frequency:    7.5491220195
  - # 10
    frequency:    9.2283017418
  - # 11
    frequency:   11.4181507148
  - # 12
    frequency:   12.4106270883
  - # 13
    frequency:   12.8148562074
  - # 14
    frequency:   18.0948907508
  - # 15
    frequency:   19.1943926347

- q-position: [    0.1666667,    0.0000000,    0.0000000 ]
  distance:    0.0584773
  band:
  - # 1
    frequency:    1.6918319784
  - # 2
    frequency:    2.8319172478
  - # 3
    frequency:    4.4827472682
  - # 4
    frequency:    5.2053810764
  - # 5
    frequency:    6.0904487426
  - # 6
    frequency:    6.8280932700
  - # 7
    frequency:    7.3009075362
  - # 8
    frequency:    7.4587323160
  - # 9
    frequency:    7.5425214190
  - # 10
    frequency:    9.2801563108
  - # 11
    frequency:   11.3981550002
  - # 12
    frequency:   12.3376783651
  - # 13
    frequency:   12.8226852582
  - # 14
    frequency:   18.2742203383
  - # 15
    frequency:   19.1483590910

- q-position: [    0.1717172,    0.0000000,    0.0000000 ]
  distance:    0.0602493
  band:
  - # 1
    frequency:    1.7745542444
  - # 2
    frequency:    2.9063812739
  - # 3
    frequency:    4.6016323422
  - # 4
    frequency:    5.2172854138
  - # 5
    frequency:    6.1437329630
  - # 6
    frequency:    6.8311584980
  - # 7
    frequency:    7.2894331919
  - # 8
    frequency:    7.4477616379
  - # 9
    frequency:    7.5357699636
  - # 10
    frequency:    9.3305995379
  - # 11
    frequency:   11.3785500412
  - # 12
    frequency:   12.2643466113
  - # 13
    frequency:   12.8295122324
  - # 14
    frequency:   18.4303114798
  - # 15
    frequency:   19.1164756854

- q-position: [    0.1767677,    0.0000000,    0.0000000 ]
  distance:    0.0620214
  band:
  - # 1
    frequency:    1.8580325311
  - # 2
    frequency:    2.9800688662
  - # 3
    frequency:    4.7185558420
  - # 4
    frequency:    5.2291625494
  - # 5
    frequency:    6.1972664312
  - # 6
    frequency:    6.8335396096
  - # 7
    frequency:    7.2782433560
  - # 8
    frequency:    7.4371190778
  - # 9
    frequency:    7.5288905902
  - # 10
    frequency:    9.3797138392
  - # 11
    frequency:   11.3594097327
  - # 12
    frequency:   12.1907842111
  - # 13
    frequency:   12.8353195932
  - # 14
    frequency:   18.5489984559
  - # 15
    frequency:   19.1125710805

- q-position: [    0.1818182,    0.0000000,    0.0000000 ]
  distance:    0.0637934
  band:
  - # 1
    frequency:    1.9421964073
  - # 2
    frequency:    3.0529780648
  - # 3
    frequency:    4.8334054478
  - # 4
    frequency:    5.2410163018
  - # 5
    frequency:    6.2510096021
  - # 6
    frequency:    6.8352536998
  - # 7
    frequency:    7.2673842659
  - # 8
    frequency:    7.4268682410
  - # 9
    frequency:    7.5219058995
  - # 10
    frequency:    9.4275587613
  - # 11
    frequency:   11.3408102794
  - # 12
    frequency:   12.1171449103
  - # 13
    frequency:   12.8400985192
  - # 14
    frequency:   18.6129151991
  - # 15
    frequency:   19.1537318012

- q-position: [    0.1868687,    0.0000000,    0.0000000 ]
  distance:    0.0655654
  band:
  - # 1
    frequency:    2.0269772539
  - # 2
    frequency:    3.1251069174
  - # 3
    frequency:    4.9460676581
  - # 4
    frequency:    5.2528540862
  - # 5
    frequency:    6.3049220303
  - # 6
    frequency:    6.8363266854
  - # 7
    frequency:    7.2569030919
  - # 8
    frequency:    7.4170728108
  - # 9
    frequency:    7.5148376933
  - # 10
    frequency:    9.4741693764
  - # 11
    frequency:   11.3228303769
  - # 12
    frequency:   12.0435853242
  - # 13
    frequency:   12.8438488590
  - # 14
    frequency:   18.6214547965
  - # 15
    frequency:   19.2403395727

- q-position: [    0.1919192,    0.0000000,    0.0000000 ]
  distance:    0.0673375
  band:
  - # 1
    frequency:    2.1123081009
  - # 2
    frequency:    3.1964534227
  - # 3
    frequency:    5.0564286232
  - # 4
    frequency:    5.2646868578
  - # 5
    frequency:    6.3589607675
  - # 6
    frequency:    6.8367933538
  - # 7
    frequency:    7.2468489368
  - # 8
    frequency:    7.4077963606
  - # 9
    frequency:    7.5077065617
  - # 10
    frequency:    9.5195544612
  - # 11
    frequency:   11.3055510172
  - # 12
    frequency:   11.9702670324
  - # 13
    frequency:   12.8465790131
  - # 14
    frequency:   18.5937413672
  - # 15
    frequency:   19.3530965132

- q-position: [    0.1969697,    0.0000000,    0.0000000 ]
  distance:    0.0691095
  band:
  - # 1
    frequency:    2.1981234776
  - # 2
    frequency:    3.2670154917
  - # 3
    frequency:    5.1643750890
  - # 4
    frequency:    5.2765290227
  - # 5
    frequency:    6.4130783415
  - # 6
    frequency:    6.8366972612
  - # 7
    frequency:    7.2372741210
  - # 8
    frequency:    7.3991021815
  - # 9
    frequency:    7.5005315426
  - # 10
    frequency:    9.5636944239
  - # 11
    frequency:   11.2890545262
  - # 12
    frequency:   11.8973596660
  - # 13
    frequency:   12.8483057458
  - # 14
    frequency:   18.5469632327
  - # 15
    frequency:   19.4746892490

- q-position: [    0.2020202,    0.0000000,    0.0000000 ]
  distance:    0.0708816
  band:
  - # 1
    frequency:    2.2843592793
  - # 2
    frequency:    3.3367909244
  - # 3
    frequency:    5.2697954308
  - # 4
    frequency:    5.2883983164
  - # 5
    frequency:    6.4672201551
  - # 6
    frequency:    6.8360904597
  - # 7
    frequency:    7.2282359289
  - # 8
    frequency:    7.3910531494
  - # 9
    frequency:    7.4933298661
  - # 10
    frequency:    9.6065389850
  - # 11
    frequency:   11.2734221060
  - # 12
    frequency:   11.8250456943
  - # 13
    frequency:   12.8490539301
  - # 14
    frequency:   18.4901959194
  - # 15
    frequency:   19.5959633966

- q-position: [    0.2070707,    0.0000000,    0.0000000 ]
  distance:    0.0726536
  band:
  - # 1
    frequency:    2.3709526481
  - # 2
    frequency:    3.4057774053
  - # 3
    frequency:    5.3003156485
  - # 4
    frequency:    5.3725807445
  - # 5
    frequency:    6.5213210626
  - # 6
    frequency:    6.8350330417
  - # 7
    frequency:    7.2197990887
  - # 8
    frequency:    7.3837116543
  - # 9
    frequency:    7.4861167963
  - # 10
    frequency:    9.6480046703
  - # 11
    frequency:   11.2587284923
  - # 12
    frequency:   11.7535282437
  - # 13
    frequency:   12.8488562312
  - # 14
    frequency:   18.4277855710
  - # 15
    frequency:   19.7125378160

- q-position: [    0.2121212,    0.0000000,    0.0000000 ]
  distance:    0.0744256
  band:
  - # 1
    frequency:    2.4578418715
  - # 2