nqpoint: 300    
npath: 3      
segment_nqpoint:
- 100
- 100
- 100
labels:
- [ 'G', 'M' ]
- [ 'M', 'K' ]
- [ 'K', 'G' ]
reciprocal_lattice:
- [   0.29286463,   0.16908547,   0.00000000 ] # a*
- [   0.00000000,   0.33817094,   0.00000000 ] # b*
- [   0.00000000,   0.00000000,   0.03659353 ] # c*
natom: 8      
lattice:
- [     3.414546889623586,     0.000000000000000,     0.000000000000000 ] # a
- [    -1.707273444811793,     2.957084348818732,     0.000000000000000 ] # b
- [     0.000000000000000,     0.000000000000000,    27.327237351983690 ] # c
points:
- symbol: C # 1
  coordinates: [  0.666666984744047,  0.333332985985145,  0.372905769362384 ]
  mass: 12.010700
- symbol: N # 2
  coordinates: [  0.000000000000000,  0.000000000000000,  0.533226386681300 ]
  mass: 14.006700
- symbol: N # 3
  coordinates: [  0.333332985432215,  0.666666983183674,  0.622101377800547 ]
  mass: 14.006700
- symbol: N # 4
  coordinates: [  0.666666984744047,  0.333332985985145,  0.329341743699777 ]
  mass: 14.006700
- symbol: O # 5
  coordinates: [  0.333332985432215,  0.666666983183674,  0.670658256300222 ]
  mass: 15.999400
- symbol: S # 6
  coordinates: [  0.666666984744047,  0.333332985985145,  0.434012199715649 ]
  mass: 32.065000
- symbol: Sc # 7
  coordinates: [  0.333332985432215,  0.666666983183674,  0.495345050750695 ]
  mass: 44.955912
- symbol: Sc # 8
  coordinates: [  0.666666984744047,  0.333332985985145,  0.588216084599599 ]
  mass: 44.955912

phonon:
- q-position: [    0.0000000,    0.0000000,    0.0000000 ]
  distance:    0.0000000
  band:
  - # 1
    frequency:   -3.9954131040
  - # 2
    frequency:   -3.9954131040
  - # 3
    frequency:   -0.0000174632
  - # 4
    frequency:    0.0000005523
  - # 5
    frequency:    0.0000172885
  - # 6
    frequency:    0.6361141155
  - # 7
    frequency:    0.6361141156
  - # 8
    frequency:    2.8217586726
  - # 9
    frequency:    2.8217586727
  - # 10
    frequency:    4.9455789741
  - # 11
    frequency:    6.0471989591
  - # 12
    frequency:    6.0471989592
  - # 13
    frequency:    7.7050577014
  - # 14
    frequency:    9.2627003370
  - # 15
    frequency:    9.2627003371
  - # 16
    frequency:    9.7952357202
  - # 17
    frequency:   10.2064830718
  - # 18
    frequency:   10.2064830719
  - # 19
    frequency:   11.5251563301
  - # 20
    frequency:   11.5251563302
  - # 21
    frequency:   14.4341620845
  - # 22
    frequency:   21.3402046635
  - # 23
    frequency:   38.7994050977
  - # 24
    frequency:   65.1685303379

- q-position: [    0.0050505,    0.0000000,    0.0000000 ]
  distance:    0.0017079
  band:
  - # 1
    frequency:   -3.9951533865
  - # 2
    frequency:   -3.9943982985
  - # 3
    frequency:    0.0020298202
  - # 4
    frequency:    0.0357651985
  - # 5
    frequency:    0.1007665627
  - # 6
    frequency:    0.6370531881
  - # 7
    frequency:    0.6407937034
  - # 8
    frequency:    2.8223264060
  - # 9
    frequency:    2.8240195182
  - # 10
    frequency:    4.9449603643
  - # 11
    frequency:    6.0475820306
  - # 12
    frequency:    6.0488594030
  - # 13
    frequency:    7.7033367382
  - # 14
    frequency:    9.2629969272
  - # 15
    frequency:    9.2645258429
  - # 16
    frequency:    9.7938401677
  - # 17
    frequency:   10.2065134752
  - # 18
    frequency:   10.2077805359
  - # 19
    frequency:   11.5249908451
  - # 20
    frequency:   11.5265811810
  - # 21
    frequency:   14.4337444585
  - # 22
    frequency:   21.3401231693
  - # 23
    frequency:   38.7986717803
  - # 24
    frequency:   65.1684293069

- q-position: [    0.0101010,    0.0000000,    0.0000000 ]
  distance:    0.0034159
  band:
  - # 1
    frequency:   -3.9943748798
  - # 2
    frequency:   -3.9913605928
  - # 3
    frequency:    0.0080891760
  - # 4
    frequency:    0.0715178336
  - # 5
    frequency:    0.2008094628
  - # 6
    frequency:    0.6398622200
  - # 7
    frequency:    0.6548471924
  - # 8
    frequency:    2.8240289974
  - # 9
    frequency:    2.8307825702
  - # 10
    frequency:    4.9431185950
  - # 11
    frequency:    6.0487302405
  - # 12
    frequency:    6.0538239475
  - # 13
    frequency:    7.6982074703
  - # 14
    frequency:    9.2638860174
  - # 15
    frequency:    9.2699645238
  - # 16
    frequency:    9.7897108009
  - # 17
    frequency:   10.2066048830
  - # 18
    frequency:   10.2116153368
  - # 19
    frequency:   11.5244947102
  - # 20
    frequency:   11.5308569923
  - # 21
    frequency:   14.4324925401
  - # 22
    frequency:   21.3398788150
  - # 23
    frequency:   38.7964730954
  - # 24
    frequency:   65.1681263748

- q-position: [    0.0151515,    0.0000000,    0.0000000 ]
  distance:    0.0051238
  band:
  - # 1
    frequency:   -3.9930795299
  - # 2
    frequency:   -3.9863200480
  - # 3
    frequency:    0.0180590580
  - # 4
    frequency:    0.1072455983
  - # 5
    frequency:    0.2992349648
  - # 6
    frequency:    0.6445170460
  - # 7
    frequency:    0.6783880437
  - # 8
    frequency:    2.8268646108
  - # 9
    frequency:    2.8419901799
  - # 10
    frequency:    4.9400949617
  - # 11
    frequency:    6.0506405831
  - # 12
    frequency:    6.0620431244
  - # 13
    frequency:    7.6897685023
  - # 14
    frequency:    9.2653655646
  - # 15
    frequency:    9.2789052503
  - # 16
    frequency:    9.7830090968
  - # 17
    frequency:   10.2067578905
  - # 18
    frequency:   10.2178252334
  - # 19
    frequency:   11.5236688873
  - # 20
    frequency:   11.5379873668
  - # 21
    frequency:   14.4304092073
  - # 22
    frequency:   21.3394719849
  - # 23
    frequency:   38.7928128424
  - # 24
    frequency:   65.1676220237

- q-position: [    0.0202020,    0.0000000,    0.0000000 ]
  distance:    0.0068317
  band:
  - # 1
    frequency:   -3.9912706084
  - # 2
    frequency:   -3.9793098592
  - # 3
    frequency:    0.0317750781
  - # 4
    frequency:    0.1429366625
  - # 5
    frequency:    0.3947857149
  - # 6
    frequency:    0.6509786603
  - # 7
    frequency:    0.7118167238
  - # 8
    frequency:    2.8308301520
  - # 9
    frequency:    2.8575488769
  - # 10
    frequency:    4.9359554655
  - # 11
    frequency:    6.0533080731
  - # 12
    frequency:    6.0734373322
  - # 13
    frequency:    7.6781770238
  - # 14
    frequency:    9.2674321536
  - # 15
    frequency:    9.2911703326
  - # 16
    frequency:    9.7739737929
  - # 17
    frequency:   10.2069734979
  - # 18
    frequency:   10.2261706933
  - # 19
    frequency:   11.5225149819
  - # 20
    frequency:   11.5479777358
  - # 21
    frequency:   14.4274992523
  - # 22
    frequency:   21.3389033186
  - # 23
    frequency:   38.7876973428
  - # 24
    frequency:   65.1669170559

- q-position: [    0.0252525,    0.0000000,    0.0000000 ]
  distance:    0.0085397
  band:
  - # 1
    frequency:   -3.9889527534
  - # 2
    frequency:   -3.9703759935
  - # 3
    frequency:    0.0490477087
  - # 4
    frequency:    0.1785798755
  - # 5
    frequency:    0.4856781625
  - # 6
    frequency:    0.6591949991
  - # 7
    frequency:    0.7560250084
  - # 8
    frequency:    2.8359212199
  - # 9
    frequency:    2.8773330384
  - # 10
    frequency:    4.9307869892
  - # 11
    frequency:    6.0567257823
  - # 12
    frequency:    6.0879006858
  - # 13
    frequency:    7.6636393136
  - # 14
    frequency:    9.2700809824
  - # 15
    frequency:    9.3065254774
  - # 16
    frequency:    9.7628873868
  - # 17
    frequency:   10.2072531219
  - # 18
    frequency:   10.2363691941
  - # 19
    frequency:   11.5210352478
  - # 20
    frequency:   11.5608345176
  - # 21
    frequency:   14.4237693750
  - # 22
    frequency:   21.3381737082
  - # 23
    frequency:   38.7811354243
  - # 24
    frequency:   65.1660125920

- q-position: [    0.0303030,    0.0000000,    0.0000000 ]
  distance:    0.0102476
  band:
  - # 1
    frequency:   -3.9861320261
  - # 2
    frequency:   -3.9595766787
  - # 3
    frequency:    0.0696811908
  - # 4
    frequency:    0.2141649126
  - # 5
    frequency:    0.5697684441
  - # 6
    frequency:    0.6691032146
  - # 7
    frequency:    0.8122804764
  - # 8
    frequency:    2.8421320405
  - # 9
    frequency:    2.9011895739
  - # 10
    frequency:    4.9246926691
  - # 11
    frequency:    6.0608848892
  - # 12
    frequency:    6.1053056680
  - # 13
    frequency:    7.6463995599
  - # 14
    frequency:    9.2733058411
  - # 15
    frequency:    9.3246913731
  - # 16
    frequency:    9.7500459543
  - # 17
    frequency:   10.2075986125
  - # 18
    frequency:   10.2481267337
  - # 19
    frequency:   11.5192325925
  - # 20
    frequency:   11.5765639746
  - # 21
    frequency:   14.4192281744
  - # 22
    frequency:   21.3372842964
  - # 23
    frequency:   38.7731383981
  - # 24
    frequency:   65.1649100677

- q-position: [    0.0353535,    0.0000000,    0.0000000 ]
  distance:    0.0119555
  band:
  - # 1
    frequency:   -3.9828159806
  - # 2
    frequency:   -3.9469817419
  - # 3
    frequency:    0.0934833264
  - # 4
    frequency:    0.2496823531
  - # 5
    frequency:    0.6455327796
  - # 6
    frequency:    0.6806322628
  - # 7
    frequency:    0.8812844413
  - # 8
    frequency:    2.8494553875
  - # 9
    frequency:    2.9289432571
  - # 10
    frequency:    4.9177869896
  - # 11
    frequency:    6.0657747426
  - # 12
    frequency:    6.1255080408
  - # 13
    frequency:    7.6267284438
  - # 14
    frequency:    9.2770990858
  - # 15
    frequency:    9.3453550930
  - # 16
    frequency:    9.7357381771
  - # 17
    frequency:   10.2080122742
  - # 18
    frequency:   10.2611609821
  - # 19
    frequency:   11.5171105844
  - # 20
    frequency:   11.5951708056
  - # 21
    frequency:   14.4138861387
  - # 22
    frequency:   21.3362364727
  - # 23
    frequency:   38.7637200306
  - # 24
    frequency:   65.1636112308

- q-position: [    0.0404040,    0.0000000,    0.0000000 ]
  distance:    0.0136635
  band:
  - # 1
    frequency:   -3.9790137464
  - # 2
    frequency:   -3.9326717986
  - # 3
    frequency:    0.1202686650
  - # 4
    frequency:    0.2851236746
  - # 5
    frequency:    0.6937056296
  - # 6
    frequency:    0.7133650820
  - # 7
    frequency:    0.9618949032
  - # 8
    frequency:    2.8578824930
  - # 9
    frequency:    2.9604023342
  - # 10
    frequency:    4.9101910741
  - # 11
    frequency:    6.0713829368
  - # 12
    frequency:    6.1483515272
  - # 13
    frequency:    7.6049126891
  - # 14
    frequency:    9.2814516064
  - # 15
    frequency:    9.3681793857
  - # 16
    frequency:    9.7202352900
  - # 17
    frequency:   10.2084968920
  - # 18
    frequency:   10.2752150559
  - # 19
    frequency:   11.5146734610
  - # 20
    frequency:   11.6166565246
  - # 21
    frequency:   14.4077556343
  - # 22
    frequency:   21.3350318691
  - # 23
    frequency:   38.7528965084
  - # 24
    frequency:   65.1621181366

- q-position: [    0.0454545,    0.0000000,    0.0000000 ]
  distance:    0.0153714
  band:
  - # 1
    frequency:   -3.9747361194
  - # 2
    frequency:   -3.9167372948
  - # 3
    frequency:    0.1498584586
  - # 4
    frequency:    0.3204811468
  - # 5
    frequency:    0.7082440402
  - # 6
    frequency:    0.7753895022
  - # 7
    frequency:    1.0513193851
  - # 8
    frequency:    2.8674029514
  - # 9
    frequency:    2.9953640701
  - # 10
    frequency:    4.9020285250
  - # 11
    frequency:    6.0776953991
  - # 12
    frequency:    6.1736718819
  - # 13
    frequency:    7.5812463852
  - # 14
    frequency:    9.2863527891
  - # 15
    frequency:    9.3928074597
  - # 16
    frequency:    9.7037917467
  - # 17
    frequency:   10.2090557622
  - # 18
    frequency:   10.2900636451
  - # 19
    frequency:   11.5119261387
  - # 20
    frequency:   11.6410176835
  - # 21
    frequency:   14.4008508947
  - # 22
    frequency:   21.3336723552
  - # 23
    frequency:   38.7406863972
  - # 24
    frequency:   65.1604331429

- q-position: [    0.0505051,    0.0000000,    0.0000000 ]
  distance:    0.0170793
  band:
  - # 1
    frequency:   -3.9699956609
  - # 2
    frequency:   -3.8992774129
  - # 3
    frequency:    0.1820797912
  - # 4
    frequency:    0.3557476119
  - # 5
    frequency:    0.7241680316
  - # 6
    frequency:    0.8339709729
  - # 7
    frequency:    1.1465997642
  - # 8
    frequency:    2.8780046230
  - # 9
    frequency:    3.0336199551
  - # 10
    frequency:    4.8934220313
  - # 11
    frequency:    6.0846964860
  - # 12
    frequency:    6.2013001026
  - # 13
    frequency:    7.5560244844
  - # 14
    frequency:    9.2917904737
  - # 15
    frequency:    9.4188591278
  - # 16
    frequency:    9.6866577392
  - # 17
    frequency:   10.2096927277
  - # 18
    frequency:   10.3055140432
  - # 19
    frequency:   11.5088742229
  - # 20
    frequency:   11.6682440120
  - # 21
    frequency:   14.3931880107
  - # 22
    frequency:   21.3321600331
  - # 23
    frequency:   38.7271105948
  - # 24
    frequency:   65.1585589045

- q-position: [    0.0555556,    0.0000000,    0.0000000 ]
  distance:    0.0187873
  band:
  - # 1
    frequency:   -3.9648068000
  - # 2
    frequency:   -3.8803988579
  - # 3
    frequency:    0.2167650038
  - # 4
    frequency:    0.3909161396
  - # 5
    frequency:    0.7414003087
  - # 6
    frequency:    0.8908041510
  - # 7
    frequency:    1.2455134444
  - # 8
    frequency:    2.8896735394
  - # 9
    frequency:    3.0749603718
  - # 10
    frequency:    4.8844908310
  - # 11
    frequency:    6.0923690898
  - # 12
    frequency:    6.2310646477
  - # 13
    frequency:    7.5295385375
  - # 14
    frequency:    9.2977509065
  - # 15
    frequency:    9.4459084165
  - # 16
    frequency:    9.6691111109
  - # 17
    frequency:   10.2104122179
  - # 18
    frequency:   10.3214043203
  - # 19
    frequency:   11.5055240196
  - # 20
    frequency:   11.6983165522
  - # 21
    frequency:   14.3847849233
  - # 22
    frequency:   21.3304972306
  - # 23
    frequency:   38.7121922784
  - # 24
    frequency:   65.1564983662

- q-position: [    0.0606061,    0.0000000,    0.0000000 ]
  distance:    0.0204952
  band:
  - # 1
    frequency:   -3.9591859368
  - # 2
    frequency:   -3.8602145463
  - # 3
    frequency:    0.2537516735
  - # 4
    frequency:    0.4259795486
  - # 5
    frequency:    0.7598678394
  - # 6
    frequency:    0.9468773792
  - # 7
    frequency:    1.3465976165
  - # 8
    frequency:    2.9023938173
  - # 9
    frequency:    3.1191785851
  - # 10
    frequency:    4.8753490199
  - # 11
    frequency:    6.1006947521
  - # 12
    frequency:    6.2627926079
  - # 13
    frequency:    7.5020745270
  - # 14
    frequency:    9.3042186878
  - # 15
    frequency:    9.4734133575
  - # 16
    frequency:    9.6515364895
  - # 17
    frequency:   10.2112192927
  - # 18
    frequency:   10.3376002020
  - # 19
    frequency:   11.5018825466
  - # 20
    frequency:   11.7312058719
  - # 21
    frequency:   14.3756614200
  - # 22
    frequency:   21.3286864951
  - # 23
    frequency:   38.6959568461
  - # 24
    frequency:   65.1542547562

- q-position: [    0.0656566,    0.0000000,    0.0000000 ]
  distance:    0.0222031
  band:
  - # 1
    frequency:   -3.9531515427
  - # 2
    frequency:   -3.8388422295
  - # 3
    frequency:    0.2928830163
  - # 4
    frequency:    0.4609297946
  - # 5
    frequency:    0.7795036746
  - # 6
    frequency:    1.0027077236
  - # 7
    frequency:    1.4489025800
  - # 8
    frequency:    2.9161475841
  - # 9
    frequency:    3.1660739783
  - # 10
    frequency:    4.8661046367
  - # 11
    frequency:    6.1096537838
  - # 12
    frequency:    6.2963098161
  - # 13
    frequency:    7.4739125619
  - # 14
    frequency:    9.3111767167
  - # 15
    frequency:    9.5004958963
  - # 16
    frequency:    9.6346530044
  - # 17
    frequency:   10.2121196904
  - # 18
    frequency:   10.3539915874
  - # 19
    frequency:   11.4979575455
  - # 20
    frequency:   11.7668704381
  - # 21
    frequency:   14.3658391378
  - # 22
    frequency:   21.3267305859
  - # 23
    frequency:   38.6784318527
  - # 24
    frequency:   65.1518315779

- q-position: [    0.0707071,    0.0000000,    0.0000000 ]
  distance:    0.0239111
  band:
  - # 1
    frequency:   -3.9467242520
  - # 2
    frequency:   -3.8164030912
  - # 3
    frequency:    0.3340084902
  - # 4
    frequency:    0.4957572306
  - # 5
    frequency:    0.8002484965
  - # 6
    frequency:    1.0585414771
  - # 7
    frequency:    1.5517808137
  - # 8
    frequency:    2.9309149198
  - # 9
    frequency:    3.2154544936
  - # 10
    frequency:    4.8568594300
  - # 11
    frequency:    6.1192253898
  - # 12
    frequency:    6.3314398696
  - # 13
    frequency:    7.4453282092
  - # 14
    frequency:    9.3186061315
  - # 15
    frequency:    9.5251712296
  - # 16
    frequency:    9.6202910583
  - # 17
    frequency:   10.2131198797
  - # 18
    frequency:   10.3704891896
  - # 19
    frequency:   11.4937574940
  - # 20
    frequency:   11.8052552269
  - # 21
    frequency:   14.3553415751
  - # 22
    frequency:   21.3246324668
  - # 23
    frequency:   38.6596469403
  - # 24
    frequency:   65.1492326016

- q-position: [    0.0757576,    0.0000000,    0.0000000 ]
  distance:    0.0256190
  band:
  - # 1
    frequency:   -3.9399269435
  - # 2
    frequency:   -3.7930203600
  - # 3
    frequency:    0.3769844111
  - # 4
    frequency:    0.5304497601
  - # 5
    frequency:    0.8220519025
  - # 6
    frequency:    1.1144774158
  - # 7
    frequency:    1.6547549765
  - # 8
    frequency:    2.9466738185
  - # 9
    frequency:    3.2671382480
  - # 10
    frequency:    4.8477092103
  - # 11
    frequency:    6.1293877979
  - # 12
    frequency:    6.3680019851
  - # 13
    frequency:    7.4165953219
  - # 14
    frequency:    9.3264862483
  - # 15
    frequency:    9.5419250661
  - # 16
    frequency:    9.6138197136
  - # 17
    frequency:   10.2142271142
  - # 18
    frequency:   10.3870215027
  - # 19
    frequency:   11.4892916171
  - # 20
    frequency:   11.8462906341
  - # 21
    frequency:   14.3441941150
  - # 22
    frequency:   21.3223952976
  - # 23
    frequency:   38.6396337639
  - # 24
    frequency:   65.1464618552

- q-position: [    0.0808081,    0.0000000,    0.0000000 ]
  distance:    0.0273269
  band:
  - # 1
    frequency:   -3.9327848035
  - # 2
    frequency:   -3.7688179857
  - # 3
    frequency:    0.4216744667
  - # 4
    frequency:    0.5649919222
  - # 5
    frequency:    0.8448734279
  - # 6
    frequency:    1.1705357190
  - # 7
    frequency:    1.7574420686
  - # 8
    frequency:    2.9634001720
  - # 9
    frequency:    3.3209542940
  - # 10
    frequency:    4.8387447157
  - # 11
    frequency:    6.1401183887
  - # 12
    frequency:    6.4058075018
  - # 13
    frequency:    7.3879903667
  - # 14
    frequency:    9.3347944975
  - # 15
    frequency:    9.5424854957
  - # 16
    frequency:    9.6233781779
  - # 17
    frequency:   10.2154494892
  - # 18
    frequency:   10.4035321511
  - # 19
    frequency:   11.4845698991
  - # 20
    frequency:   11.8898917302
  - # 21
    frequency:   14.3324240635
  - # 22
    frequency:   21.3200224258
  - # 23
    frequency:   38.6184259122
  - # 24
    frequency:   65.1435236150

- q-position: [    0.0858586,    0.0000000,    0.0000000 ]
  distance:    0.0290349
  band:
  - # 1
    frequency:   -3.9253253687
  - # 2
    frequency:   -3.7439194232
  - # 3
    frequency:    0.4679500757
  - # 4
    frequency:    0.5993639692
  - # 5
    frequency:    0.8686832880
  - # 6
    frequency:    1.2266955604
  - # 7
    frequency:    1.8595107168
  - # 8
    frequency:    2.9810677792
  - # 9
    frequency:    3.3767424669
  - # 10
    frequency:    4.8300529513
  - # 11
    frequency:    6.1513938275
  - # 12
    frequency:    6.4446546954
  - # 13
    frequency:    7.3597984552
  - # 14
    frequency:    9.3435063606
  - # 15
    frequency:    9.5302716639
  - # 16
    frequency:    9.6454293950
  - # 17
    frequency:   10.2167959995
  - # 18
    frequency:   10.4199776040
  - # 19
    frequency:   11.4796030938
  - # 20
    frequency:   11.9359578868
  - # 21
    frequency:   14.3200607086
  - # 22
    frequency:   21.3175173778
  - # 23
    frequency:   38.5960588227
  - # 24
    frequency:   65.1404223949

- q-position: [    0.0909091,    0.0000000,    0.0000000 ]
  distance:    0.0307428
  band:
  - # 1
    frequency:   -3.9175785410
  - # 2
    frequency:   -3.7184465666
  - # 3
    frequency:    0.5156905831
  - # 4
    frequency:    0.6335410297
  - # 5
    frequency:    0.8934627957
  - # 6
    frequency:    1.2829155832
  - # 7
    frequency:    1.9606572839
  - # 8
    frequency:    2.9996483797
  - # 9
    frequency:    3.4343522242
  - # 10
    frequency:    4.8217190105
  - # 11
    frequency:    6.1631901950
  - # 12
    frequency:    6.4843213416
  - # 13
    frequency:    7.3323215405
  - # 14
    frequency:    9.3525953074
  - # 15
    frequency:    9.5129936738
  - # 16
    frequency:    9.6721615180
  - # 17
    frequency:   10.2182765975
  - # 18
    frequency:   10.4363252088
  - # 19
    frequency:   11.4744027346
  - # 20
    frequency:   11.9843727738
  - # 21
    frequency:   14.3071354043
  - # 22
    frequency:   21.3148838497
  - # 23
    frequency:   38.5725696942
  - # 24
    frequency:   65.1371629361

- q-position: [    0.0959596,    0.0000000,    0.0000000 ]
  distance:    0.0324507
  band:
  - # 1
    frequency:   -3.9095765711
  - # 2
    frequency:   -3.6925188667
  - # 3
    frequency:    0.5647833042
  - # 4
    frequency:    0.6674924812
  - # 5
    frequency:    0.9192043714
  - # 6
    frequency:    1.3391450968
  - # 7
    frequency:    2.0605928544
  - # 8
    frequency:    3.0191117155
  - # 9
    frequency:    3.4936403277
  - # 10
    frequency:    4.8138284422
  - # 11
    frequency:    6.1754831166
  - # 12
    frequency:    6.5245541620
  - # 13
    frequency:    7.3058895757
  - # 14
    frequency:    9.3620327371
  - # 15
    frequency:    9.4937329129
  - # 16
    frequency:    9.7004082397
  - # 17
    frequency:   10.2199022486
  - # 18
    frequency:   10.4525514972
  - # 19
    frequency:   11.4689811437
  - # 20
    frequency:   12.0350047049
  - # 21
    frequency:   14.2936816873
  - # 22
    frequency:   21.3121256979
  - # 23
    frequency:   38.5479973932
  - # 24
    frequency:   65.1337501957

- q-position: [    0.1010101,    0.0000000,    0.0000000 ]
  distance:    0.0341587
  band:
  - # 1
    frequency:   -3.9013540052
  - # 2
    frequency:   -3.6662526570
  - # 3
    frequency:    0.6151234440
  - # 4
    frequency:    0.7011816865
  - # 5
    frequency:    0.9459110348
  - # 6
    frequency:    1.3953302016
  - # 7
    frequency:    2.1590367889
  - # 8
    frequency:    3.0394256172
  - # 9
    frequency:    3.5544671563
  - # 10
    frequency:    4.8064703012
  - # 11
    frequency:    6.1882478885
  - # 12
    frequency:    6.5650539128
  - # 13
    frequency:    7.2808758288
  - # 14
    frequency:    9.3717879243
  - # 15
    frequency:    9.4735183975
  - # 16
    frequency:    9.7290725431
  - # 17
    frequency:   10.2216849827
  - # 18
    frequency:   10.4686407187
  - # 19
    frequency:   11.4633514393
  - # 20
    frequency:   12.0877072879
  - # 21
    frequency:   14.2797354345
  - # 22
    frequency:   21.3092469296
  - # 23
    frequency:   38.5223823579
  - # 24
    frequency:   65.1301893352

- q-position: [    0.1060606,    0.0000000,    0.0000000 ]
  distance:    0.0358666
  band:
  - # 1
    frequency:   -3.8929475896
  - # 2
    frequency:   -3.6397606980
  - # 3
    frequency:    0.6666139188
  - # 4
    frequency:    0.7345662648
  - # 5
    frequency:    0.9735952439
  - # 6
    frequency:    1.4514171093
  - # 7
    frequency:    2.2557144778
  - # 8
    frequency:    3.0605561155
  - # 9
    frequency:    3.6166913612
  - # 10
    frequency:    4.7997411096
  - # 11
    frequency:    6.2014596010
  - # 12
    frequency:    6.6054545246
  - # 13
    frequency:    7.2577179158
  - # 14
    frequency:    9.3818279731
  - # 15
    frequency:    9.4527575890
  - # 16
    frequency:    9.7576955452
  - # 17
    frequency:   10.2236379387
  - # 18
    frequency:   10.4845835669
  - # 19
    frequency:   11.4575275426
  - # 20
    frequency:   12.1423203169
  - # 21
    frequency:   14.2653350735
  - # 22
    frequency:   21.3062516933
  - # 23
    frequency:   38.4957664977
  - # 24
    frequency:   65.1264857080

- q-position: [    0.1111111,    0.0000000,    0.0000000 ]
  distance:    0.0375745
  band:
  - # 1
    frequency:   -3.8843961300
  - # 2
    frequency:   -3.6131519396
  - # 3
    frequency:    0.7191651011
  - # 4
    frequency:    0.7675990528
  - # 5
    frequency:    1.0022769622
  - # 6
    frequency:    1.5073538935
  - # 7
    frequency:    2.3503579501
  - # 8
    frequency:    3.0824675749
  - # 9
    frequency:    3.6801624822
  - # 10
    frequency:    4.7937500854
  - # 11
    frequency:    6.2150932559
  - # 12
    frequency:    6.6452947473
  - # 13
    frequency:    7.2369460775
  - # 14
    frequency:    9.3921177829
  - # 15
    frequency:    9.4316425223
  - # 16
    frequency:    9.7860497081
  - # 17
    frequency:   10.2257753988
  - # 18
    frequency:   10.5003760706
  - # 19
    frequency:   11.4515241831
  - # 20
    frequency:   12.1986708316
  - # 21
    frequency:   14.2505218570
  - # 22
    frequency:   21.3031442690
  - # 23
    frequency:   38.4681930897
  - # 24
    frequency:   65.1226448474

- q-position: [    0.1161616,    0.0000000,    0.0000000 ]
  distance:    0.0392825
  band:
  - # 1
    frequency:   -3.8757403010
  - # 2
    frequency:   -3.5865314858
  - # 3
    frequency:    0.7726945109
  - # 4
    frequency:    0.8002298440
  - # 5
    frequency:    1.0319808977
  - # 6
    frequency:    1.5630913559
  - # 7
    frequency:    2.4427085027
  - # 8
    frequency:    3.1051228484
  - # 9
    frequency:    3.7447110292
  - # 10
    frequency:    4.7886261634
  - # 11
    frequency:    6.2291238794
  - # 12
    frequency:    6.6839822978
  - # 13
    frequency:    7.2192186950
  - # 14
    frequency:    9.4026200300
  - # 15
    frequency:    9.4102770908
  - # 16
    frequency:    9.8140106705
  - # 17
    frequency:   10.2281128080
  - # 18
    frequency:   10.5160186301
  - # 19
    frequency:   11.4453569021
  - # 20
    frequency:   12.2565742578
  - # 21
    frequency:   14.2353402221
  - # 22
    frequency:   21.2999290586
  - # 23
    frequency:   38.4397066725
  - # 24
    frequency:   65.1186724539

- q-position: [    0.1212121,    0.0000000,    0.0000000 ]
  distance:    0.0409904
  band:
  - # 1
    frequency:   -3.8670224043
  - # 2
    frequency:   -3.5600007363
  - # 3
    frequency:    0.8271264626
  - # 4
    frequency:    0.8324078724
  - # 5
    frequency:    1.0627329759
  - # 6
    frequency:    1.6185833956
  - # 7
    frequency:    2.5325207616
  - # 8
    frequency:    3.1284834482
  - # 9
    frequency:    3.8101353752
  - # 10
    frequency:    4.7845275693
  - # 11
    frequency:    6.2435266284
  - # 12
    frequency:    6.7207561673
  - # 13
    frequency:    7.2053593835
  - # 14
    frequency:    9.3887240991
  - # 15
    frequency:    9.4132951684
  - # 16
    frequency:    9.8415091710
  - # 17
    frequency:   10.2306667750
  - # 18
    frequency:   10.5315151813
  - # 19
    frequency:   11.4390420558
  - # 20
    frequency:   12.3158355423
  - # 21
    frequency:   14.2198382532
  - # 22
    frequency:   21.2966105762
  - # 23
    frequency:   38.4103529367
  - # 24
    frequency:   65.1145743817

- q-position: [    0.1262626,    0.0000000,    0.0000000 ]
  distance:    0.0426984
  band:
  - # 1
    frequency:   -3.8582860738
  - # 2
    frequency:   -3.5336576684
  - # 3
    frequency:    0.8640848314
  - # 4
    frequency:    0.8823916793
  - # 5
    frequency:    1.0945562846
  - # 6
    frequency:    1.6737870983
  - # 7
    frequency:    2.6195676686
  - # 8
    frequency:    3.1525097308
  - # 9
    frequency:    3.8761846027
  - # 10
    frequency:    4.7816550097
  - # 11
    frequency:    6.2582768905
  - # 12
    frequency:    6.7546671855
  - # 13
    frequency:    7.1963755732
  - # 14
    frequency:    9.3670253578
  - # 15
    frequency:    9.4241014570
  - # 16
    frequency:    9.8685098618
  - # 17
    frequency:   10.2334550485
  - # 18
    frequency:   10.5468724745
  - # 19
    frequency:   11.4325968160
  - # 20
    frequency:   12.3762501886
  - # 21
    frequency:   14.2040682786
  - # 22
    frequency:   21.2931934383
  - # 23
    frequency:   38.3801786139
  - # 24
    frequency:   65.1103566256

- q-position: [    0.1313131,    0.0000000,    0.0000000 ]
  distance:    0.0444063
  band:
  - # 1
    frequency:   -3.8495759271
  - # 2
    frequency:   -3.5075972170
  - # 3
    frequency:    0.8952180418
  - # 4
    frequency:    0.9384268777
  - # 5
    frequency:    1.1274669006
  - # 6
    frequency:    1.7286626756
  - # 7
    frequency:    2.7036458957
  - # 8
    frequency:    3.1771610928
  - # 9
    frequency:    3.9425362031
  - # 10
    frequency:    4.7802698799
  - # 11
    frequency:    6.2733503766
  - # 12
    frequency:    6.7846227699
  - # 13
    frequency:    7.1934126601
  - # 14
    frequency:    9.3452113803
  - # 15
    frequency:    9.4349950172
  - # 16
    frequency:    9.8950005092
  - # 17
    frequency:   10.2364964626
  - # 18
    frequency:   10.5620994568
  - # 19
    frequency:   11.4260391706
  - # 20
    frequency:   12.4376051054
  - # 21
    frequency:   14.1880876365
  - # 22
    frequency:   21.2896823548
  - # 23
    frequency:   38.3492313629
  - # 24
    frequency:   65.1060253077

- q-position: [    0.1363636,    0.0000000,    0.0000000 ]
  distance:    0.0461142
  band:
  - # 1
    frequency:   -3.8409371671
  - # 2
    frequency:   -3.4819117057
  - # 3
    frequency:    0.9257732693
  - # 4
    frequency:    0.9951743265
  - # 5
    frequency:    1.1614701227
  - # 6
    frequency:    1.7831733233
  - # 7