nqpoint: 300    
npath: 3      
segment_nqpoint:
- 100
- 100
- 100
labels:
- [ 'G', 'M' ]
- [ 'M', 'K' ]
- [ 'K', 'G' ]
reciprocal_lattice:
- [   0.28188189,   0.16274458,   0.00000000 ] # a*
- [   0.00000000,   0.32548917,   0.00000000 ] # b*
- [   0.00000000,   0.00000000,   0.04067293 ] # c*
natom: 6      
lattice:
- [     3.547585165604169,     0.000000000000000,     0.000000000000000 ] # a
- [    -1.773792582802085,     3.072298875502757,     0.000000000000000 ] # b
- [     0.000000000000000,     0.000000000000000,    24.586379441228644 ] # c
points:
- symbol: C # 1
  coordinates: [  0.333332985432215,  0.666666983183674,  0.585094291073838 ]
  mass: 12.010700
- symbol: F # 2
  coordinates: [  0.666666984744047,  0.333332985985145,  0.366056337067181 ]
  mass: 18.998403
- symbol: N # 3
  coordinates: [  0.000000000000000,  0.000000000000000,  0.466470372670474 ]
  mass: 14.006700
- symbol: N # 4
  coordinates: [  0.333332985432215,  0.666666983183674,  0.633943662932819 ]
  mass: 14.006700
- symbol: Y # 5
  coordinates: [  0.333332985432215,  0.666666983183674,  0.415378998344299 ]
  mass: 88.905850
- symbol: Y # 6
  coordinates: [  0.666666984744047,  0.333332985985145,  0.524060830405676 ]
  mass: 88.905850

phonon:
- q-position: [    0.0000000,    0.0000000,    0.0000000 ]
  distance:    0.0000000
  band:
  - # 1
    frequency:   -2.5758797817
  - # 2
    frequency:   -2.5758797817
  - # 3
    frequency:   -0.0000041822
  - # 4
    frequency:    0.0000000822
  - # 5
    frequency:    0.0000038649
  - # 6
    frequency:    3.5906331315
  - # 7
    frequency:    3.5906331315
  - # 8
    frequency:    5.3936754195
  - # 9
    frequency:    6.7242883670
  - # 10
    frequency:    6.7242883670
  - # 11
    frequency:    7.6272368177
  - # 12
    frequency:    7.6272368177
  - # 13
    frequency:    7.9984947275
  - # 14
    frequency:   10.2206454815
  - # 15
    frequency:   11.7100599375
  - # 16
    frequency:   11.7100599375
  - # 17
    frequency:   12.3243459119
  - # 18
    frequency:   61.5696319461

- q-position: [    0.0050505,    0.0000000,    0.0000000 ]
  distance:    0.0016439
  band:
  - # 1
    frequency:   -2.5760251568
  - # 2
    frequency:   -2.5757461419
  - # 3
    frequency:    0.0014441850
  - # 4
    frequency:    0.0768075956
  - # 5
    frequency:    0.0880810596
  - # 6
    frequency:    3.5905086916
  - # 7
    frequency:    3.5913897054
  - # 8
    frequency:    5.3935101282
  - # 9
    frequency:    6.7242768305
  - # 10
    frequency:    6.7243257107
  - # 11
    frequency:    7.6271686879
  - # 12
    frequency:    7.6273243730
  - # 13
    frequency:    7.9982753586
  - # 14
    frequency:   10.2199300577
  - # 15
    frequency:   11.7096051345
  - # 16
    frequency:   11.7099660015
  - # 17
    frequency:   12.3242974028
  - # 18
    frequency:   61.5695588100

- q-position: [    0.0101010,    0.0000000,    0.0000000 ]
  distance:    0.0032878
  band:
  - # 1
    frequency:   -2.5764600565
  - # 2
    frequency:   -2.5753495065
  - # 3
    frequency:    0.0057711459
  - # 4
    frequency:    0.1535327851
  - # 5
    frequency:    0.1761504340
  - # 6
    frequency:    3.5901383329
  - # 7
    frequency:    3.5936551399
  - # 8
    frequency:    5.3930150649
  - # 9
    frequency:    6.7242415253
  - # 10
    frequency:    6.7244342742
  - # 11
    frequency:    7.6269641231
  - # 12
    frequency:    7.6275899928
  - # 13
    frequency:    7.9976183068
  - # 14
    frequency:   10.2177846257
  - # 15
    frequency:   11.7082419968
  - # 16
    frequency:   11.7096839062
  - # 17
    frequency:   12.3241516790
  - # 18
    frequency:   61.5693394921

- q-position: [    0.0151515,    0.0000000,    0.0000000 ]
  distance:    0.0049317
  band:
  - # 1
    frequency:   -2.5771808705
  - # 2
    frequency:   -2.5747026333
  - # 3
    frequency:    0.0129655911
  - # 4
    frequency:    0.2300940542
  - # 5
    frequency:    0.2641956459
  - # 6
    frequency:    3.5895309137
  - # 7
    frequency:    3.5974166538
  - # 8
    frequency:    5.3921926459
  - # 9
    frequency:    6.7241803753
  - # 10
    frequency:    6.7246037266
  - # 11
    frequency:    7.6266225969
  - # 12
    frequency:    7.6280424653
  - # 13
    frequency:    7.9965267412
  - # 14
    frequency:   10.2142117271
  - # 15
    frequency:   11.7059743188
  - # 16
    frequency:   11.7092127886
  - # 17
    frequency:   12.3239081557
  - # 18
    frequency:   61.5689742644

- q-position: [    0.0202020,    0.0000000,    0.0000000 ]
  distance:    0.0065755
  band:
  - # 1
    frequency:   -2.5781817961
  - # 2
    frequency:   -2.5738264740
  - # 3
    frequency:    0.0230019904
  - # 4
    frequency:    0.3064116341
  - # 5
    frequency:    0.3522026644
  - # 6
    frequency:    3.5887011143
  - # 7
    frequency:    3.6026532115
  - # 8
    frequency:    5.3910468484
  - # 9
    frequency:    6.7240899559
  - # 10
    frequency:    6.7248170855
  - # 11
    frequency:    7.6261432340
  - # 12
    frequency:    7.6286961945
  - # 13
    frequency:    7.9950059582
  - # 14
    frequency:   10.2092156732
  - # 15
    frequency:   11.7028083592
  - # 16
    frequency:   11.7085512077
  - # 17
    frequency:   12.3235658715
  - # 18
    frequency:   61.5684635793

- q-position: [    0.0252525,    0.0000000,    0.0000000 ]
  distance:    0.0082194
  band:
  - # 1
    frequency:   -2.5794551429
  - # 2
    frequency:   -2.5727497218
  - # 3
    frequency:    0.0358450024
  - # 4
    frequency:    0.3824082805
  - # 5
    frequency:    0.4401552039
  - # 6
    frequency:    3.5876693130
  - # 7
    frequency:    3.6093359118
  - # 8
    frequency:    5.3895831357
  - # 9
    frequency:    6.7239655462
  - # 10
    frequency:    6.7250510744
  - # 11
    frequency:    7.6255248121
  - # 12
    frequency:    7.6295708295
  - # 13
    frequency:    7.9930634062
  - # 14
    frequency:   10.2028026554
  - # 15
    frequency:   11.6987527455
  - # 16
    frequency:   11.7076971394
  - # 17
    frequency:   12.3231235079
  - # 18
    frequency:   61.5678080695

- q-position: [    0.0303030,    0.0000000,    0.0000000 ]
  distance:    0.0098633
  band:
  - # 1
    frequency:   -2.5809917241
  - # 2
    frequency:   -2.5715082022
  - # 3
    frequency:    0.0514498587
  - # 4
    frequency:    0.4580099502
  - # 5
    frequency:    0.5280341084
  - # 6
    frequency:    3.5864614112
  - # 7
    frequency:    3.6174285118
  - # 8
    frequency:    5.3878083559
  - # 9
    frequency:    6.7238012019
  - # 10
    frequency:    6.7252766236
  - # 11
    frequency:    7.6247657655
  - # 12
    frequency:    7.6306907367
  - # 13
    frequency:    7.9907087272
  - # 14
    frequency:   10.1949808926
  - # 15
    frequency:   11.6938183471
  - # 16
    frequency:   11.7066479711
  - # 17
    frequency:   12.3225794157
  - # 18
    frequency:   61.5670085461

- q-position: [    0.0353535,    0.0000000,    0.0000000 ]
  distance:    0.0115072
  band:
  - # 1
    frequency:   -2.5827813070
  - # 2
    frequency:   -2.5701441338
  - # 3
    frequency:    0.0697628341
  - # 4
    frequency:    0.5331463539
  - # 5
    frequency:    0.6158168402
  - # 6
    frequency:    3.5851086102
  - # 7
    frequency:    3.6268880671
  - # 8
    frequency:    5.3857306142
  - # 9
    frequency:    6.7235898467
  - # 10
    frequency:    6.7254595183
  - # 11
    frequency:    7.6238641893
  - # 12
    frequency:    7.6320843061
  - # 13
    frequency:    7.9879538222
  - # 14
    frequency:   10.1857608119
  - # 15
    frequency:   11.6880181209
  - # 16
    frequency:   11.7054004952
  - # 17
    frequency:   12.3219316461
  - # 18
    frequency:   61.5660659981

- q-position: [    0.0404040,    0.0000000,    0.0000000 ]
  distance:    0.0131511
  band:
  - # 1
    frequency:   -2.5848130896
  - # 2
    frequency:   -2.5687052846
  - # 3
    frequency:    0.0907217910
  - # 4
    frequency:    0.6077513759
  - # 5
    frequency:    0.7034770879
  - # 6
    frequency:    3.5836471381
  - # 7
    frequency:    3.6376656665
  - # 8
    frequency:    5.3833591234
  - # 9
    frequency:    6.7233233810
  - # 10
    frequency:    6.7255611924
  - # 11
    frequency:    7.6228178439
  - # 12
    frequency:    7.6337830820
  - # 13
    frequency:    7.9848129488
  - # 14
    frequency:   10.1751552537
  - # 15
    frequency:   11.6813669371
  - # 16
    frequency:   11.7039509020
  - # 17
    frequency:   12.3211779868
  - # 18
    frequency:   61.5649815901

- q-position: [    0.0454545,    0.0000000,    0.0000000 ]
  distance:    0.0147950
  band:
  - # 1
    frequency:   -2.5870761736
  - # 2
    frequency:   -2.5672440576
  - # 3
    frequency:    0.1142567811
  - # 4
    frequency:    0.6817633586
  - # 5
    frequency:    0.7909844993
  - # 6
    frequency:    3.5821179288
  - # 7
    frequency:    3.6497072385
  - # 8
    frequency:    5.3807040336
  - # 9
    frequency:    6.7229928069
  - # 10
    frequency:    6.7255396626
  - # 11
    frequency:    7.6216241615
  - # 12
    frequency:    7.6358207095
  - # 13
    frequency:    7.9813028657
  - # 14
    frequency:   10.1631796941
  - # 15
    frequency:   11.6738813914
  - # 16
    frequency:   11.7022947735
  - # 17
    frequency:   12.3203160007
  - # 18
    frequency:   61.5637566606

- q-position: [    0.0505051,    0.0000000,    0.0000000 ]
  distance:    0.0164388
  band:
  - # 1
    frequency:   -2.5895600048
  - # 2
    frequency:   -2.5658165367
  - # 3
    frequency:    0.1402906941
  - # 4
    frequency:    0.7551252587
  - # 5
    frequency:    0.8783045379
  - # 6
    frequency:    3.5805662536
  - # 7
    frequency:    3.6629544060
  - # 8
    frequency:    5.3777762457
  - # 9
    frequency:    6.7225883672
  - # 10
    frequency:    6.7253505953
  - # 11
    frequency:    7.6202802523
  - # 12
    frequency:    7.6382316887
  - # 13
    frequency:    7.9774430407
  - # 14
    frequency:   10.1498524753
  - # 15
    frequency:   11.6655796116
  - # 16
    frequency:   11.7004270777
  - # 17
    frequency:   12.3193430668
  - # 18
    frequency:   61.5623927198

- q-position: [    0.0555556,    0.0000000,    0.0000000 ]
  distance:    0.0180827
  band:
  - # 1
    frequency:   -2.5922547595
  - # 2
    frequency:   -2.5644815241
  - # 3
    frequency:    0.1687399389
  - # 4
    frequency:    0.8277846884
  - # 5
    frequency:    0.9653984563
  - # 6
    frequency:    3.5790413061
  - # 7
    frequency:    3.6773453662
  - # 8
    frequency:    5.3745872114
  - # 9
    frequency:    6.7220996965
  - # 10
    frequency:    6.7249484898
  - # 11
    frequency:    7.6187829120
  - # 12
    frequency:    7.6410499286
  - # 13
    frequency:    7.9732559437
  - # 14
    frequency:   10.1351950347
  - # 15
    frequency:   11.6564810662
  - # 16
    frequency:   11.6983421653
  - # 17
    frequency:   12.3182564227
  - # 18
    frequency:   61.5608914469

- q-position: [    0.0606061,    0.0000000,    0.0000000 ]
  distance:    0.0197266
  band:
  - # 1
    frequency:   -2.5951516598
  - # 2
    frequency:   -2.5632996015
  - # 3
    frequency:    0.1995151497
  - # 4
    frequency:    0.8996938606
  - # 5
    frequency:    1.0522233713
  - # 6
    frequency:    3.5775957428
  - # 7
    frequency:    3.6928157774
  - # 8
    frequency:    5.3711487238
  - # 9
    frequency:    6.7215159819
  - # 10
    frequency:    6.7242879533
  - # 11
    frequency:    7.6171286308
  - # 12
    frequency:    7.6443070931
  - # 13
    frequency:    7.9687674567
  - # 14
    frequency:   10.1192321239
  - # 15
    frequency:   11.6466063816
  - # 16
    frequency:   11.6960337690
  - # 17
    frequency:   12.3170532071
  - # 18
    frequency:   61.5592546871

- q-position: [    0.0656566,    0.0000000,    0.0000000 ]
  distance:    0.0213705
  band:
  - # 1
    frequency:   -2.5982432085
  - # 2
    frequency:   -2.5623322384
  - # 3
    frequency:    0.2325219087
  - # 4
    frequency:    0.9708094552
  - # 5
    frequency:    1.1387324254
  - # 6
    frequency:    3.5762851816
  - # 7
    frequency:    3.7092996326
  - # 8
    frequency:    5.3674727018
  - # 9
    frequency:    6.7208261324
  - # 10
    frequency:    6.7233250387
  - # 11
    frequency:    7.6153136024
  - # 12
    frequency:    7.6480307321
  - # 13
    frequency:    7.9640074389
  - # 14
    frequency:   10.1019920079
  - # 15
    frequency:   11.6359771745
  - # 16
    frequency:   11.6934950058
  - # 17
    frequency:   12.3157305027
  - # 18
    frequency:   61.5574844491

- q-position: [    0.0707071,    0.0000000,    0.0000000 ]
  distance:    0.0230144
  band:
  - # 1
    frequency:   -2.6015233411
  - # 2
    frequency:   -2.5616409733
  - # 3
    frequency:    0.2676614809
  - # 4
    frequency:    1.0410924298
  - # 5
    frequency:    1.2248750103
  - # 6
    frequency:    3.5751676605
  - # 7
    frequency:    3.7267301084
  - # 8
    frequency:    5.3635709725
  - # 9
    frequency:    6.7200189520
  - # 10
    frequency:    6.7220186016
  - # 11
    frequency:    7.6133337359
  - # 12
    frequency:    7.6522421805
  - # 13
    frequency:    7.9590105014
  - # 14
    frequency:   10.0835066360
  - # 15
    frequency:   11.6246159049
  - # 16
    frequency:   11.6907183844
  - # 17
    frequency:   12.3142853798
  - # 18
    frequency:   61.5555829012

- q-position: [    0.0757576,    0.0000000,    0.0000000 ]
  distance:    0.0246583
  band:
  - # 1
    frequency:   -2.6049874954
  - # 2
    frequency:   -2.5612866843
  - # 3
    frequency:    0.3048315564
  - # 4
    frequency:    1.1105077913
  - # 5
    frequency:    1.3105970351
  - # 6
    frequency:    3.5743030603
  - # 7
    frequency:    3.7450403752
  - # 8
    frequency:    5.3594550562
  - # 9
    frequency:    6.7190833166
  - # 10
    frequency:    6.7203316336
  - # 11
    frequency:    7.6111846687
  - # 12
    frequency:    7.6569542009
  - # 13
    frequency:    7.9538170622
  - # 14
    frequency:   10.0638117769
  - # 15
    frequency:   11.6125457548
  - # 16
    frequency:   11.6876958170
  - # 17
    frequency:   12.3127149390
  - # 18
    frequency:   61.5535523679

- q-position: [    0.0808081,    0.0000000,    0.0000000 ]
  distance:    0.0263022
  band:
  - # 1
    frequency:   -2.6086326062
  - # 2
    frequency:   -2.5613289628
  - # 3
    frequency:    0.3439269985
  - # 4
    frequency:    1.1790243471
  - # 5
    frequency:    1.3958412147
  - # 6
    frequency:    3.5737524969
  - # 7
    frequency:    3.7641643626
  - # 8
    frequency:    5.3551359575
  - # 9
    frequency:    6.7180083515
  - # 10
    frequency:    6.7182325185
  - # 11
    frequency:    7.6088617818
  - # 12
    frequency:    7.6621683244
  - # 13
    frequency:    7.9484747758
  - # 14
    frequency:   10.0429471113
  - # 15
    frequency:   11.5997905351
  - # 16
    frequency:   11.6844186370
  - # 17
    frequency:   12.3110163552
  - # 18
    frequency:   61.5513953258

- q-position: [    0.0858586,    0.0000000,    0.0000000 ]
  distance:    0.0279460
  band:
  - # 1
    frequency:   -2.6124570347
  - # 2
    frequency:   -2.5618256002
  - # 3
    frequency:    0.3848405925
  - # 4
    frequency:    1.2466144483
  - # 5
    frequency:    1.4805473611
  - # 6
    frequency:    3.5735776857
  - # 7
    frequency:    3.7840374738
  - # 8
    frequency:    5.3506239684
  - # 9
    frequency:    6.7156961609
  - # 10
    frequency:    6.7167836054
  - # 11
    frequency:    7.6063602182
  - # 12
    frequency:    7.6678718161
  - # 13
    frequency:    7.9430404594
  - # 14
    frequency:   10.0209562773
  - # 15
    frequency:   11.5863746227
  - # 16
    frequency:   11.6808776226
  - # 17
    frequency:   12.3091869217
  - # 18
    frequency:   61.5491144000

- q-position: [    0.0909091,    0.0000000,    0.0000000 ]
  distance:    0.0295899
  band:
  - # 1
    frequency:   -2.6164604449
  - # 2
    frequency:   -2.5628321907
  - # 3
    frequency:    0.4274637924
  - # 4
    frequency:    1.3132537366
  - # 5
    frequency:    1.5646526626
  - # 6
    frequency:    3.5738402872
  - # 7
    frequency:    3.8045972448
  - # 8
    frequency:    5.3459284880
  - # 9
    frequency:    6.7127049374
  - # 10
    frequency:    6.7153992212
  - # 11
    frequency:    7.6036749045
  - # 12
    frequency:    7.6740341595
  - # 13
    frequency:    7.9375826683
  - # 14
    frequency:    9.9978868633
  - # 15
    frequency:   11.5723229291
  - # 16
    frequency:   11.6770630282
  - # 17
    frequency:   12.3072240944
  - # 18
    frequency:   61.5467123592

- q-position: [    0.0959596,    0.0000000,    0.0000000 ]
  distance:    0.0312338
  band:
  - # 1
    frequency:   -2.6206436382
  - # 2
    frequency:   -2.5644018517
  - # 3
    frequency:    0.4716874589
  - # 4
    frequency:    1.3789209026
  - # 5
    frequency:    1.6480919373
  - # 6
    frequency:    3.5746012383
  - # 7
    frequency:    3.8257839477
  - # 8
    frequency:    5.3410578642
  - # 9
    frequency:    6.7092494291
  - # 10
    frequency:    6.7138460992
  - # 11
    frequency:    7.6008005769
  - # 12
    frequency:    7.6806029231
  - # 13
    frequency:    7.9321850947
  - # 14
    frequency:    9.9737903474
  - # 15
    frequency:   11.5576608996
  - # 16
    frequency:   11.6729646212
  - # 17
    frequency:   12.3051255371
  - # 18
    frequency:   61.5441921115

- q-position: [    0.1010101,    0.0000000,    0.0000000 ]
  distance:    0.0328777
  band:
  - # 1
    frequency:   -2.6250083608
  - # 2
    frequency:   -2.5665850560
  - # 3
    frequency:    0.5174025809
  - # 4
    frequency:    1.4435974608
  - # 5
    frequency:    1.7307978556
  - # 6
    frequency:    3.5759200794
  - # 7
    frequency:    3.8475411358
  - # 8
    frequency:    5.3360192647
  - # 9
    frequency:    6.7053289039
  - # 10
    frequency:    6.7121160515
  - # 11
    frequency:    7.5977318116
  - # 12
    frequency:    7.6874988762
  - # 13
    frequency:    7.9269509510
  - # 14
    frequency:    9.9487219823
  - # 15
    frequency:   11.5424145412
  - # 16
    frequency:   11.6685717281
  - # 17
    frequency:   12.3028891677
  - # 18
    frequency:   61.5415566995

- q-position: [    0.1060606,    0.0000000,    0.0000000 ]
  distance:    0.0345216
  band:
  - # 1
    frequency:   -2.6295570960
  - # 2
    frequency:   -2.5694295699
  - # 3
    frequency:    0.5645009710
  - # 4
    frequency:    1.5072675426
  - # 5
    frequency:    1.8127011273
  - # 6
    frequency:    3.5778542829
  - # 7
    frequency:    3.8698161306
  - # 8
    frequency:    5.3308185829
  - # 9
    frequency:    6.7009515298
  - # 10
    frequency:    6.7102019447
  - # 11
    frequency:    7.5944630611
  - # 12
    frequency:    7.6946103119
  - # 13
    frequency:    7.9220083913
  - # 14
    frequency:    9.9227406251
  - # 15
    frequency:   11.5266104766
  - # 16
    frequency:   11.6638732859
  - # 17
    frequency:   12.3005132033
  - # 18
    frequency:   61.5388092952

- q-position: [    0.1111111,    0.0000000,    0.0000000 ]
  distance:    0.0361655
  band:
  - # 1
    frequency:   -2.6342928518
  - # 2
    frequency:   -2.5729804818
  - # 3
    frequency:    0.6128759231
  - # 4
    frequency:    1.5699177092
  - # 5
    frequency:    1.8937306537
  - # 6
    frequency:    3.5804585955
  - # 7
    frequency:    3.8925604483
  - # 8
    frequency:    5.3254603859
  - # 9
    frequency:    6.6961343163
  - # 10
    frequency:    6.7080978307
  - # 11
    frequency:    7.5909886965
  - # 12
    frequency:    7.7017868403
  - # 13
    frequency:    7.9175167078
  - # 14
    frequency:    9.8959085161
  - # 15
    frequency:   11.5102760212
  - # 16
    frequency:   11.6588579025
  - # 17
    frequency:   12.2979962065
  - # 18
    frequency:   61.5359531951

- q-position: [    0.1161616,    0.0000000,    0.0000000 ]
  distance:    0.0378093
  band:
  - # 1
    frequency:   -2.6392189556
  - # 2
    frequency:   -2.5772803092
  - # 3
    frequency:    0.6624228206
  - # 4
    frequency:    1.6315367830
  - # 5
    frequency:    1.9738136509
  - # 6
    frequency:    3.5837844014
  - # 7
    frequency:    3.9157301649
  - # 8
    frequency:    5.3199479123
  - # 9
    frequency:    6.6909027929
  - # 10
    frequency:    6.7057990617
  - # 11
    frequency:    7.5873030565
  - # 12
    frequency:    7.7088336253
  - # 13
    frequency:    7.9136723128
  - # 14
    frequency:    9.8682910078
  - # 15
    frequency:   11.4934392772
  - # 16
    frequency:   11.6535139234
  - # 17
    frequency:   12.2953371293
  - # 18
    frequency:   61.5329918148

- q-position: [    0.1212121,    0.0000000,    0.0000000 ]
  distance:    0.0394532
  band:
  - # 1
    frequency:   -2.6443388625
  - # 2
    frequency:   -2.5823691608
  - # 3
    frequency:    0.7130396825
  - # 4
    frequency:    1.6921156940
  - # 5
    frequency:    2.0528757507
  - # 6
    frequency:    3.5878791169
  - # 7
    frequency:    3.9392862145
  - # 8
    frequency:    5.3142831254
  - # 9
    frequency:    6.6852904477
  - # 10
    frequency:    6.7033023898
  - # 11
    frequency:    7.5834005039
  - # 12
    frequency:    7.7155083815
  - # 13
    frequency:    7.9107121623
  - # 14
    frequency:    9.8399562499
  - # 15
    frequency:   11.4761292422
  - # 16
    frequency:   11.6478295050
  - # 17
    frequency:   12.2925353566
  - # 18
    frequency:   61.5299286832

- q-position: [    0.1262626,    0.0000000,    0.0000000 ]
  distance:    0.0410971
  band:
  - # 1
    frequency:   -2.6496559852
  - # 2
    frequency:   -2.5882849359
  - # 3
    frequency:    0.7646276362
  - # 4
    frequency:    1.7516473399
  - # 5
    frequency:    2.1308410903
  - # 6
    frequency:    3.5927856274
  - # 7
    frequency:    3.9631946181
  - # 8
    frequency:    5.3084668297
  - # 9
    frequency:    6.6793379577
  - # 10
    frequency:    6.7006060496
  - # 11
    frequency:    7.5792754895
  - # 12
    frequency:    7.7215254098
  - # 13
    frequency:    7.9089103047
  - # 14
    frequency:    9.8109748341
  - # 15
    frequency:   11.4583759239
  - # 16
    frequency:   11.6417926942
  - # 17
    frequency:   12.2895907463
  - # 18
    frequency:   61.5267674373

- q-position: [    0.1313131,    0.0000000,    0.0000000 ]
  distance:    0.0427410
  band:
  - # 1
    frequency:   -2.6551735495
  - # 2
    frequency:   -2.5950635330
  - # 3
    frequency:    0.8170913092
  - # 4
    frequency:    1.8101264542
  - # 5
    frequency:    2.2076324036
  - # 6
    frequency:    3.5985417736
  - # 7
    frequency:    3.9874266327
  - # 8
    frequency:    5.3024988545
  - # 9
    frequency:    6.6730922494
  - # 10
    frequency:    6.6977098228
  - # 11
    frequency:    7.5749226240
  - # 12
    frequency:    7.7265725723
  - # 13
    frequency:    7.9085616133
  - # 14
    frequency:    9.7814194068
  - # 15
    frequency:   11.4402104581
  - # 16
    frequency:   11.6353915139
  - # 17
    frequency:   12.2865036663
  - # 18
    frequency:   61.5235118161

- q-position: [    0.1363636,    0.0000000,    0.0000000 ]
  distance:    0.0443849
  band:
  - # 1
    frequency:   -2.6608944789
  - # 2
    frequency:   -2.6027390475
  - # 3
    frequency:    0.8703391310
  - # 4
    frequency:    1.8675494808
  - # 5
    frequency:    2.2831711297
  - # 6
    frequency:    3.6051798981
  - # 7
    frequency:    4.0119588137
  - # 8
    frequency:    5.2963783090
  - # 9
    frequency:    6.6666054311
  - # 10
    frequency:    6.6946150836
  - # 11
    frequency:    7.5703367577
  - # 12
    frequency:    7.7303456769
  - # 13
    frequency:    7.9099481864
  - # 14
    frequency:    9.7513642538
  - # 15
    frequency:   11.4216652224
  - # 16
    frequency:   11.6286140532
  - # 17
    frequency:   12.2832750266
  - # 18
    frequency:   61.5201656546

- q-position: [    0.1414141,    0.0000000,    0.0000000 ]
  distance:    0.0460288
  band:
  - # 1
    frequency:   -2.6668213083
  - # 2
    frequency:   -2.6113439303
  - # 3
    frequency:    0.9242835450
  - # 4
    frequency:    1.9239144492
  - # 5
    frequency:    2.3573775538
  - # 6
    frequency:    3.6127264592
  - # 7
    frequency:    4.0367729784
  - # 8
    frequency:    5.2901039106
  - # 9
    frequency:    6.6599336395
  - # 10
    frequency:    6.6913248269
  - # 11
    frequency:    7.5655130674
  - # 12
    frequency:    7.7325969692
  - # 13
    frequency:    7.9132916763
  - # 14
    frequency:    9.7208848651
  - # 15
    frequency:   11.4027739400
  - # 16
    frequency:   11.6214485611
  - # 17
    frequency:   12.2799063075
  - # 18
    frequency:   61.5167328781

- q-position: [    0.1464646,    0.0000000,    0.0000000 ]
  distance:    0.0476727
  band:
  - # 1
    frequency:   -2.6729561284
  - # 2
    frequency:   -2.6209090881
  - # 3
    frequency:    0.9788411290
  - # 4
    frequency:    1.9792208494
  - # 5
    frequency:    2.4301710009
  - # 6
    frequency:    3.6212017177
  - # 7
    frequency:    4.0618560562
  - # 8
    frequency:    5.2836743854
  - # 9
    frequency:    6.6531358400
  - # 10
    frequency:    6.6878436766
  - # 11
    frequency:    7.5604471511
  - # 12
    frequency:    7.7331818308
  - # 13
    frequency:    7.9187074071
  - # 14
    frequency:    9.6900574867
  - # 15
    frequency:   11.3835717700
  - # 16
    frequency:   11.6138835441
  - # 17
    frequency:   12.2763995806
  - # 18
    frequency:   61.5132174957

- q-position: [    0.1515152,    0.0000000,    0.0000000 ]
  distance:    0.0493165
  band:
  - # 1
    frequency:   -2.6793005570
  - # 2
    frequency:   -2.6314639042
  - # 3
    frequency:    1.0339326292
  - # 4
    frequency:    2.0334695021
  - # 5
    frequency:    2.5014700983
  - # 6
    frequency:    3.6306195024
  - # 7
    frequency:    4.0871998134
  - # 8
    frequency:    5.2770889351
  - # 9
    frequency:    6.6462726199
  - # 10
    frequency:    6.6841778761
  - # 11
    frequency:    7.5551351284
  - # 12
    frequency:    7.7320814439
  - # 13
    frequency:    7.9261824918
  - # 14
    frequency:    9.6589586660
  - # 15
    frequency:   11.3640953754
  - # 16
    frequency:   11.6059078654
  - # 17
    frequency:   12.2727575241
  - # 18
    frequency:   61.5096235946

- q-position: [    0.1565657,    0.0000000,    0.0000000 ]
  distance:    0.0509604
  band:
  - # 1
    frequency:   -2.6858557356
  - # 2
    frequency:   -2.6430361655
  - # 3
    frequency:    1.0894829153
  - # 4
    frequency:    2.0866624245
  - # 5
    frequency:    2.5711931283
  - # 6
    frequency:    3.6409870569
  - # 7
    frequency:    4.1128004337
  - # 8
    frequency:    5.2703477663
  - # 9
    frequency:    6.6394050073
  - # 10
    frequency:    6.6803352616
  - # 11
    frequency:    7.5495737459
  - # 12
    frequency:    7.7293900538
  - # 13
    frequency:    7.9355892874
  - # 14
    frequency:    9.6276647969
  - # 15
    frequency:   11.3443829676
  - # 16
    frequency:   11.5975108457
  - # 17
    frequency:   12.2689834317
  - # 18
    frequency:   61.5059553330

- q-position: [    0.1616162,    0.0000000,    0.0000000 ]
  distance:    0.0526043
  band:
  - # 1
    frequency:   -2.6926223470
  - # 2
    frequency:   -2.6556518851
  - # 3
    frequency:    1.1454208653
  - # 4
    frequency:    2.1388026894
  - # 5
    frequency:    2.6392584883
  - # 6
    frequency:    3.6523049687
  - # 7
    frequency:    4.1386579411
  - # 8
    frequency:    5.2634526677
  - # 9
    frequency:    6.6325933454
  - # 10
    frequency:    6.6763252184
  - # 11
    frequency:    7.5437604872
  - # 12
    frequency:    7.7252763881
  - # 13
    frequency:    7.9467246123
  - # 14
    frequency:    9.5962516730
  - # 15
    frequency:   11.3244743212
  - # 16
    frequency:   11.5886823637
  - # 17
    frequency:   12.2650812132
  - # 18
    frequency:   61.5022169344

- q-position: [    0.1666667,    0.0000000,    0.0000000 ]
  distance:    0.0542482
  band:
  - # 1
    frequency:   -2.6996006490
  - # 2
    frequency:   -2.6693350161
  - # 3
    frequency:    1.2016791938
  - # 4
    frequency:    2.1898942801
  - # 5
    frequency:    2.7055852749
  - # 6
    frequency:    3.6645671788
  - # 7
    frequency:    4.1647754501
  - # 8
    frequency:    5.2564076235
  - # 9
    frequency:    6.6258962507
  - # 10
    frequency:    6.6721586212
  - # 11
    frequency:    7.5376936851
  - # 12
    frequency:    7.7199400269
  - # 13
    frequency:    7.9593539179
  - # 14
    frequency:    9.5647940524
  - # 15
    frequency:   11.3044107553
  - # 16
    frequency:   11.5794129561
  - # 17
    frequency:   12.2610553898
  - # 18
    frequency:   61.4984126812

- q-position: [    0.1717172,    0.0000000,    0.0000000 ]
  distance:    0.0558921
  band:
  - # 1
    frequency:   -2.7067905190
  - # 2
    frequency:   -2.6841070574
  - # 3
    frequency:    1.2581942340
  - # 4
    frequency:    2.2399419418
  - # 5
    frequency:    2.7700940054
  - # 6
    frequency:    3.6777610689
  - # 7
    frequency:    4.1911582322
  - # 8
    frequency:    5.2492194468
  - # 9
    frequency:    6.6193696740
  - # 10
    frequency:    6.6678477603
  - # 11
    frequency:    7.5313726336
  - # 12
    frequency:    7.7135782880
  - # 13
    frequency:    7.9732448446
  - # 14
    frequency:    9.5333652416
  - # 15
    frequency:   11.2842350791
  - # 16
    frequency:   11.5696939163
  - # 17
    frequency:   12.2569110817
  - # 18
    frequency:   61.4945469078

- q-position: [    0.1767677,    0.0000000,    0.0000000 ]
  distance:    0.0575360
  band:
  - # 1
    frequency:   -2.7141915057
  - # 2
    frequency:   -2.6999865597
  - # 3
    frequency:    1.3149056894
  - # 4
    frequency:    2.2889510339
  - # 5
    frequency:    2.8327074834
  - # 6
    frequency:    3.6918676212
  - # 7
    frequency:    4.2178125918
  - # 8
    frequency:    5.2418984139
  - # 9
    frequency:    6.6130660868
  - # 10
    frequency:    6.6634062555
  - # 11
    frequency:    7.5247976996
  - # 12
    frequency:    7.7063678364
  - # 13
    frequency:    7.9881859512
  - # 14