nqpoint: 300    
npath: 3      
segment_nqpoint:
- 100
- 100
- 100
labels:
- [ 'G', 'M' ]
- [ 'M', 'K' ]
- [ 'K', 'G' ]
reciprocal_lattice:
- [   0.29023347,   0.16756637,   0.00000000 ] # a*
- [   0.00000000,   0.33513275,   0.00000000 ] # b*
- [   0.00000000,   0.00000000,   0.04253714 ] # c*
natom: 5      
lattice:
- [     3.445501948886741,     0.000000000000000,     0.000000000000000 ] # a
- [    -1.722750974443370,     2.983892216520610,     0.000000000000000 ] # b
- [     0.000000000000000,     0.000000000000000,    23.508868977550730 ] # c
points:
- symbol: Br # 1
  coordinates: [  0.666666984744047,  0.333332985985145,  0.382834240498526 ]
  mass: 79.904000
- symbol: F # 2
  coordinates: [  0.333332985432215,  0.666666983183674,  0.617165759501474 ]
  mass: 18.998403
- symbol: N # 3
  coordinates: [  0.000000000000000,  0.000000000000000,  0.516810203348836 ]
  mass: 14.006700
- symbol: Zr # 4
  coordinates: [  0.333332985432215,  0.666666983183674,  0.466362150974746 ]
  mass: 91.224000
- symbol: Zr # 5
  coordinates: [  0.666666984744047,  0.333332985985145,  0.562763350738705 ]
  mass: 91.224000

phonon:
- q-position: [    0.0000000,    0.0000000,    0.0000000 ]
  distance:    0.0000000
  band:
  - # 1
    frequency:   -0.0000104010
  - # 2
    frequency:   -0.0000000757
  - # 3
    frequency:    0.0000098128
  - # 4
    frequency:    2.9975991464
  - # 5
    frequency:    2.9975991464
  - # 6
    frequency:    4.8971547922
  - # 7
    frequency:    5.0418590450
  - # 8
    frequency:    5.0418590450
  - # 9
    frequency:    6.3236044066
  - # 10
    frequency:    6.3236044067
  - # 11
    frequency:    8.2115516683
  - # 12
    frequency:   11.2087712875
  - # 13
    frequency:   13.5555998306
  - # 14
    frequency:   15.5811935661
  - # 15
    frequency:   15.5811935662

- q-position: [    0.0050505,    0.0000000,    0.0000000 ]
  distance:    0.0016926
  band:
  - # 1
    frequency:    0.0013685649
  - # 2
    frequency:    0.0596492309
  - # 3
    frequency:    0.0858068034
  - # 4
    frequency:    2.9978326956
  - # 5
    frequency:    2.9986333752
  - # 6
    frequency:    4.8926813624
  - # 7
    frequency:    5.0413699529
  - # 8
    frequency:    5.0461948206
  - # 9
    frequency:    6.3236564454
  - # 10
    frequency:    6.3240686751
  - # 11
    frequency:    8.2109206581
  - # 12
    frequency:   11.2080976155
  - # 13
    frequency:   13.5553411502
  - # 14
    frequency:   15.5812103628
  - # 15
    frequency:   15.5812974913

- q-position: [    0.0101010,    0.0000000,    0.0000000 ]
  distance:    0.0033852
  band:
  - # 1
    frequency:    0.0055415790
  - # 2
    frequency:    0.1192371192
  - # 3
    frequency:    0.1715694100
  - # 4
    frequency:    2.9985325717
  - # 5
    frequency:    3.0017308214
  - # 6
    frequency:    4.8805888642
  - # 7
    frequency:    5.0399042694
  - # 8
    frequency:    5.0578766648
  - # 9
    frequency:    6.3238113673
  - # 10
    frequency:    6.3254593497
  - # 11
    frequency:    8.2090288540
  - # 12
    frequency:   11.2060779832
  - # 13
    frequency:   13.5545647246
  - # 14
    frequency:   15.5812607059
  - # 15
    frequency:   15.5816087371

- q-position: [    0.0151515,    0.0000000,    0.0000000 ]
  distance:    0.0050778
  band:
  - # 1
    frequency:    0.0124775236
  - # 2
    frequency:    0.1787025099
  - # 3
    frequency:    0.2572436110
  - # 4
    frequency:    2.9996964594
  - # 5
    frequency:    3.0068758847
  - # 6
    frequency:    4.8634388968
  - # 7
    frequency:    5.0374667604
  - # 8
    frequency:    5.0743498989
  - # 9
    frequency:    6.3240656136
  - # 10
    frequency:    6.3277700343
  - # 11
    frequency:    8.2058799309
  - # 12
    frequency:   11.2027165408
  - # 13
    frequency:   13.5532694204
  - # 14
    frequency:   15.5813444513
  - # 15
    frequency:   15.5821257059

- q-position: [    0.0202020,    0.0000000,    0.0000000 ]
  distance:    0.0067704
  band:
  - # 1
    frequency:    0.0221509268
  - # 2
    frequency:    0.2379846193
  - # 3
    frequency:    0.3427850297
  - # 4
    frequency:    3.0013204949
  - # 5
    frequency:    3.0140429596
  - # 6
    frequency:    4.8432870712
  - # 7
    frequency:    5.0340653308
  - # 8
    frequency:    5.0935704277
  - # 9
    frequency:    6.3244133300
  - # 10
    frequency:    6.3309900555
  - # 11
    frequency:    8.2014800021
  - # 12
    frequency:   11.1980202042
  - # 13
    frequency:   13.5514534117
  - # 14
    frequency:   15.5814613436
  - # 15
    frequency:   15.5828457085

- q-position: [    0.0252525,    0.0000000,    0.0000000 ]
  distance:    0.0084629
  band:
  - # 1
    frequency:    0.0345260590
  - # 2
    frequency:    0.2970232214
  - # 3
    frequency:    0.4281490937
  - # 4
    frequency:    3.0033992587
  - # 5
    frequency:    3.0231970052
  - # 6
    frequency:    4.8213922970
  - # 7
    frequency:    5.0297109693
  - # 8
    frequency:    5.1142954226
  - # 9
    frequency:    6.3248464803
  - # 10
    frequency:    6.3351044477
  - # 11
    frequency:    8.1958376004
  - # 12
    frequency:   11.1919986518
  - # 13
    frequency:   13.5491142747
  - # 14
    frequency:   15.5816109956
  - # 15
    frequency:   15.5837649260

- q-position: [    0.0303030,    0.0000000,    0.0000000 ]
  distance:    0.0101555
  band:
  - # 1
    frequency:    0.0495581704
  - # 2
    frequency:    0.3557588315
  - # 3
    frequency:    0.5132909686
  - # 4
    frequency:    3.0059257666
  - # 5
    frequency:    3.0342943000
  - # 6
    frequency:    4.7984854788
  - # 7
    frequency:    5.0244176767
  - # 8
    frequency:    5.1358145759
  - # 9
    frequency:    6.3253549994
  - # 10
    frequency:    6.3400939389
  - # 11
    frequency:    8.1889636543
  - # 12
    frequency:   11.1846643201
  - # 13
    frequency:   13.5462491147
  - # 14
    frequency:   15.5817928575
  - # 15
    frequency:   15.5848783579

- q-position: [    0.0353535,    0.0000000,    0.0000000 ]
  distance:    0.0118481
  band:
  - # 1
    frequency:    0.0671943969
  - # 2
    frequency:    0.4141328900
  - # 3
    frequency:    0.5981654973
  - # 4
    frequency:    3.0088914577
  - # 5
    frequency:    3.0472833442
  - # 6
    frequency:    4.7750060324
  - # 7
    frequency:    5.0182023811
  - # 8
    frequency:    5.1577135101
  - # 9
    frequency:    6.3259269811
  - # 10
    frequency:    6.3459349453
  - # 11
    frequency:    8.1808714578
  - # 12
    frequency:   11.1760323954
  - # 13
    frequency:   13.5428547252
  - # 14
    frequency:   15.5820061797
  - # 15
    frequency:   15.5861797618

- q-position: [    0.0404040,    0.0000000,    0.0000000 ]
  distance:    0.0135407
  band:
  - # 1
    frequency:    0.0873747249
  - # 2
    frequency:    0.4720879420
  - # 3
    frequency:    0.6827271411
  - # 4
    frequency:    3.0122861827
  - # 5
    frequency:    3.0621058649
  - # 6
    frequency:    4.7512363344
  - # 7
    frequency:    5.0110848473
  - # 8
    frequency:    5.1797392238
  - # 9
    frequency:    6.3265488948
  - # 10
    frequency:    6.3525995821
  - # 11
    frequency:    8.1715766355
  - # 12
    frequency:   11.1661208020
  - # 13
    frequency:   13.5389277721
  - # 14
    frequency:   15.5822499672
  - # 15
    frequency:   15.5876615843

- q-position: [    0.0454545,    0.0000000,    0.0000000 ]
  distance:    0.0152333
  band:
  - # 1
    frequency:    0.1100330037
  - # 2
    frequency:    0.5295678166
  - # 3
    frequency:    0.7669299273
  - # 4
    frequency:    3.0160981899
  - # 5
    frequency:    3.0786978820
  - # 6
    frequency:    4.7273719727
  - # 7
    frequency:    5.0030875841
  - # 8
    frequency:    5.2017296975
  - # 9
    frequency:    6.3272058244
  - # 10
    frequency:    6.3600556984
  - # 11
    frequency:    8.1610971044
  - # 12
    frequency:   11.1549501841
  - # 13
    frequency:   13.5344650012
  - # 14
    frequency:   15.5825229268
  - # 15
    frequency:   15.5893148898

- q-position: [    0.0505051,    0.0000000,    0.0000000 ]
  distance:    0.0169259
  band:
  - # 1
    frequency:    0.1350979680
  - # 2
    frequency:    0.5865178017
  - # 3
    frequency:    0.8507273998
  - # 4
    frequency:    3.0203141135
  - # 5
    frequency:    3.0969907899
  - # 6
    frequency:    4.7035586217
  - # 7
    frequency:    4.9942357566
  - # 8
    frequency:    5.2235768315
  - # 9
    frequency:    6.3278817218
  - # 10
    frequency:    6.3682669449
  - # 11
    frequency:    8.1494530322
  - # 12
    frequency:   11.1425438818
  - # 13
    frequency:   13.5294634607
  - # 14
    frequency:   15.5828234087
  - # 15
    frequency:   15.5911292886

- q-position: [    0.0555556,    0.0000000,    0.0000000 ]
  distance:    0.0186185
  band:
  - # 1
    frequency:    0.1624942368
  - # 2
    frequency:    0.6428848149
  - # 3
    frequency:    0.9340725767
  - # 4
    frequency:    3.0249189621
  - # 5
    frequency:    3.1169124165
  - # 6
    frequency:    4.6799120059
  - # 7
    frequency:    4.9845571095
  - # 8
    frequency:    5.2452062471
  - # 9
    frequency:    6.3285596695
  - # 10
    frequency:    6.3771928805
  - # 11
    frequency:    8.1366667947
  - # 12
    frequency:   11.1289278979
  - # 13
    frequency:   13.5239207355
  - # 14
    frequency:   15.5831493412
  - # 15
    frequency:   15.5930928700

- q-position: [    0.0606061,    0.0000000,    0.0000000 ]
  distance:    0.0203111
  band:
  - # 1
    frequency:    0.1921432571
  - # 2
    frequency:    0.6986175706
  - # 3
    frequency:    1.0169179154
  - # 4
    frequency:    3.0298961118
  - # 5
    frequency:    3.1383880274
  - # 6
    frequency:    4.6565291114
  - # 7
    frequency:    4.9740819044
  - # 8
    frequency:    5.2665657878
  - # 9
    frequency:    6.3292221447
  - # 10
    frequency:    6.3867891235
  - # 11
    frequency:    8.1227629323
  - # 12
    frequency:   11.1141308560
  - # 13
    frequency:   13.5178351865
  - # 14
    frequency:   15.5834981617
  - # 15
    frequency:   15.5951921433

- q-position: [    0.0656566,    0.0000000,    0.0000000 ]
  distance:    0.0220037
  band:
  - # 1
    frequency:    0.2239641689
  - # 2
    frequency:    0.7536667404
  - # 3
    frequency:    1.0992152855
  - # 4
    frequency:    3.0352273027
  - # 5
    frequency:    3.1613412476
  - # 6
    frequency:    4.6334947040
  - # 7
    frequency:    4.9628428780
  - # 8
    frequency:    5.2876186620
  - # 9
    frequency:    6.3298512785
  - # 10
    frequency:    6.3970075507
  - # 11
    frequency:    8.1077681066
  - # 12
    frequency:   11.0981839477
  - # 13
    frequency:   13.5112061885
  - # 14
    frequency:   15.5838667424
  - # 15
    frequency:   15.5974119911

- q-position: [    0.0707071,    0.0000000,    0.0000000 ]
  distance:    0.0236963
  band:
  - # 1
    frequency:    0.2578745758
  - # 2
    frequency:    0.8079851073
  - # 3
    frequency:    1.1809159518
  - # 4
    frequency:    3.0408926440
  - # 5
    frequency:    3.1856948823
  - # 6
    frequency:    4.6108852339
  - # 7
    frequency:    4.9508752206
  - # 8
    frequency:    5.3083391490
  - # 9
    frequency:    6.3304291058
  - # 10
    frequency:    6.4077965455
  - # 11
    frequency:    8.0917110580
  - # 12
    frequency:   11.0811208681
  - # 13
    frequency:   13.5040343625
  - # 14
    frequency:   15.5842513143
  - # 15
    frequency:   15.5997356385

- q-position: [    0.0757576,    0.0000000,    0.0000000 ]
  distance:    0.0253888
  band:
  - # 1
    frequency:    0.2937912117
  - # 2
    frequency:    0.8615277128
  - # 3
    frequency:    1.2619705689
  - # 4
    frequency:    3.0468706263
  - # 5
    frequency:    3.2113716249
  - # 6
    frequency:    4.5887712297
  - # 7
    frequency:    4.9382165799
  - # 8
    frequency:    5.3287097701
  - # 9
    frequency:    6.3309378007
  - # 10
    frequency:    6.4191012933
  - # 11
    frequency:    8.0746225654
  - # 12
    frequency:   11.0629777393
  - # 13
    frequency:   13.4963217964
  - # 14
    frequency:   15.5846473884
  - # 15
    frequency:   15.6021446398

- q-position: [    0.0808081,    0.0000000,    0.0000000 ]
  distance:    0.0270814
  band:
  - # 1
    frequency:    0.3316305020
  - # 2
    frequency:    0.9142519944
  - # 3
    frequency:    1.3423291887
  - # 4
    frequency:    3.0531381474
  - # 5
    frequency:    3.2382946438
  - # 6
    frequency:    4.5672187904
  - # 7
    frequency:    4.9249070876
  - # 8
    frequency:    5.3487193227
  - # 9
    frequency:    6.3313598944
  - # 10
    frequency:    6.4308641216
  - # 11
    frequency:    8.0565354073
  - # 12
    frequency:   11.0437930204
  - # 13
    frequency:   13.4880722487
  - # 14
    frequency:   15.5850496763
  - # 15
    frequency:   15.6046188881

- q-position: [    0.0858586,    0.0000000,    0.0000000 ]
  distance:    0.0287740
  band:
  - # 1
    frequency:    0.3713090186
  - # 2
    frequency:    0.9661179143
  - # 3
    frequency:    1.4219412828
  - # 4
    frequency:    3.0596705519
  - # 5
    frequency:    3.2663880488
  - # 6
    frequency:    4.5462905241
  - # 7
    frequency:    4.9109894090
  - # 8
    frequency:    5.3683614386
  - # 9
    frequency:    6.3316784709
  - # 10
    frequency:    6.4430248776
  - # 11
    frequency:    8.0374843253
  - # 12
    frequency:   11.0236074047
  - # 13
    frequency:   13.4792913331
  - # 14
    frequency:   15.5854520117
  - # 15
    frequency:   15.6071366465

- q-position: [    0.0909091,    0.0000000,    0.0000000 ]
  distance:    0.0304666
  band:
  - # 1
    frequency:    0.4127438386
  - # 2
    frequency:    1.0170880773
  - # 3
    frequency:    1.5007557816
  - # 4
    frequency:    3.0664416890
  - # 5
    frequency:    3.2955772378
  - # 6
    frequency:    4.5260461381
  - # 7
    frequency:    4.8965088111
  - # 8
    frequency:    5.3876334711
  - # 9
    frequency:    6.3318773409
  - # 10
    frequency:    6.4555213385
  - # 11
    frequency:    8.0175059893
  - # 12
    frequency:   11.0024637035
  - # 13
    frequency:   13.4699866774
  - # 14
    frequency:   15.5858472739
  - # 15
    frequency:   15.6096746044

- q-position: [    0.0959596,    0.0000000,    0.0000000 ]
  distance:    0.0321592
  band:
  - # 1
    frequency:    0.4558528131
  - # 2
    frequency:    1.0671278376
  - # 3
    frequency:    1.5787211317
  - # 4
    frequency:    3.0734239920
  - # 5
    frequency:    3.3257891295
  - # 6
    frequency:    4.5065428091
  - # 7
    frequency:    4.8815132465
  - # 8
    frequency:    5.4065355970
  - # 9
    frequency:    6.3319411915
  - # 10
    frequency:    6.4682896438
  - # 11
    frequency:    7.9966389645
  - # 12
    frequency:   10.9804067165
  - # 13
    frequency:   13.4601680573
  - # 14
    frequency:   15.5862273140
  - # 15
    frequency:   15.6122079584

- q-position: [    0.1010101,    0.0000000,    0.0000000 ]
  distance:    0.0338518
  band:
  - # 1
    frequency:    0.5005547584
  - # 2
    frequency:    1.1162053938
  - # 3
    frequency:    1.6557853748
  - # 4
    frequency:    3.0805885841
  - # 5
    frequency:    3.3569522880
  - # 6
    frequency:    4.4878354117
  - # 7
    frequency:    4.8660534451
  - # 8
    frequency:    5.4250700653
  - # 9
    frequency:    6.3318557102
  - # 10
    frequency:    6.4812647435
  - # 11
    frequency:    7.9749236783
  - # 12
    frequency:   10.9574830898
  - # 13
    frequency:   13.4498475008
  - # 14
    frequency:   15.5865828866
  - # 15
    frequency:   15.6147105177

- q-position: [    0.1060606,    0.0000000,    0.0000000 ]
  distance:    0.0355444
  band:
  - # 1
    frequency:    0.5467695806
  - # 2
    frequency:    1.1642918720
  - # 3
    frequency:    1.7318962481
  - # 4
    frequency:    3.0879054128
  - # 5
    frequency:    3.3889969480
  - # 6
    frequency:    4.4699766595
  - # 7
    frequency:    4.8501830079
  - # 8
    frequency:    5.4432405526
  - # 9
    frequency:    6.3316076860
  - # 10
    frequency:    6.4943808518
  - # 11
    frequency:    7.9524023881
  - # 12
    frequency:   10.9337411613
  - # 13
    frequency:   13.4390393628
  - # 14
    frequency:   15.5869035871
  - # 15
    frequency:   15.6171548334

- q-position: [    0.1111111,    0.0000000,    0.0000000 ]
  distance:    0.0372370
  band:
  - # 1
    frequency:    0.5944183465
  - # 2
    frequency:    1.2113613967
  - # 3
    frequency:    1.8070013098
  - # 4
    frequency:    3.0953434211
  - # 5
    frequency:    3.4218549464
  - # 6
    frequency:    4.4530171949
  - # 7
    frequency:    4.8339584921
  - # 8
    frequency:    5.4610516021
  - # 9
    frequency:    6.3311850848
  - # 10
    frequency:    6.5075718998
  - # 11
    frequency:    7.9291191460
  - # 12
    frequency:   10.9092307949
  - # 13
    frequency:   13.4277603695
  - # 14
    frequency:   15.5871777973
  - # 15
    frequency:   15.6195123498

- q-position: [    0.1161616,    0.0000000,    0.0000000 ]
  distance:    0.0389296
  band:
  - # 1
    frequency:    0.6434233110
  - # 2
    frequency:    1.2573911501
  - # 3
    frequency:    1.8810480905
  - # 4
    frequency:    3.1028707554
  - # 5
    frequency:    3.4554595684
  - # 6
    frequency:    4.4370056538
  - # 7
    frequency:    4.8174394785
  - # 8
    frequency:    5.4785081313
  - # 9
    frequency:    6.3305771032
  - # 10
    frequency:    6.5207719797
  - # 11
    frequency:    7.9051197618
  - # 12
    frequency:   10.8840032042
  - # 13
    frequency:   13.4160296324
  - # 14
    frequency:   15.5873926399
  - # 15
    frequency:   15.6217535767

- q-position: [    0.1212121,    0.0000000,    0.0000000 ]
  distance:    0.0406222
  band:
  - # 1
    frequency:    0.6937079131
  - # 2
    frequency:    1.3023614218
  - # 3
    frequency:    1.9539842723
  - # 4
    frequency:    3.1104550196
  - # 5
    frequency:    3.4897453129
  - # 6
    frequency:    4.4219887247
  - # 7
    frequency:    4.8006886099
  - # 8
    frequency:    5.4956150006
  - # 9
    frequency:    6.3297742001
  - # 10
    frequency:    6.5339157743
  - # 11
    frequency:    7.8804517593
  - # 12
    frequency:   10.8581107661
  - # 13
    frequency:   13.4038686327
  - # 14
    frequency:   15.5875339432
  - # 15
    frequency:   15.6238482789

- q-position: [    0.1262626,    0.0000000,    0.0000000 ]
  distance:    0.0423147
  band:
  - # 1
    frequency:    0.7451967486
  - # 2
    frequency:    1.3462556483
  - # 3
    frequency:    2.0257578964
  - # 4
    frequency:    3.1180635760
  - # 5
    frequency:    3.5246475813
  - # 6
    frequency:    4.4080112204
  - # 7
    frequency:    4.7837715883
  - # 8
    frequency:    5.5123766376
  - # 9
    frequency:    6.3287681084
  - # 10
    frequency:    6.5469389689
  - # 11
    frequency:    7.8551643262
  - # 12
    frequency:   10.8316068273
  - # 13
    frequency:   13.3913011769
  - # 14
    frequency:   15.5875862181
  - # 15
    frequency:   15.6257656810

- q-position: [    0.1313131,    0.0000000,    0.0000000 ]
  distance:    0.0440073
  band:
  - # 1
    frequency:    0.7978155291
  - # 2
    frequency:    1.3890604457
  - # 3
    frequency:    2.0963176003
  - # 4
    frequency:    3.1256638994
  - # 5
    frequency:    3.5601022920
  - # 6
    frequency:    4.3951161754
  - # 7
    frequency:    4.7667571167
  - # 8
    frequency:    5.5287967124
  - # 9
    frequency:    6.3275518290
  - # 10
    frequency:    6.5597786417
  - # 11
    frequency:    7.8293082545
  - # 12
    frequency:   10.8045455021
  - # 13
    frequency:   13.3783533263
  - # 14
    frequency:   15.5875326483
  - # 15
    frequency:   15.6274746852

- q-position: [    0.1363636,    0.0000000,    0.0000000 ]
  distance:    0.0456999
  band:
  - # 1
    frequency:    0.8514910334
  - # 2
    frequency:    1.4307656389
  - # 3
    frequency:    2.1656128841
  - # 4
    frequency:    3.1332239859
  - # 5
    frequency:    3.5960454192
  - # 6
    frequency:    4.3833449844
  - # 7
    frequency:    4.7497167764
  - # 8
    frequency:    5.5448778628
  - # 9
    frequency:    6.3261196086
  - # 10
    frequency:    6.5723736317
  - # 11
    frequency:    7.8029358684
  - # 12
    frequency:   10.7769814655
  - # 13
    frequency:   13.3650532995
  - # 14
    frequency:   15.5873550943
  - # 15
    frequency:   15.6289440978

- q-position: [    0.1414141,    0.0000000,    0.0000000 ]
  distance:    0.0473925
  band:
  - # 1
    frequency:    0.9061510570
  - # 2
    frequency:    1.4713642882
  - # 3
    frequency:    2.2335944058
  - # 4
    frequency:    3.1407128198
  - # 5
    frequency:    3.6324124526
  - # 6
    frequency:    4.3727375989
  - # 7
    frequency:    4.7327248230
  - # 8
    frequency:    5.5606214648
  - # 9
    frequency:    6.3244669028
  - # 10
    frequency:    6.5846648845
  - # 11
    frequency:    7.7761009373
  - # 12
    frequency:   10.7489697411
  - # 13
    frequency:   13.3514313530
  - # 14
    frequency:   15.5870341128
  - # 15
    frequency:   15.6301428618

- q-position: [    0.1464646,    0.0000000,    0.0000000 ]
  distance:    0.0490851
  band:
  - # 1
    frequency:    0.9617243648
  - # 2
    frequency:    1.5108527193
  - # 3
    frequency:    2.3002143044
  - # 4
    frequency:    3.1481008961
  - # 5
    frequency:    3.6691377668
  - # 6
    frequency:    4.3633328005
  - # 7
    frequency:    4.7158578936
  - # 8
    frequency:    5.5760274473
  - # 9
    frequency:    6.3225903283
  - # 10
    frequency:    6.5965957759
  - # 11
    frequency:    7.7488585710
  - # 12
    frequency:   10.7205654859
  - # 13
    frequency:   13.3375196386
  - # 14
    frequency:   15.5865489922
  - # 15
    frequency:   15.6310402935

- q-position: [    0.1515152,    0.0000000,    0.0000000 ]
  distance:    0.0507777
  band:
  - # 1
    frequency:    1.0181406491
  - # 2
    frequency:    1.5492305597
  - # 3
    frequency:    2.3654265479
  - # 4
    frequency:    3.1553607990
  - # 5
    frequency:    3.7061538894
  - # 6
    frequency:    4.3551685750
  - # 7
    frequency:    4.6991946142
  - # 8
    frequency:    5.5910941475
  - # 9
    frequency:    6.3204876043
  - # 10
    frequency:    6.6081124170
  - # 11
    frequency:    7.7212650951
  - # 12
    frequency:   10.6918237729
  - # 13
    frequency:   13.3233520419
  - # 14
    frequency:   15.5858778045
  - # 15
    frequency:   15.6316063187

- q-position: [    0.1565657,    0.0000000,    0.0000000 ]
  distance:    0.0524703
  band:
  - # 1
    frequency:    1.0753304958
  - # 2
    frequency:    1.5865007854
  - # 3
    frequency:    2.4291873039
  - # 4
    frequency:    3.1624678271
  - # 5
    frequency:    3.7433906398
  - # 6
    frequency:    4.3482826190
  - # 7
    frequency:    4.6828150999
  - # 8
    frequency:    5.6058182048
  - # 9
    frequency:    6.3181574859
  - # 10
    frequency:    6.6191639415
  - # 11
    frequency:    7.6933779018
  - # 12
    frequency:   10.6627993741
  - # 13
    frequency:   13.3089640022
  - # 14
    frequency:   15.5849974746
  - # 15
    frequency:   15.6318117081

- q-position: [    0.1616162,    0.0000000,    0.0000000 ]
  distance:    0.0541629
  band:
  - # 1
    frequency:    1.1332253600
  - # 2
    frequency:    1.6226697836
  - # 3
    frequency:    2.4914553288
  - # 4
    frequency:    3.1694006585
  - # 5
    frequency:    3.7807741101
  - # 6
    frequency:    4.3427130201
  - # 7
    frequency:    4.6668003475
  - # 8
    frequency:    5.6201944907
  - # 9
    frequency:    6.3155996921
  - # 10
    frequency:    6.6297027788
  - # 11
    frequency:    7.6652552747
  - # 12
    frequency:   10.6335465433
  - # 13
    frequency:   13.2943923157
  - # 14
    frequency:   15.5838838666
  - # 15
    frequency:   15.6316283064

- q-position: [    0.1666667,    0.0000000,    0.0000000 ]
  distance:    0.0558555
  band:
  - # 1
    frequency:    1.1917575508
  - # 2
    frequency:    1.6577474342
  - # 3
    frequency:    2.5521923706
  - # 4
    frequency:    3.1761420399
  - # 5
    frequency:    3.8182254385
  - # 6
    frequency:    4.3384991646
  - # 7
    frequency:    4.6512315195
  - # 8
    frequency:    5.6342160726
  - # 9
    frequency:    6.3128148291
  - # 10
    frequency:    6.6396849164
  - # 11
    frequency:    7.6369561849
  - # 12
    frequency:   10.6041188021
  - # 13
    frequency:   13.2796749242
  - # 14
    frequency:   15.5825118871
  - # 15
    frequency:   15.6310292567

- q-position: [    0.1717172,    0.0000000,    0.0000000 ]
  distance:    0.0575480
  band:
  - # 1
    frequency:    1.2508602250
  - # 2
    frequency:    1.6917472143
  - # 3
    frequency:    2.6113635795
  - # 4
    frequency:    3.1826794803
  - # 5
    frequency:    3.8556593138
  - # 6
    frequency:    4.3356829412
  - # 7
    frequency:    4.6361891298
  - # 8
    frequency:    5.6478742098
  - # 9
    frequency:    6.3098043108
  - # 10
    frequency:    6.6490701517
  - # 11
    frequency:    7.6085400555
  - # 12
    frequency:   10.5745687288
  - # 13
    frequency:   13.2648506892
  - # 14
    frequency:   15.5808556064
  - # 15
    frequency:   15.6299892155

- q-position: [    0.1767677,    0.0000000,    0.0000000 ]
  distance:    0.0592406
  band:
  - # 1
    frequency:    1.3104673900
  - # 2
    frequency:    1.7246863276
  - # 3
    frequency:    2.6689379212
  - # 4
    frequency:    3.1890059254
  - # 5
    frequency:    3.8929821357
  - # 6
    frequency:    4.3343103253
  - # 7
    frequency:    4.6217521418
  - # 8
    frequency:    5.6611583799
  - # 9
    frequency:    6.3065702790
  - # 10
    frequency:    6.6578223380
  - # 11
    frequency:    7.5800664927
  - # 12
    frequency:   10.5449477541
  - # 13
    frequency:   13.2499591550
  - # 14
    frequency:   15.5788883953
  - # 15
    frequency:   15.6284845577

- q-position: [    0.1818182,    0.0000000,    0.0000000 ]
  distance:    0.0609332
  band:
  - # 1
    frequency:    1.3705139123
  - # 2
    frequency:    1.7565858608
  - # 3
    frequency:    2.7248885840
  - # 4
    frequency:    3.1951203828
  - # 5
    frequency:    3.9300897434
  - # 6
    frequency:    4.3344334345
  - # 7
    frequency:    4.6079970023
  - # 8
    frequency:    5.6740563363
  - # 9
    frequency:    6.3031155231
  - # 10
    frequency:    6.6659096226
  - # 11
    frequency:    7.5515949833
  - # 12
    frequency:   10.5153059616
  - # 13
    frequency:   13.2350402990
  - # 14
    frequency:   15.5765830784
  - # 15
    frequency:   15.6264935711

- q-position: [    0.1868687,    0.0000000,    0.0000000 ]
  distance:    0.0626258
  band:
  - # 1
    frequency:    1.4309355324
  - # 2
    frequency:    1.7874709628
  - # 3
    frequency:    2.7791933737
  - # 4
    frequency:    3.2010284648
  - # 5
    frequency:    3.9668646467
  - # 6
    frequency:    4.3361131311
  - # 7
    frequency:    4.5949966352
  - # 8
    frequency:    5.6865541944
  - # 9
    frequency:    6.2994434026
  - # 10
    frequency:    6.6733046773
  - # 11
    frequency:    7.5231845579
  - # 12
    frequency:   10.4856918987
  - # 13
    frequency:   13.2201342731
  - # 14
    frequency:   15.5739121020
  - # 15
    frequency:   15.6239966380

- q-position: [    0.1919192,    0.0000000,    0.0000000 ]
  distance:    0.0643184
  band:
  - # 1
    frequency:    1.4916688822
  - # 2
    frequency:    1.8173710462
  - # 3
    frequency:    2.8318350870
  - # 4
    frequency:    3.2067428131
  - # 5
    frequency:    4.0031727653
  - # 6
    frequency:    4.3394221695
  - # 7
    frequency:    4.5828194299
  - # 8
    frequency:    5.6986365502
  - # 9
    frequency:    6.2955577713
  - # 10
    frequency:    6.6799849190
  - # 11
    frequency:    7.4948934219
  - # 12
    frequency:   10.4561523962
  - # 13
    frequency:   13.2052811357
  - # 14
    frequency:   15.5708477165
  - # 15
    frequency:   15.6209764041

- q-position: [    0.1969697,    0.0000000,    0.0000000 ]
  distance:    0.0660110
  band:
  - # 1
    frequency:    1.5526515037
  - # 2
    frequency:    1.8463200006
  - # 3
    frequency:    2.8828018546
  - # 4
    frequency:    3.2122833679
  - # 5
    frequency:    4.0388598976
  - # 6
    frequency:    4.3444486756
  - # 7
    frequency:    4.5715282595
  - # 8
    frequency:    5.7102866297
  - # 9
    frequency:    6.2914629053
  - # 10
    frequency:    6.6859327142
  - # 11
    frequency:    7.4667785569
  - # 12
    frequency:   10.4267324001
  - # 13
    frequency:   13.1905205767
  - # 14
    frequency:   15.5673621705
  - # 15
    frequency:   15.6174179331

- q-position: [    0.2020202,    0.0000000,    0.0000000 ]
  distance:    0.0677036
  band:
  - # 1
    frequency:    1.6138218661
  - # 2
    frequency:    1.8743564075
  - # 3
    frequency:    2.9320874453
  - # 4
    frequency:    3.2176774499
  - # 5
    frequency:    4.0737486033
  - # 6
    frequency:    4.3512992786
  - # 7
    frequency:    4.5611795684
  - # 8
    frequency:    5.7214864725
  - # 9
    frequency:    6.2871634362
  - # 10
    frequency:    6.6911355621
  - # 11
    frequency:    7.4388952986
  - # 12
    frequency:   10.3974748165
  - # 13
    frequency:   13.1758916355
  - # 14
    frequency:   15.5634279168
  - # 15
    frequency:   15.6133088477

- q-position: [    0.2070707,    0.0000000,    0.0000000 ]
  distance:    0.0693962
  band:
  - # 1
    frequency:    1.6751193805
  - # 2
    frequency:    1.9015237422
  - # 3
    frequency:    2.9796915206
  - # 4
    frequency:    3.2229596259
  - # 5
    frequency:    4.1076370876
  - # 6
    frequency:    4.3601003154
  - # 7
    frequency:    4.5518225674
  - # 8
    frequency:    5.7322171516
  - # 9
    frequency:    6.2826642882
  - # 10
    frequency:    6.6955862432
  - # 11
    frequency:    7.4112968994
  - # 12
    frequency:   10.3684203717
  - # 13
    frequency:   13.1614324152
  - # 14
    frequency:   15.5590178276
  - # 15
    frequency:   15.6086394550

- q-position: [    0.2121212,    0.0000000,    0.0000000 ]
  distance:    0.0710888
  band:
  - # 1
    frequency:    1.7364844075