nqpoint: 300    
npath: 3      
segment_nqpoint:
- 100
- 100
- 100
labels:
- [ 'G', 'M' ]
- [ 'M', 'K' ]
- [ 'K', 'G' ]
reciprocal_lattice:
- [   0.31833992,   0.18379364,   0.00000000 ] # a*
- [   0.00000000,   0.36758728,   0.00000000 ] # b*
- [   0.00000000,   0.00000000,   0.03644165 ] # c*
natom: 8      
lattice:
- [     3.141296216691998,     0.000000000000000,     0.000000000000000 ] # a
- [    -1.570648108345999,     2.720442324467312,     0.000000000000000 ] # b
- [     0.000000000000000,     0.000000000000000,    27.441128849679664 ] # c
points:
- symbol: C # 1
  coordinates: [  0.000000000000000,  0.000000000000000,  0.492440252587496 ]
  mass: 12.010700
- symbol: C # 2
  coordinates: [  0.333332985432215,  0.666666983183674,  0.628179919197798 ]
  mass: 12.010700
- symbol: N # 3
  coordinates: [  0.333332985432215,  0.666666983183674,  0.582739744972278 ]
  mass: 14.006700
- symbol: O # 4
  coordinates: [  0.333332985432215,  0.666666983183674,  0.672025154311206 ]
  mass: 15.999400
- symbol: O # 5
  coordinates: [  0.666666984744047,  0.333332985985145,  0.327974845688794 ]
  mass: 15.999400
- symbol: P # 6
  coordinates: [  0.666666984744047,  0.333332985985145,  0.382276191212807 ]
  mass: 30.973762
- symbol: Ti # 7
  coordinates: [  0.333332985432215,  0.666666983183674,  0.450450076132855 ]
  mass: 47.867000
- symbol: Ti # 8
  coordinates: [  0.666666984744047,  0.333332985985145,  0.534255725129839 ]
  mass: 47.867000

phonon:
- q-position: [    0.0000000,    0.0000000,    0.0000000 ]
  distance:    0.0000000
  band:
  - # 1
    frequency:   -3.1926571463
  - # 2
    frequency:   -3.1926571463
  - # 3
    frequency:   -1.2161405829
  - # 4
    frequency:   -1.2161405829
  - # 5
    frequency:    0.0000003563
  - # 6
    frequency:    0.0000005063
  - # 7
    frequency:    0.0000007733
  - # 8
    frequency:    4.4458602876
  - # 9
    frequency:    4.4458602876
  - # 10
    frequency:    5.1695822539
  - # 11
    frequency:    6.0047064967
  - # 12
    frequency:    6.0047064967
  - # 13
    frequency:    7.7350902466
  - # 14
    frequency:    7.7350902466
  - # 15
    frequency:    9.5298266490
  - # 16
    frequency:   10.7128448702
  - # 17
    frequency:   17.1000544069
  - # 18
    frequency:   17.1000544069
  - # 19
    frequency:   17.7214039818
  - # 20
    frequency:   18.1245479376
  - # 21
    frequency:   18.1245479376
  - # 22
    frequency:   34.5980064377
  - # 23
    frequency:   38.5076727817
  - # 24
    frequency:   69.4137372196

- q-position: [    0.0050505,    0.0000000,    0.0000000 ]
  distance:    0.0018565
  band:
  - # 1
    frequency:   -3.1907715063
  - # 2
    frequency:   -3.1871448915
  - # 3
    frequency:   -1.2151594472
  - # 4
    frequency:   -1.2131711186
  - # 5
    frequency:   -0.1249494041
  - # 6
    frequency:    0.0983452787
  - # 7
    frequency:    0.1849541684
  - # 8
    frequency:    4.4466074247
  - # 9
    frequency:    4.4477865664
  - # 10
    frequency:    5.1689228666
  - # 11
    frequency:    6.0050019528
  - # 12
    frequency:    6.0062409066
  - # 13
    frequency:    7.7354925548
  - # 14
    frequency:    7.7359818107
  - # 15
    frequency:    9.5296375252
  - # 16
    frequency:   10.7136676446
  - # 17
    frequency:   17.1001341931
  - # 18
    frequency:   17.1004093428
  - # 19
    frequency:   17.7213855736
  - # 20
    frequency:   18.1249077521
  - # 21
    frequency:   18.1250179938
  - # 22
    frequency:   34.5977426260
  - # 23
    frequency:   38.5076744687
  - # 24
    frequency:   69.4121629563

- q-position: [    0.0101010,    0.0000000,    0.0000000 ]
  distance:    0.0037130
  band:
  - # 1
    frequency:   -3.1851221712
  - # 2
    frequency:   -3.1706035133
  - # 3
    frequency:   -1.2122369369
  - # 4
    frequency:   -1.2042571151
  - # 5
    frequency:   -0.1399597660
  - # 6
    frequency:    0.1967124106
  - # 7
    frequency:    0.3068272979
  - # 8
    frequency:    4.4488423356
  - # 9
    frequency:    4.4535360434
  - # 10
    frequency:    5.1669880822
  - # 11
    frequency:    6.0058899430
  - # 12
    frequency:    6.0108174316
  - # 13
    frequency:    7.7366981314
  - # 14
    frequency:    7.7386550840
  - # 15
    frequency:    9.5290707510
  - # 16
    frequency:   10.7161298267
  - # 17
    frequency:   17.1003733833
  - # 18
    frequency:   17.1014728420
  - # 19
    frequency:   17.7213278372
  - # 20
    frequency:   18.1259816520
  - # 21
    frequency:   18.1264216051
  - # 22
    frequency:   34.5969517529
  - # 23
    frequency:   38.5076794318
  - # 24
    frequency:   69.4074446918

- q-position: [    0.0151515,    0.0000000,    0.0000000 ]
  distance:    0.0055695
  band:
  - # 1
    frequency:   -3.1757319552
  - # 2
    frequency:   -3.1430193041
  - # 3
    frequency:   -1.2074323009
  - # 4
    frequency:   -1.1893752141
  - # 5
    frequency:   -0.1278219157
  - # 6
    frequency:    0.2951093910
  - # 7
    frequency:    0.4297883216
  - # 8
    frequency:    4.4525455617
  - # 9
    frequency:    4.4630198769
  - # 10
    frequency:    5.1639065352
  - # 11
    frequency:    6.0073752898
  - # 12
    frequency:    6.0183585056
  - # 13
    frequency:    7.7387029369
  - # 14
    frequency:    7.7431057317
  - # 15
    frequency:    9.5281281576
  - # 16
    frequency:   10.7202130370
  - # 17
    frequency:   17.1007714701
  - # 18
    frequency:   17.1032409887
  - # 19
    frequency:   17.7212233067
  - # 20
    frequency:   18.1277530691
  - # 21
    frequency:   18.1287391374
  - # 22
    frequency:   34.5956355020
  - # 23
    frequency:   38.5076873776
  - # 24
    frequency:   69.3995959809

- q-position: [    0.0202020,    0.0000000,    0.0000000 ]
  distance:    0.0074260
  band:
  - # 1
    frequency:   -3.1626390769
  - # 2
    frequency:   -3.1043698749
  - # 3
    frequency:   -1.2008336640
  - # 4
    frequency:   -1.1684656978
  - # 5
    frequency:   -0.0884640521
  - # 6
    frequency:    0.3935195739
  - # 7
    frequency:    0.5556135309
  - # 8
    frequency:    4.4576848131
  - # 9
    frequency:    4.4760873742
  - # 10
    frequency:    5.1598881906
  - # 11
    frequency:    6.0094658877
  - # 12
    frequency:    6.0287428450
  - # 13
    frequency:    7.7415002536
  - # 14
    frequency:    7.7493262720
  - # 15
    frequency:    9.5268129260
  - # 16
    frequency:   10.7258867907
  - # 17
    frequency:   17.1013276015
  - # 18
    frequency:   17.1057072884
  - # 19
    frequency:   17.7210597678
  - # 20
    frequency:   18.1301945984
  - # 21
    frequency:   18.1319379951
  - # 22
    frequency:   34.5937966724
  - # 23
    frequency:   38.5076978215
  - # 24
    frequency:   69.3886393406

- q-position: [    0.0252525,    0.0000000,    0.0000000 ]
  distance:    0.0092825
  band:
  - # 1
    frequency:   -3.1458974474
  - # 2
    frequency:   -3.0546248956
  - # 3
    frequency:   -1.1925447748
  - # 4
    frequency:   -1.1414041140
  - # 5
    frequency:    0.0732375835
  - # 6
    frequency:    0.4918961224
  - # 7
    frequency:    0.6839406407
  - # 8
    frequency:    4.4642151913
  - # 9
    frequency:    4.4925217835
  - # 10
    frequency:    5.1552195007
  - # 11
    frequency:    6.0121724883
  - # 12
    frequency:    6.0418158660
  - # 13
    frequency:    7.7450807071
  - # 14
    frequency:    7.7573057034
  - # 15
    frequency:    9.5251297778
  - # 16
    frequency:   10.7331087164
  - # 17
    frequency:   17.1020405709
  - # 18
    frequency:   17.1088627143
  - # 19
    frequency:   17.7208205832
  - # 20
    frequency:   18.1332683074
  - # 21
    frequency:   18.1359728274
  - # 22
    frequency:   34.5914391675
  - # 23
    frequency:   38.5077100922
  - # 24
    frequency:   69.3746061411

- q-position: [    0.0303030,    0.0000000,    0.0000000 ]
  distance:    0.0111390
  band:
  - # 1
    frequency:   -3.1255770671
  - # 2
    frequency:   -2.9937472133
  - # 3
    frequency:   -1.1826708968
  - # 4
    frequency:   -1.1079652290
  - # 5
    frequency:    0.1527100304
  - # 6
    frequency:    0.5901623640
  - # 7
    frequency:    0.8143486163
  - # 8
    frequency:    4.4720795185
  - # 9
    frequency:    4.5120339148
  - # 10
    frequency:    5.1502596414
  - # 11
    frequency:    6.0155084014
  - # 12
    frequency:    6.0574016494
  - # 13
    frequency:    7.7494322936
  - # 14
    frequency:    7.7670290084
  - # 15
    frequency:    9.5230852382
  - # 16
    frequency:   10.7418248612
  - # 17
    frequency:   17.1029088058
  - # 18
    frequency:   17.1126957726
  - # 19
    frequency:   17.7204851133
  - # 20
    frequency:   18.1369261627
  - # 21
    frequency:   18.1407858408
  - # 22
    frequency:   34.5885679801
  - # 23
    frequency:   38.5077233405
  - # 24
    frequency:   69.3575364518

- q-position: [    0.0353535,    0.0000000,    0.0000000 ]
  distance:    0.0129955
  band:
  - # 1
    frequency:   -3.1017645214
  - # 2
    frequency:   -2.9216943842
  - # 3
    frequency:   -1.1713065102
  - # 4
    frequency:   -1.0677789627
  - # 5
    frequency:    0.2156277786
  - # 6
    frequency:    0.6882171993
  - # 7
    frequency:    0.9465712754
  - # 8
    frequency:    4.4812087915
  - # 9
    frequency:    4.5342532860
  - # 10
    frequency:    5.1454396985
  - # 11
    frequency:    6.0194891145
  - # 12
    frequency:    6.0753148026
  - # 13
    frequency:    7.7545404131
  - # 14
    frequency:    7.7784765562
  - # 15
    frequency:    9.5206879649
  - # 16
    frequency:   10.7519700780
  - # 17
    frequency:   17.1039303540
  - # 18
    frequency:   17.1171925837
  - # 19
    frequency:   17.7200292050
  - # 20
    frequency:   18.1411105685
  - # 21
    frequency:   18.1463072369
  - # 22
    frequency:   34.5851891736
  - # 23
    frequency:   38.5077365484
  - # 24
    frequency:   69.3374788467

- q-position: [    0.0404040,    0.0000000,    0.0000000 ]
  distance:    0.0148520
  band:
  - # 1
    frequency:   -3.0745635615
  - # 2
    frequency:   -2.8384205508
  - # 3
    frequency:   -1.1585265250
  - # 4
    frequency:   -1.0202729230
  - # 5
    frequency:    0.2749170348
  - # 6
    frequency:    0.7859436778
  - # 7
    frequency:    1.0804749931
  - # 8
    frequency:    4.4915227772
  - # 9
    frequency:    4.5587168318
  - # 10
    frequency:    5.1412659197
  - # 11
    frequency:    6.0241318316
  - # 12
    frequency:    6.0953709820
  - # 13
    frequency:    7.7603879044
  - # 14
    frequency:    7.7916234349
  - # 15
    frequency:    9.5179491387
  - # 16
    frequency:   10.7634684918
  - # 17
    frequency:   17.1051028701
  - # 18
    frequency:   17.1223369796
  - # 19
    frequency:   17.7194257197
  - # 20
    frequency:   18.1457550081
  - # 21
    frequency:   18.1524557933
  - # 22
    frequency:   34.5813098583
  - # 23
    frequency:   38.5077485412
  - # 24
    frequency:   69.3144901677

- q-position: [    0.0454545,    0.0000000,    0.0000000 ]
  distance:    0.0167085
  band:
  - # 1
    frequency:   -3.0440957541
  - # 2
    frequency:   -2.7438783797
  - # 3
    frequency:   -1.1443814831
  - # 4
    frequency:   -0.9645873540
  - # 5
    frequency:    0.3338610907
  - # 6
    frequency:    0.8832185586
  - # 7
    frequency:    1.2160221087
  - # 8
    frequency:    4.5029307696
  - # 9
    frequency:    4.5848562245
  - # 10
    frequency:    5.1383265948
  - # 11
    frequency:    6.0294549374
  - # 12
    frequency:    6.1173953715
  - # 13
    frequency:    7.7669550815
  - # 14
    frequency:    7.8064387450
  - # 15
    frequency:    9.5148829071
  - # 16
    frequency:   10.7762340419
  - # 17
    frequency:   17.1064236019
  - # 18
    frequency:   17.1281106154
  - # 19
    frequency:   17.7186450738
  - # 20
    frequency:   18.1507847806
  - # 21
    frequency:   18.1591395988
  - # 22
    frequency:   34.5769381647
  - # 23
    frequency:   38.5077580016
  - # 24
    frequency:   69.2886352488

- q-position: [    0.0505051,    0.0000000,    0.0000000 ]
  distance:    0.0185650
  band:
  - # 1
    frequency:   -3.0105011731
  - # 2
    frequency:   -2.6380203416
  - # 3
    frequency:   -1.1288962117
  - # 4
    frequency:   -0.8994312065
  - # 5
    frequency:    0.3940044211
  - # 6
    frequency:    0.9799210366
  - # 7
    frequency:    1.3532434039
  - # 8
    frequency:    4.5153325233
  - # 9
    frequency:    4.6119871265
  - # 10
    frequency:    5.1372993939
  - # 11
    frequency:    6.0354773923
  - # 12
    frequency:    6.1412288922
  - # 13
    frequency:    7.7742197708
  - # 14
    frequency:    7.8228848908
  - # 15
    frequency:    9.5115068741
  - # 16
    frequency:   10.7901710940
  - # 17
    frequency:   17.1078893803
  - # 18
    frequency:   17.1344930936
  - # 19
    frequency:   17.7176557707
  - # 20
    frequency:   18.1561178235
  - # 21
    frequency:   18.1662569490
  - # 22
    frequency:   34.5720832128
  - # 23
    frequency:   38.5077634845
  - # 24
    frequency:   69.2599866025

- q-position: [    0.0555556,    0.0000000,    0.0000000 ]
  distance:    0.0204215
  band:
  - # 1
    frequency:   -2.9739391009
  - # 2
    frequency:   -2.5207978874
  - # 3
    frequency:   -1.1120708320
  - # 4
    frequency:   -0.8228074063
  - # 5
    frequency:    0.4563237849
  - # 6
    frequency:    1.0759395127
  - # 7
    frequency:    1.4922147018
  - # 8
    frequency:    4.5286193754
  - # 9
    frequency:    4.6393078694
  - # 10
    frequency:    5.1389514976
  - # 11
    frequency:    6.0422180660
  - # 12
    frequency:    6.1667322480
  - # 13
    frequency:    7.7821573450
  - # 14
    frequency:    7.8409169048
  - # 15
    frequency:    9.5078426257
  - # 16
    frequency:   10.8051751178
  - # 17
    frequency:   17.1094966111
  - # 18
    frequency:   17.1414620992
  - # 19
    frequency:   17.7164249095
  - # 20
    frequency:   18.1616656089
  - # 21
    frequency:   18.1736974012
  - # 22
    frequency:   34.5667550771
  - # 23
    frequency:   38.5077634347
  - # 24
    frequency:   69.2286240701

- q-position: [    0.0606061,    0.0000000,    0.0000000 ]
  distance:    0.0222780
  band:
  - # 1
    frequency:   -2.9345886979
  - # 2
    frequency:   -2.3921559891
  - # 3
    frequency:   -1.0938829336
  - # 4
    frequency:   -0.7314176915
  - # 5
    frequency:    0.5215797161
  - # 6
    frequency:    1.1711759995
  - # 7
    frequency:    1.6330312780
  - # 8
    frequency:    4.5426755604
  - # 9
    frequency:    4.6659209129
  - # 10
    frequency:    5.1441188522
  - # 11
    frequency:    6.0496950223
  - # 12
    frequency:    6.1937880785
  - # 13
    frequency:    7.7907407576
  - # 14
    frequency:    7.8604818420
  - # 15
    frequency:    9.5039162812
  - # 16
    frequency:   10.8211334235
  - # 17
    frequency:   17.1112412717
  - # 18
    frequency:   17.1489935444
  - # 19
    frequency:   17.7149186604
  - # 20
    frequency:   18.1673341043
  - # 21
    frequency:   18.1813429768
  - # 22
    frequency:   34.5609647495
  - # 23
    frequency:   38.5077562055
  - # 24
    frequency:   69.1946344376

- q-position: [    0.0656566,    0.0000000,    0.0000000 ]
  distance:    0.0241345
  band:
  - # 1
    frequency:   -2.8926495874
  - # 2
    frequency:   -2.2520191943
  - # 3
    frequency:   -1.0742899228
  - # 4
    frequency:   -0.6191318709
  - # 5
    frequency:    0.5904616877
  - # 6
    frequency:    1.2655482684
  - # 7
    frequency:    1.7757760922
  - # 8
    frequency:    4.5573797135
  - # 9
    frequency:    4.6908945195
  - # 10
    frequency:    5.1536467764
  - # 11
    frequency:    6.0579247685
  - # 12
    frequency:    6.2223015355
  - # 13
    frequency:    7.7999405752
  - # 14
    frequency:    7.8815182787
  - # 15
    frequency:    9.4997590555
  - # 16
    frequency:   10.8379259512
  - # 17
    frequency:   17.1131189117
  - # 18
    frequency:   17.1570617197
  - # 19
    frequency:   17.7131027069
  - # 20
    frequency:   18.1730247851
  - # 21
    frequency:   18.1890694959
  - # 22
    frequency:   34.5547240981
  - # 23
    frequency:   38.5077400785
  - # 24
    frequency:   69.1581110209

- q-position: [    0.0707071,    0.0000000,    0.0000000 ]
  distance:    0.0259910
  band:
  - # 1
    frequency:   -2.8483422957
  - # 2
    frequency:   -2.1002642464
  - # 3
    frequency:   -1.0532308589
  - # 4
    frequency:   -0.4717358063
  - # 5
    frequency:    0.6636532890
  - # 6
    frequency:    1.3589901207
  - # 7
    frequency:    1.9204806462
  - # 8
    frequency:    4.5726065473
  - # 9
    frequency:    4.7133754308
  - # 10
    frequency:    5.1682808544
  - # 11
    frequency:    6.0669214888
  - # 12
    frequency:    6.2521995687
  - # 13
    frequency:    7.8097250119
  - # 14
    frequency:    7.9039559461
  - # 15
    frequency:    9.4954078197
  - # 16
    frequency:   10.8554261063
  - # 17
    frequency:   17.1151246595
  - # 18
    frequency:   17.1656394512
  - # 19
    frequency:   17.7109426535
  - # 20
    frequency:   18.1786356886
  - # 21
    frequency:   18.1967480230
  - # 22
    frequency:   34.5480458233
  - # 23
    frequency:   38.5077132845
  - # 24
    frequency:   69.1191532212

- q-position: [    0.0757576,    0.0000000,    0.0000000 ]
  distance:    0.0278475
  band:
  - # 1
    frequency:   -2.8019084768
  - # 2
    frequency:   -1.9366743740
  - # 3
    frequency:   -1.0306273612
  - # 4
    frequency:   -0.2300690784
  - # 5
    frequency:    0.7418426777
  - # 6
    frequency:    1.4514502475
  - # 7
    frequency:    2.0670806649
  - # 8
    frequency:    4.5882286772
  - # 9
    frequency:    4.7327363577
  - # 10
    frequency:    5.1885241150
  - # 11
    frequency:    6.0766962834
  - # 12
    frequency:    6.2834291411
  - # 13
    frequency:    7.8200599670
  - # 14
    frequency:    7.9277155281
  - # 15
    frequency:    9.4909056386
  - # 16
    frequency:   10.8735016344
  - # 17
    frequency:   17.1172532342
  - # 18
    frequency:   17.1746982592
  - # 19
    frequency:   17.7084044056
  - # 20
    frequency:   18.1840624969
  - # 21
    frequency:   18.2042463972
  - # 22
    frequency:   34.5409434113
  - # 23
    frequency:   38.5076740258
  - # 24
    frequency:   69.0778660545

- q-position: [    0.0808081,    0.0000000,    0.0000000 ]
  distance:    0.0297040
  band:
  - # 1
    frequency:   -2.7536108466
  - # 2
    frequency:   -1.7608720167
  - # 3
    frequency:   -1.0063833492
  - # 4
    frequency:    0.3544146563
  - # 5
    frequency:    0.8256783616
  - # 6
    frequency:    1.5428901160
  - # 7
    frequency:    2.2153727222
  - # 8
    frequency:    4.6041185556
  - # 9
    frequency:    4.7487036498
  - # 10
    frequency:    5.2145150343
  - # 11
    frequency:    6.0872564382
  - # 12
    frequency:    6.3159545316
  - # 13
    frequency:    7.8309090697
  - # 14
    frequency:    7.9527086498
  - # 15
    frequency:    9.4863022646
  - # 16
    frequency:   10.8920155277
  - # 17
    frequency:   17.1194989621
  - # 18
    frequency:   17.1842085186
  - # 19
    frequency:   17.7054545276
  - # 20
    frequency:   18.1891996376
  - # 21
    frequency:   18.2114308237
  - # 22
    frequency:   34.5334310851
  - # 23
    frequency:   38.5076204984
  - # 24
    frequency:   69.0343596574

- q-position: [    0.0858586,    0.0000000,    0.0000000 ]
  distance:    0.0315605
  band:
  - # 1
    frequency:   -2.7037327502
  - # 2
    frequency:   -1.5722250218
  - # 3
    frequency:   -0.9803834455
  - # 4
    frequency:    0.5605461393
  - # 5
    frequency:    0.9156953973
  - # 6
    frequency:    1.6332812530
  - # 7
    frequency:    2.3649812381
  - # 8
    frequency:    4.6201504709
  - # 9
    frequency:    4.7613993103
  - # 10
    frequency:    5.2459921756
  - # 11
    frequency:    6.0986047545
  - # 12
    frequency:    6.3497538307
  - # 13
    frequency:    7.8422337371
  - # 14
    frequency:    7.9788380785
  - # 15
    frequency:    9.4816545590
  - # 16
    frequency:   10.9108269572
  - # 17
    frequency:   17.1218557996
  - # 18
    frequency:   17.1941396161
  - # 19
    frequency:   17.7020605850
  - # 20
    frequency:   18.1939413916
  - # 21
    frequency:   18.2181674975
  - # 22
    frequency:   34.5255237533
  - # 23
    frequency:   38.5075509151
  - # 24
    frequency:   68.9887487725

- q-position: [    0.0909091,    0.0000000,    0.0000000 ]
  distance:    0.0334170
  band:
  - # 1
    frequency:   -2.6525772887
  - # 2
    frequency:   -1.3696841206
  - # 3
    frequency:   -0.9524898402
  - # 4
    frequency:    0.7180057627
  - # 5
    frequency:    1.0123148449
  - # 6
    frequency:    1.7226022241
  - # 7
    frequency:    2.5153457873
  - # 8
    frequency:    4.6362025527
  - # 9
    frequency:    4.7712759953
  - # 10
    frequency:    5.2823668524
  - # 11
    frequency:    6.1107389682
  - # 12
    frequency:    6.3848147143
  - # 13
    frequency:    7.8539932478
  - # 14
    frequency:    8.0059981623
  - # 15
    frequency:    9.4770268071
  - # 16
    frequency:   10.9297922223
  - # 17
    frequency:   17.1243173601
  - # 18
    frequency:   17.2044601025
  - # 19
    frequency:   17.6981914776
  - # 20
    frequency:   18.1981829974
  - # 21
    frequency:   18.2243242379
  - # 22
    frequency:   34.5172369572
  - # 23
    frequency:   38.5074635290
  - # 24
    frequency:   68.9411522165

- q-position: [    0.0959596,    0.0000000,    0.0000000 ]
  distance:    0.0352735
  band:
  - # 1
    frequency:   -2.6004659445
  - # 2
    frequency:   -1.1512951957
  - # 3
    frequency:   -0.9225372882
  - # 4
    frequency:    0.8564657552
  - # 5
    frequency:    1.1160444229
  - # 6
    frequency:    1.8108355525
  - # 7
    frequency:    2.6657346655
  - # 8
    frequency:    4.6521587254
  - # 9
    frequency:    4.7789882156
  - # 10
    frequency:    5.3228606407
  - # 11
    frequency:    6.1236512862
  - # 12
    frequency:    6.4211295844
  - # 13
    frequency:    7.8661448391
  - # 14
    frequency:    8.0340755288
  - # 15
    frequency:    9.4724908867
  - # 16
    frequency:   10.9487657124
  - # 17
    frequency:   17.1268769458
  - # 18
    frequency:   17.2151378359
  - # 19
    frequency:   17.6938177683
  - # 20
    frequency:   18.2018217399
  - # 21
    frequency:   18.2297721087
  - # 22
    frequency:   34.5085868159
  - # 23
    frequency:   38.5073566564
  - # 24
    frequency:   68.8916923342

- q-position: [    0.1010101,    0.0000000,    0.0000000 ]
  distance:    0.0371300
  band:
  - # 1
    frequency:   -2.5477366587
  - # 2
    frequency:   -0.9121763041
  - # 3
    frequency:   -0.8903256670
  - # 4
    frequency:    0.9856315147
  - # 5
    frequency:    1.2277401281
  - # 6
    frequency:    1.8979647803
  - # 7
    frequency:    2.8152828646
  - # 8
    frequency:    4.6679105476
  - # 9
    frequency:    4.7852656969
  - # 10
    frequency:    5.3666418018
  - # 11
    frequency:    6.1373280683
  - # 12
    frequency:    6.4586902037
  - # 13
    frequency:    7.8786438312
  - # 14
    frequency:    8.0629500722
  - # 15
    frequency:    9.4681262410
  - # 16
    frequency:   10.9676008726
  - # 17
    frequency:   17.1295275832
  - # 18
    frequency:   17.2261401121
  - # 19
    frequency:   17.6889120136
  - # 20
    frequency:   18.2047580168
  - # 21
    frequency:   18.2343870054
  - # 22
    frequency:   34.4995899703
  - # 23
    frequency:   38.5072286994
  - # 24
    frequency:   68.8404944423

- q-position: [    0.1060606,    0.0000000,    0.0000000 ]
  distance:    0.0389865
  band:
  - # 1
    frequency:   -2.4947413403
  - # 2
    frequency:   -0.8556091023
  - # 3
    frequency:   -0.6351184007
  - # 4
    frequency:    1.1083923400
  - # 5
    frequency:    1.3482421151
  - # 6
    frequency:    1.9839718466
  - # 7
    frequency:    2.9630446554
  - # 8
    frequency:    4.6833588802
  - # 9
    frequency:    4.7908286976
  - # 10
    frequency:    5.4129207666
  - # 11
    frequency:    6.1517496752
  - # 12
    frequency:    6.4974820121
  - # 13
    frequency:    7.8914437849
  - # 14
    frequency:    8.0924962573
  - # 15
    frequency:    9.4640196000
  - # 16
    frequency:   10.9861511681
  - # 17
    frequency:   17.1322620620
  - # 18
    frequency:   17.2374337759
  - # 19
    frequency:   17.6834490973
  - # 20
    frequency:   18.2068963703
  - # 21
    frequency:   18.2380511912
  - # 22
    frequency:   34.4902635263
  - # 23
    frequency:   38.5070781688
  - # 24
    frequency:   68.7876862648

- q-position: [    0.1111111,    0.0000000,    0.0000000 ]
  distance:    0.0408430
  band:
  - # 1
    frequency:   -2.4418428095
  - # 2
    frequency:   -0.8180799394
  - # 3
    frequency:   -0.1947996143
  - # 4
    frequency:    1.2243676691
  - # 5
    frequency:    1.4768846111
  - # 6
    frequency:    2.0688349275
  - # 7
    frequency:    3.1080471231
  - # 8
    frequency:    4.6984153328
  - # 9
    frequency:    4.7963496480
  - # 10
    frequency:    5.4610001517
  - # 11
    frequency:    6.1668904964
  - # 12
    frequency:    6.5374783891
  - # 13
    frequency:    7.9044966949
  - # 14
    frequency:    8.1225847739
  - # 15
    frequency:    9.4602643881
  - # 16
    frequency:   11.0042710408
  - # 17
    frequency:   17.1350729770
  - # 18
    frequency:   17.2489853064
  - # 19
    frequency:   17.6774065755
  - # 20
    frequency:   18.2081464768
  - # 21
    frequency:   18.2406547665
  - # 22
    frequency:   34.4806249971
  - # 23
    frequency:   38.5069037049
  - # 24
    frequency:   68.7333973662

- q-position: [    0.1161616,    0.0000000,    0.0000000 ]
  distance:    0.0426995
  band:
  - # 1
    frequency:   -2.3894112041
  - # 2
    frequency:   -0.7773444946
  - # 3
    frequency:    0.5247969334
  - # 4
    frequency:    1.3330135995
  - # 5
    frequency:    1.6104388928
  - # 6
    frequency:    2.1525268492
  - # 7
    frequency:    3.2493328933
  - # 8
    frequency:    4.7130034484
  - # 9
    frequency:    4.8024474905
  - # 10
    frequency:    5.5102925578
  - # 11
    frequency:    6.1827191643
  - # 12
    frequency:    6.5786352058
  - # 13
    frequency:    7.9177532236
  - # 14
    frequency:    8.1530845738
  - # 15
    frequency:    9.4569597508
  - # 16
    frequency:   11.0218168522
  - # 17
    frequency:   17.1379527711
  - # 18
    frequency:   17.2607608671
  - # 19
    frequency:   17.6707650356
  - # 20
    frequency:   18.2084240874
  - # 21
    frequency:   18.2420970598
  - # 22
    frequency:   34.4706922445
  - # 23
    frequency:   38.5067040984
  - # 24
    frequency:   68.6777585826

- q-position: [    0.1212121,    0.0000000,    0.0000000 ]
  distance:    0.0445560
  band:
  - # 1
    frequency:   -2.3378199010
  - # 2
    frequency:   -0.7328849001
  - # 3
    frequency:    0.7432344923
  - # 4
    frequency:    1.4349976342
  - # 5
    frequency:    1.7444658667
  - # 6
    frequency:    2.2350141489
  - # 7
    frequency:    3.3859860669
  - # 8
    frequency:    4.7270596029
  - # 9
    frequency:    4.8096993540
  - # 10
    frequency:    5.5603208219
  - # 11
    frequency:    6.1991989477
  - # 12
    frequency:    6.6208860683
  - # 13
    frequency:    7.9311629750
  - # 14
    frequency:    8.1838653188
  - # 15
    frequency:    9.4542091366
  - # 16
    frequency:   11.0386478075
  - # 17
    frequency:   17.1408937813
  - # 18
    frequency:   17.2727263042
  - # 19
    frequency:   17.6635084814
  - # 20
    frequency:   18.2076519089
  - # 21
    frequency:   18.2422879285
  - # 22
    frequency:   34.4604834212
  - # 23
    frequency:   38.5064783087
  - # 24
    frequency:   68.6209014575

- q-position: [    0.1262626,    0.0000000,    0.0000000 ]
  distance:    0.0464125
  band:
  - # 1
    frequency:   -2.2874410166
  - # 2
    frequency:   -0.6839958479
  - # 3
    frequency:    0.8985790416
  - # 4
    frequency:    1.5316064874
  - # 5
    frequency:    1.8754227120
  - # 6
    frequency:    2.3162568066
  - # 7
    frequency:    3.5171417538
  - # 8
    frequency:    4.7405336080
  - # 9
    frequency:    4.8186584916
  - # 10
    frequency:    5.6107105332
  - # 11
    frequency:    6.2162883114
  - # 12
    frequency:    6.6641386748
  - # 13
    frequency:    7.9446748087
  - # 14
    frequency:    8.2148002514
  - # 15
    frequency:    9.4521183776
  - # 16
    frequency:   11.0546268562
  - # 17
    frequency:   17.1438882845
  - # 18
    frequency:   17.2848470736
  - # 19
    frequency:   17.6556247588
  - # 20
    frequency:   18.2057604212
  - # 21
    frequency:   18.2411489615
  - # 22
    frequency:   34.4500169119
  - # 23
    frequency:   38.5062254824
  - # 24
    frequency:   68.5629576833

- q-position: [    0.1313131,    0.0000000,    0.0000000 ]
  distance:    0.0482690
  band:
  - # 1
    frequency:   -2.2386405627
  - # 2
    frequency:   -0.6296723661
  - # 3
    frequency:    1.0253576074
  - # 4
    frequency:    1.6240243186
  - # 5
    frequency:    2.0013574759
  - # 6
    frequency:    2.3962086246
  - # 7
    frequency:    3.6419843906
  - # 8
    frequency:    4.7533890241
  - # 9
    frequency:    4.8298712865
  - # 10
    frequency:    5.6611797875
  - # 11
    frequency:    6.2339416141
  - # 12
    frequency:    6.7082726734
  - # 13
    frequency:    7.9582371913
  - # 14
    frequency:    8.2457694753
  - # 15
    frequency:    9.4507932336
  - # 16
    frequency:   11.0696215637
  - # 17
    frequency:   17.1469285445
  - # 18
    frequency:   17.2970880625
  - # 19
    frequency:   17.6471060496
  - # 20
    frequency:   18.2026886231
  - # 21
    frequency:   18.2386145757
  - # 22
    frequency:   34.4393112764
  - # 23
    frequency:   38.5059449682
  - # 24
    frequency:   68.5040585529

- q-position: [    0.1363636,    0.0000000,    0.0000000 ]
  distance:    0.0501255
  band:
  - # 1
    frequency:   -2.1917733356
  - # 2
    frequency:   -0.5683920749
  - # 3
    frequency:    1.1364408677
  - # 4
    frequency:    1.7131240955
  - # 5
    frequency:    2.1215368127
  - # 6
    frequency:    2.4748181803
  - # 7