nqpoint: 300    
npath: 3      
segment_nqpoint:
- 100
- 100
- 100
labels:
- [ 'G', 'M' ]
- [ 'M', 'K' ]
- [ 'K', 'G' ]
reciprocal_lattice:
- [   0.32028627,   0.18491736,   0.00000000 ] # a*
- [   0.00000000,   0.36983472,   0.00000000 ] # b*
- [   0.00000000,   0.00000000,   0.03340635 ] # c*
natom: 8      
lattice:
- [     3.122206932308586,     0.000000000000000,     0.000000000000000 ] # a
- [    -1.561103466154293,     2.703910519251039,     0.000000000000000 ] # b
- [     0.000000000000000,     0.000000000000000,    29.934432135318943 ] # c
points:
- symbol: C # 1
  coordinates: [  0.000000000000000,  0.000000000000000,  0.475490839397081 ]
  mass: 12.010700
- symbol: C # 2
  coordinates: [  0.666666984744047,  0.333332985985145,  0.352341761577150 ]
  mass: 12.010700
- symbol: Cl # 3
  coordinates: [  0.333332985432215,  0.666666983183674,  0.699342885165972 ]
  mass: 35.453000
- symbol: N # 4
  coordinates: [  0.666666984744047,  0.333332985985145,  0.394461731807421 ]
  mass: 14.006700
- symbol: O # 5
  coordinates: [  0.333332985432215,  0.666666983183674,  0.548930528838412 ]
  mass: 15.999400
- symbol: S # 6
  coordinates: [  0.666666984744047,  0.333332985985145,  0.300657114834028 ]
  mass: 32.065000
- symbol: Ti # 7
  coordinates: [  0.333332985432215,  0.666666983183674,  0.436636034541404 ]
  mass: 47.867000
- symbol: Ti # 8
  coordinates: [  0.666666984744047,  0.333332985985145,  0.519915055779456 ]
  mass: 47.867000

phonon:
- q-position: [    0.0000000,    0.0000000,    0.0000000 ]
  distance:    0.0000000
  band:
  - # 1
    frequency:   -1.1154119555
  - # 2
    frequency:   -1.1154119555
  - # 3
    frequency:   -0.3268008240
  - # 4
    frequency:   -0.0968897198
  - # 5
    frequency:   -0.0968897198
  - # 6
    frequency:   -0.0000001740
  - # 7
    frequency:   -0.0000001237
  - # 8
    frequency:    0.0000012663
  - # 9
    frequency:    1.5141123028
  - # 10
    frequency:    1.5141123028
  - # 11
    frequency:    5.6386400052
  - # 12
    frequency:    5.6386400052
  - # 13
    frequency:    6.2996440902
  - # 14
    frequency:    7.7657709165
  - # 15
    frequency:    7.7657709165
  - # 16
    frequency:   10.4346364266
  - # 17
    frequency:   13.0900978063
  - # 18
    frequency:   13.0900978063
  - # 19
    frequency:   14.9806680161
  - # 20
    frequency:   14.9806680161
  - # 21
    frequency:   15.4521350927
  - # 22
    frequency:   19.5594491630
  - # 23
    frequency:   27.1306232658
  - # 24
    frequency:   55.5640375383

- q-position: [    0.0050505,    0.0000000,    0.0000000 ]
  distance:    0.0018679
  band:
  - # 1
    frequency:   -1.1337368985
  - # 2
    frequency:   -1.0996239315
  - # 3
    frequency:   -0.3258282133
  - # 4
    frequency:   -0.2039221723
  - # 5
    frequency:   -0.1527269040
  - # 6
    frequency:   -0.1477814881
  - # 7
    frequency:    0.1593622014
  - # 8
    frequency:    0.2911716010
  - # 9
    frequency:    1.5187271679
  - # 10
    frequency:    1.5244196064
  - # 11
    frequency:    5.6412542081
  - # 12
    frequency:    5.6414839884
  - # 13
    frequency:    6.2997251672
  - # 14
    frequency:    7.7657188099
  - # 15
    frequency:    7.7667387256
  - # 16
    frequency:   10.4339440134
  - # 17
    frequency:   13.0899940564
  - # 18
    frequency:   13.0903770627
  - # 19
    frequency:   14.9806023888
  - # 20
    frequency:   14.9809225648
  - # 21
    frequency:   15.4520269345
  - # 22
    frequency:   19.5588177697
  - # 23
    frequency:   27.1303785531
  - # 24
    frequency:   55.5635222827

- q-position: [    0.0101010,    0.0000000,    0.0000000 ]
  distance:    0.0037357
  band:
  - # 1
    frequency:   -1.1802280267
  - # 2
    frequency:   -1.0526995782
  - # 3
    frequency:   -0.3751615588
  - # 4
    frequency:   -0.3155650881
  - # 5
    frequency:   -0.2505540419
  - # 6
    frequency:   -0.1000914990
  - # 7
    frequency:    0.3265794390
  - # 8
    frequency:    0.4878999900
  - # 9
    frequency:    1.5329900242
  - # 10
    frequency:    1.5548096255
  - # 11
    frequency:    5.6490358117
  - # 12
    frequency:    5.6500411046
  - # 13
    frequency:    6.2999877763
  - # 14
    frequency:    7.7655638219
  - # 15
    frequency:    7.7696358913
  - # 16
    frequency:   10.4318676345
  - # 17
    frequency:   13.0896841061
  - # 18
    frequency:   13.0912161864
  - # 19
    frequency:   14.9804061466
  - # 20
    frequency:   14.9816829550
  - # 21
    frequency:   15.4517036901
  - # 22
    frequency:   19.5569247123
  - # 23
    frequency:   27.1296450285
  - # 24
    frequency:   55.5619757667

- q-position: [    0.0151515,    0.0000000,    0.0000000 ]
  distance:    0.0056036
  band:
  - # 1
    frequency:   -1.2398759288
  - # 2
    frequency:   -0.9759836345
  - # 3
    frequency:   -0.5521653546
  - # 4
    frequency:   -0.3619991057
  - # 5
    frequency:   -0.3001231202
  - # 6
    frequency:    0.1717442517
  - # 7
    frequency:    0.4962712642
  - # 8
    frequency:    0.6654005589
  - # 9
    frequency:    1.5582564748
  - # 10
    frequency:    1.6038015780
  - # 11
    frequency:    5.6618027528
  - # 12
    frequency:    5.6643861028
  - # 13
    frequency:    6.3004907010
  - # 14
    frequency:    7.7653100009
  - # 15
    frequency:    7.7744436930
  - # 16
    frequency:   10.4284098904
  - # 17
    frequency:   13.0891718430
  - # 18
    frequency:   13.0926192054
  - # 19
    frequency:   14.9800811998
  - # 20
    frequency:   14.9829394446
  - # 21
    frequency:   15.4511690511
  - # 22
    frequency:   19.5537733793
  - # 23
    frequency:   27.1284245308
  - # 24
    frequency:   55.5593957559

- q-position: [    0.0202020,    0.0000000,    0.0000000 ]
  distance:    0.0074714
  band:
  - # 1
    frequency:   -1.3023277414
  - # 2
    frequency:   -0.8713049968
  - # 3
    frequency:   -0.7306677306
  - # 4
    frequency:   -0.4755687197
  - # 5
    frequency:   -0.2813776570
  - # 6
    frequency:    0.3028620152
  - # 7
    frequency:    0.6681224969
  - # 8
    frequency:    0.8264794744
  - # 9
    frequency:    1.5971060264
  - # 10
    frequency:    1.6692653538
  - # 11
    frequency:    5.6792546414
  - # 12
    frequency:    5.6846409463
  - # 13
    frequency:    6.3013340947
  - # 14
    frequency:    7.7649642742
  - # 15
    frequency:    7.7811311382
  - # 16
    frequency:   10.4235751778
  - # 17
    frequency:   13.0884637090
  - # 18
    frequency:   13.0945927169
  - # 19
    frequency:   14.9796307029
  - # 20
    frequency:   14.9846758817
  - # 21
    frequency:   15.4504291717
  - # 22
    frequency:   19.5493694905
  - # 23
    frequency:   27.1267201216
  - # 24
    frequency:   55.5557785722

- q-position: [    0.0252525,    0.0000000,    0.0000000 ]
  distance:    0.0093393
  band:
  - # 1
    frequency:   -1.3623603630
  - # 2
    frequency:   -0.9089451379
  - # 3
    frequency:   -0.7386127323
  - # 4
    frequency:   -0.5895938491
  - # 5
    frequency:   -0.2593005573
  - # 6
    frequency:    0.4167748077
  - # 7
    frequency:    0.8372684084
  - # 8
    frequency:    0.9743917672
  - # 9
    frequency:    1.6536574058
  - # 10
    frequency:    1.7487946850
  - # 11
    frequency:    5.7009769427
  - # 12
    frequency:    5.7109704791
  - # 13
    frequency:    6.3026627753
  - # 14
    frequency:    7.7645367296
  - # 15
    frequency:    7.7896552715
  - # 16
    frequency:   10.4173697843
  - # 17
    frequency:   13.0875686460
  - # 18
    frequency:   13.0971457179
  - # 19
    frequency:   14.9790590100
  - # 20
    frequency:   14.9868698283
  - # 21
    frequency:   15.4494926692
  - # 22
    frequency:   19.5437212022
  - # 23
    frequency:   27.1245360806
  - # 24
    frequency:   55.5511191604

- q-position: [    0.0303030,    0.0000000,    0.0000000 ]
  distance:    0.0112071
  band:
  - # 1
    frequency:   -1.4175851992
  - # 2
    frequency:   -1.0863599571
  - # 3
    frequency:   -0.7035268491
  - # 4
    frequency:   -0.5687899360
  - # 5
    frequency:   -0.2318803536
  - # 6
    frequency:    0.5222004756
  - # 7
    frequency:    0.9946600635
  - # 8
    frequency:    1.1120369195
  - # 9
    frequency:    1.7332372779
  - # 10
    frequency:    1.8400337983
  - # 11
    frequency:    5.7264462141
  - # 12
    frequency:    5.7435755694
  - # 13
    frequency:    6.3046707674
  - # 14
    frequency:    7.7640410330
  - # 15
    frequency:    7.7999615958
  - # 16
    frequency:   10.4098020216
  - # 17
    frequency:   13.0864980213
  - # 18
    frequency:   13.1002893751
  - # 19
    frequency:   14.9783716132
  - # 20
    frequency:   14.9894927268
  - # 21
    frequency:   15.4483706191
  - # 22
    frequency:   19.5368392485
  - # 23
    frequency:   27.1218778993
  - # 24
    frequency:   55.5454111828

- q-position: [    0.0353535,    0.0000000,    0.0000000 ]
  distance:    0.0130750
  band:
  - # 1
    frequency:   -1.4669512515
  - # 2
    frequency:   -1.2625039459
  - # 3
    frequency:   -0.8167724941
  - # 4
    frequency:   -0.3129668234
  - # 5
    frequency:   -0.1959070130
  - # 6
    frequency:    0.6215035238
  - # 7
    frequency:    1.1310806156
  - # 8
    frequency:    1.2415687683
  - # 9
    frequency:    1.8400768489
  - # 10
    frequency:    1.9408818375
  - # 11
    frequency:    5.7550362085
  - # 12
    frequency:    5.7826830176
  - # 13
    frequency:    6.3076067015
  - # 14
    frequency:    7.7634950124
  - # 15
    frequency:    7.8119846056
  - # 16
    frequency:   10.4008824000
  - # 17
    frequency:   13.0852655345
  - # 18
    frequency:   13.1040367419
  - # 19
    frequency:   14.9775750611
  - # 20
    frequency:   14.9925101015
  - # 21
    frequency:   15.4470765431
  - # 22
    frequency:   19.5287371152
  - # 23
    frequency:   27.1187522716
  - # 24
    frequency:   55.5386471375

- q-position: [    0.0404040,    0.0000000,    0.0000000 ]
  distance:    0.0149428
  band:
  - # 1
    frequency:   -1.5100432896
  - # 2
    frequency:   -1.4370365169
  - # 3
    frequency:   -0.9292088897
  - # 4
    frequency:   -0.1442689500
  - # 5
    frequency:    0.3623176061
  - # 6
    frequency:    0.7155725253
  - # 7
    frequency:    1.2430303828
  - # 8
    frequency:    1.3644854266
  - # 9
    frequency:    1.9733979411
  - # 10
    frequency:    2.0495640838
  - # 11
    frequency:    5.7860253217
  - # 12
    frequency:    5.8285314507
  - # 13
    frequency:    6.3117789707
  - # 14
    frequency:    7.7629214488
  - # 15
    frequency:    7.8256484294
  - # 16
    frequency:   10.3906238428
  - # 17
    frequency:   13.0838871090
  - # 18
    frequency:   13.1084024325
  - # 19
    frequency:   14.9766768606
  - # 20
    frequency:   14.9958817908
  - # 21
    frequency:   15.4456263821
  - # 22
    frequency:   19.5194312368
  - # 23
    frequency:   27.1151670830
  - # 24
    frequency:   55.5308185016

- q-position: [    0.0454545,    0.0000000,    0.0000000 ]
  distance:    0.0168107
  band:
  - # 1
    frequency:   -1.6098291274
  - # 2
    frequency:   -1.5465680946
  - # 3
    frequency:   -1.0406072690
  - # 4
    frequency:   -0.0297862823
  - # 5
    frequency:    0.6040114327
  - # 6
    frequency:    0.8046899027
  - # 7
    frequency:    1.3344202578
  - # 8
    frequency:    1.4818337924
  - # 9
    frequency:    2.1264599611
  - # 10
    frequency:    2.1646072084
  - # 11
    frequency:    5.8186072386
  - # 12
    frequency:    5.8813525386
  - # 13
    frequency:    6.3175581963
  - # 14
    frequency:    7.7623491408
  - # 15
    frequency:    7.8408675912
  - # 16
    frequency:   10.3790419448
  - # 17
    frequency:   13.0823807697
  - # 18
    frequency:   13.1134022607
  - # 19
    frequency:   14.9756853591
  - # 20
    frequency:   14.9995622001
  - # 21
    frequency:   15.4440384514
  - # 22
    frequency:   19.5089412107
  - # 23
    frequency:   27.1111313973
  - # 24
    frequency:   55.5219158975

- q-position: [    0.0505051,    0.0000000,    0.0000000 ]
  distance:    0.0186785
  band:
  - # 1
    frequency:   -1.7803559969
  - # 2
    frequency:   -1.5768009989
  - # 3
    frequency:   -1.1507865805
  - # 4
    frequency:    0.1467900492
  - # 5
    frequency:    0.7760699837
  - # 6
    frequency:    0.8888101802
  - # 7
    frequency:    1.4125942211
  - # 8
    frequency:    1.5943975892
  - # 9
    frequency:    2.2847709309
  - # 10
    frequency:    2.2903443408
  - # 11
    frequency:    5.8519088850
  - # 12
    frequency:    5.9413472142
  - # 13
    frequency:    6.3253723698
  - # 14
    frequency:    7.7618143382
  - # 15
    frequency:    7.8575479038
  - # 16
    frequency:   10.3661552723
  - # 17
    frequency:   13.0807665089
  - # 18
    frequency:   13.1190528559
  - # 19
    frequency:   14.9746096089
  - # 20
    frequency:   15.0035005718
  - # 21
    frequency:   15.4423333714
  - # 22
    frequency:   19.4972900171
  - # 23
    frequency:   27.1066554396
  - # 24
    frequency:   55.5119292798

- q-position: [    0.0555556,    0.0000000,    0.0000000 ]
  distance:    0.0205464
  band:
  - # 1
    frequency:   -1.9485375394
  - # 2
    frequency:   -1.6006714113
  - # 3
    frequency:   -1.2595840696
  - # 4
    frequency:    0.2159219951
  - # 5
    frequency:    0.9173765508
  - # 6
    frequency:    0.9676815582
  - # 7
    frequency:    1.4843025272
  - # 8
    frequency:    1.7028310129
  - # 9
    frequency:    2.4089772920
  - # 10
    frequency:    2.4575735278
  - # 11
    frequency:    5.8850225482
  - # 12
    frequency:    6.0086572342
  - # 13
    frequency:    6.3356873906
  - # 14
    frequency:    7.7613626910
  - # 15
    frequency:    7.8755875173
  - # 16
    frequency:   10.3519857072
  - # 17
    frequency:   13.0790661449
  - # 18
    frequency:   13.1253712652
  - # 19
    frequency:   14.9734592146
  - # 20
    frequency:   15.0076412650
  - # 21
    frequency:   15.4405339701
  - # 22
    frequency:   19.4845042367
  - # 23
    frequency:   27.1017505777
  - # 24
    frequency:   55.5008481422

- q-position: [    0.0606061,    0.0000000,    0.0000000 ]
  distance:    0.0224142
  band:
  - # 1
    frequency:   -2.1141119171
  - # 2
    frequency:   -1.6183642527
  - # 3
    frequency:   -1.3668483795
  - # 4
    frequency:    0.2728806428
  - # 5
    frequency:    1.0388837924
  - # 6
    frequency:    1.0409140070
  - # 7
    frequency:    1.5544380045
  - # 8
    frequency:    1.8077352422
  - # 9
    frequency:    2.5362578152
  - # 10
    frequency:    2.6230173070
  - # 11
    frequency:    5.9170604668
  - # 12
    frequency:    6.0833333338
  - # 13
    frequency:    6.3489643971
  - # 14
    frequency:    7.7610519369
  - # 15
    frequency:    7.8948781448
  - # 16
    frequency:   10.3365588333
  - # 17
    frequency:   13.0773031729
  - # 18
    frequency:   13.1323745525
  - # 19
    frequency:   14.9722441631
  - # 20
    frequency:   15.0119240412
  - # 21
    frequency:   15.4386651561
  - # 22
    frequency:   19.4706142514
  - # 23
    frequency:   27.0964292991
  - # 24
    frequency:   55.4886617418

- q-position: [    0.0656566,    0.0000000,    0.0000000 ]
  distance:    0.0242821
  band:
  - # 1
    frequency:   -2.2768489356
  - # 2
    frequency:   -1.6301031675
  - # 3
    frequency:   -1.4724363670
  - # 4
    frequency:    0.3243402230
  - # 5
    frequency:    1.1080284860
  - # 6
    frequency:    1.1451126206
  - # 7
    frequency:    1.6261798029
  - # 8
    frequency:    1.9096897651
  - # 9
    frequency:    2.6657214127
  - # 10
    frequency:    2.7834244267
  - # 11
    frequency:    5.9472363031
  - # 12
    frequency:    6.1653022517
  - # 13
    frequency:    6.3655892912
  - # 14
    frequency:    7.7609556734
  - # 15
    frequency:    7.9153064885
  - # 16
    frequency:   10.3199043623
  - # 17
    frequency:   13.0755026132
  - # 18
    frequency:   13.1400794033
  - # 19
    frequency:   14.9709746406
  - # 20
    frequency:   15.0162843516
  - # 21
    frequency:   15.4367537614
  - # 22
    frequency:   19.4556544194
  - # 23
    frequency:   27.0907051852
  - # 24
    frequency:   55.4753593388

- q-position: [    0.0707071,    0.0000000,    0.0000000 ]
  distance:    0.0261499
  band:
  - # 1
    frequency:   -2.4365278784
  - # 2
    frequency:   -1.6361862984
  - # 3
    frequency:   -1.5762114433
  - # 4
    frequency:    0.3727544129
  - # 5
    frequency:    1.1685017686
  - # 6
    frequency:    1.2385064602
  - # 7
    frequency:    1.7012877808
  - # 8
    frequency:    2.0092545530
  - # 9
    frequency:    2.7965371444
  - # 10
    frequency:    2.9368097582
  - # 11
    frequency:    5.9749646398
  - # 12
    frequency:    6.2543356847
  - # 13
    frequency:    6.3857832311
  - # 14
    frequency:    7.7611687614
  - # 15
    frequency:    7.9367558738
  - # 16
    frequency:   10.3020565987
  - # 17
    frequency:   13.0736908559
  - # 18
    frequency:   13.1485017432
  - # 19
    frequency:   14.9696608359
  - # 20
    frequency:   15.0206536232
  - # 21
    frequency:   15.4348283604
  - # 22
    frequency:   19.4396632094
  - # 23
    frequency:   27.0845928813
  - # 24
    frequency:   55.4609304493

- q-position: [    0.0757576,    0.0000000,    0.0000000 ]
  distance:    0.0280178
  band:
  - # 1
    frequency:   -2.5929356202
  - # 2
    frequency:   -1.6780426819
  - # 3
    frequency:   -1.6370168475
  - # 4
    frequency:    0.4193310326
  - # 5
    frequency:    1.2218142269
  - # 6
    frequency:    1.3209571781
  - # 7
    frequency:    1.7803056228
  - # 8
    frequency:    2.1069572812
  - # 9
    frequency:    2.9279245295
  - # 10
    frequency:    3.0820253696
  - # 11
    frequency:    5.9999501210
  - # 12
    frequency:    6.3500243034
  - # 13
    frequency:    6.4095224618
  - # 14
    frequency:    7.7618152405
  - # 15
    frequency:    7.9591080818
  - # 16
    frequency:   10.2830549378
  - # 17
    frequency:   13.0718955064
  - # 18
    frequency:   13.1576563771
  - # 19
    frequency:   14.9683127353
  - # 20
    frequency:   15.0249595382
  - # 21
    frequency:   15.4329190760
  - # 22
    frequency:   19.4226832837
  - # 23
    frequency:   27.0781080627
  - # 24
    frequency:   55.4453651093

- q-position: [    0.0808081,    0.0000000,    0.0000000 ]
  distance:    0.0298856
  band:
  - # 1
    frequency:   -2.7458662293
  - # 2
    frequency:   -1.7778043438
  - # 3
    frequency:   -1.6331495503
  - # 4
    frequency:    0.4647613255
  - # 5
    frequency:    1.2675055945
  - # 6
    frequency:    1.3943360744
  - # 7
    frequency:    1.8628237204
  - # 8
    frequency:    2.2032758481
  - # 9
    frequency:    3.0591462799
  - # 10
    frequency:    3.2184982876
  - # 11
    frequency:    6.0222283146
  - # 12
    frequency:    6.4365054407
  - # 13
    frequency:    6.4517588785
  - # 14
    frequency:    7.7630601974
  - # 15
    frequency:    7.9822453386
  - # 16
    frequency:   10.2629443914
  - # 17
    frequency:   13.0701452294
  - # 18
    frequency:   13.1675566530
  - # 19
    frequency:   14.9669399112
  - # 20
    frequency:   15.0291263023
  - # 21
    frequency:   15.4310573885
  - # 22
    frequency:   19.4047615170
  - # 23
    frequency:   27.0712673961
  - # 24
    frequency:   55.4286541455

- q-position: [    0.0858586,    0.0000000,    0.0000000 ]
  distance:    0.0317535
  band:
  - # 1
    frequency:   -2.8951209322
  - # 2
    frequency:   -1.8753756419
  - # 3
    frequency:   -1.6253593268
  - # 4
    frequency:    0.5094797820
  - # 5
    frequency:    1.3052440165
  - # 6
    frequency:    1.4605129416
  - # 7
    frequency:    1.9478658277
  - # 8
    frequency:    2.2986226824
  - # 9
    frequency:    3.1895010470
  - # 10
    frequency:    3.3460684835
  - # 11
    frequency:    6.0421375169
  - # 12
    frequency:    6.4661880732
  - # 13
    frequency:    6.5587180689
  - # 14
    frequency:    7.7651279930
  - # 15
    frequency:    8.0060523842
  - # 16
    frequency:   10.2417761362
  - # 17
    frequency:   13.0684695949
  - # 18
    frequency:   13.1782141541
  - # 19
    frequency:   14.9655513103
  - # 20
    frequency:   15.0330748929
  - # 21
    frequency:   15.4292759737
  - # 22
    frequency:   19.3859489404
  - # 23
    frequency:   27.0640884969
  - # 24
    frequency:   55.4107894531

- q-position: [    0.0909091,    0.0000000,    0.0000000 ]
  distance:    0.0336213
  band:
  - # 1
    frequency:   -3.0405082174
  - # 2
    frequency:   -1.9706406485
  - # 3
    frequency:   -1.6147393962
  - # 4
    frequency:    0.5537776950
  - # 5
    frequency:    1.3349158653
  - # 6
    frequency:    1.5211898729
  - # 7
    frequency:    2.0342776261
  - # 8
    frequency:    2.3933344074
  - # 9
    frequency:    3.3183156935
  - # 10
    frequency:    3.4648795508
  - # 11
    frequency:    6.0602363123
  - # 12
    frequency:    6.4978722369
  - # 13
    frequency:    6.6698585587
  - # 14
    frequency:    7.7683309096
  - # 15
    frequency:    8.0304185009
  - # 16
    frequency:   10.2196080768
  - # 17
    frequency:   13.0668989243
  - # 18
    frequency:   13.1896384192
  - # 19
    frequency:   14.9641550444
  - # 20
    frequency:   15.0367232798
  - # 21
    frequency:   15.4276085977
  - # 22
    frequency:   19.3663006017
  - # 23
    frequency:   27.0565898810
  - # 24
    frequency:   55.3917642753

- q-position: [    0.0959596,    0.0000000,    0.0000000 ]
  distance:    0.0354892
  band:
  - # 1
    frequency:   -3.1818440050
  - # 2
    frequency:   -2.0634882873
  - # 3
    frequency:   -1.6028356214
  - # 4
    frequency:    0.5978600759
  - # 5
    frequency:    1.3567466389
  - # 6
    frequency:    1.5777717996
  - # 7
    frequency:    2.1209847463
  - # 8
    frequency:    2.4876682293
  - # 9
    frequency:    3.4449376013
  - # 10
    frequency:    3.5752961651
  - # 11
    frequency:    6.0772051276
  - # 12
    frequency:    6.5308092356
  - # 13
    frequency:    6.7838981840
  - # 14
    frequency:    7.7731150755
  - # 15
    frequency:    8.0552393473
  - # 16
    frequency:   10.1965054161
  - # 17
    frequency:   13.0654641376
  - # 18
    frequency:   13.2018366917
  - # 19
    frequency:   14.9627581910
  - # 20
    frequency:   15.0399866069
  - # 21
    frequency:   15.4260901028
  - # 22
    frequency:   19.3458753336
  - # 23
    frequency:   27.0487909123
  - # 24
    frequency:   55.3715734824

- q-position: [    0.1010101,    0.0000000,    0.0000000 ]
  distance:    0.0373570
  band:
  - # 1
    frequency:   -3.3189518475
  - # 2
    frequency:   -2.1538123782
  - # 3
    frequency:   -1.5918169748
  - # 4
    frequency:    0.6418774067
  - # 5
    frequency:    1.3714634804
  - # 6
    frequency:    1.6313364470
  - # 7
    frequency:    2.2071004532
  - # 8
    frequency:    2.5818047296
  - # 9
    frequency:    3.5687279335
  - # 10
    frequency:    3.6778364842
  - # 11
    frequency:    6.0937648607
  - # 12
    frequency:    6.5642848168
  - # 13
    frequency:    6.8992767051
  - # 14
    frequency:    7.7801349348
  - # 15
    frequency:    8.0804184125
  - # 16
    frequency:   10.1725412278
  - # 17
    frequency:   13.0641965990
  - # 18
    frequency:   13.2148136937
  - # 19
    frequency:   14.9613666081
  - # 20
    frequency:   15.0427773299
  - # 21
    frequency:   15.4247565169
  - # 22
    frequency:   19.3247354261
  - # 23
    frequency:   27.0407117436
  - # 24
    frequency:   55.3502138489

- q-position: [    0.1060606,    0.0000000,    0.0000000 ]
  distance:    0.0392249
  band:
  - # 1
    frequency:   -3.4516631427
  - # 2
    frequency:   -2.2415117128
  - # 3
    frequency:   -1.5846602031
  - # 4
    frequency:    0.6859450790
  - # 5
    frequency:    1.3804998728
  - # 6
    frequency:    1.6826718871
  - # 7
    frequency:    2.2919367447
  - # 8
    frequency:    2.6758556107
  - # 9
    frequency:    3.6890569167
  - # 10
    frequency:    3.7731152212
  - # 11
    frequency:    6.1106248398
  - # 12
    frequency:    6.5976729655
  - # 13
    frequency:    7.0140729269
  - # 14
    frequency:    7.7903729682
  - # 15
    frequency:    8.1058678991
  - # 16
    frequency:   10.1477970242
  - # 17
    frequency:   13.0631279618
  - # 18
    frequency:   13.2285714219
  - # 19
    frequency:   14.9599847706
  - # 20
    frequency:   15.0450053101
  - # 21
    frequency:   15.4236453101
  - # 22
    frequency:   19.3029462010
  - # 23
    frequency:   27.0323732541
  - # 24
    frequency:   55.3276843231

- q-position: [    0.1111111,    0.0000000,    0.0000000 ]
  distance:    0.0410927
  band:
  - # 1
    frequency:   -3.5798173491
  - # 2
    frequency:   -2.3264901473
  - # 3
    frequency:   -1.5852782648
  - # 4
    frequency:    0.7301559888
  - # 5
    frequency:    1.3862093089
  - # 6
    frequency:    1.7323374976
  - # 7
    frequency:    2.3749748570
  - # 8
    frequency:    2.7698744171
  - # 9
    frequency:    3.8053022895
  - # 10
    frequency:    3.8617964528
  - # 11
    frequency:    6.1284553988
  - # 12
    frequency:    6.6304623747
  - # 13
    frequency:    7.1258573556
  - # 14
    frequency:    7.8053214343
  - # 15
    frequency:    8.1315088571
  - # 16
    frequency:   10.1223633177
  - # 17
    frequency:   13.0622900102
  - # 18
    frequency:   13.2431089603
  - # 19
    frequency:   14.9586156328
  - # 20
    frequency:   15.0465778800
  - # 21
    frequency:   15.4227958082
  - # 22
    frequency:   19.2805754910
  - # 23
    frequency:   27.0237969799
  - # 24
    frequency:   55.3039862898

- q-position: [    0.1161616,    0.0000000,    0.0000000 ]
  distance:    0.0429606
  band:
  - # 1
    frequency:   -3.7032621949
  - # 2
    frequency:   -2.4086567033
  - # 3
    frequency:   -1.5984462715
  - # 4
    frequency:    0.7745878086
  - # 5
    frequency:    1.3919841218
  - # 6
    frequency:    1.7807226559
  - # 7
    frequency:    2.4558274733
  - # 8
    frequency:    2.8638683108
  - # 9
    frequency:    3.9168521135
  - # 10
    frequency:    3.9445561232
  - # 11
    frequency:    6.1478739442
  - # 12
    frequency:    6.6622656291
  - # 13
    frequency:    7.2314944506
  - # 14
    frequency:    7.8272092546
  - # 15
    frequency:    8.1572704384
  - # 16
    frequency:   10.0963401760
  - # 17
    frequency:   13.0617144962
  - # 18
    frequency:   13.2584223049
  - # 19
    frequency:   14.9572605244
  - # 20
    frequency:   15.0473999152
  - # 21
    frequency:   15.4222497471
  - # 22
    frequency:   19.2576930298
  - # 23
    frequency:   27.0150050401
  - # 24
    frequency:   55.2791238194

- q-position: [    0.1212121,    0.0000000,    0.0000000 ]
  distance:    0.0448285
  band:
  - # 1
    frequency:   -3.8218538768
  - # 2
    frequency:   -2.4879256728
  - # 3
    frequency:   -1.6293263958
  - # 4
    frequency:    0.8193037867
  - # 5
    frequency:    1.4020878057
  - # 6
    frequency:    1.8280941066
  - # 7
    frequency:    2.5342055626
  - # 8
    frequency:    2.9578093953
  - # 9
    frequency:    4.0220539608
  - # 10
    frequency:    4.0231130989
  - # 11
    frequency:    6.1694341138
  - # 12
    frequency:    6.6928202581
  - # 13
    frequency:    7.3270571186
  - # 14
    frequency:    7.8591099992
  - # 15
    frequency:    8.1830882124
  - # 16
    frequency:   10.0698377729
  - # 17
    frequency:   13.0614329705
  - # 18
    frequency:   13.2745041939
  - # 19
    frequency:   14.9559190855
  - # 20
    frequency:   15.0473739755
  - # 21
    frequency:   15.4220519219
  - # 22
    frequency:   19.2343697637
  - # 23
    frequency:   27.0060200577
  - # 24
    frequency:   55.2531039041

- q-position: [    0.1262626,    0.0000000,    0.0000000 ]
  distance:    0.0466963
  band:
  - # 1
    frequency:   -3.9354572450
  - # 2
    frequency:   -2.5642167194
  - # 3
    frequency:   -1.6825011025
  - # 4
    frequency:    0.8643458922
  - # 5
    frequency:    1.4210120245
  - # 6
    frequency:    1.8746312716
  - # 7
    frequency:    2.6098929045
  - # 8
    frequency:    3.0516446536
  - # 9
    frequency:    4.0949139681
  - # 10
    frequency:    4.1235253061
  - # 11
    frequency:    6.1936107753
  - # 12
    frequency:    6.7219877817
  - # 13
    frequency:    7.4083420077
  - # 14
    frequency:    7.9044422534
  - # 15
    frequency:    8.2089015824
  - # 16
    frequency:   10.0429769419
  - # 17
    frequency:   13.0614766062
  - # 18
    frequency:   13.2913439405
  - # 19
    frequency:   14.9545892451
  - # 20
    frequency:   15.0464006015
  - # 21
    frequency:   15.4222508487
  - # 22
    frequency:   19.2106770998
  - # 23
    frequency:   26.9968650753
  - # 24
    frequency:   55.2259366761

- q-position: [    0.1313131,    0.0000000,    0.0000000 ]
  distance:    0.0485642
  band:
  - # 1
    frequency:   -4.0439459720
  - # 2
    frequency:   -2.6374549766
  - # 3
    frequency:   -1.7607926212
  - # 4
    frequency:    0.9097248889
  - # 5
    frequency:    1.4524227287
  - # 6
    frequency:    1.9204516168
  - # 7
    frequency:    2.6827276279
  - # 8
    frequency:    3.1453040716
  - # 9
    frequency:    4.1637121891
  - # 10
    frequency:    4.2175833858
  - # 11
    frequency:    6.2207768364
  - # 12
    frequency:    6.7497542292
  - # 13
    frequency:    7.4724900193
  - # 14
    frequency:    7.9653586240
  - # 15
    frequency:    8.2346504494
  - # 16
    frequency:   10.0158897352
  - # 17
    frequency:   13.0618760132
  - # 18
    frequency:   13.3089272633
  - # 19
    frequency:   14.9532672483
  - # 20
    frequency:   15.0443788733
  - # 21
    frequency:   15.4228993311
  - # 22
    frequency:   19.1866861112
  - # 23
    frequency:   26.9875634664
  - # 24
    frequency:   55.1976356067

- q-position: [    0.1363636,    0.0000000,    0.0000000 ]
  distance:    0.0504320
  band:
  - # 1
    frequency:   -4.1472027036
  - # 2
    frequency:   -2.7075711386
  - # 3
    frequency:   -1.8645192667
  - # 4
    frequency:    0.9554196296
  - # 5
    frequency:    1.4981866470
  - # 6
    frequency:    1.9656285987
  - # 7