nqpoint: 300    
npath: 3      
segment_nqpoint:
- 100
- 100
- 100
labels:
- [ 'G', 'M' ]
- [ 'M', 'K' ]
- [ 'K', 'G' ]
reciprocal_lattice:
- [   0.30566853,   0.17647781,   0.00000000 ] # a*
- [   0.00000000,   0.35295562,   0.00000000 ] # b*
- [   0.00000000,   0.00000000,   0.03690839 ] # c*
natom: 8      
lattice:
- [     3.271517683718619,     0.000000000000000,     0.000000000000000 ] # a
- [    -1.635758841859309,     2.833217423029112,     0.000000000000000 ] # b
- [     0.000000000000000,     0.000000000000000,    27.094109573442680 ] # c
points:
- symbol: C # 1
  coordinates: [  0.333332985432215,  0.666666983183674,  0.623424298456504 ]
  mass: 12.010700
- symbol: C # 2
  coordinates: [  0.666666984744047,  0.333332985985145,  0.376139935468618 ]
  mass: 12.010700
- symbol: N # 3
  coordinates: [  0.000000000000000,  0.000000000000000,  0.535009683725844 ]
  mass: 14.006700
- symbol: N # 4
  coordinates: [  0.333332985432215,  0.666666983183674,  0.667824477656144 ]
  mass: 14.006700
- symbol: N # 5
  coordinates: [  0.666666984744047,  0.333332985985145,  0.332175522343856 ]
  mass: 14.006700
- symbol: S # 6
  coordinates: [  0.666666984744047,  0.333332985985145,  0.438013974363221 ]
  mass: 32.065000
- symbol: Ti # 7
  coordinates: [  0.333332985432215,  0.666666983183674,  0.495902493433460 ]
  mass: 47.867000
- symbol: Ti # 8
  coordinates: [  0.666666984744047,  0.333332985985145,  0.572011264685296 ]
  mass: 47.867000

phonon:
- q-position: [    0.0000000,    0.0000000,    0.0000000 ]
  distance:    0.0000000
  band:
  - # 1
    frequency:   -1.9110989494
  - # 2
    frequency:   -1.9110989494
  - # 3
    frequency:   -0.0000012578
  - # 4
    frequency:   -0.0000007721
  - # 5
    frequency:    0.0000008354
  - # 6
    frequency:    1.0733002990
  - # 7
    frequency:    1.0733002990
  - # 8
    frequency:    4.6180758431
  - # 9
    frequency:    4.6180758431
  - # 10
    frequency:    5.8821601392
  - # 11
    frequency:    7.4422964111
  - # 12
    frequency:    7.4422964111
  - # 13
    frequency:    8.5008696031
  - # 14
    frequency:    8.5008696031
  - # 15
    frequency:    9.1289752402
  - # 16
    frequency:   11.0336634273
  - # 17
    frequency:   11.0336634273
  - # 18
    frequency:   11.3058060562
  - # 19
    frequency:   14.5740917569
  - # 20
    frequency:   16.0048788916
  - # 21
    frequency:   16.0048788916
  - # 22
    frequency:   20.4388424205
  - # 23
    frequency:   61.3248217741
  - # 24
    frequency:   64.7076422187

- q-position: [    0.0050505,    0.0000000,    0.0000000 ]
  distance:    0.0017826
  band:
  - # 1
    frequency:   -1.9113479283
  - # 2
    frequency:   -1.9104842214
  - # 3
    frequency:   -0.0603843281
  - # 4
    frequency:    0.0808988856
  - # 5
    frequency:    0.1415393017
  - # 6
    frequency:    1.0743256485
  - # 7
    frequency:    1.0771107409
  - # 8
    frequency:    4.6181446486
  - # 9
    frequency:    4.6191846049
  - # 10
    frequency:    5.8817873383
  - # 11
    frequency:    7.4416776275
  - # 12
    frequency:    7.4427801656
  - # 13
    frequency:    8.5007580113
  - # 14
    frequency:    8.5013379396
  - # 15
    frequency:    9.1286992921
  - # 16
    frequency:   11.0333947382
  - # 17
    frequency:   11.0336865805
  - # 18
    frequency:   11.3050907902
  - # 19
    frequency:   14.5738383813
  - # 20
    frequency:   16.0046744114
  - # 21
    frequency:   16.0048101540
  - # 22
    frequency:   20.4387487989
  - # 23
    frequency:   61.3247283796
  - # 24
    frequency:   64.7075349281

- q-position: [    0.0101010,    0.0000000,    0.0000000 ]
  distance:    0.0035652
  band:
  - # 1
    frequency:   -1.9120997617
  - # 2
    frequency:   -1.9086558119
  - # 3
    frequency:   -0.0492903938
  - # 4
    frequency:    0.1616370364
  - # 5
    frequency:    0.2604290557
  - # 6
    frequency:    1.0774160331
  - # 7
    frequency:    1.0885493558
  - # 8
    frequency:    4.6183523434
  - # 9
    frequency:    4.6225065693
  - # 10
    frequency:    5.8806715133
  - # 11
    frequency:    7.4398232884
  - # 12
    frequency:    7.4442306140
  - # 13
    frequency:    8.5004230138
  - # 14
    frequency:    8.5027387560
  - # 15
    frequency:    9.1278729695
  - # 16
    frequency:   11.0325898378
  - # 17
    frequency:   11.0337543586
  - # 18
    frequency:   11.3029488452
  - # 19
    frequency:   14.5730772269
  - # 20
    frequency:   16.0040631568
  - # 21
    frequency:   16.0046051315
  - # 22
    frequency:   20.4384680678
  - # 23
    frequency:   61.3244483922
  - # 24
    frequency:   64.7072132976

- q-position: [    0.0151515,    0.0000000,    0.0000000 ]
  distance:    0.0053478
  band:
  - # 1
    frequency:   -1.9133687214
  - # 2
    frequency:   -1.9056597236
  - # 3
    frequency:    0.0295864081
  - # 4
    frequency:    0.2420402316
  - # 5
    frequency:    0.3816204388
  - # 6
    frequency:    1.0826163400
  - # 7
    frequency:    1.1076555262
  - # 8
    frequency:    4.6187027466
  - # 9
    frequency:    4.6280288029
  - # 10
    frequency:    5.8788204168
  - # 11
    frequency:    7.4367394371
  - # 12
    frequency:    7.4466453071
  - # 13
    frequency:    8.4998639436
  - # 14
    frequency:    8.5050594880
  - # 15
    frequency:    9.1265008445
  - # 16
    frequency:   11.0312522240
  - # 17
    frequency:   11.0338615489
  - # 18
    frequency:   11.2993919467
  - # 19
    frequency:   14.5718052348
  - # 20
    frequency:   16.0030516552
  - # 21
    frequency:   16.0042673731
  - # 22
    frequency:   20.4380006281
  - # 23
    frequency:   61.3239823999
  - # 24
    frequency:   64.7066780507

- q-position: [    0.0202020,    0.0000000,    0.0000000 ]
  distance:    0.0071304
  band:
  - # 1
    frequency:   -1.9151772528
  - # 2
    frequency:   -1.9015684827
  - # 3
    frequency:    0.0780397862
  - # 4
    frequency:    0.3219062417
  - # 5
    frequency:    0.5026245655
  - # 6
    frequency:    1.0900078623
  - # 7
    frequency:    1.1345537234
  - # 8
    frequency:    4.6192021715
  - # 9
    frequency:    4.6357298420
  - # 10
    frequency:    5.8762470341
  - # 11
    frequency:    7.4324361769
  - # 12
    frequency:    7.4500201481
  - # 13
    frequency:    8.4990796891
  - # 14
    frequency:    8.5082792462
  - # 15
    frequency:    9.1245905659
  - # 16
    frequency:   11.0293877163
  - # 17
    frequency:   11.0339988765
  - # 18
    frequency:   11.2944402120
  - # 19
    frequency:   14.5700173885
  - # 20
    frequency:   16.0016506852
  - # 21
    frequency:   16.0038027207
  - # 22
    frequency:   20.4373471478
  - # 23
    frequency:   61.3233313801
  - # 24
    frequency:   64.7059303897

- q-position: [    0.0252525,    0.0000000,    0.0000000 ]
  distance:    0.0089130
  band:
  - # 1
    frequency:   -1.9175541317
  - # 2
    frequency:   -1.8964757425
  - # 3
    frequency:    0.1161094389
  - # 4
    frequency:    0.4009880959
  - # 5
    frequency:    0.6219065300
  - # 6
    frequency:    1.0997187656
  - # 7
    frequency:    1.1695415872
  - # 8
    frequency:    4.6198593485
  - # 9
    frequency:    4.6455798242
  - # 10
    frequency:    5.8729696865
  - # 11
    frequency:    7.4269277143
  - # 12
    frequency:    7.4543493695
  - # 13
    frequency:    8.4980686942
  - # 14
    frequency:    8.5123688940
  - # 15
    frequency:    9.1221529007
  - # 16
    frequency:   11.0270044407
  - # 17
    frequency:   11.0341520422
  - # 18
    frequency:   11.2881230956
  - # 19
    frequency:   14.5677068351
  - # 20
    frequency:   15.9998751264
  - # 21
    frequency:   16.0032192019
  - # 22
    frequency:   20.4365085626
  - # 23
    frequency:   61.3224966963
  - # 24
    frequency:   64.7049719903

- q-position: [    0.0303030,    0.0000000,    0.0000000 ]
  distance:    0.0106956
  band:
  - # 1
    frequency:   -1.9205321928
  - # 2
    frequency:   -1.8904901145
  - # 3
    frequency:    0.1531941120
  - # 4
    frequency:    0.4789738212
  - # 5
    frequency:    0.7380235546
  - # 6
    frequency:    1.1119401078
  - # 7
    frequency:    1.2132023684
  - # 8
    frequency:    4.6206853171
  - # 9
    frequency:    4.6575406552
  - # 10
    frequency:    5.8690121855
  - # 11
    frequency:    7.4202324190
  - # 12
    frequency:    7.4596254940
  - # 13
    frequency:    8.4968289602
  - # 14
    frequency:    8.5172911561
  - # 15
    frequency:    9.1192017926
  - # 16
    frequency:   11.0241128065
  - # 17
    frequency:   11.0343001922
  - # 18
    frequency:   11.2804808937
  - # 19
    frequency:   14.5648650524
  - # 20
    frequency:   15.9977437517
  - # 21
    frequency:   16.0025268814
  - # 22
    frequency:   20.4354860759
  - # 23
    frequency:   61.3214800923
  - # 24
    frequency:   64.7038049944

- q-position: [    0.0353535,    0.0000000,    0.0000000 ]
  distance:    0.0124782
  band:
  - # 1
    frequency:   -1.9241458719
  - # 2
    frequency:   -1.8837291138
  - # 3
    frequency:    0.1912289414
  - # 4
    frequency:    0.5554615375
  - # 5
    frequency:    0.8492912202
  - # 6
    frequency:    1.1269482112
  - # 7
    frequency:    1.2664901556
  - # 8
    frequency:    4.6216932896
  - # 9
    frequency:    4.6715661969
  - # 10
    frequency:    5.8644040495
  - # 11
    frequency:    7.4123728941
  - # 12
    frequency:    7.4658392789
  - # 13
    frequency:    8.4953580490
  - # 14
    frequency:    8.5230007612
  - # 15
    frequency:    9.1157544376
  - # 16
    frequency:   11.0207254757
  - # 17
    frequency:   11.0344136024
  - # 18
    frequency:   11.2715670270
  - # 19
    frequency:   14.5614820601
  - # 20
    frequency:   15.9952789633
  - # 21
    frequency:   16.0017376744
  - # 22
    frequency:   20.4342811590
  - # 23
    frequency:   61.3202836863
  - # 24
    frequency:   64.7024320010

- q-position: [    0.0404040,    0.0000000,    0.0000000 ]
  distance:    0.0142608
  band:
  - # 1
    frequency:   -1.9284288010
  - # 2
    frequency:   -1.8763138673
  - # 3
    frequency:    0.2310323982
  - # 4
    frequency:    0.6299303083
  - # 5
    frequency:    0.9538038411
  - # 6
    frequency:    1.1451326920
  - # 7
    frequency:    1.3306388694
  - # 8
    frequency:    4.6228984862
  - # 9
    frequency:    4.6876024578
  - # 10
    frequency:    5.8591807960
  - # 11
    frequency:    7.4033760561
  - # 12
    frequency:    7.4729796383
  - # 13
    frequency:    8.4936530910
  - # 14
    frequency:    8.5294446182
  - # 15
    frequency:    9.1118313747
  - # 16
    frequency:   11.0168573239
  - # 17
    frequency:   11.0344502279
  - # 18
    frequency:   11.2614514478
  - # 19
    frequency:   14.5575466721
  - # 20
    frequency:   15.9925064759
  - # 21
    frequency:   16.0008651250
  - # 22
    frequency:   20.4328955512
  - # 23
    frequency:   61.3189099625
  - # 24
    frequency:   64.7008560545

- q-position: [    0.0454545,    0.0000000,    0.0000000 ]
  distance:    0.0160434
  band:
  - # 1
    frequency:   -1.9334116554
  - # 2
    frequency:   -1.8683648912
  - # 3
    frequency:    0.2730350208
  - # 4
    frequency:    0.7017120417
  - # 5
    frequency:    1.0499111012
  - # 6
    frequency:    1.1670245525
  - # 7
    frequency:    1.4066675094
  - # 8
    frequency:    4.6243179431
  - # 9
    frequency:    4.7055877647
  - # 10
    frequency:    5.8533843253
  - # 11
    frequency:    7.3932732188
  - # 12
    frequency:    7.4810335394
  - # 13
    frequency:    8.4917107966
  - # 14
    frequency:    8.5365620275
  - # 15
    frequency:    9.1074565920
  - # 16
    frequency:   11.0125253904
  - # 17
    frequency:   11.0343505943
  - # 18
    frequency:   11.2502256961
  - # 19
    frequency:   14.5530467851
  - # 20
    frequency:   15.9894549504
  - # 21
    frequency:   15.9999241538
  - # 22
    frequency:   20.4313312602
  - # 23
    frequency:   61.3173617620
  - # 24
    frequency:   64.6990806321

- q-position: [    0.0505051,    0.0000000,    0.0000000 ]
  distance:    0.0178260
  band:
  - # 1
    frequency:   -1.9391203923
  - # 2
    frequency:   -1.8599989228
  - # 3
    frequency:    0.3174770706
  - # 4
    frequency:    0.7699812956
  - # 5
    frequency:    1.1370561880
  - # 6
    frequency:    1.1933071869
  - # 7
    frequency:    1.4945395470
  - # 8
    frequency:    4.6259702956
  - # 9
    frequency:    4.7254528914
  - # 10
    frequency:    5.8470634137
  - # 11
    frequency:    7.3821001768
  - # 12
    frequency:    7.4899858724
  - # 13
    frequency:    8.4895274742
  - # 14
    frequency:    8.5442849305
  - # 15
    frequency:    9.1026576442
  - # 16
    frequency:   11.0077488182
  - # 17
    frequency:   11.0340302574
  - # 18
    frequency:   11.2380103762
  - # 19
    frequency:   14.5479697010
  - # 20
    frequency:   15.9861555816
  - # 21
    frequency:   15.9989307769
  - # 22
    frequency:   20.4295905620
  - # 23
    frequency:   61.3156422722
  - # 24
    frequency:   64.6971096283

- q-position: [    0.0555556,    0.0000000,    0.0000000 ]
  distance:    0.0196086
  band:
  - # 1
    frequency:   -1.9455749535
  - # 2
    frequency:   -1.8513265687
  - # 3
    frequency:    0.3644839033
  - # 4
    frequency:    0.8337989991
  - # 5
    frequency:    1.2162192618
  - # 6
    frequency:    1.2247740035
  - # 7
    frequency:    1.5927207370
  - # 8
    frequency:    4.6278755380
  - # 9
    frequency:    4.7471211183
  - # 10
    frequency:    5.8402743376
  - # 11
    frequency:    7.3698972833
  - # 12
    frequency:    7.4998192911
  - # 13
    frequency:    8.4870990555
  - # 14
    frequency:    8.5525381990
  - # 15
    frequency:    9.0974657802
  - # 16
    frequency:   11.0025487820
  - # 17
    frequency:   11.0333687855
  - # 18
    frequency:   11.2249660976
  - # 19
    frequency:   14.5423024751
  - # 20
    frequency:   15.9826416468
  - # 21
    frequency:   15.9979018037
  - # 22
    frequency:   20.4276760007
  - # 23
    frequency:   61.3137550148
  - # 24
    frequency:   64.6949473391

- q-position: [    0.0606061,    0.0000000,    0.0000000 ]
  distance:    0.0213912
  band:
  - # 1
    frequency:   -1.9527884394
  - # 2
    frequency:   -1.8424504483
  - # 3
    frequency:    0.4141016975
  - # 4
    frequency:    0.8922581558
  - # 5
    frequency:    1.2621843558
  - # 6
    frequency:    1.2893737967
  - # 7
    frequency:    1.6987238423
  - # 8
    frequency:    4.6300547622
  - # 9
    frequency:    4.7705081954
  - # 10
    frequency:    5.8330816540
  - # 11
    frequency:    7.3567095178
  - # 12
    frequency:    7.5105140267
  - # 13
    frequency:    8.4844211283
  - # 14
    frequency:    8.5612399710
  - # 15
    frequency:    9.0919160724
  - # 16
    frequency:   10.9969484032
  - # 17
    frequency:   11.0321941022
  - # 18
    frequency:   11.2113090432
  - # 19
    frequency:   14.5360322881
  - # 20
    frequency:   15.9789480190
  - # 21
    frequency:   15.9968545158
  - # 22
    frequency:   20.4255903886
  - # 23
    frequency:   61.3117038327
  - # 24
    frequency:   64.6925984432

- q-position: [    0.0656566,    0.0000000,    0.0000000 ]
  distance:    0.0231739
  band:
  - # 1
    frequency:   -1.9607667146
  - # 2
    frequency:   -1.8334635420
  - # 3
    frequency:    0.4663174653
  - # 4
    frequency:    0.9447398195
  - # 5
    frequency:    1.3060092860
  - # 6
    frequency:    1.3585552369
  - # 7
    frequency:    1.8100397057
  - # 8
    frequency:    4.6325298773
  - # 9
    frequency:    4.7955221767
  - # 10
    frequency:    5.8255591640
  - # 11
    frequency:    7.3425865354
  - # 12
    frequency:    7.5220476750
  - # 13
    frequency:    8.4814889788
  - # 14
    frequency:    8.5703020394
  - # 15
    frequency:    9.0860475386
  - # 16
    frequency:   10.9909726527
  - # 17
    frequency:   11.0302616983
  - # 18
    frequency:   11.1973316529
  - # 19
    frequency:   14.5291468310
  - # 20
    frequency:   15.9751106538
  - # 21
    frequency:   15.9958063336
  - # 22
    frequency:   20.4233368050
  - # 23
    frequency:   61.3094928762
  - # 24
    frequency:   64.6900679828

- q-position: [    0.0707071,    0.0000000,    0.0000000 ]
  distance:    0.0249565
  band:
  - # 1
    frequency:   -1.9695083727
  - # 2
    frequency:   -1.8244475679
  - # 3
    frequency:    0.5210719889
  - # 4
    frequency:    0.9911686658
  - # 5
    frequency:    1.3561776131
  - # 6
    frequency:    1.4253389198
  - # 7
    frequency:    1.9246576446
  - # 8
    frequency:    4.6353233139
  - # 9
    frequency:    4.8220630948
  - # 10
    frequency:    5.8177910946
  - # 11
    frequency:    7.3275826942
  - # 12
    frequency:    7.5343949626
  - # 13
    frequency:    8.4782976436
  - # 14
    frequency:    8.5796303064
  - # 15
    frequency:    9.0799032420
  - # 16
    frequency:   10.9846482398
  - # 17
    frequency:   11.0272312778
  - # 18
    frequency:   11.1834258575
  - # 19
    frequency:   14.5216346998
  - # 20
    frequency:   15.9711660552
  - # 21
    frequency:   15.9947744749
  - # 22
    frequency:   20.4209185962
  - # 23
    frequency:   61.3071265872
  - # 24
    frequency:   64.6873613425

- q-position: [    0.0757576,    0.0000000,    0.0000000 ]
  distance:    0.0267391
  band:
  - # 1
    frequency:   -1.9790049725
  - # 2
    frequency:   -1.8154713501
  - # 3
    frequency:    0.5782693403
  - # 4
    frequency:    1.0320750453
  - # 5
    frequency:    1.4120153809
  - # 6
    frequency:    1.4907759955
  - # 7
    frequency:    2.0411267340
  - # 8
    frequency:    4.6384577156
  - # 9
    frequency:    4.8500224377
  - # 10
    frequency:    5.8098735333
  - # 11
    frequency:    7.3117570529
  - # 12
    frequency:    7.5475274968
  - # 13
    frequency:    8.4748419706
  - # 14
    frequency:    8.5891253238
  - # 15
    frequency:    9.0735303479
  - # 16
    frequency:   10.9780034876
  - # 17
    frequency:   11.0226517424
  - # 18
    frequency:   11.1700979587
  - # 19
    frequency:   14.5134857900
  - # 20
    frequency:   15.9671507308
  - # 21
    frequency:   15.9937756120
  - # 22
    frequency:   20.4183393735
  - # 23
    frequency:   61.3046096832
  - # 24
    frequency:   64.6844842274

- q-position: [    0.0808081,    0.0000000,    0.0000000 ]
  distance:    0.0285217
  band:
  - # 1
    frequency:   -1.9892414613
  - # 2
    frequency:   -1.8065892715
  - # 3
    frequency:    0.6377847090
  - # 4
    frequency:    1.0683993850
  - # 5
    frequency:    1.4724427486
  - # 6
    frequency:    1.5555136718
  - # 7
    frequency:    2.1584320135
  - # 8
    frequency:    4.6419556207
  - # 9
    frequency:    4.8792823922
  - # 10
    frequency:    5.8019161583
  - # 11
    frequency:    7.2951733326
  - # 12
    frequency:    7.5614135039
  - # 13
    frequency:    8.4711166912
  - # 14
    frequency:    8.5986829457
  - # 15
    frequency:    9.0669801035
  - # 16
    frequency:   10.9710681961
  - # 17
    frequency:   11.0159802238
  - # 18
    frequency:   11.1579494425
  - # 19
    frequency:   14.5046916839
  - # 20
    frequency:   15.9631006432
  - # 21
    frequency:   15.9928255308
  - # 22
    frequency:   20.4156030116
  - # 23
    frequency:   61.3019471404
  - # 24
    frequency:   64.6814426399

- q-position: [    0.0858586,    0.0000000,    0.0000000 ]
  distance:    0.0303043
  band:
  - # 1
    frequency:   -2.0001967085
  - # 2
    frequency:   -1.7978399907
  - # 3
    frequency:    0.6994713727
  - # 4
    frequency:    1.1011940877
  - # 5
    frequency:    1.5362731561
  - # 6
    frequency:    1.6199295478
  - # 7
    frequency:    2.2758561760
  - # 8
    frequency:    4.6458391395
  - # 9
    frequency:    4.9097148170
  - # 10
    frequency:    5.7940443049
  - # 11
    frequency:    7.2778998369
  - # 12
    frequency:    7.5760175633
  - # 13
    frequency:    8.4671165005
  - # 14
    frequency:    8.6081951333
  - # 15
    frequency:    9.0603077010
  - # 16
    frequency:   10.9638734932
  - # 17
    frequency:   11.0066694087
  - # 18
    frequency:   11.1475894832
  - # 19
    frequency:   14.4952460242
  - # 20
    frequency:   15.9590506687
  - # 21
    frequency:   15.9919387983
  - # 22
    frequency:   20.4127136468
  - # 23
    frequency:   61.2991441754
  - # 24
    frequency:   64.6782428556

- q-position: [    0.0909091,    0.0000000,    0.0000000 ]
  distance:    0.0320869
  band:
  - # 1
    frequency:   -2.0118440881
  - # 2
    frequency:   -1.7892456340
  - # 3
    frequency:    0.7631671777
  - # 4
    frequency:    1.1314056407
  - # 5
    frequency:    1.6024320598
  - # 6
    frequency:    1.6842314451
  - # 7
    frequency:    2.3928755712
  - # 8
    frequency:    4.6501296311
  - # 9
    frequency:    4.9411799147
  - # 10
    frequency:    5.7864014050
  - # 11
    frequency:    7.2600093246
  - # 12
    frequency:    7.5913003433
  - # 13
    frequency:    8.4628361471
  - # 14
    frequency:    8.6175509664
  - # 15
    frequency:    9.0535719648
  - # 16
    frequency:   10.9564516740
  - # 17
    frequency:   10.9943229348
  - # 18
    frequency:   11.1394793586
  - # 19
    frequency:   14.4851448633
  - # 20
    frequency:   15.9550340702
  - # 21
    frequency:   15.9911284431
  - # 22
    frequency:   20.4096756732
  - # 23
    frequency:   61.2962062264
  - # 24
    frequency:   64.6748913988

- q-position: [    0.0959596,    0.0000000,    0.0000000 ]
  distance:    0.0338695
  band:
  - # 1
    frequency:   -2.0241520682
  - # 2
    frequency:   -1.7808116426
  - # 3
    frequency:    0.8287006148
  - # 4
    frequency:    1.1597872739
  - # 5
    frequency:    1.6700449230
  - # 6
    frequency:    1.7485226656
  - # 7
    frequency:    2.5090907568
  - # 8
    frequency:    4.6548473835
  - # 9
    frequency:    4.9735245972
  - # 10
    frequency:    5.7791518168
  - # 11
    frequency:    7.2415788281
  - # 12
    frequency:    7.6072183431
  - # 13
    frequency:    8.4582705316
  - # 14
    frequency:    8.6266379272
  - # 15
    frequency:    9.0468347919
  - # 16
    frequency:   10.9488360316
  - # 17
    frequency:   10.9788336884
  - # 18
    frequency:   11.1337939447
  - # 19
    frequency:   14.4743869848
  - # 20
    frequency:   15.9510819955
  - # 21
    frequency:   15.9904056523
  - # 22
    frequency:   20.4064937401
  - # 23
    frequency:   61.2931389344
  - # 24
    frequency:   64.6713950167

- q-position: [    0.1010101,    0.0000000,    0.0000000 ]
  distance:    0.0356521
  band:
  - # 1
    frequency:   -2.0370847764
  - # 2
    frequency:   -1.7725273825
  - # 3
    frequency:    0.8958964161
  - # 4
    frequency:    1.1868987019
  - # 5
    frequency:    1.7384379515
  - # 6
    frequency:    1.8128427399
  - # 7
    frequency:    2.6241816309
  - # 8
    frequency:    4.6600113049
  - # 9
    frequency:    5.0065805775
  - # 10
    frequency:    5.7724840162
  - # 11
    frequency:    7.2226894129
  - # 12
    frequency:    7.6237236481
  - # 13
    frequency:    8.4534148112
  - # 14
    frequency:    8.6353435365
  - # 15
    frequency:    9.0401602639
  - # 16
    frequency:   10.9410606790
  - # 17
    frequency:   10.9603935512
  - # 18
    frequency:   11.1304117460
  - # 19
    frequency:   14.4629741872
  - # 20
    frequency:   15.9472230082
  - # 21
    frequency:   15.9897794910
  - # 22
    frequency:   20.4031727467
  - # 23
    frequency:   61.2899481229
  - # 24
    frequency:   64.6677606541

- q-position: [    0.1060606,    0.0000000,    0.0000000 ]
  distance:    0.0374347
  band:
  - # 1
    frequency:   -2.0506025271
  - # 2
    frequency:   -1.7643675249
  - # 3
    frequency:    0.9645805219
  - # 4
    frequency:    1.2131405996
  - # 5
    frequency:    1.8071039581
  - # 6
    frequency:    1.8771925414
  - # 7
    frequency:    2.7378783169
  - # 8
    frequency:    4.6656386296
  - # 9
    frequency:    5.0401623136
  - # 10
    frequency:    5.7666140340
  - # 11
    frequency:    7.2034258743
  - # 12
    frequency:    7.6407637002
  - # 13
    frequency:    8.4482645107
  - # 14
    frequency:    8.6435574255
  - # 15
    frequency:    9.0336133402
  - # 16
    frequency:   10.9331603659
  - # 17
    frequency:   10.9393769709
  - # 18
    frequency:   11.1290310844
  - # 19
    frequency:   14.4509115266
  - # 20
    frequency:   15.9434826602
  - # 21
    frequency:   15.9892566452
  - # 22
    frequency:   20.3997178370
  - # 23
    frequency:   61.2866397778
  - # 24
    frequency:   64.6639954270

- q-position: [    0.1111111,    0.0000000,    0.0000000 ]
  distance:    0.0392173
  band:
  - # 1
    frequency:   -2.0646623035
  - # 2
    frequency:   -1.7562941045
  - # 3
    frequency:    1.0345842606
  - # 4
    frequency:    1.2387940422
  - # 5
    frequency:    1.8756631542
  - # 6
    frequency:    1.9415497758
  - # 7
    frequency:    2.8499418127
  - # 8
    frequency:    4.6717446475
  - # 9
    frequency:    5.0740650913
  - # 10
    frequency:    5.7617888565
  - # 11
    frequency:    7.1838763659
  - # 12
    frequency:    7.6582810889
  - # 13
    frequency:    8.4428156390
  - # 14
    frequency:    8.6511739143
  - # 15
    frequency:    9.0272580583
  - # 16
    frequency:   10.9162043212
  - # 17
    frequency:   10.9251702904
  - # 18
    frequency:   11.1293064856
  - # 19
    frequency:   14.4382075123
  - # 20
    frequency:   15.9398831117
  - # 21
    frequency:   15.9888411946
  - # 22
    frequency:   20.3961343940
  - # 23
    frequency:   61.2832200264
  - # 24
    frequency:   64.6601065964

- q-position: [    0.1161616,    0.0000000,    0.0000000 ]
  distance:    0.0409999
  band:
  - # 1
    frequency:   -2.0792181962
  - # 2
    frequency:   -1.7482590887
  - # 3
    frequency:    1.1057476226
  - # 4
    frequency:    1.2640537962
  - # 5
    frequency:    1.9438300038
  - # 6
    frequency:    2.0058785859
  - # 7
    frequency:    2.9601506636
  - # 8
    frequency:    4.6783424621
  - # 9
    frequency:    5.1080638002
  - # 10
    frequency:    5.7582892290
  - # 11
    frequency:    7.1641319575
  - # 12
    frequency:    7.6762133647
  - # 13
    frequency:    8.4370648075
  - # 14
    frequency:    8.6580951305
  - # 15
    frequency:    9.0211552019
  - # 16
    frequency:   10.8912596318
  - # 17
    frequency:   10.9171259096
  - # 18
    frequency:   11.1309306822
  - # 19
    frequency:   14.4248742520
  - # 20
    frequency:   15.9364428055
  - # 21
    frequency:   15.9885344153
  - # 22
    frequency:   20.3924280316
  - # 23
    frequency:   61.2796951170
  - # 24
    frequency:   64.6561015422

- q-position: [    0.1212121,    0.0000000,    0.0000000 ]
  distance:    0.0427825
  band:
  - # 1
    frequency:   -2.0942218032
  - # 2
    frequency:   -1.7402072430
  - # 3
    frequency:    1.1779215796
  - # 4
    frequency:    1.2890534193
  - # 5
    frequency:    2.0113882029
  - # 6
    frequency:    2.0701355462
  - # 7
    frequency:    3.0682913926
  - # 8
    frequency:    4.6854427852
  - # 9
    frequency:    5.1419133780
  - # 10
    frequency:    5.7564308726
  - # 11
    frequency:    7.1442861213
  - # 12
    frequency:    7.6944928795
  - # 13
    frequency:    8.4310093521
  - # 14
    frequency:    8.6642346272
  - # 15
    frequency:    9.0153594676
  - # 16
    frequency:   10.8648640419
  - # 17
    frequency:   10.9090627500
  - # 18
    frequency:   11.1336608838
  - # 19
    frequency:   14.4109275457
  - # 20
    frequency:   15.9331761989
  - # 21
    frequency:   15.9883346160
  - # 22
    frequency:   20.3886045866
  - # 23
    frequency:   61.2760713977
  - # 24
    frequency:   64.6519877372

- q-position: [    0.1262626,    0.0000000,    0.0000000 ]
  distance:    0.0445651
  band:
  - # 1
    frequency:   -2.1096225980
  - # 2
    frequency:   -1.7320790747
  - # 3
    frequency:    1.2509694746
  - # 4
    frequency:    1.3138832882
  - # 5
    frequency:    2.0781726813
  - # 6
    frequency:    2.1342734191
  - # 7
    frequency:    3.1741513336
  - # 8
    frequency:    4.6930537766
  - # 9
    frequency:    5.1753524588
  - # 10
    frequency:    5.7565625380
  - # 11
    frequency:    7.1244341450
  - # 12
    frequency:    7.7130466573
  - # 13
    frequency:    8.4246474552
  - # 14
    frequency:    8.6695213513
  - # 15
    frequency:    9.0099162738
  - # 16
    frequency:   10.8372787869
  - # 17
    frequency:   10.9010162188
  - # 18
    frequency:   11.1373155062
  - # 19
    frequency:   14.3963869257
  - # 20
    frequency:   15.9300935577
  - # 21
    frequency:   15.9882370089
  - # 22
    frequency:   20.3846701092
  - # 23
    frequency:   61.2723552950
  - # 24
    frequency:   64.6477727210

- q-position: [    0.1313131,    0.0000000,    0.0000000 ]
  distance:    0.0463477
  band:
  - # 1
    frequency:   -2.1253682757
  - # 2
    frequency:   -1.7238136597
  - # 3
    frequency:    1.3247675727
  - # 4
    frequency:    1.3386032960
  - # 5
    frequency:    2.1440568909
  - # 6
    frequency:    2.1982435099
  - # 7
    frequency:    3.2775130822
  - # 8
    frequency:    4.7011809344
  - # 9
    frequency:    5.2081123643
  - # 10
    frequency:    5.7590586835
  - # 11
    frequency:    7.1046724724
  - # 12
    frequency:    7.7317963042
  - # 13
    frequency:    8.4179782673
  - # 14
    frequency:    8.6739036708
  - # 15
    frequency:    9.0048584862
  - # 16
    frequency:   10.8087176344
  - # 17
    frequency:   10.8930214199
  - # 18
    frequency:   11.1417614480
  - # 19
    frequency:   14.3812756441
  - # 20
    frequency:   15.9272008127
  - # 21
    frequency:   15.9882336165
  - # 22
    frequency:   20.3806308518
  - # 23
    frequency:   61.2685532933
  - # 24
    frequency:   64.6434640752

- q-position: [    0.1363636,    0.0000000,    0.0000000 ]
  distance:    0.0481303
  band:
  - # 1
    frequency:   -2.1414050837
  - # 2
    frequency:   -1.7153512004
  - # 3
    frequency:    1.3632517541
  - # 4
    frequency:    1.3992049057
  - # 5
    frequency:    2.2089438557
  - # 6
    frequency:    2.2619971378
  - # 7