nqpoint: 300    
npath: 3      
segment_nqpoint:
- 100
- 100
- 100
labels:
- [ 'G', 'M' ]
- [ 'M', 'K' ]
- [ 'K', 'G' ]
reciprocal_lattice:
- [   0.30902814,   0.17841748,   0.00000000 ] # a*
- [   0.00000000,   0.35683496,   0.00000000 ] # b*
- [   0.00000000,   0.00000000,   0.03849134 ] # c*
natom: 7      
lattice:
- [     3.235951289386713,     0.000000000000000,     0.000000000000000 ] # a
- [    -1.617975644693357,     2.802416022018070,     0.000000000000000 ] # b
- [     0.000000000000000,     0.000000000000000,    25.979867316944311 ] # c
points:
- symbol: C # 1
  coordinates: [  0.000000000000000,  0.000000000000000,  0.452984972668082 ]
  mass: 12.010700
- symbol: C # 2
  coordinates: [  0.333332985432215,  0.666666983183674,  0.593851582855939 ]
  mass: 12.010700
- symbol: Cl # 3
  coordinates: [  0.666666984744047,  0.333332985985145,  0.346422092545874 ]
  mass: 35.453000
- symbol: N # 4
  coordinates: [  0.333332985432215,  0.666666983183674,  0.545651697653346 ]
  mass: 14.006700
- symbol: S # 5
  coordinates: [  0.333332985432215,  0.666666983183674,  0.653577907454126 ]
  mass: 32.065000
- symbol: Ti # 6
  coordinates: [  0.333332985432215,  0.666666983183674,  0.411285032167981 ]
  mass: 47.867000
- symbol: Ti # 7
  coordinates: [  0.666666984744047,  0.333332985985145,  0.496427431990673 ]
  mass: 47.867000

phonon:
- q-position: [    0.0000000,    0.0000000,    0.0000000 ]
  distance:    0.0000000
  band:
  - # 1
    frequency:   -0.0000008726
  - # 2
    frequency:   -0.0000005215
  - # 3
    frequency:   -0.0000004001
  - # 4
    frequency:    0.8937940119
  - # 5
    frequency:    0.8937940119
  - # 6
    frequency:    4.5029809125
  - # 7
    frequency:    4.5029809125
  - # 8
    frequency:    5.6762031534
  - # 9
    frequency:    6.8597869345
  - # 10
    frequency:    6.8597869345
  - # 11
    frequency:    7.2402008278
  - # 12
    frequency:    7.2402008278
  - # 13
    frequency:    8.8162716445
  - # 14
    frequency:   11.8421328952
  - # 15
    frequency:   13.8987710451
  - # 16
    frequency:   13.8987710451
  - # 17
    frequency:   16.9840464571
  - # 18
    frequency:   16.9840464571
  - # 19
    frequency:   16.9912268244
  - # 20
    frequency:   27.2868526471
  - # 21
    frequency:   57.5154308842

- q-position: [    0.0050505,    0.0000000,    0.0000000 ]
  distance:    0.0018022
  band:
  - # 1
    frequency:   -0.0815919515
  - # 2
    frequency:    0.0885436735
  - # 3
    frequency:    0.1453403918
  - # 4
    frequency:    0.8959591503
  - # 5
    frequency:    0.9014300407
  - # 6
    frequency:    4.5036998695
  - # 7
    frequency:    4.5044995970
  - # 8
    frequency:    5.6760781724
  - # 9
    frequency:    6.8595604110
  - # 10
    frequency:    6.8603252948
  - # 11
    frequency:    7.2411889071
  - # 12
    frequency:    7.2416877757
  - # 13
    frequency:    8.8163885160
  - # 14
    frequency:   11.8416378001
  - # 15
    frequency:   13.8989240302
  - # 16
    frequency:   13.8992549277
  - # 17
    frequency:   16.9848925016
  - # 18
    frequency:   16.9851384061
  - # 19
    frequency:   16.9916616298
  - # 20
    frequency:   27.2867307454
  - # 21
    frequency:   57.5144809362

- q-position: [    0.0101010,    0.0000000,    0.0000000 ]
  distance:    0.0036044
  band:
  - # 1
    frequency:   -0.1082741932
  - # 2
    frequency:    0.1768320817
  - # 3
    frequency:    0.2642967048
  - # 4
    frequency:    0.9024585256
  - # 5
    frequency:    0.9238399389
  - # 6
    frequency:    4.5058528219
  - # 7
    frequency:    4.5090380054
  - # 8
    frequency:    5.6757123281
  - # 9
    frequency:    6.8588893410
  - # 10
    frequency:    6.8619415687
  - # 11
    frequency:    7.2441389666
  - # 12
    frequency:    7.2461287763
  - # 13
    frequency:    8.8167409038
  - # 14
    frequency:   11.8401518078
  - # 15
    frequency:   13.8993824724
  - # 16
    frequency:   13.9007050091
  - # 17
    frequency:   16.9862285767
  - # 18
    frequency:   16.9884049314
  - # 19
    frequency:   16.9941569150
  - # 20
    frequency:   27.2863652229
  - # 21
    frequency:   57.5116328821

- q-position: [    0.0151515,    0.0000000,    0.0000000 ]
  distance:    0.0054066
  band:
  - # 1
    frequency:   -0.1331001331
  - # 2
    frequency:    0.2645908631
  - # 3
    frequency:    0.3864406017
  - # 4
    frequency:    0.9133090309
  - # 5
    frequency:    0.9597248402
  - # 6
    frequency:    4.5094280615
  - # 7
    frequency:    4.5165436304
  - # 8
    frequency:    5.6751326559
  - # 9
    frequency:    6.8577983084
  - # 10
    frequency:    6.8646388230
  - # 11
    frequency:    7.2490094487
  - # 12
    frequency:    7.2534652371
  - # 13
    frequency:    8.8173341091
  - # 14
    frequency:   11.8376727982
  - # 15
    frequency:   13.9001448344
  - # 16
    frequency:   13.9031166102
  - # 17
    frequency:   16.9862226970
  - # 18
    frequency:   16.9938181638
  - # 19
    frequency:   17.0005112021
  - # 20
    frequency:   27.2857566277
  - # 21
    frequency:   57.5068920845

- q-position: [    0.0202020,    0.0000000,    0.0000000 ]
  distance:    0.0072088
  band:
  - # 1
    frequency:   -0.1547094282
  - # 2
    frequency:    0.3515048068
  - # 3
    frequency:    0.5094360184
  - # 4
    frequency:    0.9285557248
  - # 5
    frequency:    1.0074220942
  - # 6
    frequency:    4.5144062346
  - # 7
    frequency:    4.5269303592
  - # 8
    frequency:    5.6743833702
  - # 9
    frequency:    6.8563254258
  - # 10
    frequency:    6.8684205730
  - # 11
    frequency:    7.2557341528
  - # 12
    frequency:    7.2636024869
  - # 13
    frequency:    8.8181769035
  - # 14
    frequency:   11.8341972440
  - # 15
    frequency:   13.9012085598
  - # 16
    frequency:   13.9064819983
  - # 17
    frequency:   16.9851747485
  - # 18
    frequency:   17.0013319727
  - # 19
    frequency:   17.0103691862
  - # 20
    frequency:   27.2849058735
  - # 21
    frequency:   57.5002674601

- q-position: [    0.0252525,    0.0000000,    0.0000000 ]
  distance:    0.0090110
  band:
  - # 1
    frequency:   -0.1710146699
  - # 2
    frequency:    0.4371909397
  - # 3
    frequency:    0.6321520263
  - # 4
    frequency:    0.9482976565
  - # 5
    frequency:    1.0653127829
  - # 6
    frequency:    4.5207605791
  - # 7
    frequency:    4.5400804712
  - # 8
    frequency:    5.6735246837
  - # 9
    frequency:    6.8545186580
  - # 10
    frequency:    6.8732887298
  - # 11
    frequency:    7.2642262094
  - # 12
    frequency:    7.2764138167
  - # 13
    frequency:    8.8192814300
  - # 14
    frequency:   11.8297202222
  - # 15
    frequency:   13.9025700824
  - # 16
    frequency:   13.9107904827
  - # 17
    frequency:   16.9835124131
  - # 18
    frequency:   17.0108824381
  - # 19
    frequency:   17.0232263332
  - # 20
    frequency:   27.2838142397
  - # 21
    frequency:   57.4917714467

- q-position: [    0.0303030,    0.0000000,    0.0000000 ]
  distance:    0.0108132
  band:
  - # 1
    frequency:   -0.1804240565
  - # 2
    frequency:    0.5211650758
  - # 3
    frequency:    0.7538616748
  - # 4
    frequency:    0.9727238160
  - # 5
    frequency:    1.1320615461
  - # 6
    frequency:    4.5284572481
  - # 7
    frequency:    4.5558472441
  - # 8
    frequency:    5.6726313117
  - # 9
    frequency:    6.8524316893
  - # 10
    frequency:    6.8792413023
  - # 11
    frequency:    7.2743826235
  - # 12
    frequency:    7.2917453916
  - # 13
    frequency:    8.8206630595
  - # 14
    frequency:   11.8242354343
  - # 15
    frequency:   13.9042248386
  - # 16
    frequency:   13.9160285447
  - # 17
    frequency:   16.9813728197
  - # 18
    frequency:   17.0223885025
  - # 19
    frequency:   17.0388479511
  - # 20
    frequency:   27.2824833719
  - # 21
    frequency:   57.4814199595

- q-position: [    0.0353535,    0.0000000,    0.0000000 ]
  distance:    0.0126154
  band:
  - # 1
    frequency:   -0.1813108198
  - # 2
    frequency:    0.6028049023
  - # 3
    frequency:    0.8739243430
  - # 4
    frequency:    1.0021545785
  - # 5
    frequency:    1.2067009463
  - # 6
    frequency:    4.5374557161
  - # 7
    frequency:    4.5740580097
  - # 8
    frequency:    5.6717907914
  - # 9
    frequency:    6.8501199586
  - # 10
    frequency:    6.8862702190
  - # 11
    frequency:    7.2860887553
  - # 12
    frequency:    7.3094215254
  - # 13
    frequency:    8.8223401946
  - # 14
    frequency:   11.8177352404
  - # 15
    frequency:   13.9061672854
  - # 16
    frequency:   13.9221799956
  - # 17
    frequency:   16.9788060861
  - # 18
    frequency:   17.0357527938
  - # 19
    frequency:   17.0570665589
  - # 20
    frequency:   27.2809152823
  - # 21
    frequency:   57.4692323331

- q-position: [    0.0404040,    0.0000000,    0.0000000 ]
  distance:    0.0144176
  band:
  - # 1
    frequency:   -0.1712343078
  - # 2
    frequency:    0.6813253661
  - # 3
    frequency:    0.9916887813
  - # 4
    frequency:    1.0370716456
  - # 5
    frequency:    1.2886126862
  - # 6
    frequency:    4.5477092570
  - # 7
    frequency:    4.5945174863
  - # 8
    frequency:    5.6711017426
  - # 9
    frequency:    6.8476373089
  - # 10
    frequency:    6.8943595458
  - # 11
    frequency:    7.2992222827
  - # 12
    frequency:    7.3292498941
  - # 13
    frequency:    8.8243340165
  - # 14
    frequency:   11.8102107116
  - # 15
    frequency:   13.9083909220
  - # 16
    frequency:   13.9292261589
  - # 17
    frequency:   16.9758367517
  - # 18
    frequency:   17.0508626072
  - # 19
    frequency:   17.0777215408
  - # 20
    frequency:   27.2791123500
  - # 21
    frequency:   57.4552312533

- q-position: [    0.0454545,    0.0000000,    0.0000000 ]
  distance:    0.0162198
  band:
  - # 1
    frequency:   -0.1451488296
  - # 2
    frequency:    0.7558079225
  - # 3
    frequency:    1.0780940323
  - # 4
    frequency:    1.1065102131
  - # 5
    frequency:    1.3774290691
  - # 6
    frequency:    4.5591654866
  - # 7
    frequency:    4.6170112267
  - # 8
    frequency:    5.6706721841
  - # 9
    frequency:    6.8450334783
  - # 10
    frequency:    6.9034842510
  - # 11
    frequency:    7.3136564105
  - # 12
    frequency:    7.3510263955
  - # 13
    frequency:    8.8266681642
  - # 14
    frequency:   11.8016517046
  - # 15
    frequency:   13.9108883169
  - # 16
    frequency:   13.9371460704
  - # 17
    frequency:   16.9724805839
  - # 18
    frequency:   17.0675910347
  - # 19
    frequency:   17.1006435878
  - # 20
    frequency:   27.2770773213
  - # 21
    frequency:   57.4394426756

- q-position: [    0.0505051,    0.0000000,    0.0000000 ]
  distance:    0.0180220
  band:
  - # 1
    frequency:   -0.0855597728
  - # 2
    frequency:    0.8253507420
  - # 3
    frequency:    1.1258324420
  - # 4
    frequency:    1.2178656071
  - # 5
    frequency:    1.4728557700
  - # 6
    frequency:    4.5717669589
  - # 7
    frequency:    4.6413090454
  - # 8
    frequency:    5.6706179840
  - # 9
    frequency:    6.8423524652
  - # 10
    frequency:    6.9136095518
  - # 11
    frequency:    7.3292622806
  - # 12
    frequency:    7.3745395025
  - # 13
    frequency:    8.8293683390
  - # 14
    frequency:   11.7920469637
  - # 15
    frequency:   13.9136511405
  - # 16
    frequency:   13.9459166898
  - # 17
    frequency:   16.9687499781
  - # 18
    frequency:   17.0857982254
  - # 19
    frequency:   17.1256506923
  - # 20
    frequency:   27.2748133105
  - # 21
    frequency:   57.4218957341

- q-position: [    0.0555556,    0.0000000,    0.0000000 ]
  distance:    0.0198242
  band:
  - # 1
    frequency:    0.1126790634
  - # 2
    frequency:    0.8893668026
  - # 3
    frequency:    1.1805948201
  - # 4
    frequency:    1.3255246290
  - # 5
    frequency:    1.5744541250
  - # 6
    frequency:    4.5854518042
  - # 7
    frequency:    4.6671683299
  - # 8
    frequency:    5.6710614850
  - # 9
    frequency:    6.8396316698
  - # 10
    frequency:    6.9246907925
  - # 11
    frequency:    7.3459106721
  - # 12
    frequency:    7.3995740647
  - # 13
    frequency:    8.8324618244
  - # 14
    frequency:   11.7813842547
  - # 15
    frequency:   13.9166702035
  - # 16
    frequency:   13.9555131188
  - # 17
    frequency:   16.9646559263
  - # 18
    frequency:   17.1053327631
  - # 19
    frequency:   17.1525477011
  - # 20
    frequency:   27.2723237991
  - # 21
    frequency:   57.4026226388

- q-position: [    0.0606061,    0.0000000,    0.0000000 ]
  distance:    0.0216264
  band:
  - # 1
    frequency:    0.1993528921
  - # 2
    frequency:    0.9478875244
  - # 3
    frequency:    1.2420853529
  - # 4
    frequency:    1.4296577052
  - # 5
    frequency:    1.6814981357
  - # 6
    frequency:    4.6001544004
  - # 7
    frequency:    4.6943371918
  - # 8
    frequency:    5.6721302941
  - # 9
    frequency:    6.8369016508
  - # 10
    frequency:    6.9366737598
  - # 11
    frequency:    7.3634731362
  - # 12
    frequency:    7.4259145905
  - # 13
    frequency:    8.8359769140
  - # 14
    frequency:   11.7696505320
  - # 15
    frequency:   13.9199355010
  - # 16
    frequency:   13.9659088204
  - # 17
    frequency:   16.9602087792
  - # 18
    frequency:   17.1260331424
  - # 19
    frequency:   17.1811271849
  - # 20
    frequency:   27.2696126367
  - # 21
    frequency:   57.3816585626

- q-position: [    0.0656566,    0.0000000,    0.0000000 ]
  distance:    0.0234286
  band:
  - # 1
    frequency:    0.2730458712
  - # 2
    frequency:    1.0016022910
  - # 3
    frequency:    1.3093666285
  - # 4
    frequency:    1.5307741212
  - # 5
    frequency:    1.7930102562
  - # 6
    frequency:    4.6158060644
  - # 7
    frequency:    4.7225574674
  - # 8
    frequency:    5.6739561803
  - # 9
    frequency:    6.8341863251
  - # 10
    frequency:    6.9494953281
  - # 11
    frequency:    7.3818227306
  - # 12
    frequency:    7.4533480747
  - # 13
    frequency:    8.8399422412
  - # 14
    frequency:   11.7568321422
  - # 15
    frequency:   13.9234362627
  - # 16
    frequency:   13.9770758334
  - # 17
    frequency:   16.9554185282
  - # 18
    frequency:   17.1477293264
  - # 19
    frequency:   17.2111708795
  - # 20
    frequency:   27.2666840402
  - # 21
    frequency:   57.3590415202

- q-position: [    0.0707071,    0.0000000,    0.0000000 ]
  distance:    0.0252308
  band:
  - # 1
    frequency:    0.3432898081
  - # 2
    frequency:    1.0515727516
  - # 3
    frequency:    1.3811462034
  - # 4
    frequency:    1.6295299324
  - # 5
    frequency:    1.9079337793
  - # 6
    frequency:    4.6323357539
  - # 7
    frequency:    4.7515676371
  - # 8
    frequency:    5.6766739730
  - # 9
    frequency:    6.8315034529
  - # 10
    frequency:    6.9630843364
  - # 11
    frequency:    7.4008344945
  - # 12
    frequency:    7.4816664549
  - # 13
    frequency:    8.8443860079
  - # 14
    frequency:   11.7429150630
  - # 15
    frequency:   13.9271610092
  - # 16
    frequency:   13.9889849797
  - # 17
    frequency:   16.9502948763
  - # 18
    frequency:   17.1702443684
  - # 19
    frequency:   17.2424514101
  - # 20
    frequency:   27.2635425931
  - # 21
    frequency:   57.3348122364

- q-position: [    0.0757576,    0.0000000,    0.0000000 ]
  distance:    0.0270330
  band:
  - # 1
    frequency:    0.4126787199
  - # 2
    frequency:    1.0988730936
  - # 3
    frequency:    1.4561365474
  - # 4
    frequency:    1.7265446056
  - # 5
    frequency:    2.0253011268
  - # 6
    frequency:    4.6496707695
  - # 7
    frequency:    4.7811057871
  - # 8
    frequency:    5.6804203130
  - # 9
    frequency:    6.8288652864
  - # 10
    frequency:    6.9773626174
  - # 11
    frequency:    7.4203857766
  - # 12
    frequency:    7.5106687674
  - # 13
    frequency:    8.8493351131
  - # 14
    frequency:   11.7278851773
  - # 15
    frequency:   13.9310976141
  - # 16
    frequency:   14.0016060605
  - # 17
    frequency:   16.9448472145
  - # 18
    frequency:   17.1933960795
  - # 19
    frequency:   17.2747341640
  - # 20
    frequency:   27.2601932448
  - # 21
    frequency:   57.3090140078

- q-position: [    0.0808081,    0.0000000,    0.0000000 ]
  distance:    0.0288351
  band:
  - # 1
    frequency:    0.4822461769
  - # 2
    frequency:    1.1443811201
  - # 3
    frequency:    1.5332637002
  - # 4
    frequency:    1.8223078062
  - # 5
    frequency:    2.1443153553
  - # 6
    frequency:    4.6677374474
  - # 7
    frequency:    4.8109127779
  - # 8
    frequency:    5.6853320763
  - # 9
    frequency:    6.8262792878
  - # 10
    frequency:    6.9922461238
  - # 11
    frequency:    7.4403564970
  - # 12
    frequency:    7.5401630627
  - # 13
    frequency:    8.8548141916
  - # 14
    frequency:   11.7117285800
  - # 15
    frequency:   13.9352333714
  - # 16
    frequency:   14.0149080393
  - # 17
    frequency:   16.9390845528
  - # 18
    frequency:   17.2169987239
  - # 19
    frequency:   17.3077792452
  - # 20
    frequency:   27.2566413084
  - # 21
    frequency:   57.2816925569

- q-position: [    0.0858586,    0.0000000,    0.0000000 ]
  distance:    0.0306373
  band:
  - # 1
    frequency:    0.5524611436
  - # 2
    frequency:    1.1887326479
  - # 3
    frequency:    1.6117122642
  - # 4
    frequency:    1.9171651943
  - # 5
    frequency:    2.2643551115
  - # 6
    frequency:    4.6864618347
  - # 7
    frequency:    4.8407358120
  - # 8
    frequency:    5.6915442795
  - # 9
    frequency:    6.8237488583
  - # 10
    frequency:    7.0076461134
  - # 11
    frequency:    7.4606293929
  - # 12
    frequency:    7.5699681165
  - # 13
    frequency:    8.8608445759
  - # 14
    frequency:   11.6944319122
  - # 15
    frequency:   13.9395550687
  - # 16
    frequency:   14.0288592098
  - # 17
    frequency:   16.9330154350
  - # 18
    frequency:   17.2408647252
  - # 19
    frequency:   17.3413434641
  - # 20
    frequency:   27.2528924594
  - # 21
    frequency:   57.2528958789

- q-position: [    0.0909091,    0.0000000,    0.0000000 ]
  distance:    0.0324395
  band:
  - # 1
    frequency:    0.6235378033
  - # 2
    frequency:    1.2323571635
  - # 3
    frequency:    1.6908889214
  - # 4
    frequency:    2.0113417307
  - # 5
    frequency:    2.3849438906
  - # 6
    frequency:    4.7057703391
  - # 7
    frequency:    4.8703325836
  - # 8
    frequency:    5.6991872930
  - # 9
    frequency:    6.8212740363
  - # 10
    frequency:    7.0234703743
  - # 11
    frequency:    7.4810902771
  - # 12
    frequency:    7.5999149554
  - # 13
    frequency:    8.8674432079
  - # 14
    frequency:   11.6759827197
  - # 15
    frequency:   13.9440490639
  - # 16
    frequency:   14.0434273491
  - # 17
    frequency:   16.9266478498
  - # 18
    frequency:   17.2648063670
  - # 19
    frequency:   17.3751823330
  - # 20
    frequency:   27.2489527319
  - # 21
    frequency:   57.2226740839

- q-position: [    0.0959596,    0.0000000,    0.0000000 ]
  distance:    0.0342417
  band:
  - # 1
    frequency:    0.6955594360
  - # 2
    frequency:    1.2755321281
  - # 3
    frequency:    1.7703671726
  - # 4
    frequency:    2.1049731935
  - # 5
    frequency:    2.5057124221
  - # 6
    frequency:    4.7255903470
  - # 7
    frequency:    4.8994761436
  - # 8
    frequency:    5.7083832523
  - # 9
    frequency:    6.8188521460
  - # 10
    frequency:    7.0396244782
  - # 11
    frequency:    7.5016283211
  - # 12
    frequency:    7.6298481917
  - # 13
    frequency:    8.8746215347
  - # 14
    frequency:   11.6563698290
  - # 15
    frequency:   13.9487013670
  - # 16
    frequency:   14.0585798562
  - # 17
    frequency:   16.9199891489
  - # 18
    frequency:   17.2886374719
  - # 19
    frequency:   17.4090520432
  - # 20
    frequency:   27.2448285158
  - # 21
    frequency:   57.1910792338

- q-position: [    0.1010101,    0.0000000,    0.0000000 ]
  distance:    0.0360439
  band:
  - # 1
    frequency:    0.7685363732
  - # 2
    frequency:    1.3184302105
  - # 3
    frequency:    1.8498390937
  - # 4
    frequency:    2.1981335634
  - # 5
    frequency:    2.6263661723
  - # 6
    frequency:    4.7458508049
  - # 7
    frequency:    4.9279605087
  - # 8
    frequency:    5.7192416711
  - # 9
    frequency:    6.8164783854
  - # 10
    frequency:    7.0560130598
  - # 11
    frequency:    7.5221363655
  - # 12
    frequency:    7.6596271513
  - # 13
    frequency:    8.8823844306
  - # 14
    frequency:   11.6355837340
  - # 15
    frequency:   13.9534977247
  - # 16
    frequency:   14.0742838747
  - # 17
    frequency:   16.9130459765
  - # 18
    frequency:   17.3121750442
  - # 19
    frequency:   17.4427114027
  - # 20
    frequency:   27.2405265517
  - # 21
    frequency:   57.1581651751

- q-position: [    0.1060606,    0.0000000,    0.0000000 ]
  distance:    0.0378461
  band:
  - # 1
    frequency:    0.8424362551
  - # 2
    frequency:    1.3611540114
  - # 3
    frequency:    1.9290795910
  - # 4
    frequency:    2.2908554520
  - # 5
    frequency:    2.7466605153
  - # 6
    frequency:    4.7664827586
  - # 7
    frequency:    4.9556068862
  - # 8
    frequency:    5.7318544280
  - # 9
    frequency:    6.8141463513
  - # 10
    frequency:    7.0725411186
  - # 11
    frequency:    7.5425112513
  - # 12
    frequency:    7.6891267597
  - # 13
    frequency:    8.8907291982
  - # 14
    frequency:   11.6136169870
  - # 15
    frequency:   13.9584237071
  - # 16
    frequency:   14.0905064037
  - # 17
    frequency:   16.9058242148
  - # 18
    frequency:   17.3352408625
  - # 19
    frequency:   17.4759237197
  - # 20
    frequency:   27.2360539257
  - # 21
    frequency:   57.1239873690

- q-position: [    0.1111111,    0.0000000,    0.0000000 ]
  distance:    0.0396483
  band:
  - # 1
    frequency:    0.9172011493
  - # 2
    frequency:    1.4037599058
  - # 3
    frequency:    2.0079215664
  - # 4
    frequency:    2.3831443338
  - # 5
    frequency:    2.8663825913
  - # 6
    frequency:    4.7874198485
  - # 7
    frequency:    4.9822701942
  - # 8
    frequency:    5.7462905002
  - # 9
    frequency:    6.8118485051
  - # 10
    frequency:    7.0891153440
  - # 11
    frequency:    7.5626541655
  - # 12
    frequency:    7.7182381484
  - # 13
    frequency:    8.8996447049
  - # 14
    frequency:   11.5904645867
  - # 15
    frequency:   13.9634647969
  - # 16
    frequency:   14.1072143964
  - # 17
    frequency:   16.8983289478
  - # 18
    frequency:   17.3576630096
  - # 19
    frequency:   17.5084586154
  - # 20
    frequency:   27.2314180629
  - # 21
    frequency:   57.0886027187

- q-position: [    0.1161616,    0.0000000,    0.0000000 ]
  distance:    0.0414505
  band:
  - # 1
    frequency:    0.9927578371
  - # 2
    frequency:    1.4462739609
  - # 3
    frequency:    2.0862390513
  - # 4
    frequency:    2.4749881438
  - # 5
    frequency:    2.9853381057
  - # 6
    frequency:    4.8085987565
  - # 7
    frequency:    5.0078453826
  - # 8
    frequency:    5.7625910035
  - # 9
    frequency:    6.8095765833
  - # 10
    frequency:    7.1056454551
  - # 11
    frequency:    7.5824709894
  - # 12
    frequency:    7.7468689418
  - # 13
    frequency:    8.9091107103
  - # 14
    frequency:   11.5661243565
  - # 15
    frequency:   13.9686064790
  - # 16
    frequency:   14.1243748485
  - # 17
    frequency:   16.8905644441
  - # 18
    frequency:   17.3792773283
  - # 19
    frequency:   17.5400937550
  - # 20
    frequency:   27.2266267194
  - # 21
    frequency:   57.0520693965

- q-position: [    0.1212121,    0.0000000,    0.0000000 ]
  distance:    0.0432527
  band:
  - # 1
    frequency:    1.0690242736
  - # 2
    frequency:    1.4887024653
  - # 3
    frequency:    2.1639357892
  - # 4
    frequency:    2.5663636525
  - # 5
    frequency:    3.1033414947
  - # 6
    frequency:    4.8299596052
  - # 7
    frequency:    5.0322729512
  - # 8
    frequency:    5.7807652186
  - # 9
    frequency:    6.8073219585
  - # 10
    frequency:    7.1220455471
  - # 11
    frequency:    7.6018726402
  - # 12
    frequency:    7.7749431907
  - # 13
    frequency:    8.9190974395
  - # 14
    frequency:   11.5405973060
  - # 15
    frequency:   13.9738343304
  - # 16
    frequency:   14.1419548779
  - # 17
    frequency:   16.8825341618
  - # 18
    frequency:   17.3999287929
  - # 19
    frequency:   17.5706164847
  - # 20
    frequency:   27.2216879736
  - # 21
    frequency:   57.0144466686

- q-position: [    0.1262626,    0.0000000,    0.0000000 ]
  distance:    0.0450549
  band:
  - # 1
    frequency:    1.1459137730
  - # 2
    frequency:    1.5310388899
  - # 3
    frequency:    2.2409374499
  - # 4
    frequency:    2.6572406730
  - # 5
    frequency:    3.2202082513
  - # 6
    frequency:    4.8514463060
  - # 7
    frequency:    5.0555430953
  - # 8
    frequency:    5.8007882641
  - # 9
    frequency:    6.8050759572
  - # 10
    frequency:    7.1382354275
  - # 11
    frequency:    7.6207753970
  - # 12
    frequency:    7.8024009309
  - # 13
    frequency:    8.9295654442
  - # 14
    frequency:   11.5138879694
  - # 15
    frequency:   13.9791341088
  - # 16
    frequency:   14.1599217990
  - # 17
    frequency:   16.8742407733
  - # 18
    frequency:   17.4194727868
  - # 19
    frequency:   17.5998253669
  - # 20
    frequency:   27.2166102153
  - # 21
    frequency:   56.9757947224

- q-position: [    0.1313131,    0.0000000,    0.0000000 ]
  distance:    0.0468571
  band:
  - # 1
    frequency:    1.2233377734
  - # 2
    frequency:    1.5732685052
  - # 3
    frequency:    2.3171862515
  - # 4
    frequency:    2.7475848266
  - # 5
    frequency:    3.3357485353
  - # 6
    frequency:    4.8730068581
  - # 7
    frequency:    5.0776980999
  - # 8
    frequency:    5.8226008968
  - # 9
    frequency:    6.8028301410
  - # 10
    frequency:    7.1541419186
  - # 11
    frequency:    7.6391012030
  - # 12
    frequency:    7.8291973675
  - # 13
    frequency:    8.9404657800
  - # 14
    frequency:   11.4860047161
  - # 15
    frequency:   13.9844918398
  - # 16
    frequency:   14.1782431904
  - # 17
    frequency:   16.8656862107
  - # 18
    frequency:   17.4377762789
  - # 19
    frequency:   17.6275316038
  - # 20
    frequency:   27.2114021340
  - # 21
    frequency:   56.9361744934

- q-position: [    0.1363636,    0.0000000,    0.0000000 ]
  distance:    0.0486593
  band:
  - # 1
    frequency:    1.3012076770
  - # 2
    frequency:    1.6153714552
  - # 3
    frequency:    2.3926371879
  - # 4
    frequency:    2.8373593567
  - # 5
    frequency:    3.4497614330
  - # 6
    frequency:    4.8945935974
  - # 7
    frequency:    5.0988329314
  - # 8
    frequency:    5.8461116105
  - # 9
    frequency:    6.8005765540
  - # 10
    frequency:    7.1697000975
  - # 11
    frequency:    7.6567779364
  - # 12
    frequency:    7.8553017052
  - # 13
    frequency:    8.9517405082
  - # 14
    frequency:   11.4569600282
  - # 15
    frequency:   13.9898939021
  - # 16
    frequency:   14.1968869598
  - # 17
    frequency:   16.8568717320
  - # 18
    frequency:   17.4547188910
  - # 19
    frequency:   17.6535603439
  - # 20
    frequency:   27.2060727053
  - # 21
    frequency:   56.8956474950

- q-position: [    0.1414141,    0.0000000,    0.0000000 ]
  distance:    0.0504615
  band:
  - # 1
    frequency:    1.3794360679
  - # 2
    frequency:    1.6573248142
  - # 3
    frequency:    2.4672553332
  - # 4
    frequency:    2.9265263104
  - # 5
    frequency:    3.5620294000
  - # 6
    frequency:    4.9161633962
  - # 7
    frequency:    5.1190943517
  - # 8
    frequency:    5.8712008322
  - # 9
    frequency:    6.7983079426
  - # 10
    frequency:    7.1848544377
  - # 11
    frequency:    7.6737396458
  - # 12
    frequency:    7.8806956726
  - # 13
    frequency:    8.9633235122
  - # 14
    frequency:   11.4267707405
  - # 15
    frequency:   13.9953271082
  - # 16
    frequency:   14.2158214061
  - # 17
    frequency:   16.8477980045
  - # 18
    frequency:   17.4701938509
  - # 19
    frequency:   17.6777518643
  - # 20
    frequency:   27.2006311757
  - # 21
    frequency:   56.8542756510

- q-position: [    0.1464646,    0.0000000,    0.0000000 ]
  distance:    0.0522637
  band:
  - # 1
    frequency:    1.4579374979
  - # 2
    frequency:    1.6991039633
  - # 3
    frequency:    2.5410138775
  - # 4
    frequency:    3.0150472996
  - # 5
    frequency:    3.6723125424
  - # 6
    frequency:    4.9376778147
  - # 7
    frequency:    5.1386791866
  - # 8
    frequency:    5.8977267064
  - # 9
    frequency:    6.7960179506
  - # 10
    frequency:    7.1995598133
  - # 11
    frequency:    7.6899267452
  - # 12
    frequency:    7.9053718088
  - # 13
    frequency:    8.9751415932
  - # 14
    frequency:   11.3954582406
  - # 15
    frequency:   14.0007787823
  - # 16
    frequency:   14.2350152793
  - # 17
    frequency:   16.8384652072
  - # 18
    frequency:   17.4841088259
  - # 19
    frequency:   17.6999626245
  - # 20
    frequency:   27.1950870450
  - # 21
    frequency:   56.8121211312

- q-position: [    0.1515152,    0.0000000,    0.0000000 ]
  distance:    0.0540659
  band:
  - # 1
    frequency:    1.5366289670
  - # 2
    frequency:    1.7406835129
  - # 3
    frequency:    2.6138926661
  - # 4
    frequency:    3.1028839788
  - # 5
    frequency:    3.7803425116
  - # 6
    frequency:    4.9591032065
  - # 7
    frequency:    5.1578325229
  - # 8
    frequency:    5.9255317765
  - # 9
    frequency:    6.7937012915
  - # 10
    frequency:    7.2137823244
  - # 11
    frequency:    7.7052861668
  - # 12
    frequency:    7.9293316019
  - # 13
    frequency:    8.9871157973
  - # 14
    frequency:   11.3630486260
  - # 15
    frequency:   14.0062368323
  - # 16
    frequency:   14.2544378388
  - # 17
    frequency:   16.8288731474
  - # 18
    frequency:   17.4963866326
  - # 19
    frequency:   17.7200661863
  - # 20
    frequency:   27.1894500481
  - # 21