nqpoint: 300    
npath: 3      
segment_nqpoint:
- 100
- 100
- 100
labels:
- [ 'G', 'M' ]
- [ 'M', 'K' ]
- [ 'K', 'G' ]
reciprocal_lattice:
- [   0.30690492,   0.17719164,   0.00000000 ] # a*
- [   0.00000000,   0.35438327,   0.00000000 ] # b*
- [   0.00000000,   0.00000000,   0.04459119 ] # c*
natom: 5      
lattice:
- [     3.258338164692054,     0.000000000000000,     0.000000000000000 ] # a
- [    -1.629169082346027,     2.821803624735280,     0.000000000000000 ] # b
- [     0.000000000000000,     0.000000000000000,    22.425953464377461 ] # c
points:
- symbol: H # 1
  coordinates: [  0.666666984744047,  0.333332985985145,  0.401320729319093 ]
  mass: 1.007940
- symbol: N # 2
  coordinates: [  0.000000000000000,  0.000000000000000,  0.495197971530757 ]
  mass: 14.006700
- symbol: O # 3
  coordinates: [  0.333332985432215,  0.666666983183674,  0.598679270680907 ]
  mass: 15.999400
- symbol: Sc # 4
  coordinates: [  0.333332985432215,  0.666666983183674,  0.449470026428761 ]
  mass: 44.955912
- symbol: Sc # 5
  coordinates: [  0.666666984744047,  0.333332985985145,  0.566415413764673 ]
  mass: 44.955912

phonon:
- q-position: [    0.0000000,    0.0000000,    0.0000000 ]
  distance:    0.0000000
  band:
  - # 1
    frequency:   -0.0000306369
  - # 2
    frequency:   -0.0000001477
  - # 3
    frequency:    0.0000233346
  - # 4
    frequency:    3.9826466264
  - # 5
    frequency:    3.9826466265
  - # 6
    frequency:    7.5875937103
  - # 7
    frequency:   12.0823226401
  - # 8
    frequency:   12.0823226401
  - # 9
    frequency:   14.8472346143
  - # 10
    frequency:   14.8472346144
  - # 11
    frequency:   15.2431695561
  - # 12
    frequency:   17.9462756786
  - # 13
    frequency:   24.6753013031
  - # 14
    frequency:   24.6753013032
  - # 15
    frequency:   29.1835388813

- q-position: [    0.0050505,    0.0000000,    0.0000000 ]
  distance:    0.0017898
  band:
  - # 1
    frequency:    0.0023870334
  - # 2
    frequency:    0.0877378311
  - # 3
    frequency:    0.1523408624
  - # 4
    frequency:    3.9829801856
  - # 5
    frequency:    3.9859983518
  - # 6
    frequency:    7.5874428450
  - # 7
    frequency:   12.0818603194
  - # 8
    frequency:   12.0893309405
  - # 9
    frequency:   14.8444676674
  - # 10
    frequency:   14.8467741508
  - # 11
    frequency:   15.2450687259
  - # 12
    frequency:   17.9461541350
  - # 13
    frequency:   24.6749377595
  - # 14
    frequency:   24.6765732298
  - # 15
    frequency:   29.1827878354

- q-position: [    0.0101010,    0.0000000,    0.0000000 ]
  distance:    0.0035796
  band:
  - # 1
    frequency:    0.0096068628
  - # 2
    frequency:    0.1754370850
  - # 3
    frequency:    0.3046387481
  - # 4
    frequency:    3.9839817205
  - # 5
    frequency:    3.9960275825
  - # 6
    frequency:    7.5869908638
  - # 7
    frequency:   12.0804746076
  - # 8
    frequency:   12.1102131463
  - # 9
    frequency:   14.8364525765
  - # 10
    frequency:   14.8453944286
  - # 11
    frequency:   15.2505439402
  - # 12
    frequency:   17.9457928534
  - # 13
    frequency:   24.6738480391
  - # 14
    frequency:   24.6803916959
  - # 15
    frequency:   29.1805358509

- q-position: [    0.0151515,    0.0000000,    0.0000000 ]
  distance:    0.0053694
  band:
  - # 1
    frequency:    0.0215933102
  - # 2
    frequency:    0.2630591596
  - # 3
    frequency:    0.4568497415
  - # 4
    frequency:    3.9856537972
  - # 5
    frequency:    4.0126576409
  - # 6
    frequency:    7.5862396027
  - # 7
    frequency:   12.0781692675
  - # 8
    frequency:   12.1445393982
  - # 9
    frequency:   14.8239748453
  - # 10
    frequency:   14.8431004369
  - # 11
    frequency:   15.2590034835
  - # 12
    frequency:   17.9452021553
  - # 13
    frequency:   24.6720348718
  - # 14
    frequency:   24.6867646714
  - # 15
    frequency:   29.1767863941

- q-position: [    0.0202020,    0.0000000,    0.0000000 ]
  distance:    0.0071593
  band:
  - # 1
    frequency:    0.0382778325
  - # 2
    frequency:    0.3505653954
  - # 3
    frequency:    0.6089280886
  - # 4
    frequency:    3.9880006665
  - # 5
    frequency:    4.0357644882
  - # 6
    frequency:    7.5851920988
  - # 7
    frequency:   12.0749506076
  - # 8
    frequency:   12.1915870877
  - # 9
    frequency:   14.8081572853
  - # 10
    frequency:   14.8399004385
  - # 11
    frequency:   15.2696590996
  - # 12
    frequency:   17.9444001587
  - # 13
    frequency:   24.6695027960
  - # 14
    frequency:   24.6957051464
  - # 15
    frequency:   29.1715452625

- q-position: [    0.0252525,    0.0000000,    0.0000000 ]
  distance:    0.0089491
  band:
  - # 1
    frequency:    0.0595665268
  - # 2
    frequency:    0.4379170530
  - # 3
    frequency:    0.7608253289
  - # 4
    frequency:    3.9910282271
  - # 5
    frequency:    4.0651820045
  - # 6
    frequency:    7.5838525628
  - # 7
    frequency:   12.0708275373
  - # 8
    frequency:   12.2503307374
  - # 9
    frequency:   14.7903076273
  - # 10
    frequency:   14.8358058902
  - # 11
    frequency:   15.2816962393
  - # 12
    frequency:   17.9434141536
  - # 13
    frequency:   24.6662581435
  - # 14
    frequency:   24.7072306964
  - # 15
    frequency:   29.1648206148

- q-position: [    0.0303030,    0.0000000,    0.0000000 ]
  distance:    0.0107389
  band:
  - # 1
    frequency:    0.0853422154
  - # 2
    frequency:    0.5250752913
  - # 3
    frequency:    0.9124894977
  - # 4
    frequency:    3.9947439718
  - # 5
    frequency:    4.1007087234
  - # 6
    frequency:    7.5822263531
  - # 7
    frequency:   12.0658116417
  - # 8
    frequency:   12.3194264758
  - # 9
    frequency:   14.7718366125
  - # 10
    frequency:   14.8308313354
  - # 11
    frequency:   15.2943816457
  - # 12
    frequency:   17.9422825359
  - # 13
    frequency:   24.6623090167
  - # 14
    frequency:   24.7213628831
  - # 15
    frequency:   29.1566230138

- q-position: [    0.0353535,    0.0000000,    0.0000000 ]
  distance:    0.0125287
  band:
  - # 1
    frequency:    0.1154669197
  - # 2
    frequency:    0.6120011506
  - # 3
    frequency:    1.0638644074
  - # 4
    frequency:    3.9991569200
  - # 5
    frequency:    4.1421154740
  - # 6
    frequency:    7.5803199608
  - # 7
    frequency:   12.0599172742
  - # 8
    frequency:   12.3971907655
  - # 9
    frequency:   14.7542482993
  - # 10
    frequency:   14.8249942666
  - # 11
    frequency:   15.3071062797
  - # 12
    frequency:   17.9410573090
  - # 13
    frequency:   24.6576652602
  - # 14
    frequency:   24.7381265013
  - # 15
    frequency:   29.1469654806

- q-position: [    0.0404040,    0.0000000,    0.0000000 ]
  distance:    0.0143185
  band:
  - # 1
    frequency:    0.1497846574
  - # 2
    frequency:    0.6986555414
  - # 3
    frequency:    1.2148890236
  - # 4
    frequency:    4.0042775343
  - # 5
    frequency:    4.1891533609
  - # 6
    frequency:    7.5781410146
  - # 7
    frequency:   12.0531616649
  - # 8
    frequency:   12.4815749334
  - # 9
    frequency:   14.7391764175
  - # 10
    frequency:   14.8183149635
  - # 11
    frequency:   15.3193875168
  - # 12
    frequency:   17.9398071698
  - # 13
    frequency:   24.6523384259
  - # 14
    frequency:   24.7575486809
  - # 15
    frequency:   29.1358635615

- q-position: [    0.0454545,    0.0000000,    0.0000000 ]
  distance:    0.0161083
  band:
  - # 1
    frequency:    0.1881244480
  - # 2
    frequency:    0.7849992398
  - # 3
    frequency:    1.3654969437
  - # 4
    frequency:    4.0101176220
  - # 5
    frequency:    4.2415615527
  - # 6
    frequency:    7.5756983129
  - # 7
    frequency:   12.0455650399
  - # 8
    frequency:   12.5701414158
  - # 9
    frequency:   14.7284374266
  - # 10
    frequency:   14.8108163063
  - # 11
    frequency:   15.3308533380
  - # 12
    frequency:   17.9386212016
  - # 13
    frequency:   24.6463417322
  - # 14
    frequency:   24.7796578578
  - # 15
    frequency:   29.1233354069

- q-position: [    0.0505051,    0.0000000,    0.0000000 ]
  distance:    0.0178981
  band:
  - # 1
    frequency:    0.2303034016
  - # 2
    frequency:    0.8709928909
  - # 3
    frequency:    1.5156159872
  - # 4
    frequency:    4.0166902218
  - # 5
    frequency:    4.2990744353
  - # 6
    frequency:    7.5730018874
  - # 7
    frequency:   12.0371507504
  - # 8
    frequency:   12.6600558132
  - # 9
    frequency:   14.7240719690
  - # 10
    frequency:   14.8025235695
  - # 11
    frequency:   15.3412220441
  - # 12
    frequency:   17.9376132050
  - # 13
    frequency:   24.6396900171
  - # 14
    frequency:   24.8044826256
  - # 15
    frequency:   29.1094018628

- q-position: [    0.0555556,    0.0000000,    0.0000000 ]
  distance:    0.0196880
  band:
  - # 1
    frequency:    0.2761297718
  - # 2
    frequency:    0.9565970218
  - # 3
    frequency:    1.6651679040
  - # 4
    frequency:    4.0240094751
  - # 5
    frequency:    4.3614277997
  - # 6
    frequency:    7.5700631024
  - # 7
    frequency:   12.0279454054
  - # 8
    frequency:   12.7481213040
  - # 9
    frequency:   14.7283414411
  - # 10
    frequency:   14.7934641968
  - # 11
    frequency:   15.3502835979
  - # 12
    frequency:   17.9369267043
  - # 13
    frequency:   24.6323996852
  - # 14
    frequency:   24.8320504798
  - # 15
    frequency:   29.0940865758

- q-position: [    0.0606061,    0.0000000,    0.0000000 ]
  distance:    0.0214778
  band:
  - # 1
    frequency:    0.3254058675
  - # 2
    frequency:    1.0417720642
  - # 3
    frequency:    1.8140682091
  - # 4
    frequency:    4.0320904820
  - # 5
    frequency:    4.4283638583
  - # 6
    frequency:    7.5668947896
  - # 7
    frequency:   12.0179790049
  - # 8
    frequency:   12.8308949580
  - # 9
    frequency:   14.7436375181
  - # 10
    frequency:   14.7836675638
  - # 11
    frequency:   15.3578846991
  - # 12
    frequency:   17.9367406627
  - # 13
    frequency:   24.6244886495
  - # 14
    frequency:   24.8623864675
  - # 15
    frequency:   29.0774161114

- q-position: [    0.0656566,    0.0000000,    0.0000000 ]
  distance:    0.0232676
  band:
  - # 1
    frequency:    0.3779307376
  - # 2
    frequency:    1.1264783888
  - # 3
    frequency:    1.9622261517
  - # 4
    frequency:    4.0409491425
  - # 5
    frequency:    4.4996349926
  - # 6
    frequency:    7.5635114207
  - # 7
    frequency:   12.0072850686
  - # 8
    frequency:   12.9049260907
  - # 9
    frequency:   14.7722635506
  - # 10
    frequency:   14.7731647288
  - # 11
    frequency:   15.3639181331
  - # 12
    frequency:   17.9372759277
  - # 13
    frequency:   24.6159762674
  - # 14
    frequency:   24.8955117517
  - # 15
    frequency:   29.0594200881

- q-position: [    0.0707071,    0.0000000,    0.0000000 ]
  distance:    0.0250574
  band:
  - # 1
    frequency:    0.4335025677
  - # 2
    frequency:    1.2106763522
  - # 3
    frequency:    2.1095448268
  - # 4
    frequency:    4.0506019817
  - # 5
    frequency:    4.5750062324
  - # 6
    frequency:    7.5599293174
  - # 7
    frequency:   11.9959007550
  - # 8
    frequency:   12.9671231162
  - # 9
    frequency:   14.7619881784
  - # 10
    frequency:   14.8160806093
  - # 11
    frequency:   15.3683169286
  - # 12
    frequency:   17.9388023788
  - # 13
    frequency:   24.6068832710
  - # 14
    frequency:   24.9314420986
  - # 15
    frequency:   29.0401313275

- q-position: [    0.0757576,    0.0000000,    0.0000000 ]
  distance:    0.0268472
  band:
  - # 1
    frequency:    0.4919207531
  - # 2
    frequency:    1.2943263578
  - # 3
    frequency:    2.2559214383
  - # 4
    frequency:    4.0610659602
  - # 5
    frequency:    4.6542565335
  - # 6
    frequency:    7.5561669015
  - # 7
    frequency:   11.9838669665
  - # 8
    frequency:   13.0151772960
  - # 9
    frequency:   14.7501715701
  - # 10
    frequency:   14.8760876039
  - # 11
    frequency:   15.3710554638
  - # 12
    frequency:   17.9416466570
  - # 13
    frequency:   24.5972316934
  - # 14
    frequency:   24.9701862956
  - # 15
    frequency:   29.0195860233

- q-position: [    0.0808081,    0.0000000,    0.0000000 ]
  distance:    0.0286370
  band:
  - # 1
    frequency:    0.5529876342
  - # 2
    frequency:    1.3773889302
  - # 3
    frequency:    2.4012477194
  - # 4
    frequency:    4.0723582690
  - # 5
    frequency:    4.7371789678
  - # 6
    frequency:    7.5522449885
  - # 7
    frequency:   11.9712284352
  - # 8
    frequency:   13.0478900331
  - # 9
    frequency:   14.7377494763
  - # 10
    frequency:   14.9520811680
  - # 11
    frequency:   15.3721654224
  - # 12
    frequency:   17.9462001740
  - # 13
    frequency:   24.5870447888
  - # 14
    frequency:   25.0117445038
  - # 15
    frequency:   28.9978239322

- q-position: [    0.0858586,    0.0000000,    0.0000000 ]
  distance:    0.0304268
  band:
  - # 1
    frequency:    0.6165098999
  - # 2
    frequency:    1.4598248063
  - # 3
    frequency:    2.5454105151
  - # 4
    frequency:    4.0844961095
  - # 5
    frequency:    4.8235799620
  - # 6
    frequency:    7.5481871309
  - # 7
    frequency:   11.9580337851
  - # 8
    frequency:   13.0652523751
  - # 9
    frequency:   14.7247571342
  - # 10
    frequency:   15.0425159816
  - # 11
    frequency:   15.3717978904
  - # 12
    frequency:   17.9529267853
  - # 13
    frequency:   24.5763469497
  - # 14
    frequency:   25.0561065497
  - # 15
    frequency:   28.9748885886

- q-position: [    0.0909091,    0.0000000,    0.0000000 ]
  distance:    0.0322167
  band:
  - # 1
    frequency:    0.6822996788
  - # 2
    frequency:    1.5415950419
  - # 3
    frequency:    2.6882925223
  - # 4
    frequency:    4.0974964580
  - # 5
    frequency:    4.9132777303
  - # 6
    frequency:    7.5440200214
  - # 7
    frequency:   11.9443355645
  - # 8
    frequency:   13.0682458527
  - # 9
    frequency:   14.7112302040
  - # 10
    frequency:   15.1444351180
  - # 11
    frequency:   15.3704940669
  - # 12
    frequency:   17.9623690130
  - # 13
    frequency:   24.5651636182
  - # 14
    frequency:   25.1032501590
  - # 15
    frequency:   28.9508275499

- q-position: [    0.0959596,    0.0000000,    0.0000000 ]
  distance:    0.0340065
  band:
  - # 1
    frequency:    0.7501753484
  - # 2
    frequency:    1.6226611345
  - # 3
    frequency:    2.8297731780
  - # 4
    frequency:    4.1113758159
  - # 5
    frequency:    5.0061000420
  - # 6
    frequency:    7.5397739700
  - # 7
    frequency:   11.9301902473
  - # 8
    frequency:   13.0584784558
  - # 9
    frequency:   14.6972045403
  - # 10
    frequency:   15.2519194841
  - # 11
    frequency:   15.3711036885
  - # 12
    frequency:   17.9751509533
  - # 13
    frequency:   24.5535211952
  - # 14
    frequency:   25.1531391371
  - # 15
    frequency:   28.9256926747

- q-position: [    0.1010101,    0.0000000,    0.0000000 ]
  distance:    0.0357963
  band:
  - # 1
    frequency:    0.8199620966
  - # 2
    frequency:    1.7029851641
  - # 3
    frequency:    2.9697296720
  - # 4
    frequency:    4.1261499460
  - # 5
    frequency:    5.1018814541
  - # 6
    frequency:    7.5354834764
  - # 7
    frequency:   11.9156581957
  - # 8
    frequency:   13.0378166014
  - # 9
    frequency:   14.6827159785
  - # 10
    frequency:   15.3307099468
  - # 11
    frequency:   15.4045397047
  - # 12
    frequency:   17.9919750132
  - # 13
    frequency:   24.5414469449
  - # 14
    frequency:   25.2057215017
  - # 15
    frequency:   28.8995404417

- q-position: [    0.1060606,    0.0000000,    0.0000000 ]
  distance:    0.0375861
  band:
  - # 1
    frequency:    0.8914922729
  - # 2
    frequency:    1.7825299495
  - # 3
    frequency:    3.1080380519
  - # 4
    frequency:    4.1418335953
  - # 5
    frequency:    5.2004601238
  - # 6
    frequency:    7.5311879268
  - # 7
    frequency:   11.9008035841
  - # 8
    frequency:   13.0081160294
  - # 9
    frequency:   14.6678001397
  - # 10
    frequency:   15.3379806441
  - # 11
    frequency:   15.5102918766
  - # 12
    frequency:   18.0136085027
  - # 13
    frequency:   24.5289688972
  - # 14
    frequency:   25.2609275770
  - # 15
    frequency:   28.8724323175

- q-position: [    0.1111111,    0.0000000,    0.0000000 ]
  distance:    0.0393759
  band:
  - # 1
    frequency:    0.9646055657
  - # 2
    frequency:    1.8612592214
  - # 3
    frequency:    3.2445743723
  - # 4
    frequency:    4.1584402062
  - # 5
    frequency:    5.3016742964
  - # 6
    frequency:    7.5269324597
  - # 7
    frequency:   11.8856942794
  - # 8
    frequency:   12.9710723054
  - # 9
    frequency:   14.6524922561
  - # 10
    frequency:   15.3306435790
  - # 11
    frequency:   15.6283034520
  - # 12
    frequency:   18.0408552852
  - # 13
    frequency:   24.5161157470
  - # 14
    frequency:   25.3186680640
  - # 15
    frequency:   28.8444351787

- q-position: [    0.1161616,    0.0000000,    0.0000000 ]
  distance:    0.0411657
  band:
  - # 1
    frequency:    1.0391490386
  - # 2
    frequency:    1.9391378104
  - # 3
    frequency:    3.3792158300
  - # 4
    frequency:    4.1759816173
  - # 5
    frequency:    5.4053585363
  - # 6
    frequency:    7.5227690588
  - # 7
    frequency:   11.8704016764
  - # 8
    frequency:   12.9281636448
  - # 9
    frequency:   14.6368270186
  - # 10
    frequency:   15.3195984684
  - # 11
    frequency:   15.7448288726
  - # 12
    frequency:   18.0745079572
  - # 13
    frequency:   24.5029167516
  - # 14
    frequency:   25.3788321053
  - # 15
    frequency:   28.8156218022

- q-position: [    0.1212121,    0.0000000,    0.0000000 ]
  distance:    0.0429555
  band:
  - # 1
    frequency:    1.1149770575
  - # 2
    frequency:    2.0161318480
  - # 3
    frequency:    3.5118418174
  - # 4
    frequency:    4.1944677569
  - # 5
    frequency:    5.5113397361
  - # 6
    frequency:    7.5187579660
  - # 7
    frequency:   11.8550004871
  - # 8
    frequency:   12.8806486767
  - # 9
    frequency:   14.6208384479
  - # 10
    frequency:   15.3061585061
  - # 11
    frequency:   15.8560813227
  - # 12
    frequency:   18.1152785711
  - # 13
    frequency:   24.4894016269
  - # 14
    frequency:   25.4412853708
  - # 15
    frequency:   28.7860714307

- q-position: [    0.1262626,    0.0000000,    0.0000000 ]
  distance:    0.0447454
  band:
  - # 1
    frequency:    1.1919511317
  - # 2
    frequency:    2.0922089790
  - # 3
    frequency:    3.6423348226
  - # 4
    frequency:    4.2139063308
  - # 5
    frequency:    5.6194328851
  - # 6
    frequency:    7.5149695430
  - # 7
    frequency:   11.8395684827
  - # 8
    frequency:   12.8295901174
  - # 9
    frequency:   14.6045597898
  - # 10
    frequency:   15.2906708709
  - # 11
    frequency:   15.9596766249
  - # 12
    frequency:   18.1637116704
  - # 13
    frequency:   24.4756004421
  - # 14
    frequency:   25.5058681968
  - # 15
    frequency:   28.7558704283

- q-position: [    0.1313131,    0.0000000,    0.0000000 ]
  distance:    0.0465352
  band:
  - # 1
    frequency:    1.2699396935
  - # 2
    frequency:    2.1673385809
  - # 3
    frequency:    3.7705811081
  - # 4
    frequency:    4.2343025096
  - # 5
    frequency:    5.7294364992
  - # 6
    frequency:    7.5114867800
  - # 7
    frequency:   11.8241861892
  - # 8
    frequency:   12.7758868550
  - # 9
    frequency:   14.5880234349
  - # 10
    frequency:   15.2732768887
  - # 11
    frequency:   16.0539338668
  - # 12
    frequency:   18.2200918983
  - # 13
    frequency:   24.4615435142
  - # 14
    frequency:   25.5723938158
  - # 15
    frequency:   28.7251130366

- q-position: [    0.1363636,    0.0000000,    0.0000000 ]
  distance:    0.0483250
  band:
  - # 1
    frequency:    1.3488178329
  - # 2
    frequency:    2.2414919877
  - # 3
    frequency:    3.8964711076
  - # 4
    frequency:    4.2556586186
  - # 5
    frequency:    5.8411274948
  - # 6
    frequency:    7.5084087518
  - # 7
    frequency:   11.8089365376
  - # 8
    frequency:   12.7203056624
  - # 9
    frequency:   14.5712608615
  - # 10
    frequency:   15.2540544605
  - # 11
    frequency:   16.1377786513
  - # 12
    frequency:   18.2843664905
  - # 13
    frequency:   24.4472613024
  - # 14
    frequency:   25.6406467195
  - # 15
    frequency:   28.6939022452

- q-position: [    0.1414141,    0.0000000,    0.0000000 ]
  distance:    0.0501148
  band:
  - # 1
    frequency:    1.4284670007
  - # 2
    frequency:    2.3146427119
  - # 3
    frequency:    4.0198995029
  - # 4
    frequency:    4.2779738365
  - # 5
    frequency:    5.9542550981
  - # 6
    frequency:    7.5058554862
  - # 7
    frequency:   11.7939044690
  - # 8
    frequency:   12.6635089444
  - # 9
    frequency:   14.5543026025
  - # 10
    frequency:   15.2330580872
  - # 11
    frequency:   16.2107146894
  - # 12
    frequency:   18.3561052165
  - # 13
    frequency:   24.4327843029
  - # 14
    frequency:   25.7103812017
  - # 15
    frequency:   28.6623507853

- q-position: [    0.1464646,    0.0000000,    0.0000000 ]
  distance:    0.0519046
  band:
  - # 1
    frequency:    1.5087746934
  - # 2
    frequency:    2.3867666604
  - # 3
    frequency:    4.1407649615
  - # 4
    frequency:    4.3012439082
  - # 5
    frequency:    6.0685330855
  - # 6
    frequency:    7.5039749809
  - # 7
    frequency:   11.7791765000
  - # 8
    frequency:   12.6060775834
  - # 9
    frequency:   14.5371782329
  - # 10
    frequency:   15.2103333088
  - # 11
    frequency:   16.2727728766
  - # 12
    frequency:   18.4345127460
  - # 13
    frequency:   24.4181429455
  - # 14
    frequency:   25.7813201278
  - # 15
    frequency:   28.6305822543

- q-position: [    0.1515152,    0.0000000,    0.0000000 ]
  distance:    0.0536944
  band:
  - # 1
    frequency:    1.5896341261
  - # 2
    frequency:    2.4578423366
  - # 3
    frequency:    4.2589695500
  - # 4
    frequency:    4.3254608789
  - # 5
    frequency:    6.1836291736
  - # 6
    frequency:    7.5029535506
  - # 7
    frequency:   11.7648402489
  - # 8
    frequency:   12.5485291280
  - # 9
    frequency:   14.5199163781
  - # 10
    frequency:   15.1859229649
  - # 11
    frequency:   16.3244208955
  - # 12
    frequency:   18.5184927474
  - # 13
    frequency:   24.4033674913
  - # 14
    frequency:   25.8531539795
  - # 15
    frequency:   28.5987323695

- q-position: [    0.1565657,    0.0000000,    0.0000000 ]
  distance:    0.0554842
  band:
  - # 1
    frequency:    1.6709439015
  - # 2
    frequency:    2.5278510221
  - # 3
    frequency:    4.3506128562
  - # 4
    frequency:    4.3744178658
  - # 5
    frequency:    6.2991496046
  - # 6
    frequency:    7.5030314291
  - # 7
    frequency:   11.7509839284
  - # 8
    frequency:   12.4913319816
  - # 9
    frequency:   14.5025447398
  - # 10
    frequency:   15.1598703618
  - # 11
    frequency:   16.3664442183
  - # 12
    frequency:   18.6067470934
  - # 13
    frequency:   24.3884879328
  - # 14
    frequency:   25.9255402253
  - # 15
    frequency:   28.5669503369

- q-position: [    0.1616162,    0.0000000,    0.0000000 ]
  distance:    0.0572741
  band:
  - # 1
    frequency:    1.7526076798
  - # 2
    frequency:    2.5967769321
  - # 3
    frequency:    4.3766838082
  - # 4
    frequency:    4.4870159570
  - # 5
    frequency:    6.4146157048
  - # 6
    frequency:    7.5045267924
  - # 7
    frequency:   11.7376958087
  - # 8
    frequency:   12.4349163188
  - # 9
    frequency:   14.4850901373
  - # 10
    frequency:   15.1322211042
  - # 11
    frequency:   16.3998205654
  - # 12
    frequency:   18.6978856287
  - # 13
    frequency:   24.3735338963
  - # 14
    frequency:   25.9981030750
  - # 15
    frequency:   28.5354002989

- q-position: [    0.1666667,    0.0000000,    0.0000000 ]
  distance:    0.0590639
  band:
  - # 1
    frequency:    1.8345338523
  - # 2
    frequency:    2.6646073339
  - # 3
    frequency:    4.4036534053
  - # 4
    frequency:    4.5966701294
  - # 5
    frequency:    6.5294271609
  - # 6
    frequency:    7.5078733801
  - # 7
    frequency:   11.7250636560
  - # 8
    frequency:   12.3796823753
  - # 9
    frequency:   14.4675785623
  - # 10
    frequency:   15.1030242782
  - # 11
    frequency:   16.4256084595
  - # 12
    frequency:   18.7905245331
  - # 13
    frequency:   24.3585345490
  - # 14
    frequency:   26.0704336892
  - # 15
    frequency:   28.5042627911

- q-position: [    0.1717172,    0.0000000,    0.0000000 ]
  distance:    0.0608537
  band:
  - # 1
    frequency:    1.9166352230
  - # 2
    frequency:    2.7313326255
  - # 3
    frequency:    4.4314969124
  - # 4
    frequency:    4.7032857513
  - # 5
    frequency:    6.6428037415
  - # 6
    frequency:    7.5136798957
  - # 7
    frequency:   11.7131741524
  - # 8
    frequency:   12.3260066444
  - # 9
    frequency:   14.4500352440
  - # 10
    frequency:   15.0723332712
  - # 11
    frequency:   16.4448619120
  - # 12
    frequency:   18.8833604370
  - # 13
    frequency:   24.3435185078
  - # 14
    frequency:   26.1420909480
  - # 15
    frequency:   28.4737360899

- q-position: [    0.1767677,    0.0000000,    0.0000000 ]
  distance:    0.0626435
  band:
  - # 1
    frequency:    1.9988286990
  - # 2
    frequency:    2.7969463637
  - # 3
    frequency:    4.4601851383
  - # 4
    frequency:    4.8067661833
  - # 5
    frequency:    6.7536938131
  - # 6
    frequency:    7.5228227375
  - # 7
    frequency:   11.7021123021
  - # 8
    frequency:   12.2742463875
  - # 9
    frequency:   14.4324847229
  - # 10
    frequency:   15.0402063560
  - # 11
    frequency:   16.4585738386
  - # 12
    frequency:   18.9752171818
  - # 13
    frequency:   24.3285137536
  - # 14
    frequency:   26.2126029299
  - # 15
    frequency:   28.4440372578

- q-position: [    0.1818182,    0.0000000,    0.0000000 ]
  distance:    0.0644333
  band:
  - # 1
    frequency:    2.0810349933
  - # 2
    frequency:    2.8614452398
  - # 3
    frequency:    4.4896844482
  - # 4
    frequency:    4.9070119593
  - # 5
    frequency:    6.8606388048
  - # 6
    frequency:    7.5365828084
  - # 7
    frequency:   11.6919608317
  - # 8
    frequency:   12.2247427706
  - # 9
    frequency:   14.4149509294
  - # 10
    frequency:   15.0067070971
  - # 11
    frequency:   16.4676444060
  - # 12
    frequency:   19.0650686894
  - # 13
    frequency:   24.3135475502
  - # 14
    frequency:   26.2814693339
  - # 15
    frequency:   28.4154026011

- q-position: [    0.1868687,    0.0000000,    0.0000000 ]
  distance:    0.0662231
  band:
  - # 1
    frequency:    2.1631783405
  - # 2
    frequency:    2.9248289967
  - # 3
    frequency:    4.5199568425
  - # 4
    frequency:    5.0039203436
  - # 5
    frequency:    6.9616055698
  - # 6
    frequency:    7.5568143640
  - # 7
    frequency:   11.6827995887
  - # 8
    frequency:   12.1778228480
  - # 9
    frequency:   14.3974572655
  - # 10
    frequency:   14.9719046079
  - # 11
    frequency:   16.4728678823
  - # 12
    frequency:   19.1520441630
  - # 13
    frequency:   24.2986463671
  - # 14
    frequency:   26.3481651822
  - # 15
    frequency:   28.3880871250

- q-position: [    0.1919192,    0.0000000,    0.0000000 ]
  distance:    0.0680130
  band:
  - # 1
    frequency:    2.2451862275
  - # 2
    frequency:    2.9871002879
  - # 3
    frequency:    4.5509601037
  - # 4
    frequency:    5.0973853799
  - # 5
    frequency:    7.0538904659
  - # 6
    frequency:    7.5860419996
  - # 7
    frequency:   11.6747049465
  - # 8
    frequency:   12.1338005546
  - # 9
    frequency:   14.3800266875
  - # 10
    frequency:   14.9358736761
  - # 11
    frequency:   16.4749315929
  - # 12
    frequency:   19.2354218884
  - # 13
    frequency:   24.2838358086
  - # 14
    frequency:   26.4121462708
  - # 15
    frequency:   28.3623624370

- q-position: [    0.1969697,    0.0000000,    0.0000000 ]
  distance:    0.0698028
  band:
  - # 1
    frequency:    2.3269891404
  - # 2
    frequency:    3.0482644759
  - # 3
    frequency:    4.5826480124
  - # 4
    frequency:    5.1872985306
  - # 5
    frequency:    7.1344033215
  - # 6
    frequency:    7.6271775439
  - # 7
    frequency:   11.6677492212
  - # 8
    frequency:   12.0929768184
  - # 9
    frequency:   14.3626817871
  - # 10
    frequency:   14.8986947708
  - # 11
    frequency:   16.4744218708
  - # 12
    frequency:   19.3146166793
  - # 13
    frequency:   24.2691405479
  - # 14
    frequency:   26.4728569648
  - # 15
    frequency:   28.3385124066

- q-position: [    0.2020202,    0.0000000,    0.0000000 ]
  distance:    0.0715926
  band:
  - # 1
    frequency:    2.4085203296
  - # 2
    frequency:    3.1083293758
  - # 3
    frequency:    4.6149706276
  - # 4
    frequency:    5.2735499850
  - # 5
    frequency:    7.2007190443
  - # 6
    frequency:    7.6824690604
  - # 7
    frequency:   11.6620001065
  - # 8
    frequency:   12.0556388705
  - # 9
    frequency:   14.3454448680
  - # 10
    frequency:   14.8604539494
  - # 11
    frequency:   16.4718334320
  - # 12
    frequency:   19.3891644994
  - # 13
    frequency:   24.2545842669
  - # 14
    frequency:   26.5297410104
  - # 15
    frequency:   28.3168258167

- q-position: [    0.2070707,    0.0000000,    0.0000000 ]
  distance:    0.0733824
  band:
  - # 1
    frequency:    2.4897155940
  - # 2
    frequency:    3.1673049466
  - # 3
    frequency:    4.6478746281
  - # 4
    frequency:    5.3560306831
  - # 5
    frequency:    7.2525123339
  - # 6
    frequency:    7.7520664726
  - # 7
    frequency:   11.6575201336
  - # 8
    frequency:   12.0220588104
  - # 9
    frequency:   14.3283380191
  - # 10
    frequency:   14.8212426800
  - # 11
    frequency:   16.4675799324
  - # 12
    frequency:   19.4587064908
  - # 13
    frequency:   24.2401896022
  - # 14
    frequency:   26.5822559806
  - # 15
    frequency:   28.2975853004

- q-position: [    0.2121212,    0.0000000,    0.0000000 ]
  distance:    0.0751722
  band:
  - # 1
    frequency:    2.5705130850
  - # 2