nqpoint: 300    
npath: 3      
segment_nqpoint:
- 100
- 100
- 100
labels:
- [ 'G', 'M' ]
- [ 'M', 'K' ]
- [ 'K', 'G' ]
reciprocal_lattice:
- [   0.29160937,   0.16836075,   0.00000000 ] # a*
- [   0.00000000,   0.33672149,   0.00000000 ] # b*
- [   0.00000000,   0.00000000,   0.03626624 ] # c*
natom: 8      
lattice:
- [     3.429245113660425,     0.000000000000000,     0.000000000000000 ] # a
- [    -1.714622556830212,     2.969813384209903,     0.000000000000000 ] # b
- [     0.000000000000000,     0.000000000000000,    27.573853098331647 ] # c
points:
- symbol: C # 1
  coordinates: [  0.000000000000000,  0.000000000000000,  0.534856602704295 ]
  mass: 12.010700
- symbol: C # 2
  coordinates: [  0.333332985432215,  0.666666983183674,  0.629828050315101 ]
  mass: 12.010700
- symbol: C # 3
  coordinates: [  0.666666984744048,  0.333332985985145,  0.369568936508907 ]
  mass: 12.010700
- symbol: Hf # 4
  coordinates: [  0.333332985432215,  0.666666983183674,  0.491040780173537 ]
  mass: 178.490000
- symbol: Hf # 5
  coordinates: [  0.666666984744048,  0.333332985985145,  0.577686301192759 ]
  mass: 178.490000
- symbol: N # 6
  coordinates: [  0.333332985432215,  0.666666983183674,  0.673603831575336 ]
  mass: 14.006700
- symbol: N # 7
  coordinates: [  0.666666984744048,  0.333332985985145,  0.326396168424664 ]
  mass: 14.006700
- symbol: S # 8
  coordinates: [  0.666666984744048,  0.333332985985145,  0.430695420772003 ]
  mass: 32.065000

phonon:
- q-position: [    0.0000000,    0.0000000,    0.0000000 ]
  distance:    0.0000000
  band:
  - # 1
    frequency:   -1.8839889582
  - # 2
    frequency:   -1.8839889581
  - # 3
    frequency:   -0.0000225218
  - # 4
    frequency:    0.0000002140
  - # 5
    frequency:    0.0000201256
  - # 6
    frequency:    1.4559104923
  - # 7
    frequency:    1.4559104924
  - # 8
    frequency:    3.5035892845
  - # 9
    frequency:    3.5035892846
  - # 10
    frequency:    4.6209813405
  - # 11
    frequency:    6.3117320201
  - # 12
    frequency:    6.3117320202
  - # 13
    frequency:    6.8255300314
  - # 14
    frequency:    6.8255300314
  - # 15
    frequency:    7.1992254177
  - # 16
    frequency:    8.1677042084
  - # 17
    frequency:   10.5412731803
  - # 18
    frequency:   10.5412731804
  - # 19
    frequency:   15.4150554628
  - # 20
    frequency:   17.2082251936
  - # 21
    frequency:   17.2082251938
  - # 22
    frequency:   19.8708296803
  - # 23
    frequency:   60.2297764304
  - # 24
    frequency:   64.8607640625

- q-position: [    0.0050505,    0.0000000,    0.0000000 ]
  distance:    0.0017006
  band:
  - # 1
    frequency:   -1.8837060973
  - # 2
    frequency:   -1.8832056937
  - # 3
    frequency:    0.0015306083
  - # 4
    frequency:    0.0348667288
  - # 5
    frequency:    0.0825656952
  - # 6
    frequency:    1.4559302830
  - # 7
    frequency:    1.4569309066
  - # 8
    frequency:    3.5035805610
  - # 9
    frequency:    3.5039314213
  - # 10
    frequency:    4.6208325732
  - # 11
    frequency:    6.3120714186
  - # 12
    frequency:    6.3125784632
  - # 13
    frequency:    6.8256624107
  - # 14
    frequency:    6.8259793674
  - # 15
    frequency:    7.1990339363
  - # 16
    frequency:    8.1676680245
  - # 17
    frequency:   10.5414202169
  - # 18
    frequency:   10.5415247303
  - # 19
    frequency:   15.4149881429
  - # 20
    frequency:   17.2079760478
  - # 21
    frequency:   17.2081581557
  - # 22
    frequency:   19.8707723615
  - # 23
    frequency:   60.2297102495
  - # 24
    frequency:   64.8606955124

- q-position: [    0.0101010,    0.0000000,    0.0000000 ]
  distance:    0.0034012
  band:
  - # 1
    frequency:   -1.8828633942
  - # 2
    frequency:   -1.8808717248
  - # 3
    frequency:    0.0061123036
  - # 4
    frequency:    0.0698416628
  - # 5
    frequency:    0.1651484583
  - # 6
    frequency:    1.4559903646
  - # 7
    frequency:    1.4599842160
  - # 8
    frequency:    3.5035549405
  - # 9
    frequency:    3.5049563998
  - # 10
    frequency:    4.6203890374
  - # 11
    frequency:    6.3130882535
  - # 12
    frequency:    6.3151135450
  - # 13
    frequency:    6.8260590679
  - # 14
    frequency:    6.8273250503
  - # 15
    frequency:    7.1984621198
  - # 16
    frequency:    8.1675592470
  - # 17
    frequency:   10.5418608109
  - # 18
    frequency:   10.5422789236
  - # 19
    frequency:   15.4147854832
  - # 20
    frequency:   17.2072300856
  - # 21
    frequency:   17.2079575833
  - # 22
    frequency:   19.8706003908
  - # 23
    frequency:   60.2295118037
  - # 24
    frequency:   64.8604899299

- q-position: [    0.0151515,    0.0000000,    0.0000000 ]
  distance:    0.0051018
  band:
  - # 1
    frequency:   -1.8814784115
  - # 2
    frequency:   -1.8770340876
  - # 3
    frequency:    0.0137145667
  - # 4
    frequency:    0.1050315314
  - # 5
    frequency:    0.2477618689
  - # 6
    frequency:    1.4560928651
  - # 7
    frequency:    1.4650470429
  - # 8
    frequency:    3.5035140706
  - # 9
    frequency:    3.5066599447
  - # 10
    frequency:    4.6196589956
  - # 11
    frequency:    6.3147784488
  - # 12
    frequency:    6.3193245499
  - # 13
    frequency:    6.8267185589
  - # 14
    frequency:    6.8295599718
  - # 15
    frequency:    7.1975179692
  - # 16
    frequency:    8.1673772052
  - # 17
    frequency:   10.5425934188
  - # 18
    frequency:   10.5435343887
  - # 19
    frequency:   15.4144453936
  - # 20
    frequency:   17.2059917254
  - # 21
    frequency:   17.2076250935
  - # 22
    frequency:   19.8703137262
  - # 23
    frequency:   60.2291813830
  - # 24
    frequency:   64.8601475187

- q-position: [    0.0202020,    0.0000000,    0.0000000 ]
  distance:    0.0068025
  band:
  - # 1
    frequency:   -1.8795801665
  - # 2
    frequency:   -1.8717697256
  - # 3
    frequency:    0.0242879448
  - # 4
    frequency:    0.1405400973
  - # 5
    frequency:    0.3304126519
  - # 6
    frequency:    1.4562413279
  - # 7
    frequency:    1.4720817946
  - # 8
    frequency:    3.5034606867
  - # 9
    frequency:    3.5090349978
  - # 10
    frequency:    4.6186561007
  - # 11
    frequency:    6.3171352290
  - # 12
    frequency:    6.3251903775
  - # 13
    frequency:    6.8276384677
  - # 14
    frequency:    6.8326718358
  - # 15
    frequency:    7.1962152205
  - # 16
    frequency:    8.1671208023
  - # 17
    frequency:   10.5436154746
  - # 18
    frequency:   10.5452888345
  - # 19
    frequency:   15.4139644249
  - # 20
    frequency:   17.2042683041
  - # 21
    frequency:   17.2071633530
  - # 22
    frequency:   19.8699122993
  - # 23
    frequency:   60.2287194703
  - # 24
    frequency:   64.8596686177

- q-position: [    0.0252525,    0.0000000,    0.0000000 ]
  distance:    0.0085031
  band:
  - # 1
    frequency:   -1.8772087425
  - # 2
    frequency:   -1.8651833368
  - # 3
    frequency:    0.0377658345
  - # 4
    frequency:    0.1764667027
  - # 5
    frequency:    0.4130975185
  - # 6
    frequency:    1.4564407074
  - # 7
    frequency:    1.4810385806
  - # 8
    frequency:    3.5033985968
  - # 9
    frequency:    3.5120718163
  - # 10
    frequency:    4.6173992199
  - # 11
    frequency:    6.3201491464
  - # 12
    frequency:    6.3326816826
  - # 13
    frequency:    6.8288153940
  - # 14
    frequency:    6.8366424514
  - # 15
    frequency:    7.1945739779
  - # 16
    frequency:    8.1667885462
  - # 17
    frequency:   10.5449234022
  - # 18
    frequency:   10.5475390430
  - # 19
    frequency:   15.4133378195
  - # 20
    frequency:   17.2020700363
  - # 21
    frequency:   17.2065760376
  - # 22
    frequency:   19.8693960187
  - # 23
    frequency:   60.2281267406
  - # 24
    frequency:   64.8590537014

- q-position: [    0.0303030,    0.0000000,    0.0000000 ]
  distance:    0.0102037
  band:
  - # 1
    frequency:   -1.8744147323
  - # 2
    frequency:   -1.8574044169
  - # 3
    frequency:    0.0540667868
  - # 4
    frequency:    0.2129048370
  - # 5
    frequency:    0.4958003448
  - # 6
    frequency:    1.4566973645
  - # 7
    frequency:    1.4918576547
  - # 8
    frequency:    3.5033326593
  - # 9
    frequency:    3.5157581048
  - # 10
    frequency:    4.6159121917
  - # 11
    frequency:    6.3238081211
  - # 12
    frequency:    6.3417610764
  - # 13
    frequency:    6.8302449358
  - # 14
    frequency:    6.8414466777
  - # 15
    frequency:    7.1926216648
  - # 16
    frequency:    8.1663785926
  - # 17
    frequency:   10.5465126298
  - # 18
    frequency:   10.5502808592
  - # 19
    frequency:   15.4125595815
  - # 20
    frequency:   17.1994099587
  - # 21
    frequency:   17.2058677737
  - # 22
    frequency:   19.8687647728
  - # 23
    frequency:   60.2274040598
  - # 24
    frequency:   64.8583033789

- q-position: [    0.0353535,    0.0000000,    0.0000000 ]
  distance:    0.0119043
  band:
  - # 1
    frequency:   -1.8712585006
  - # 2
    frequency:   -1.8485835773
  - # 3
    frequency:    0.0730970750
  - # 4
    frequency:    0.2499407475
  - # 5
    frequency:    0.5784897998
  - # 6
    frequency:    1.4570190633
  - # 7
    frequency:    1.5044721983
  - # 8
    frequency:    3.5032687548
  - # 9
    frequency:    3.5200791770
  - # 10
    frequency:    4.6142235192
  - # 11
    frequency:    6.3280974932
  - # 12
    frequency:    6.3523833908
  - # 13
    frequency:    6.8319216685
  - # 14
    frequency:    6.8470509486
  - # 15
    frequency:    7.1903943595
  - # 16
    frequency:    8.1658887980
  - # 17
    frequency:   10.5483776101
  - # 18
    frequency:   10.5535091791
  - # 19
    frequency:   15.4116225664
  - # 20
    frequency:   17.1963038573
  - # 21
    frequency:   17.2050440657
  - # 22
    frequency:   19.8680184354
  - # 23
    frequency:   60.2265524829
  - # 24
    frequency:   64.8574183935

- q-position: [    0.0404040,    0.0000000,    0.0000000 ]
  distance:    0.0136049
  band:
  - # 1
    frequency:   -1.8678092555
  - # 2
    frequency:   -1.8388882645
  - # 3
    frequency:    0.0947533209
  - # 4
    frequency:    0.2876521128
  - # 5
    frequency:    0.6611175119
  - # 6
    frequency:    1.4574149702
  - # 7
    frequency:    1.5188112818
  - # 8
    frequency:    3.5032137507
  - # 9
    frequency:    3.5250181427
  - # 10
    frequency:    4.6123660026
  - # 11
    frequency:    6.3330000898
  - # 12
    frequency:    6.3644960114
  - # 13
    frequency:    6.8338391212
  - # 14
    frequency:    6.8534112834
  - # 15
    frequency:    7.1879386123
  - # 16
    frequency:    8.1653167823
  - # 17
    frequency:   10.5505118441
  - # 18
    frequency:   10.5572179368
  - # 19
    frequency:   15.4105185885
  - # 20
    frequency:   17.1927701811
  - # 21
    frequency:   17.2041112064
  - # 22
    frequency:   19.8671568710
  - # 23
    frequency:   60.2255732528
  - # 24
    frequency:   64.8563996223

- q-position: [    0.0454545,    0.0000000,    0.0000000 ]
  distance:    0.0153055
  band:
  - # 1
    frequency:   -1.8641439193
  - # 2
    frequency:   -1.8284980545
  - # 3
    frequency:    0.1189250111
  - # 4
    frequency:    0.3261068034
  - # 5
    frequency:    0.7436168165
  - # 6
    frequency:    1.4578956592
  - # 7
    frequency:    1.5348028910
  - # 8
    frequency:    3.5031754591
  - # 9
    frequency:    3.5305561140
  - # 10
    frequency:    4.6103763155
  - # 11
    frequency:    6.3384963074
  - # 12
    frequency:    6.3780392827
  - # 13
    frequency:    6.8359897510
  - # 14
    frequency:    6.8604706631
  - # 15
    frequency:    7.1853138581
  - # 16
    frequency:    8.1646599996
  - # 17
    frequency:   10.5529079086
  - # 18
    frequency:   10.5614000904
  - # 19
    frequency:   15.4092385454
  - # 20
    frequency:   17.1888299400
  - # 21
    frequency:   17.2030761747
  - # 22
    frequency:   19.8661799410
  - # 23
    frequency:   60.2244677975
  - # 24
    frequency:   64.8552480750

- q-position: [    0.0505051,    0.0000000,    0.0000000 ]
  distance:    0.0170061
  band:
  - # 1
    frequency:   -1.8603457964
  - # 2
    frequency:   -1.8175997394
  - # 3
    frequency:    0.1454967788
  - # 4
    frequency:    0.3653617572
  - # 5
    frequency:    0.8259020499
  - # 6
    frequency:    1.4584731273
  - # 7
    frequency:    1.5523769816
  - # 8
    frequency:    3.5031625876
  - # 9
    frequency:    3.5366724285
  - # 10
    frequency:    4.6082945302
  - # 11
    frequency:    6.3445642108
  - # 12
    frequency:    6.3929469862
  - # 13
    frequency:    6.8383649175
  - # 14
    frequency:    6.8681556389
  - # 15
    frequency:    7.1825955620
  - # 16
    frequency:    8.1639158155
  - # 17
    frequency:   10.5555574882
  - # 18
    frequency:   10.5660476090
  - # 19
    frequency:   15.4077725580
  - # 20
    frequency:   17.1845065890
  - # 21
    frequency:   17.2019465176
  - # 22
    frequency:   19.8650875111
  - # 23
    frequency:   60.2232377281
  - # 24
    frequency:   64.8539648934

- q-position: [    0.0555556,    0.0000000,    0.0000000 ]
  distance:    0.0187067
  band:
  - # 1
    frequency:   -1.8565030427
  - # 2
    frequency:   -1.8063824455
  - # 3
    frequency:    0.1743503772
  - # 4
    frequency:    0.4054620051
  - # 5
    frequency:    0.9078682301
  - # 6
    frequency:    1.4591608228
  - # 7
    frequency:    1.5714686247
  - # 8
    frequency:    3.5031846821
  - # 9
    frequency:    3.5433448856
  - # 10
    frequency:    4.6061635964
  - # 11
    frequency:    6.3511796499
  - # 12
    frequency:    6.4091468944
  - # 13
    frequency:    6.8409548581
  - # 14
    frequency:    6.8763720435
  - # 15
    frequency:    7.1798792260
  - # 16
    frequency:    8.1630815902
  - # 17
    frequency:   10.5584514099
  - # 18
    frequency:   10.5711514606
  - # 19
    frequency:   15.4061101251
  - # 20
    frequency:   17.1798258989
  - # 21
    frequency:   17.2007302216
  - # 22
    frequency:   19.8638794590
  - # 23
    frequency:   60.2218848354
  - # 24
    frequency:   64.8525513500

- q-position: [    0.0606061,    0.0000000,    0.0000000 ]
  distance:    0.0204074
  band:
  - # 1
    frequency:   -1.8527069546
  - # 2
    frequency:   -1.7950330212
  - # 3
    frequency:    0.2053663206
  - # 4
    frequency:    0.4464398792
  - # 5
    frequency:    0.9893908166
  - # 6
    frequency:    1.4599736960
  - # 7
    frequency:    1.5920214339
  - # 8
    frequency:    3.5032520629
  - # 9
    frequency:    3.5505499951
  - # 10
    frequency:    4.6040287791
  - # 11
    frequency:    6.3583163947
  - # 12
    frequency:    6.4265613937
  - # 13
    frequency:    6.8437486664
  - # 14
    frequency:    6.8849997505
  - # 15
    frequency:    7.1772853195
  - # 16
    frequency:    8.1621547638
  - # 17
    frequency:   10.5615796822
  - # 18
    frequency:   10.5767016027
  - # 19
    frequency:   15.4042402899
  - # 20
    frequency:   17.1748158145
  - # 21
    frequency:   17.1994355707
  - # 22
    frequency:   19.8625556821
  - # 23
    frequency:   60.2204110871
  - # 24
    frequency:   64.8510088474

- q-position: [    0.0656566,    0.0000000,    0.0000000 ]
  distance:    0.0221080
  band:
  - # 1
    frequency:   -1.8490501095
  - # 2
    frequency:   -1.7837318988
  - # 3
    frequency:    0.2384252022
  - # 4
    frequency:    0.4883144362
  - # 5
    frequency:    1.0703250279
  - # 6
    frequency:    1.4609282781
  - # 7
    frequency:    1.6139916399
  - # 8
    frequency:    3.5033757515
  - # 9
    frequency:    3.5582632377
  - # 10
    frequency:    4.6019370616
  - # 11
    frequency:    6.3659462888
  - # 12
    frequency:    6.4451081689
  - # 13
    frequency:    6.8467342755
  - # 14
    frequency:    6.8938866188
  - # 15
    frequency:    7.1749650057
  - # 16
    frequency:    8.1611329445
  - # 17
    frequency:   10.5649315368
  - # 18
    frequency:   10.5826869764
  - # 19
    frequency:   15.4021518175
  - # 20
    frequency:   17.1695063009
  - # 21
    frequency:   17.1980709963
  - # 22
    frequency:   19.8611161060
  - # 23
    frequency:   60.2188186238
  - # 24
    frequency:   64.8493389163

- q-position: [    0.0707071,    0.0000000,    0.0000000 ]
  distance:    0.0238086
  band:
  - # 1
    frequency:   -1.8456244057
  - # 2
    frequency:   -1.7726495817
  - # 3
    frequency:    0.2734087254
  - # 4
    frequency:    0.5310911203
  - # 5
    frequency:    1.1505039156
  - # 6
    frequency:    1.4620428029
  - # 7
    frequency:    1.6373534370
  - # 8
    frequency:    3.5035673905
  - # 9
    frequency:    3.5664593399
  - # 10
    frequency:    4.5999365193
  - # 11
    frequency:    6.3740394218
  - # 12
    frequency:    6.4647009298
  - # 13
    frequency:    6.8498984490
  - # 14
    frequency:    6.9028421984
  - # 15
    frequency:    7.1731061068
  - # 16
    frequency:    8.1600139960
  - # 17
    frequency:   10.5684954731
  - # 18
    frequency:   10.5890955048
  - # 19
    frequency:   15.3998333799
  - # 20
    frequency:   17.1639291783
  - # 21
    frequency:   17.1966449174
  - # 22
    frequency:   19.8595606931
  - # 23
    frequency:   60.2171097554
  - # 24
    frequency:   64.8475432149

- q-position: [    0.0757576,    0.0000000,    0.0000000 ]
  distance:    0.0255092
  band:
  - # 1
    frequency:   -1.8425190633
  - # 2
    frequency:   -1.7619438358
  - # 3
    frequency:    0.3102004958
  - # 4
    frequency:    0.5747616737
  - # 5
    frequency:    1.2297339675
  - # 6
    frequency:    1.4633373873
  - # 7
    frequency:    1.6621066481
  - # 8
    frequency:    3.5038391538
  - # 9
    frequency:    3.5751125647
  - # 10
    frequency:    4.5980756711
  - # 11
    frequency:    6.3825643196
  - # 12
    frequency:    6.4852501516
  - # 13
    frequency:    6.8532267806
  - # 14
    frequency:    6.9116325842
  - # 15
    frequency:    7.1719379499
  - # 16
    frequency:    8.1587961239
  - # 17
    frequency:   10.5722593056
  - # 18
    frequency:   10.5959140986
  - # 19
    frequency:   15.3972737477
  - # 20
    frequency:   17.1581179481
  - # 21
    frequency:   17.1951655753
  - # 22
    frequency:   19.8578894506
  - # 23
    frequency:   60.2152869562
  - # 24
    frequency:   64.8456235268

- q-position: [    0.0808081,    0.0000000,    0.0000000 ]
  distance:    0.0272098
  band:
  - # 1
    frequency:   -1.8398186630
  - # 2
    frequency:   -1.7517576010
  - # 3
    frequency:    0.3486866275
  - # 4
    frequency:    0.6193042835
  - # 5
    frequency:    1.3077863295
  - # 6
    frequency:    1.4648342935
  - # 7
    frequency:    1.6882884527
  - # 8
    frequency:    3.5042036501
  - # 9
    frequency:    3.5841970213
  - # 10
    frequency:    4.5964028149
  - # 11
    frequency:    6.3914881507
  - # 12
    frequency:    6.5066637805
  - # 13
    frequency:    6.8567037068
  - # 14
    frequency:    6.9199790765
  - # 15
    frequency:    7.1717324802
  - # 16
    frequency:    8.1574779586
  - # 17
    frequency:   10.5762102143
  - # 18
    frequency:   10.6031286667
  - # 19
    frequency:   15.3944619838
  - # 20
    frequency:   17.1521076085
  - # 21
    frequency:   17.1936408640
  - # 22
    frequency:   19.8561024393
  - # 23
    frequency:   60.2133528606
  - # 24
    frequency:   64.8435817595

- q-position: [    0.0858586,    0.0000000,    0.0000000 ]
  distance:    0.0289104
  band:
  - # 1
    frequency:   -1.8376013029
  - # 2
    frequency:   -1.7422175746
  - # 3
    frequency:    0.3887562076
  - # 4
    frequency:    0.6646839224
  - # 5
    frequency:    1.3843806300
  - # 6
    frequency:    1.4665583080
  - # 7
    frequency:    1.7159920639
  - # 8
    frequency:    3.5046738160
  - # 9
    frequency:    3.5936869981
  - # 10
    frequency:    4.5949653558
  - # 11
    frequency:    6.4007769473
  - # 12
    frequency:    6.5288478355
  - # 13
    frequency:    6.8603125331
  - # 14
    frequency:    6.9275647611
  - # 15
    frequency:    7.1727975970
  - # 16
    frequency:    8.1560586336
  - # 17
    frequency:   10.5803347961
  - # 18
    frequency:   10.6107241364
  - # 19
    frequency:   15.3913876390
  - # 20
    frequency:   17.1459344638
  - # 21
    frequency:   17.1920781586
  - # 22
    frequency:   19.8541997811
  - # 23
    frequency:   60.2113102578
  - # 24
    frequency:   64.8414199432

- q-position: [    0.0909091,    0.0000000,    0.0000000 ]
  distance:    0.0306110
  band:
  - # 1
    frequency:   -1.8359369575
  - # 2
    frequency:   -1.7334333858
  - # 3
    frequency:    0.4303016578
  - # 4
    frequency:    0.7108528041
  - # 5
    frequency:    1.4591568248
  - # 6
    frequency:    1.4685372866
  - # 7
    frequency:    1.7453968571
  - # 8
    frequency:    3.5052628025
  - # 9
    frequency:    3.6035573176
  - # 10
    frequency:    4.5938091332
  - # 11
    frequency:    6.4103958379
  - # 12
    frequency:    6.5517068001
  - # 13
    frequency:    6.8640354779
  - # 14
    frequency:    6.9340537041
  - # 15
    frequency:    7.1754581184
  - # 16
    frequency:    8.1545378583
  - # 17
    frequency:   10.5846191192
  - # 18
    frequency:   10.6186844819
  - # 19
    frequency:   15.3880409429
  - # 20
    frequency:   17.1396359263
  - # 21
    frequency:   17.1904841451
  - # 22
    frequency:   19.8521816666
  - # 23
    frequency:   60.2091620861
  - # 24
    frequency:   64.8391402281

- q-position: [    0.0959596,    0.0000000,    0.0000000 ]
  distance:    0.0323117
  band:
  - # 1
    frequency:   -1.8348861125
  - # 2
    frequency:   -1.7254972601
  - # 3
    frequency:    0.4732190176
  - # 4
    frequency:    0.7577508300
  - # 5
    frequency:    1.4708029381
  - # 6
    frequency:    1.5316293551
  - # 7
    frequency:    1.7768156276
  - # 8
    frequency:    3.5059838528
  - # 9
    frequency:    3.6137837168
  - # 10
    frequency:    4.5929777585
  - # 11
    frequency:    6.4203092891
  - # 12
    frequency:    6.5751436379
  - # 13
    frequency:    6.8678537358
  - # 14
    frequency:    6.9391251712
  - # 15
    frequency:    7.1800221271
  - # 16
    frequency:    8.1529159832
  - # 17
    frequency:   10.5890487789
  - # 18
    frequency:   10.6269927617
  - # 19
    frequency:   15.3844129914
  - # 20
    frequency:   17.1332503128
  - # 21
    frequency:   17.1888646529
  - # 22
    frequency:   19.8500483619
  - # 23
    frequency:   60.2069114271
  - # 24
    frequency:   64.8367448829

- q-position: [    0.1010101,    0.0000000,    0.0000000 ]
  distance:    0.0340123
  band:
  - # 1
    frequency:   -1.8344987333
  - # 2
    frequency:   -1.7184840706
  - # 3
    frequency:    0.5174081637
  - # 4
    frequency:    0.8053058481
  - # 5
    frequency:    1.4733919569
  - # 6
    frequency:    1.6011224030
  - # 7
    frequency:    1.8107602130
  - # 8
    frequency:    3.5068501728
  - # 9
    frequency:    3.6243432477
  - # 10
    frequency:    4.5925119707
  - # 11
    frequency:    6.4304813507
  - # 12
    frequency:    6.5990591732
  - # 13
    frequency:    6.8717475623
  - # 14
    frequency:    6.9425186606
  - # 15
    frequency:    7.1867371615
  - # 16
    frequency:    8.1511940583
  - # 17
    frequency:   10.5936089544
  - # 18
    frequency:   10.6356311673
  - # 19
    frequency:   15.3804959233
  - # 20
    frequency:   17.1268166377
  - # 21
    frequency:   17.1872244942
  - # 22
    frequency:   19.8478002147
  - # 23
    frequency:   60.2045614995
  - # 24
    frequency:   64.8342362929

- q-position: [    0.1060606,    0.0000000,    0.0000000 ]
  distance:    0.0357129
  band:
  - # 1
    frequency:   -1.8348136056
  - # 2
    frequency:   -1.7124516868
  - # 3
    frequency:    0.5627729712
  - # 4
    frequency:    0.8534334747
  - # 5
    frequency:    1.4763476718
  - # 6
    frequency:    1.6667132576
  - # 7
    frequency:    1.8479985195
  - # 8
    frequency:    3.5078747949
  - # 9
    frequency:    3.6352146932
  - # 10
    frequency:    4.5924490227
  - # 11
    frequency:    6.4408759034
  - # 12
    frequency:    6.6233504008
  - # 13
    frequency:    6.8756963829
  - # 14
    frequency:    6.9440770073
  - # 15
    frequency:    7.1957494235
  - # 16
    frequency:    8.1493738820
  - # 17
    frequency:   10.5982844672
  - # 18
    frequency:   10.6445810815
  - # 19
    frequency:   15.3762830860
  - # 20
    frequency:   17.1203744031
  - # 21
    frequency:   17.1855673129
  - # 22
    frequency:   19.8454376598
  - # 23
    frequency:   60.2021156525
  - # 24
    frequency:   64.8316169574

- q-position: [    0.1111111,    0.0000000,    0.0000000 ]
  distance:    0.0374135
  band:
  - # 1
    frequency:   -1.8358580587
  - # 2
    frequency:   -1.7074415469
  - # 3
    frequency:    0.6092214148
  - # 4
    frequency:    0.9020361339
  - # 5
    frequency:    1.4797224749
  - # 6
    frequency:    1.7272959124
  - # 7
    frequency:    1.8894909140
  - # 8
    frequency:    3.5090704361
  - # 9
    frequency:    3.6463789892
  - # 10
    frequency:    4.5928221079
  - # 11
    frequency:    6.4514569002
  - # 12
    frequency:    6.6479069525
  - # 13
    frequency:    6.8796789270
  - # 14
    frequency:    6.9437719025
  - # 15
    frequency:    7.2070824252
  - # 16
    frequency:    8.1474580418
  - # 17
    frequency:   10.6030598405
  - # 18
    frequency:   10.6538231470
  - # 19
    frequency:   15.3717691854
  - # 20
    frequency:   17.1139633871
  - # 21
    frequency:   17.1838954456
  - # 22
    frequency:   19.8429612228
  - # 23
    frequency:   60.1995773584
  - # 24
    frequency:   64.8288894873

- q-position: [    0.1161616,    0.0000000,    0.0000000 ]
  distance:    0.0391141
  band:
  - # 1
    frequency:   -1.8376480575
  - # 2
    frequency:   -1.7034793971
  - # 3
    frequency:    0.6566656086
  - # 4
    frequency:    0.9510008175
  - # 5
    frequency:    1.4835814440
  - # 6
    frequency:    1.7819661501
  - # 7
    frequency:    1.9360048158
  - # 8
    frequency:    3.5104493509
  - # 9
    frequency:    3.6578196388
  - # 10
    frequency:    4.5936598410
  - # 11
    frequency:    6.4621886019
  - # 12
    frequency:    6.6726042764
  - # 13
    frequency:    6.8836733876
  - # 14
    frequency:    6.9417047517
  - # 15
    frequency:    7.2206435869
  - # 16
    frequency:    8.1454499460
  - # 17
    frequency:   10.6079193591
  - # 18
    frequency:   10.6633373459
  - # 19
    frequency:   15.3669504182
  - # 20
    frequency:   17.1076234325
  - # 21
    frequency:   17.1822097975
  - # 22
    frequency:   19.8403715244
  - # 23
    frequency:   60.1969502055
  - # 24
    frequency:   64.8260566033

- q-position: [    0.1212121,    0.0000000,    0.0000000 ]
  distance:    0.0408147
  band:
  - # 1
    frequency:   -1.8401886275
  - # 2
    frequency:   -1.7005761572
  - # 3
    frequency:    0.7050217821
  - # 4
    frequency:    1.0001948312
  - # 5
    frequency:    1.4880078262
  - # 6
    frequency:    1.8306612066
  - # 7
    frequency:    1.9874744906
  - # 8
    frequency:    3.5120231815
  - # 9
    frequency:    3.6695231016
  - # 10
    frequency:    4.5949858021
  - # 11
    frequency:    6.4730357975
  - # 12
    frequency:    6.6972906446
  - # 13
    frequency:    6.8876576086
  - # 14
    frequency:    6.9380913971
  - # 15
    frequency:    7.2362531385
  - # 16
    frequency:    8.1433538461
  - # 17
    frequency:   10.6128471297
  - # 18
    frequency:   10.6731030881
  - # 19
    frequency:   15.3618245818
  - # 20
    frequency:   17.1013942373
  - # 21
    frequency:   17.1805097375
  - # 22
    frequency:   19.8376692818
  - # 23
    frequency:   60.1942378907
  - # 24
    frequency:   64.8231211325

- q-position: [    0.1262626,    0.0000000,    0.0000000 ]
  distance:    0.0425153
  band:
  - # 1
    frequency:   -1.8434745582
  - # 2
    frequency:   -1.6987288830
  - # 3
    frequency:    0.7542101924
  - # 4
    frequency:    1.0494583948
  - # 5
    frequency:    1.4931114646
  - # 6
    frequency:    1.8743563405
  - # 7
    frequency:    2.0428038112
  - # 8
    frequency:    3.5138028057
  - # 9
    frequency:    3.6814791388
  - # 10
    frequency:    4.5968181592
  - # 11
    frequency:    6.4839640097
  - # 12
    frequency:    6.7217619313
  - # 13
    frequency:    6.8916092967
  - # 14
    frequency:    6.9332511647
  - # 15
    frequency:    7.2536809132
  - # 16
    frequency:    8.1411748517
  - # 17
    frequency:   10.6178271418
  - # 18
    frequency:   10.6830993092
  - # 19
    frequency:   15.3563911617
  - # 20
    frequency:   17.0953151471
  - # 21
    frequency:   17.1787930123
  - # 22
    frequency:   19.8348553106
  - # 23
    frequency:   60.1914442108
  - # 24
    frequency:   64.8200860063

- q-position: [    0.1313131,    0.0000000,    0.0000000 ]
  distance:    0.0442160
  band:
  - # 1
    frequency:   -1.8474913231
  - # 2
    frequency:   -1.6979218043
  - # 3
    frequency:    0.8041549816
  - # 4
    frequency:    1.0985923180
  - # 5
    frequency:    1.4990419155
  - # 6
    frequency:    1.9144880784
  - # 7
    frequency:    2.1004422954
  - # 8
    frequency:    3.5157981850
  - # 9
    frequency:    3.6936810896
  - # 10
    frequency:    4.5991693758
  - # 11
    frequency:    6.4949396788
  - # 12
    frequency:    6.7457108980
  - # 13
    frequency:    6.8955062596
  - # 14
    frequency:    6.9276262394
  - # 15
    frequency:    7.2726782859
  - # 16
    frequency:    8.1389189375
  - # 17
    frequency:   10.6228433284
  - # 18
    frequency:   10.6933045756
  - # 19
    frequency:   15.3506513911
  - # 20
    frequency:   17.0894249522
  - # 21
    frequency:   17.1770556856
  - # 22
    frequency:   19.8319305245
  - # 23
    frequency:   60.1885730551
  - # 24
    frequency:   64.8169542576

- q-position: [    0.1363636,    0.0000000,    0.0000000 ]
  distance:    0.0459166
  band:
  - # 1
    frequency:   -1.8522161460
  - # 2
    frequency:   -1.6981274224
  - # 3
    frequency:    0.8547839859
  - # 4
    frequency:    1.1473379934
  - # 5
    frequency:    1.5060090054
  - # 6
    frequency:    1.9523207039
  - # 7