nqpoint: 300    
npath: 3      
segment_nqpoint:
- 100
- 100
- 100
labels:
- [ 'G', 'M' ]
- [ 'M', 'K' ]
- [ 'K', 'G' ]
reciprocal_lattice:
- [   0.30494914,   0.17606247,   0.00000000 ] # a*
- [   0.00000000,   0.35212493,   0.00000000 ] # b*
- [   0.00000000,   0.00000000,   0.03433133 ] # c*
natom: 8      
lattice:
- [     3.279235398442021,     0.000000000000000,     0.000000000000000 ] # a
- [    -1.639617699221010,     2.839901160040665,     0.000000000000000 ] # b
- [     0.000000000000000,     0.000000000000000,    29.127909492800743 ] # c
points:
- symbol: C # 1
  coordinates: [  0.666666984744048,  0.333332985985145,  0.349819601624875 ]
  mass: 12.010700
- symbol: Cl # 2
  coordinates: [  0.333332985432215,  0.666666983183674,  0.691017990761594 ]
  mass: 35.453000
- symbol: N # 3
  coordinates: [  0.000000000000000,  0.000000000000000,  0.474966297375276 ]
  mass: 14.006700
- symbol: N # 4
  coordinates: [  0.666666984744048,  0.333332985985145,  0.308982009238406 ]
  mass: 14.006700
- symbol: O # 5
  coordinates: [  0.333332985432215,  0.666666983183674,  0.553917258153262 ]
  mass: 15.999400
- symbol: O # 6
  coordinates: [  0.666666984744048,  0.333332985985145,  0.395543134974091 ]
  mass: 15.999400
- symbol: Sc # 7
  coordinates: [  0.333332985432215,  0.666666983183674,  0.440453845694628 ]
  mass: 44.955912
- symbol: Sc # 8
  coordinates: [  0.666666984744048,  0.333332985985145,  0.530862142693506 ]
  mass: 44.955912

phonon:
- q-position: [    0.0000000,    0.0000000,    0.0000000 ]
  distance:    0.0000000
  band:
  - # 1
    frequency:   -0.3296281990
  - # 2
    frequency:   -0.3296281990
  - # 3
    frequency:   -0.0000046818
  - # 4
    frequency:    0.0000005353
  - # 5
    frequency:    0.0000071999
  - # 6
    frequency:    0.6878480207
  - # 7
    frequency:    1.1122516350
  - # 8
    frequency:    1.1122516350
  - # 9
    frequency:    3.4841179452
  - # 10
    frequency:    3.4841179452
  - # 11
    frequency:    5.6058725620
  - # 12
    frequency:    6.1946941176
  - # 13
    frequency:    6.1946941176
  - # 14
    frequency:   10.0415567299
  - # 15
    frequency:   12.8178004090
  - # 16
    frequency:   12.8178004090
  - # 17
    frequency:   13.7996649705
  - # 18
    frequency:   13.7996649705
  - # 19
    frequency:   13.9741702373
  - # 20
    frequency:   15.1275355354
  - # 21
    frequency:   15.1275355354
  - # 22
    frequency:   17.5608421090
  - # 23
    frequency:   32.3203934979
  - # 24
    frequency:   66.9364899668

- q-position: [    0.0050505,    0.0000000,    0.0000000 ]
  distance:    0.0017784
  band:
  - # 1
    frequency:   -0.3336203111
  - # 2
    frequency:   -0.3263631815
  - # 3
    frequency:   -0.0029895958
  - # 4
    frequency:    0.0788256626
  - # 5
    frequency:    0.1202498762
  - # 6
    frequency:    0.6888894832
  - # 7
    frequency:    1.1084533258
  - # 8
    frequency:    1.1094979921
  - # 9
    frequency:    3.4845479210
  - # 10
    frequency:    3.4873162243
  - # 11
    frequency:    5.6053879278
  - # 12
    frequency:    6.1947547355
  - # 13
    frequency:    6.1965158200
  - # 14
    frequency:   10.0407182603
  - # 15
    frequency:   12.8174351002
  - # 16
    frequency:   12.8209756725
  - # 17
    frequency:   13.7993969477
  - # 18
    frequency:   13.7996745383
  - # 19
    frequency:   13.9732584858
  - # 20
    frequency:   15.1271823811
  - # 21
    frequency:   15.1286619844
  - # 22
    frequency:   17.5620442258
  - # 23
    frequency:   32.3199492050
  - # 24
    frequency:   66.9357465548

- q-position: [    0.0101010,    0.0000000,    0.0000000 ]
  distance:    0.0035568
  band:
  - # 1
    frequency:   -0.3428839259
  - # 2
    frequency:   -0.3128671018
  - # 3
    frequency:   -0.0121955937
  - # 4
    frequency:    0.1511264311
  - # 5
    frequency:    0.2307938730
  - # 6
    frequency:    0.6921713520
  - # 7
    frequency:    1.0980521189
  - # 8
    frequency:    1.1013642670
  - # 9
    frequency:    3.4858391235
  - # 10
    frequency:    3.4968831792
  - # 11
    frequency:    5.6039536369
  - # 12
    frequency:    6.1949365539
  - # 13
    frequency:    6.2019539630
  - # 14
    frequency:   10.0382073698
  - # 15
    frequency:   12.8163399081
  - # 16
    frequency:   12.8304013545
  - # 17
    frequency:   13.7984542149
  - # 18
    frequency:   13.7997035273
  - # 19
    frequency:   13.9707841734
  - # 20
    frequency:   15.1261235851
  - # 21
    frequency:   15.1319839592
  - # 22
    frequency:   17.5656578081
  - # 23
    frequency:   32.3186171213
  - # 24
    frequency:   66.9335187408

- q-position: [    0.0151515,    0.0000000,    0.0000000 ]
  distance:    0.0053352
  band:
  - # 1
    frequency:   -0.3530691665
  - # 2
    frequency:   -0.2832531634
  - # 3
    frequency:   -0.0277183389
  - # 4
    frequency:    0.2144506154
  - # 5
    frequency:    0.3249855292
  - # 6
    frequency:    0.6982184176
  - # 7
    frequency:    1.0846112689
  - # 8
    frequency:    1.0882761300
  - # 9
    frequency:    3.4879953555
  - # 10
    frequency:    3.5127362641
  - # 11
    frequency:    5.6016261097
  - # 12
    frequency:    6.1952394666
  - # 13
    frequency:    6.2109303426
  - # 14
    frequency:   10.0340373969
  - # 15
    frequency:   12.8145170426
  - # 16
    frequency:   12.8457732966
  - # 17
    frequency:   13.7964198575
  - # 18
    frequency:   13.7997527878
  - # 19
    frequency:   13.9675300057
  - # 20
    frequency:   15.1243611461
  - # 21
    frequency:   15.1373349657
  - # 22
    frequency:   17.5717043339
  - # 23
    frequency:   32.3163996316
  - # 24
    frequency:   66.9298137825

- q-position: [    0.0202020,    0.0000000,    0.0000000 ]
  distance:    0.0071136
  band:
  - # 1
    frequency:   -0.3617538336
  - # 2
    frequency:   -0.2343843188
  - # 3
    frequency:   -0.0420259800
  - # 4
    frequency:    0.2681001466
  - # 5
    frequency:    0.3938533444
  - # 6
    frequency:    0.7077840124
  - # 7
    frequency:    1.0711010774
  - # 8
    frequency:    1.0759392352
  - # 9
    frequency:    3.4910228790
  - # 10
    frequency:    3.5347414687
  - # 11
    frequency:    5.5984919431
  - # 12
    frequency:    6.1956632969
  - # 13
    frequency:    6.2233229539
  - # 14
    frequency:   10.0282298761
  - # 15
    frequency:   12.8119702082
  - # 16
    frequency:   12.8665717249
  - # 17
    frequency:   13.7926257921
  - # 18
    frequency:   13.7998237189
  - # 19
    frequency:   13.9647714944
  - # 20
    frequency:   15.1218983877
  - # 21
    frequency:   15.1444550291
  - # 22
    frequency:   17.5802188768
  - # 23
    frequency:   32.3133007064
  - # 24
    frequency:   66.9246437486

- q-position: [    0.0252525,    0.0000000,    0.0000000 ]
  distance:    0.0088920
  band:
  - # 1
    frequency:   -0.3682691264
  - # 2
    frequency:   -0.2001284041
  - # 3
    frequency:    0.0907878803
  - # 4
    frequency:    0.3105281918
  - # 5
    frequency:    0.4261532622
  - # 6
    frequency:    0.7204056825
  - # 7
    frequency:    1.0514154274
  - # 8
    frequency:    1.0851130319
  - # 9
    frequency:    3.4949303025
  - # 10
    frequency:    3.5627183160
  - # 11
    frequency:    5.5946586479
  - # 12
    frequency:    6.1962077986
  - # 13
    frequency:    6.2389765487
  - # 14
    frequency:   10.0208135863
  - # 15
    frequency:   12.8087046351
  - # 16
    frequency:   12.8920419842
  - # 17
    frequency:   13.7862890784
  - # 18
    frequency:   13.7999182411
  - # 19
    frequency:   13.9641409975
  - # 20
    frequency:   15.1187399463
  - # 21
    frequency:   15.1530131524
  - # 22
    frequency:   17.5912490417
  - # 23
    frequency:   32.3093258955
  - # 24
    frequency:   66.9180254784

- q-position: [    0.0303030,    0.0000000,    0.0000000 ]
  distance:    0.0106705
  band:
  - # 1
    frequency:   -0.3730328242
  - # 2
    frequency:   -0.2679955215
  - # 3
    frequency:    0.2163682819
  - # 4
    frequency:    0.3381947348
  - # 5
    frequency:    0.4236989445
  - # 6
    frequency:    0.7330543275
  - # 7
    frequency:    1.0318798443
  - # 8
    frequency:    1.1247741938
  - # 9
    frequency:    3.4997284242
  - # 10
    frequency:    3.5964462131
  - # 11
    frequency:    5.5902446956
  - # 12
    frequency:    6.1968726563
  - # 13
    frequency:    6.2577143033
  - # 14
    frequency:   10.0118233800
  - # 15
    frequency:   12.8047271221
  - # 16
    frequency:   12.9211684907
  - # 17
    frequency:   13.7768178446
  - # 18
    frequency:   13.8000387595
  - # 19
    frequency:   13.9673273130
  - # 20
    frequency:   15.1148917562
  - # 21
    frequency:   15.1626325628
  - # 22
    frequency:   17.6048535107
  - # 23
    frequency:   32.3044823201
  - # 24
    frequency:   66.9099805244

- q-position: [    0.0353535,    0.0000000,    0.0000000 ]
  distance:    0.0124489
  band:
  - # 1
    frequency:   -0.4051096055
  - # 2
    frequency:   -0.3775279608
  - # 3
    frequency:    0.2992385772
  - # 4
    frequency:    0.3449961849
  - # 5
    frequency:    0.4245022111
  - # 6
    frequency:    0.7442069191
  - # 7
    frequency:    1.0165039407
  - # 8
    frequency:    1.1961261533
  - # 9
    frequency:    3.5054300348
  - # 10
    frequency:    3.6356716273
  - # 11
    frequency:    5.5853705451
  - # 12
    frequency:    6.1976574876
  - # 13
    frequency:    6.2793488385
  - # 14
    frequency:   10.0012989224
  - # 15
    frequency:   12.8000460876
  - # 16
    frequency:   12.9526454082
  - # 17
    frequency:   13.7641750033
  - # 18
    frequency:   13.8001881181
  - # 19
    frequency:   13.9757225858
  - # 20
    frequency:   15.1103610283
  - # 21
    frequency:   15.1729151009
  - # 22
    frequency:   17.6211002412
  - # 23
    frequency:   32.2987786618
  - # 24
    frequency:   66.9005350800

- q-position: [    0.0404040,    0.0000000,    0.0000000 ]
  distance:    0.0142273
  band:
  - # 1
    frequency:   -0.5715711345
  - # 2
    frequency:   -0.3852330807
  - # 3
    frequency:    0.3224765813
  - # 4
    frequency:    0.3379349990
  - # 5
    frequency:    0.4726218790
  - # 6
    frequency:    0.7554353636
  - # 7
    frequency:    1.0101659097
  - # 8
    frequency:    1.2904655915
  - # 9
    frequency:    3.5120496803
  - # 10
    frequency:    3.6801155480
  - # 11
    frequency:    5.5801516824
  - # 12
    frequency:    6.1985618440
  - # 13
    frequency:    6.3036914652
  - # 14
    frequency:    9.9892834581
  - # 15
    frequency:   12.7946716290
  - # 16
    frequency:   12.9848532042
  - # 17
    frequency:   13.7490377882
  - # 18
    frequency:   13.8003695465
  - # 19
    frequency:   13.9902716037
  - # 20
    frequency:   15.1051562264
  - # 21
    frequency:   15.1834622642
  - # 22
    frequency:   17.6400643640
  - # 23
    frequency:   32.2922251501
  - # 24
    frequency:   66.8897198900

- q-position: [    0.0454545,    0.0000000,    0.0000000 ]
  distance:    0.0160057
  band:
  - # 1
    frequency:   -0.7409128727
  - # 2
    frequency:   -0.4043498142
  - # 3
    frequency:    0.2622082790
  - # 4
    frequency:    0.3623299113
  - # 5
    frequency:    0.5467737921
  - # 6
    frequency:    0.7681103606
  - # 7
    frequency:    1.0168337896
  - # 8
    frequency:    1.3988636667
  - # 9
    frequency:    3.5196033896
  - # 10
    frequency:    3.7294807410
  - # 11
    frequency:    5.5746940248
  - # 12
    frequency:    6.1995852139
  - # 13
    frequency:    6.3305592043
  - # 14
    frequency:    9.9758227042
  - # 15
    frequency:   12.7886155876
  - # 16
    frequency:   13.0158604605
  - # 17
    frequency:   13.7326596323
  - # 18
    frequency:   13.8005866008
  - # 19
    frequency:   14.0115985226
  - # 20
    frequency:   15.0992870385
  - # 21
    frequency:   15.1938917526
  - # 22
    frequency:   17.6618258442
  - # 23
    frequency:   32.2848335478
  - # 24
    frequency:   66.8775701466

- q-position: [    0.0505051,    0.0000000,    0.0000000 ]
  distance:    0.0177841
  band:
  - # 1
    frequency:   -0.9043991854
  - # 2
    frequency:   -0.4511448779
  - # 3
    frequency:    0.1634669957
  - # 4
    frequency:    0.3905706285
  - # 5
    frequency:    0.6252592044
  - # 6
    frequency:    0.7826758389
  - # 7
    frequency:    1.0376214926
  - # 8
    frequency:    1.5155637564
  - # 9
    frequency:    3.5281083695
  - # 10
    frequency:    3.7834583904
  - # 11
    frequency:    5.5690915352
  - # 12
    frequency:    6.2007270252
  - # 13
    frequency:    6.3597796480
  - # 14
    frequency:    9.9609639350
  - # 15
    frequency:   12.7818916158
  - # 16
    frequency:   13.0434846031
  - # 17
    frequency:   13.7165992441
  - # 18
    frequency:   13.8008430991
  - # 19
    frequency:   14.0402123630
  - # 20
    frequency:   15.0927643451
  - # 21
    frequency:   15.2038494401
  - # 22
    frequency:   17.6864669716
  - # 23
    frequency:   32.2766171341
  - # 24
    frequency:   66.8641253699

- q-position: [    0.0555556,    0.0000000,    0.0000000 ]
  distance:    0.0195625
  band:
  - # 1
    frequency:   -1.0607815331
  - # 2
    frequency:   -0.5369717347
  - # 3
    frequency:    0.0143727021
  - # 4
    frequency:    0.4242193698
  - # 5
    frequency:    0.7034262002
  - # 6
    frequency:    0.7992712156
  - # 7
    frequency:    1.0708202030
  - # 8
    frequency:    1.6372469632
  - # 9
    frequency:    3.5375826723
  - # 10
    frequency:    3.8417338351
  - # 11
    frequency:    5.5634256207
  - # 12
    frequency:    6.2019866491
  - # 13
    frequency:    6.3911940125
  - # 14
    frequency:    9.9447552931
  - # 15
    frequency:   12.7745152454
  - # 16
    frequency:   13.0654555231
  - # 17
    frequency:   13.7024595266
  - # 18
    frequency:   13.8011430547
  - # 19
    frequency:   14.0766038905
  - # 20
    frequency:   15.0856001831
  - # 21
    frequency:   15.2130173666
  - # 22
    frequency:   17.7140697517
  - # 23
    frequency:   32.2675906876
  - # 24
    frequency:   66.8494292733

- q-position: [    0.0606061,    0.0000000,    0.0000000 ]
  distance:    0.0213409
  band:
  - # 1
    frequency:   -1.2106357057
  - # 2
    frequency:   -0.6468995595
  - # 3
    frequency:   -0.0754566033
  - # 4
    frequency:    0.4624416150
  - # 5
    frequency:    0.7795706079
  - # 6
    frequency:    0.8187277797
  - # 7
    frequency:    1.1135652887
  - # 8
    frequency:    1.7619783255
  - # 9
    frequency:    3.5480448400
  - # 10
    frequency:    3.9039912143
  - # 11
    frequency:    5.5577658175
  - # 12
    frequency:    6.2033634051
  - # 13
    frequency:    6.4246588229
  - # 14
    frequency:    9.9272453302
  - # 15
    frequency:   12.7665039531
  - # 16
    frequency:   13.0797092810
  - # 17
    frequency:   13.6916359654
  - # 18
    frequency:   13.8014906078
  - # 19
    frequency:   14.1212060167
  - # 20
    frequency:   15.0778077081
  - # 21
    frequency:   15.2211186346
  - # 22
    frequency:   17.7447132647
  - # 23
    frequency:   32.2577704661
  - # 24
    frequency:   66.8335296139

- q-position: [    0.0656566,    0.0000000,    0.0000000 ]
  distance:    0.0231193
  band:
  - # 1
    frequency:   -1.3547856461
  - # 2
    frequency:   -0.7627344378
  - # 3
    frequency:    0.0354149118
  - # 4
    frequency:    0.5043985398
  - # 5
    frequency:    0.8324704799
  - # 6
    frequency:    0.8621074247
  - # 7
    frequency:    1.1631932889
  - # 8
    frequency:    1.8885702741
  - # 9
    frequency:    3.5595135312
  - # 10
    frequency:    3.9699169369
  - # 11
    frequency:    5.5521713151
  - # 12
    frequency:    6.2048565656
  - # 13
    frequency:    6.4600466455
  - # 14
    frequency:    9.9084827603
  - # 15
    frequency:   12.7578772217
  - # 16
    frequency:   13.0847661505
  - # 17
    frequency:   13.6850584149
  - # 18
    frequency:   13.8018899563
  - # 19
    frequency:   14.1742784729
  - # 20
    frequency:   15.0694011522
  - # 21
    frequency:   15.2279201558
  - # 22
    frequency:   17.7784710492
  - # 23
    frequency:   32.2471741867
  - # 24
    frequency:   66.8164780297

- q-position: [    0.0707071,    0.0000000,    0.0000000 ]
  distance:    0.0248977
  band:
  - # 1
    frequency:   -1.4939446663
  - # 2
    frequency:   -0.8770092764
  - # 3
    frequency:    0.1248101773
  - # 4
    frequency:    0.5494344334
  - # 5
    frequency:    0.8559432039
  - # 6
    frequency:    0.9356030135
  - # 7
    frequency:    1.2176876694
  - # 8
    frequency:    2.0162470651
  - # 9
    frequency:    3.5720071365
  - # 10
    frequency:    4.0392019622
  - # 11
    frequency:    5.5466929788
  - # 12
    frequency:    6.2064653636
  - # 13
    frequency:    6.4972461986
  - # 14
    frequency:    9.8885163937
  - # 15
    frequency:   12.7486565934
  - # 16
    frequency:   13.0800378944
  - # 17
    frequency:   13.6830051754
  - # 18
    frequency:   13.8023452895
  - # 19
    frequency:   14.2357919551
  - # 20
    frequency:   15.0603957806
  - # 21
    frequency:   15.2332341653
  - # 22
    frequency:   17.8154085522
  - # 23
    frequency:   32.2358210044
  - # 24
    frequency:   66.7983298623

- q-position: [    0.0757576,    0.0000000,    0.0000000 ]
  distance:    0.0266761
  band:
  - # 1
    frequency:   -1.6286639265
  - # 2
    frequency:   -0.9875969751
  - # 3
    frequency:    0.1864532985
  - # 4
    frequency:    0.5970221041
  - # 5
    frequency:    0.8791425495
  - # 6
    frequency:    1.0101219465
  - # 7
    frequency:    1.2756350965
  - # 8
    frequency:    2.1444687706
  - # 9
    frequency:    3.5855433874
  - # 10
    frequency:    4.1115429327
  - # 11
    frequency:    5.5413756502
  - # 12
    frequency:    6.2081889994
  - # 13
    frequency:    6.5361620825
  - # 14
    frequency:    9.8673952142
  - # 15
    frequency:   12.7388657137
  - # 16
    frequency:   13.0658813352
  - # 17
    frequency:   13.6851141808
  - # 18
    frequency:   13.8028607238
  - # 19
    frequency:   14.3053688629
  - # 20
    frequency:   15.0508078453
  - # 21
    frequency:   15.2369194480
  - # 22
    frequency:   17.8555806633
  - # 23
    frequency:   32.2237314894
  - # 24
    frequency:   66.7791439665

- q-position: [    0.0808081,    0.0000000,    0.0000000 ]
  distance:    0.0284545
  band:
  - # 1
    frequency:   -1.7593521616
  - # 2
    frequency:   -1.0940867046
  - # 3
    frequency:    0.2401020361
  - # 4
    frequency:    0.6467023498
  - # 5
    frequency:    0.9036355140
  - # 6
    frequency:    1.0841868165
  - # 7
    frequency:    1.3360637360
  - # 8
    frequency:    2.2728360073
  - # 9
    frequency:    3.6001389659
  - # 10
    frequency:    4.1866422194
  - # 11
    frequency:    5.5362606149
  - # 12
    frequency:    6.2100266500
  - # 13
    frequency:    6.5767142886
  - # 14
    frequency:    9.8451685620
  - # 15
    frequency:   12.7285303620
  - # 16
    frequency:   13.0433620487
  - # 17
    frequency:   13.6906064875
  - # 18
    frequency:   13.8034402428
  - # 19
    frequency:   14.3823003981
  - # 20
    frequency:   15.0406545374
  - # 21
    frequency:   15.2388834589
  - # 22
    frequency:   17.8990293322
  - # 23
    frequency:   32.2109276050
  - # 24
    frequency:   66.7589825074

- q-position: [    0.0858586,    0.0000000,    0.0000000 ]
  distance:    0.0302329
  band:
  - # 1
    frequency:   -1.8863062961
  - # 2
    frequency:   -1.1965745613
  - # 3
    frequency:    0.2892018426
  - # 4
    frequency:    0.6980354575
  - # 5
    frequency:    0.9296573307
  - # 6
    frequency:    1.1576884219
  - # 7
    frequency:    1.3982999636
  - # 8
    frequency:    2.4010362452
  - # 9
    frequency:    3.6158091206
  - # 10
    frequency:    4.2642069377
  - # 11
    frequency:    5.5313882297
  - # 12
    frequency:    6.2119774788
  - # 13
    frequency:    6.6188375839
  - # 14
    frequency:    9.8218863888
  - # 15
    frequency:   12.7176784694
  - # 16
    frequency:   13.0138847455
  - # 17
    frequency:   13.6985838612
  - # 18
    frequency:   13.8040876420
  - # 19
    frequency:   14.4656197544
  - # 20
    frequency:   15.0299539378
  - # 21
    frequency:   15.2390872420
  - # 22
    frequency:   17.9457812476
  - # 23
    frequency:   32.1974326836
  - # 24
    frequency:   66.7379107452

- q-position: [    0.0909091,    0.0000000,    0.0000000 ]
  distance:    0.0320114
  band:
  - # 1
    frequency:   -2.0097384630
  - # 2
    frequency:   -1.2952837377
  - # 3
    frequency:    0.3352666248
  - # 4
    frequency:    0.7505563110
  - # 5
    frequency:    0.9573890880
  - # 6
    frequency:    1.2306326918
  - # 7
    frequency:    1.4618672758
  - # 8
    frequency:    2.5288123150
  - # 9
    frequency:    3.6325672954
  - # 10
    frequency:    4.3439469576
  - # 11
    frequency:    5.5268007981
  - # 12
    frequency:    6.2140406470
  - # 13
    frequency:    6.6624808232
  - # 14
    frequency:    9.7975995572
  - # 15
    frequency:   12.7063401196
  - # 16
    frequency:   12.9788808248
  - # 17
    frequency:   13.7082476736
  - # 18
    frequency:   13.8048064798
  - # 19
    frequency:   14.5541899003
  - # 20
    frequency:   15.0187249672
  - # 21
    frequency:   15.2375569650
  - # 22
    frequency:   17.9958455455
  - # 23
    frequency:   32.1832714031
  - # 24
    frequency:   66.7159968091

- q-position: [    0.0959596,    0.0000000,    0.0000000 ]
  distance:    0.0337898
  band:
  - # 1
    frequency:   -2.1297970913
  - # 2
    frequency:   -1.3904437283
  - # 3
    frequency:    0.3791484465
  - # 4
    frequency:    0.8037233037
  - # 5
    frequency:    0.9870966005
  - # 6
    frequency:    1.3030423323
  - # 7
    frequency:    1.5264199018
  - # 8
    frequency:    2.6559432408
  - # 9
    frequency:    3.6504247753
  - # 10
    frequency:    4.4255718529
  - # 11
    frequency:    5.5225459003
  - # 12
    frequency:    6.2162153259
  - # 13
    frequency:    6.7076062047
  - # 14
    frequency:    9.7723601634
  - # 15
    frequency:   12.6945475317
  - # 16
    frequency:   12.9396338638
  - # 17
    frequency:   13.7189903552
  - # 18
    frequency:   13.8056000341
  - # 19
    frequency:   14.6467650403
  - # 20
    frequency:   15.0069873346
  - # 21
    frequency:   15.2344109906
  - # 22
    frequency:   18.0492115135
  - # 23
    frequency:   32.1684697628
  - # 24
    frequency:   66.6933114593

- q-position: [    0.1010101,    0.0000000,    0.0000000 ]
  distance:    0.0355682
  band:
  - # 1
    frequency:   -2.2465827447
  - # 2
    frequency:   -1.4822541836
  - # 3
    frequency:    0.4213869445
  - # 4
    frequency:    0.8568560823
  - # 5
    frequency:    1.0192043465
  - # 6
    frequency:    1.3749394460
  - # 7
    frequency:    1.5917000056
  - # 8
    frequency:    2.7822321675
  - # 9
    frequency:    3.6693903568
  - # 10
    frequency:    4.5087865997
  - # 11
    frequency:    5.5186805415
  - # 12
    frequency:    6.2185007102
  - # 13
    frequency:    6.7541884656
  - # 14
    frequency:    9.7462218722
  - # 15
    frequency:   12.6823350257
  - # 16
    frequency:   12.8972218247
  - # 17
    frequency:   13.7303953667
  - # 18
    frequency:   13.8064712662
  - # 19
    frequency:   14.7419871511
  - # 20
    frequency:   14.9947614861
  - # 21
    frequency:   15.2299263558
  - # 22
    frequency:   18.1058462741
  - # 23
    frequency:   32.1530550589
  - # 24
    frequency:   66.6699278398

- q-position: [    0.1060606,    0.0000000,    0.0000000 ]
  distance:    0.0373466
  band:
  - # 1
    frequency:   -2.3601599013
  - # 2
    frequency:   -1.5708774946
  - # 3
    frequency:    0.4623488557
  - # 4
    frequency:    0.9090775787
  - # 5
    frequency:    1.0543539000
  - # 6
    frequency:    1.4463418449
  - # 7
    frequency:    1.6575099995
  - # 8
    frequency:    2.9074984895
  - # 9
    frequency:    3.6894700454
  - # 10
    frequency:    4.5932855771
  - # 11
    frequency:    5.5152767508
  - # 12
    frequency:    6.2208960323
  - # 13
    frequency:    6.8022139930
  - # 14
    frequency:    9.7192402542
  - # 15
    frequency:   12.6697389674
  - # 16
    frequency:   12.8525241145
  - # 17
    frequency:   13.7421978377
  - # 18
    frequency:   13.8074227908
  - # 19
    frequency:   14.8382435494
  - # 20
    frequency:   14.9820685535
  - # 21
    frequency:   15.2247184033
  - # 22
    frequency:   18.1656924558
  - # 23
    frequency:   32.1370558594
  - # 24
    frequency:   66.6459212216

- q-position: [    0.1111111,    0.0000000,    0.0000000 ]
  distance:    0.0391250
  band:
  - # 1
    frequency:   -2.4705657302
  - # 2
    frequency:   -1.6564409665
  - # 3
    frequency:    0.5022956242
  - # 4
    frequency:    0.9593336893
  - # 5
    frequency:    1.0933827445
  - # 6
    frequency:    1.5172626101
  - # 7
    frequency:    1.7236943932
  - # 8
    frequency:    3.0315725088
  - # 9
    frequency:    3.7106667853
  - # 10
    frequency:    4.6787439568
  - # 11
    frequency:    5.5124297389
  - # 12
    frequency:    6.2234005776
  - # 13
    frequency:    6.8516798101
  - # 14
    frequency:    9.6914731279
  - # 15
    frequency:   12.6567976930
  - # 16
    frequency:   12.8062535261
  - # 17
    frequency:   13.7542394166
  - # 18
    frequency:   13.8084568529
  - # 19
    frequency:   14.9331233329
  - # 20
    frequency:   14.9689303027
  - # 21
    frequency:   15.2203021094
  - # 22
    frequency:   18.2286658987
  - # 23
    frequency:   32.1205019783
  - # 24
    frequency:   66.6213687373

- q-position: [    0.1161616,    0.0000000,    0.0000000 ]
  distance:    0.0409034
  band:
  - # 1
    frequency:   -2.5778166797
  - # 2
    frequency:   -1.7390417426
  - # 3
    frequency:    0.5414202382
  - # 4
    frequency:    1.0066311702
  - # 5
    frequency:    1.1370846848
  - # 6
    frequency:    1.5877105072
  - # 7
    frequency:    1.7901276868
  - # 8
    frequency:    3.1542916044
  - # 9
    frequency:    3.7329802250
  - # 10
    frequency:    4.7648046550
  - # 11
    frequency:    5.5102706375
  - # 12
    frequency:    6.2260137000
  - # 13
    frequency:    6.9025923889
  - # 14
    frequency:    9.6629809092
  - # 15
    frequency:   12.6435514144
  - # 16
    frequency:   12.7589920203
  - # 17
    frequency:   13.7664310652
  - # 18
    frequency:   13.8095753109
  - # 19
    frequency:   14.9553690834
  - # 20
    frequency:   15.0213602867
  - # 21
    frequency:   15.2211547339
  - # 22
    frequency:   18.2946534876
  - # 23
    frequency:   32.1034244497
  - # 24
    frequency:   66.5963491078

- q-position: [    0.1212121,    0.0000000,    0.0000000 ]
  distance:    0.0426818
  band:
  - # 1
    frequency:   -2.6819134697
  - # 2
    frequency:   -1.8187520318
  - # 3
    frequency:    0.5798689575
  - # 4
    frequency:    1.0504926482
  - # 5
    frequency:    1.1857533060
  - # 6
    frequency:    1.6576905876
  - # 7
    frequency:    1.8567061435
  - # 8
    frequency:    3.2754972604
  - # 9
    frequency:    3.7564065202
  - # 10
    frequency:    4.8510571865
  - # 11
    frequency:    5.5089876849
  - # 12
    frequency:    6.2287348379
  - # 13
    frequency:    6.9549662224
  - # 14
    frequency:    9.6338269780
  - # 15
    frequency:   12.6300421033
  - # 16
    frequency:   12.7112220600
  - # 17
    frequency:   13.7787264262
  - # 18
    frequency:   13.8107796262
  - # 19
    frequency:   14.9414077785
  - # 20
    frequency:   15.0882318126
  - # 21
    frequency:   15.2413157754
  - # 22
    frequency:   18.3635112456
  - # 23
    frequency:   32.0858554999
  - # 24
    frequency:   66.5709423622

- q-position: [    0.1262626,    0.0000000,    0.0000000 ]
  distance:    0.0444602
  band:
  - # 1
    frequency:   -2.7828449172
  - # 2
    frequency:   -1.8956238201
  - # 3
    frequency:    0.6177548946
  - # 4
    frequency:    1.0912083023
  - # 5
    frequency:    1.2389289666
  - # 6
    frequency:    1.7272047749
  - # 7
    frequency:    1.9233420950
  - # 8
    frequency:    3.3950325035
  - # 9
    frequency:    3.7809381780
  - # 10
    frequency:    4.9370009135
  - # 11
    frequency:    5.5088635755
  - # 12
    frequency:    6.2315635300
  - # 13
    frequency:    7.0088220872
  - # 14
    frequency:    9.6040780775
  - # 15
    frequency:   12.6163133562
  - # 16
    frequency:   12.6633514945
  - # 17
    frequency:   13.7911041383
  - # 18
    frequency:   13.8120708580
  - # 19
    frequency:   14.9270697550
  - # 20
    frequency:   15.1147242933
  - # 21
    frequency:   15.2992172938
  - # 22
    frequency:   18.4350628532
  - # 23
    frequency:   32.0678285187
  - # 24
    frequency:   66.5452295521

- q-position: [    0.1313131,    0.0000000,    0.0000000 ]
  distance:    0.0462386
  band:
  - # 1
    frequency:   -2.8805908995
  - # 2
    frequency:   -1.9696928662
  - # 3
    frequency:    0.6551668928
  - # 4
    frequency:    1.1295565904
  - # 5
    frequency:    1.2956769214
  - # 6
    frequency:    1.7962523796
  - # 7
    frequency:    1.9899599296
  - # 8
    frequency:    3.5127394138
  - # 9
    frequency:    3.8065639406
  - # 10
    frequency:    5.0219768933
  - # 11
    frequency:    5.5103449793
  - # 12
    frequency:    6.2344994310
  - # 13
    frequency:    7.0641849144
  - # 14
    frequency:    9.5738047655
  - # 15
    frequency:   12.6024102399
  - # 16
    frequency:   12.6157324578
  - # 17
    frequency:   13.8035566031
  - # 18
    frequency:   13.8134496629
  - # 19
    frequency:   14.9123788163
  - # 20
    frequency:   15.1133525247
  - # 21
    frequency:   15.3818588373
  - # 22
    frequency:   18.5090987726
  - # 23
    frequency:   32.0493780287
  - # 24
    frequency:   66.5192924602

- q-position: [    0.1363636,    0.0000000,    0.0000000 ]
  distance:    0.0480170
  band:
  - # 1
    frequency:   -2.9751246759
  - # 2
    frequency:   -2.0409819995
  - # 3
    frequency:    0.6921755455
  - # 4
    frequency:    1.1663533967
  - # 5
    frequency:    1.3550371628
  - # 6
    frequency:    1.8648305322
  - # 7