nqpoint: 300    
npath: 3      
segment_nqpoint:
- 100
- 100
- 100
labels:
- [ 'G', 'M' ]
- [ 'M', 'K' ]
- [ 'K', 'G' ]
reciprocal_lattice:
- [   0.30802381,   0.17783763,   0.00000000 ] # a*
- [   0.00000000,   0.35567525,   0.00000000 ] # b*
- [   0.00000000,   0.00000000,   0.04279478 ] # c*
natom: 5      
lattice:
- [     3.246502318251405,     0.000000000000000,     0.000000000000000 ] # a
- [    -1.623251159125702,     2.811553481044664,     0.000000000000000 ] # b
- [     0.000000000000000,     0.000000000000000,    23.367337913636891 ] # c
points:
- symbol: Cl # 1
  coordinates: [  0.666666984744047,  0.333332985985145,  0.385152987185062 ]
  mass: 35.453000
- symbol: Hf # 2
  coordinates: [  0.333332985432215,  0.666666983183674,  0.463092788828280 ]
  mass: 178.490000
- symbol: Hf # 3
  coordinates: [  0.666666984744047,  0.333332985985145,  0.573368138707641 ]
  mass: 178.490000
- symbol: N # 4
  coordinates: [  0.000000000000000,  0.000000000000000,  0.519725461649434 ]
  mass: 14.006700
- symbol: O # 5
  coordinates: [  0.333332985432215,  0.666666983183674,  0.614847012814938 ]
  mass: 15.999400

phonon:
- q-position: [    0.0000000,    0.0000000,    0.0000000 ]
  distance:    0.0000000
  band:
  - # 1
    frequency:   -0.0000132341
  - # 2
    frequency:    0.0000001615
  - # 3
    frequency:    0.0000103590
  - # 4
    frequency:    2.5921625768
  - # 5
    frequency:    2.5921625768
  - # 6
    frequency:    4.3754119708
  - # 7
    frequency:    4.9100723068
  - # 8
    frequency:    4.9100723068
  - # 9
    frequency:    8.9881485758
  - # 10
    frequency:   10.8849916213
  - # 11
    frequency:   10.8849916214
  - # 12
    frequency:   15.4030952458
  - # 13
    frequency:   15.6447454871
  - # 14
    frequency:   15.6447454871
  - # 15
    frequency:   16.1379911017

- q-position: [    0.0050505,    0.0000000,    0.0000000 ]
  distance:    0.0017963
  band:
  - # 1
    frequency:    0.0014739491
  - # 2
    frequency:    0.0644125567
  - # 3
    frequency:    0.0875291085
  - # 4
    frequency:    2.5923412008
  - # 5
    frequency:    2.5933851202
  - # 6
    frequency:    4.3738872424
  - # 7
    frequency:    4.9105469524
  - # 8
    frequency:    4.9125861043
  - # 9
    frequency:    8.9874455004
  - # 10
    frequency:   10.8852658824
  - # 11
    frequency:   10.8854982246
  - # 12
    frequency:   15.4023347174
  - # 13
    frequency:   15.6445573673
  - # 14
    frequency:   15.6446949625
  - # 15
    frequency:   16.1367499848

- q-position: [    0.0101010,    0.0000000,    0.0000000 ]
  distance:    0.0035927
  band:
  - # 1
    frequency:    0.0058848851
  - # 2
    frequency:    0.1287776806
  - # 3
    frequency:    0.1749865299
  - # 4
    frequency:    2.5928765925
  - # 5
    frequency:    2.5970390641
  - # 6
    frequency:    4.3694191166
  - # 7
    frequency:    4.9119698079
  - # 8
    frequency:    4.9200235899
  - # 9
    frequency:    8.9853376549
  - # 10
    frequency:   10.8860889798
  - # 11
    frequency:   10.8870075303
  - # 12
    frequency:   15.4000538768
  - # 13
    frequency:   15.6439914812
  - # 14
    frequency:   15.6445436469
  - # 15
    frequency:   16.1330392222

- q-position: [    0.0151515,    0.0000000,    0.0000000 ]
  distance:    0.0053890
  band:
  - # 1
    frequency:    0.0132005762
  - # 2
    frequency:    0.1930480768
  - # 3
    frequency:    0.2623000701
  - # 4
    frequency:    2.5937673265
  - # 5
    frequency:    2.6030838104
  - # 6
    frequency:    4.3623039222
  - # 7
    frequency:    4.9143376277
  - # 8
    frequency:    4.9320948553
  - # 9
    frequency:    8.9818291668
  - # 10
    frequency:   10.8874618522
  - # 11
    frequency:   10.8894880994
  - # 12
    frequency:   15.3962548174
  - # 13
    frequency:   15.6430433629
  - # 14
    frequency:   15.6442923132
  - # 15
    frequency:   16.1268965796

- q-position: [    0.0202020,    0.0000000,    0.0000000 ]
  distance:    0.0071854
  band:
  - # 1
    frequency:    0.0233685572
  - # 2
    frequency:    0.2571767225
  - # 3
    frequency:    0.3493965133
  - # 4
    frequency:    2.5950110799
  - # 5
    frequency:    2.6114532028
  - # 6
    frequency:    4.3529727696
  - # 7
    frequency:    4.9176449989
  - # 8
    frequency:    4.9483793696
  - # 9
    frequency:    8.9769268695
  - # 10
    frequency:   10.8893860489
  - # 11
    frequency:   10.8928877772
  - # 12
    frequency:   15.3909405766
  - # 13
    frequency:   15.6417059334
  - # 14
    frequency:   15.6439422452
  - # 15
    frequency:   16.1183849978

- q-position: [    0.0252525,    0.0000000,    0.0000000 ]
  distance:    0.0089817
  band:
  - # 1
    frequency:    0.0363179462
  - # 2
    frequency:    0.3211170023
  - # 3
    frequency:    0.4362010746
  - # 4
    frequency:    2.5966047081
  - # 5
    frequency:    2.6220576950
  - # 6
    frequency:    4.3419250048
  - # 7
    frequency:    4.9218843358
  - # 8
    frequency:    4.9683923338
  - # 9
    frequency:    8.9706402366
  - # 10
    frequency:   10.8918637077
  - # 11
    frequency:   10.8971340663
  - # 12
    frequency:   15.3841145086
  - # 13
    frequency:   15.6399700024
  - # 14
    frequency:   15.6434952316
  - # 15
    frequency:   16.1075925744

- q-position: [    0.0303030,    0.0000000,    0.0000000 ]
  distance:    0.0107780
  band:
  - # 1
    frequency:    0.0519617751
  - # 2
    frequency:    0.3848228400
  - # 3
    frequency:    0.5226368146
  - # 4
    frequency:    2.5985443507
  - # 5
    frequency:    2.6347872152
  - # 6
    frequency:    4.3296709916
  - # 7
    frequency:    4.9270458738
  - # 8
    frequency:    4.9916416103
  - # 9
    frequency:    8.9629812961
  - # 10
    frequency:   10.8948975229
  - # 11
    frequency:   10.9021346619
  - # 12
    frequency:   15.3757795038
  - # 13
    frequency:   15.6378248855
  - # 14
    frequency:   15.6429535567
  - # 15
    frequency:   16.0946325070

- q-position: [    0.0353535,    0.0000000,    0.0000000 ]
  distance:    0.0125744
  band:
  - # 1
    frequency:    0.0701996842
  - # 2
    frequency:    0.4482488272
  - # 3
    frequency:    0.6086239999
  - # 4
    frequency:    2.6008255610
  - # 5
    frequency:    2.6495145857
  - # 6
    frequency:    4.3166937850
  - # 7
    frequency:    4.9331176637
  - # 8
    frequency:    5.0176656486
  - # 9
    frequency:    8.9539645287
  - # 10
    frequency:   10.8984907057
  - # 11
    frequency:   10.9077781632
  - # 12
    frequency:   15.3659371318
  - # 13
    frequency:   15.6352590715
  - # 14
    frequency:   15.6423199897
  - # 15
    frequency:   16.0796429635

- q-position: [    0.0404040,    0.0000000,    0.0000000 ]
  distance:    0.0143707
  band:
  - # 1
    frequency:    0.0909208033
  - # 2
    frequency:    0.5113503480
  - # 3
    frequency:    0.6940793984
  - # 4
    frequency:    2.6034434586
  - # 5
    frequency:    2.6660993516
  - # 6
    frequency:    4.3034293282
  - # 7
    frequency:    4.9400855680
  - # 8
    frequency:    5.0460527514
  - # 9
    frequency:    8.9436067565
  - # 10
    frequency:   10.9026469348
  - # 11
    frequency:   10.9139349797
  - # 12
    frequency:   15.3545867995
  - # 13
    frequency:   15.6322608689
  - # 14
    frequency:   15.6415977714
  - # 15
    frequency:   16.0627868362

- q-position: [    0.0454545,    0.0000000,    0.0000000 ]
  distance:    0.0161671
  band:
  - # 1
    frequency:    0.1140066552
  - # 2
    frequency:    0.5740836988
  - # 3
    frequency:    0.7789154979
  - # 4
    frequency:    2.6063929002
  - # 5
    frequency:    2.6843918872
  - # 6
    frequency:    4.2902600403
  - # 7
    frequency:    4.9479332595
  - # 8
    frequency:    5.0764467874
  - # 9
    frequency:    8.9319270293
  - # 10
    frequency:   10.9073702986
  - # 11
    frequency:   10.9204584536
  - # 12
    frequency:   15.3417250159
  - # 13
    frequency:   15.6288189619
  - # 14
    frequency:   15.6407905999
  - # 15
    frequency:   16.0442513266

- q-position: [    0.0505051,    0.0000000,    0.0000000 ]
  distance:    0.0179634
  band:
  - # 1
    frequency:    0.1393339360
  - # 2
    frequency:    0.6364062026
  - # 3
    frequency:    0.8630396393
  - # 4
    frequency:    2.6096686638
  - # 5
    frequency:    2.7042376661
  - # 6
    frequency:    4.2775161500
  - # 7
    frequency:    4.9566422269
  - # 8
    frequency:    5.1085449710
  - # 9
    frequency:    8.9189465112
  - # 10
    frequency:   10.9126652291
  - # 11
    frequency:   10.9271862257
  - # 12
    frequency:   15.3273448632
  - # 13
    frequency:   15.6249228050
  - # 14
    frequency:   15.6399026135
  - # 15
    frequency:   16.0242472980

- q-position: [    0.0555556,    0.0000000,    0.0000000 ]
  distance:    0.0197597
  band:
  - # 1
    frequency:    0.1667770586
  - # 2
    frequency:    0.6982763172
  - # 3
    frequency:    0.9463530582
  - # 4
    frequency:    2.6132656429
  - # 5
    frequency:    2.7254816158
  - # 6
    frequency:    4.2654805163
  - # 7
    frequency:    4.9661917854
  - # 8
    frequency:    5.1420919403
  - # 9
    frequency:    8.9046883767
  - # 10
    frequency:   10.9185364271
  - # 11
    frequency:   10.9339418715
  - # 12
    frequency:   15.3114357783
  - # 13
    frequency:   15.6205627761
  - # 14
    frequency:   15.6389383739
  - # 15
    frequency:   16.0030083339

- q-position: [    0.0606061,    0.0000000,    0.0000000 ]
  distance:    0.0215561
  band:
  - # 1
    frequency:    0.1962103785
  - # 2
    frequency:    0.7596537363
  - # 3
    frequency:    1.0287498359
  - # 4
    frequency:    2.6171790453
  - # 5
    frequency:    2.7479724986
  - # 6
    frequency:    4.2543943166
  - # 7
    frequency:    4.9765590986
  - # 8
    frequency:    5.1768727340
  - # 9
    frequency:    8.8891777170
  - # 10
    frequency:   10.9249887797
  - # 11
    frequency:   10.9405368400
  - # 12
    frequency:   15.2939837552
  - # 13
    frequency:   15.6157299915
  - # 14
    frequency:   15.6379028471
  - # 15
    frequency:   15.9807894502

- q-position: [    0.0656566,    0.0000000,    0.0000000 ]
  distance:    0.0233524
  band:
  - # 1
    frequency:    0.2275100553
  - # 2
    frequency:    0.8204994832
  - # 3
    frequency:    1.1101157658
  - # 4
    frequency:    2.6214045912
  - # 5
    frequency:    2.7715672815
  - # 6
    frequency:    4.2444622397
  - # 7
    frequency:    4.9877192093
  - # 8
    frequency:    5.2127060164
  - # 9
    frequency:    8.8724414630
  - # 10
    frequency:   10.9320272691
  - # 11
    frequency:   10.9467727237
  - # 12
    frequency:   15.2749720743
  - # 13
    frequency:   15.6104156651
  - # 14
    frequency:   15.6368013846
  - # 15
    frequency:   15.9578654330

- q-position: [    0.0707071,    0.0000000,    0.0000000 ]
  distance:    0.0251488
  band:
  - # 1
    frequency:    0.2605555312
  - # 2
    frequency:    0.8807759970
  - # 3
    frequency:    1.1903271568
  - # 4
    frequency:    2.6259387060
  - # 5
    frequency:    2.7961354619
  - # 6
    frequency:    4.2358566095
  - # 7
    frequency:    4.9996450845
  - # 8
    frequency:    5.2494381283
  - # 9
    frequency:    8.8545083254
  - # 10
    frequency:   10.9396568754
  - # 11
    frequency:   10.9524438858
  - # 12
    frequency:   15.2543826525
  - # 13
    frequency:   15.6046098652
  - # 14
    frequency:   15.6356397042
  - # 15
    frequency:   15.9345288205

- q-position: [    0.0757576,    0.0000000,    0.0000000 ]
  distance:    0.0269451
  band:
  - # 1
    frequency:    0.2952306307
  - # 2
    frequency:    0.9404472093
  - # 3
    frequency:    1.2692496097
  - # 4
    frequency:    2.6307787041
  - # 5
    frequency:    2.8215633038
  - # 6
    frequency:    4.2287203065
  - # 7
    frequency:    5.0123076736
  - # 8
    frequency:    5.2869381180
  - # 9
    frequency:    8.8354087553
  - # 10
    frequency:   10.9478824706
  - # 11
    frequency:   10.9573404638
  - # 12
    frequency:   15.2321980586
  - # 13
    frequency:   15.5982995206
  - # 14
    frequency:   15.6344238702
  - # 15
    frequency:   15.9110876037

- q-position: [    0.0808081,    0.0000000,    0.0000000 ]
  distance:    0.0287414
  band:
  - # 1
    frequency:    0.3314243037
  - # 2
    frequency:    0.9994786132
  - # 3
    frequency:    1.3467368293
  - # 4
    frequency:    2.6359229571
  - # 5
    frequency:    2.8477579088
  - # 6
    frequency:    4.2231685807
  - # 7
    frequency:    5.0256759829
  - # 8
    frequency:    5.3250937063
  - # 9
    frequency:    8.8151749248
  - # 10
    frequency:   10.9567087074
  - # 11
    frequency:   10.9612517575
  - # 12
    frequency:   15.2084041685
  - # 13
    frequency:   15.5914655609
  - # 14
    frequency:   15.6331602751
  - # 15
    frequency:   15.8878627684

- q-position: [    0.0858586,    0.0000000,    0.0000000 ]
  distance:    0.0305378
  band:
  - # 1
    frequency:    0.3690310425
  - # 2
    frequency:    1.0578373226
  - # 3
    frequency:    1.4226295671
  - # 4
    frequency:    2.6413710445
  - # 5
    frequency:    2.8746509967
  - # 6
    frequency:    4.2192899569
  - # 7
    frequency:    5.0397171661
  - # 8
    frequency:    5.3638080613
  - # 9
    frequency:    8.7938407290
  - # 10
    frequency:   10.9639699925
  - # 11
    frequency:   10.9661399011
  - # 12
    frequency:   15.1829933248
  - # 13
    frequency:   15.5840792174
  - # 14
    frequency:   15.6318556213
  - # 15
    frequency:   15.8651857870

- q-position: [    0.0909091,    0.0000000,    0.0000000 ]
  distance:    0.0323341
  band:
  - # 1
    frequency:    0.4079510131
  - # 2
    frequency:    1.1154921221
  - # 3
    frequency:    1.4967548325
  - # 4
    frequency:    2.6471238817
  - # 5
    frequency:    2.9022022055
  - # 6
    frequency:    4.2171464800
  - # 7
    frequency:    5.0543966321
  - # 8
    frequency:    5.4029972392
  - # 9
    frequency:    8.7714418078
  - # 10
    frequency:   10.9652944305
  - # 11
    frequency:   10.9761799069
  - # 12
    frequency:   15.1559677419
  - # 13
    frequency:   15.5760978007
  - # 14
    frequency:   15.6305169035
  - # 15
    frequency:   15.8433960159

- q-position: [    0.0959596,    0.0000000,    0.0000000 ]
  distance:    0.0341305
  band:
  - # 1
    frequency:    0.4480899375
  - # 2
    frequency:    1.1724135080
  - # 3
    frequency:    1.5689255640
  - # 4
    frequency:    2.6531838231
  - # 5
    frequency:    2.9304016439
  - # 6
    frequency:    4.2167735699
  - # 7
    frequency:    5.0696781704
  - # 8
    frequency:    5.4425881569
  - # 9
    frequency:    8.7480155888
  - # 10
    frequency:   10.9650357729
  - # 11
    frequency:   10.9868319920
  - # 12
    frequency:   15.1273427852
  - # 13
    frequency:   15.5674607807
  - # 14
    frequency:   15.6291513932
  - # 15
    frequency:   15.8228375879

- q-position: [    0.1010101,    0.0000000,    0.0000000 ]
  distance:    0.0359268
  band:
  - # 1
    frequency:    0.4893587672
  - # 2
    frequency:    1.2285737197
  - # 3
    frequency:    1.6389410085
  - # 4
    frequency:    2.6595547377
  - # 5
    frequency:    2.9592713560
  - # 6
    frequency:    4.2181797498
  - # 7
    frequency:    5.0855240928
  - # 8
    frequency:    5.4825169802
  - # 9
    frequency:    8.7236013478
  - # 10
    frequency:   10.9630207766
  - # 11
    frequency:   10.9980987046
  - # 12
    frequency:   15.0971496908
  - # 13
    frequency:   15.5580876633
  - # 14
    frequency:   15.6277666238
  - # 15
    frequency:   15.8038548046

- q-position: [    0.1060606,    0.0000000,    0.0000000 ]
  distance:    0.0377231
  band:
  - # 1
    frequency:    0.5316731837
  - # 2
    frequency:    1.2839467614
  - # 3
    frequency:    1.7065881123
  - # 4
    frequency:    2.6662420547
  - # 5
    frequency:    2.9888652919
  - # 6
    frequency:    4.2213465026
  - # 7
    frequency:    5.1018953918
  - # 8
    frequency:    5.5227278342
  - # 9
    frequency:    8.6982402874
  - # 10
    frequency:   10.9590969714
  - # 11
    frequency:   11.0099817401
  - # 12
    frequency:   15.0654373124
  - # 13
    frequency:   15.5478797197
  - # 14
    frequency:   15.6263703779
  - # 15
    frequency:   15.7867844799

- q-position: [    0.1111111,    0.0000000,    0.0000000 ]
  distance:    0.0395195
  band:
  - # 1
    frequency:    0.5749529558
  - # 2
    frequency:    1.3385084159
  - # 3
    frequency:    1.7716442619
  - # 4
    frequency:    2.6732527785
  - # 5
    frequency:    3.0192673534
  - # 6
    frequency:    4.2262284778
  - # 7
    frequency:    5.1187519148
  - # 8
    frequency:    5.5631717567
  - # 9
    frequency:    8.6719756307
  - # 10
    frequency:   10.9531373415
  - # 11
    frequency:   11.0224818055
  - # 12
    frequency:   15.0322725947
  - # 13
    frequency:   15.5367274843
  - # 14
    frequency:   15.6249706757
  - # 15
    frequency:   15.7719437407

- q-position: [    0.1161616,    0.0000000,    0.0000000 ]
  distance:    0.0413158
  band:
  - # 1
    frequency:    0.6191211811
  - # 2
    frequency:    1.3922362484
  - # 3
    frequency:    1.8338817037
  - # 4
    frequency:    2.6805954731
  - # 5
    frequency:    3.0505871171
  - # 6
    frequency:    4.2327542301
  - # 7
    frequency:    5.1360525507
  - # 8
    frequency:    5.6038058372
  - # 9
    frequency:    8.6448527285
  - # 10
    frequency:   10.9450448106
  - # 11
    frequency:   11.0355984837
  - # 12
    frequency:   14.9977396674
  - # 13
    frequency:   15.5245243625
  - # 14
    frequency:   15.6235757654
  - # 15
    frequency:   15.7596131889

- q-position: [    0.1212121,    0.0000000,    0.0000000 ]
  distance:    0.0431122
  band:
  - # 1
    frequency:    0.6641034337
  - # 2
    frequency:    1.4451096032
  - # 3
    frequency:    1.8930738818
  - # 4
    frequency:    2.6882802142
  - # 5
    frequency:    3.0829529652
  - # 6
    frequency:    4.2408276149
  - # 7
    frequency:    5.1537554294
  - # 8
    frequency:    5.6445924901
  - # 9
    frequency:    8.6169191755
  - # 10
    frequency:   10.9347563552
  - # 11
    frequency:   11.0493300990
  - # 12
    frequency:   14.9619376749
  - # 13
    frequency:   15.5111836746
  - # 14
    frequency:   15.6221941159
  - # 15
    frequency:   15.7500181430

- q-position: [    0.1262626,    0.0000000,    0.0000000 ]
  distance:    0.0449085
  band:
  - # 1
    frequency:    0.7098268335
  - # 2
    frequency:    1.4971095919
  - # 3
    frequency:    1.9490037420
  - # 4
    frequency:    2.6963185118
  - # 5
    frequency:    3.1165025933
  - # 6
    frequency:    4.2503299044
  - # 7
    frequency:    5.1718181295
  - # 8
    frequency:    5.6854988282
  - # 9
    frequency:    8.5882249334
  - # 10
    frequency:   10.9222465645
  - # 11
    frequency:   11.0636735843
  - # 12
    frequency:   14.9249776460
  - # 13
    frequency:   15.4966535418
  - # 14
    frequency:   15.6208344098
  - # 15
    frequency:   15.7433134049

- q-position: [    0.1313131,    0.0000000,    0.0000000 ]
  distance:    0.0467048
  band:
  - # 1
    frequency:    0.7562190506
  - # 2
    frequency:    1.5482190747
  - # 3
    frequency:    2.0014737345
  - # 4
    frequency:    2.7047232034
  - # 5
    frequency:    3.1513712315
  - # 6
    frequency:    4.2611226304
  - # 7
    frequency:    5.1901978941
  - # 8
    frequency:    5.7264961037
  - # 9
    frequency:    8.5588224528
  - # 10
    frequency:   10.9075304749
  - # 11
    frequency:   11.0786243527
  - # 12
    frequency:   14.8869788281
  - # 13
    frequency:   15.4809238071
  - # 14
    frequency:   15.6195055393
  - # 15
    frequency:   15.7395770910

- q-position: [    0.1363636,    0.0000000,    0.0000000 ]
  distance:    0.0485012
  band:
  - # 1
    frequency:    0.8032072500
  - # 2
    frequency:    1.5984226354
  - # 3
    frequency:    2.0503168467
  - # 4
    frequency:    2.7135083198
  - # 5
    frequency:    3.1876783539
  - # 6
    frequency:    4.2730511049
  - # 7
    frequency:    5.2088518496
  - # 8
    frequency:    5.7675591962
  - # 9
    frequency:    8.5287667888
  - # 10
    frequency:   10.8906655279
  - # 11
    frequency:   11.0941761746
  - # 12
    frequency:   14.8480649288
  - # 13
    frequency:   15.4640226728
  - # 14
    frequency:   15.6182166026
  - # 15
    frequency:   15.7388155277

- q-position: [    0.1414141,    0.0000000,    0.0000000 ]
  distance:    0.0502975
  band:
  - # 1
    frequency:    0.8507169814
  - # 2
    frequency:    1.6477065502
  - # 3
    frequency:    2.0954075908
  - # 4
    frequency:    2.7226889263
  - # 5
    frequency:    3.2255140904
  - # 6
    frequency:    4.2859485409
  - # 7
    frequency:    5.2277372259
  - # 8
    frequency:    5.8086661284
  - # 9
    frequency:    8.4981157013
  - # 10
    frequency:   10.8717525335
  - # 11
    frequency:   11.1103210611
  - # 12
    frequency:   14.8083606505
  - # 13
    frequency:   15.4460056110
  - # 14
    frequency:   15.6169769012
  - # 15
    frequency:   15.7409763736

- q-position: [    0.1464646,    0.0000000,    0.0000000 ]
  distance:    0.0520939
  band:
  - # 1
    frequency:    0.8986710119
  - # 2
    frequency:    1.6960587521
  - # 3
    frequency:    2.1366715936
  - # 4
    frequency:    2.7322809414
  - # 5
    frequency:    3.2649268347
  - # 6
    frequency:    4.2996406759
  - # 7
    frequency:    5.2468115753
  - # 8
    frequency:    5.8497975964
  - # 9
    frequency:    8.4669297272
  - # 10
    frequency:   10.8509355653
  - # 11
    frequency:   11.1270491567
  - # 12
    frequency:   14.7679887893
  - # 13
    frequency:   15.4269417820
  - # 14
    frequency:   15.6157959386
  - # 15
    frequency:   15.7459645126

- q-position: [    0.1515152,    0.0000000,    0.0000000 ]
  distance:    0.0538902
  band:
  - # 1
    frequency:    0.9469880969
  - # 2
    frequency:    1.7434687903
  - # 3
    frequency:    2.1740924309
  - # 4
    frequency:    2.7423009363
  - # 5
    frequency:    3.3059135395
  - # 6
    frequency:    4.3139508109
  - # 7
    frequency:    5.2660329860
  - # 8
    frequency:    5.8909365046
  - # 9
    frequency:    8.4352722142
  - # 10
    frequency:   10.8284007636
  - # 11
    frequency:   11.1443486422
  - # 12
    frequency:   14.7270680401
  - # 13
    frequency:   15.4069025055
  - # 14
    frequency:   15.6146834182
  - # 15
    frequency:   15.7536560446

- q-position: [    0.1565657,    0.0000000,    0.0000000 ]
  distance:    0.0556865
  band:
  - # 1
    frequency:    0.9955816803
  - # 2
    frequency:    1.7899277874
  - # 3
    frequency:    2.2077146885
  - # 4
    frequency:    2.7527659181
  - # 5
    frequency:    3.3484138204
  - # 6
    frequency:    4.3287051947
  - # 7
    frequency:    5.2853602878
  - # 8
    frequency:    5.9320675001
  - # 9
    frequency:    8.4032092999
  - # 10
    frequency:   10.8043740746
  - # 11
    frequency:   11.1622056490
  - # 12
    frequency:   14.6857115375
  - # 13
    frequency:   15.3859538499
  - # 14
    frequency:   15.6136492420
  - # 15
    frequency:   15.7639082366

- q-position: [    0.1616162,    0.0000000,    0.0000000 ]
  distance:    0.0574829
  band:
  - # 1
    frequency:    1.0443585140
  - # 2
    frequency:    1.8354283925
  - # 3
    frequency:    2.2376428678
  - # 4
    frequency:    2.7636931013
  - # 5
    frequency:    3.3923083143
  - # 6
    frequency:    4.3437387187
  - # 7
    frequency:    5.3047532481
  - # 8
    frequency:    5.9731765006
  - # 9
    frequency:    8.3708098203
  - # 10
    frequency:   10.7791180005
  - # 11
    frequency:   11.1806041873
  - # 12
    frequency:   14.6440260742
  - # 13
    frequency:   15.3641532300
  - # 14
    frequency:   15.6127035077
  - # 15
    frequency:   15.7765655257

- q-position: [    0.1666667,    0.0000000,    0.0000000 ]
  distance:    0.0592792
  band:
  - # 1
    frequency:    1.0932171824
  - # 2
    frequency:    1.8799647343
  - # 3
    frequency:    2.2640365087
  - # 4
    frequency:    2.7750996691
  - # 5
    frequency:    3.4374209392
  - # 6
    frequency:    4.3589009177
  - # 7
    frequency:    5.3241727543
  - # 8
    frequency:    6.0142502183
  - # 9
    frequency:    8.3381451324
  - # 10
    frequency:   10.7529274784
  - # 11
    frequency:   11.1995260888
  - # 12
    frequency:   14.6021118837
  - # 13
    frequency:   15.3415488623
  - # 14
    frequency:   15.6118565048
  - # 15
    frequency:   15.7914627179

- q-position: [    0.1717172,    0.0000000,    0.0000000 ]
  distance:    0.0610755
  band:
  - # 1
    frequency:    1.1420465192
  - # 2
    frequency:    1.9235323722
  - # 3
    frequency:    2.2871025468
  - # 4
    frequency:    2.7870025293
  - # 5
    frequency:    3.4835240171
  - # 6
    frequency:    4.3740623046
  - # 7
    frequency:    5.3435809815
  - # 8
    frequency:    6.0552756800
  - # 9
    frequency:    8.3052888346
  - # 10
    frequency:   10.7261250353
  - # 11
    frequency:   11.2189509666
  - # 12
    frequency:   14.5600628560
  - # 13
    frequency:   15.3181808200
  - # 14
    frequency:   15.6111187086
  - # 15
    frequency:   15.8084266369

- q-position: [    0.1767677,    0.0000000,    0.0000000 ]
  distance:    0.0628719
  band:
  - # 1
    frequency:    1.1907239078
  - # 2
    frequency:    1.9661282479
  - # 3
    frequency:    2.3070862719
  - # 4
    frequency:    2.7994180684
  - # 5
    frequency:    3.5303448381
  - # 6
    frequency:    4.3891210758
  - # 7
    frequency:    5.3629415426
  - # 8
    frequency:    6.0962397507
  - # 9
    frequency:    8.2723163729
  - # 10
    frequency:   10.6990553869
  - # 11
    frequency:   11.2388561914
  - # 12
    frequency:   14.5179670494
  - # 13
    frequency:   15.2940827424
  - # 14
    frequency:   15.6105007718
  - # 15
    frequency:   15.8272771532

- q-position: [    0.1818182,    0.0000000,    0.0000000 ]
  distance:    0.0646682
  band:
  - # 1
    frequency:    1.2391134598
  - # 2
    frequency:    2.0077506374
  - # 3
    frequency:    2.3242622582
  - # 4
    frequency:    2.8123619057
  - # 5
    frequency:    3.5775722319
  - # 6
    frequency:    4.4040102127
  - # 7
    frequency:    5.3822196208
  - # 8
    frequency:    6.1371286663
  - # 9
    frequency:    8.2393045252
  - # 10
    frequency:   10.6720796560
  - # 11
    frequency:   11.2592168876
  - # 12
    frequency:   14.4759073807
  - # 13
    frequency:   15.2692836280
  - # 14
    frequency:   15.6100135125
  - # 15
    frequency:   15.8478281335

- q-position: [    0.1868687,    0.0000000,    0.0000000 ]
  distance:    0.0664646
  band:
  - # 1
    frequency:    1.2870640891
  - # 2
    frequency:    2.0483991049
  - # 3
    frequency:    2.3389263549
  - # 4
    frequency:    2.8258486518
  - # 5
    frequency:    3.6248620172
  - # 6
    frequency:    4.4187049458
  - # 7
    frequency:    5.4013820812
  - # 8
    frequency:    6.1779275869
  - # 9
    frequency:    8.2063307625
  - # 10
    frequency:   10.6455693855
  - # 11
    frequency:   11.2800059486
  - # 12
    frequency:   14.4339623923
  - # 13
    frequency:   15.2438094313
  - # 14
    frequency:   15.6096678983
  - # 15
    frequency:   15.8698885526

- q-position: [    0.1919192,    0.0000000,    0.0000000 ]
  distance:    0.0682609
  band:
  - # 1
    frequency:    1.3344075183
  - # 2
    frequency:    2.0880744589
  - # 3
    frequency:    2.3513893991
  - # 4
    frequency:    2.8398916740
  - # 5
    frequency:    3.6718407128
  - # 6
    frequency:    4.4332304150
  - # 7
    frequency:    5.4203975629
  - # 8
    frequency:    6.2186201807
  - # 9
    frequency:    8.1734724964
  - # 10
    frequency:   10.6199005111
  - # 11
    frequency:   11.3011940720
  - # 12
    frequency:   14.3922070229
  - # 13
    frequency:   15.2176843628
  - # 14
    frequency:   15.6094750256
  - # 15
    frequency:   15.8932638216

- q-position: [    0.1969697,    0.0000000,    0.0000000 ]
  distance:    0.0700572
  band:
  - # 1
    frequency:    1.3809563100
  - # 2
    frequency:    2.1267787100
  - # 3
    frequency:    2.3619728613
  - # 4
    frequency:    2.8545028708
  - # 5
    frequency:    3.7181075213
  - # 6
    frequency:    4.4476691172
  - # 7
    frequency:    5.4392365493
  - # 8
    frequency:    6.2591882518
  - # 9
    frequency:    8.1408062311
  - # 10
    frequency:   10.5954474427
  - # 11
    frequency:   11.3227498168
  - # 12
    frequency:   14.3507133283
  - # 13
    frequency:   15.1909318860
  - # 14
    frequency:   15.6094460940
  - # 15
    frequency:   15.9177572932

- q-position: [    0.2020202,    0.0000000,    0.0000000 ]
  distance:    0.0718536
  band:
  - # 1
    frequency:    1.4265020813
  - # 2
    frequency:    2.1645150332
  - # 3
    frequency:    2.3710062457
  - # 4
    frequency:    2.8696924578
  - # 5
    frequency:    3.7632353043
  - # 6
    frequency:    4.4621673279
  - # 7
    frequency:    5.4578714187
  - # 8
    frequency:    6.2996114216
  - # 9
    frequency:    8.1084066519
  - # 10
    frequency:   10.5725773873
  - # 11
    frequency:   11.3446396811
  - # 12
    frequency:   14.3095511181
  - # 13
    frequency:   15.1635754509
  - # 14
    frequency:   15.6095923743
  - # 15
    frequency:   15.9431718656

- q-position: [    0.2070707,    0.0000000,    0.0000000 ]
  distance:    0.0736499
  band:
  - # 1
    frequency:    1.4708141771
  - # 2
    frequency:    2.2012877323
  - # 3
    frequency:    2.3788257514
  - # 4
    frequency:    2.8854687676
  - # 5
    frequency:    3.8067720666
  - # 6
    frequency:    4.4769390700
  - # 7
    frequency:    5.4762764735
  - # 8
    frequency:    6.3398668769
  - # 9
    frequency:    8.0763456917
  - # 10
    frequency:   10.5516450237
  - # 11
    frequency:   11.3668282010
  - # 12
    frequency:   14.2687884896
  - # 13
    frequency:   15.1356390129
  - # 14
    frequency:   15.6099251701
  - # 15
    frequency:   15.9693116038

- q-position: [    0.2121212,    0.0000000,    0.0000000 ]
  distance:    0.0754463
  band:
  - # 1
    frequency:    1.5136392269