nqpoint: 300    
npath: 3      
segment_nqpoint:
- 100
- 100
- 100
labels:
- [ 'G', 'M' ]
- [ 'M', 'K' ]
- [ 'K', 'G' ]
reciprocal_lattice:
- [   0.30010936,   0.17326822,   0.00000000 ] # a*
- [   0.00000000,   0.34653644,   0.00000000 ] # b*
- [   0.00000000,   0.00000000,   0.03863137 ] # c*
natom: 7      
lattice:
- [     3.332118622800762,     0.000000000000000,     0.000000000000000 ] # a
- [    -1.666059311400380,     2.885699375758866,     0.000000000000000 ] # b
- [     0.000000000000000,     0.000000000000000,    25.885698414106734 ] # c
points:
- symbol: C # 1
  coordinates: [  0.333332985432215,  0.666666983183674,  0.605787933309313 ]
  mass: 12.010700
- symbol: Cl # 2
  coordinates: [  0.666666984744048,  0.333332985985145,  0.347682332383790 ]
  mass: 35.453000
- symbol: N # 3
  coordinates: [  0.000000000000000,  0.000000000000000,  0.459717795166100 ]
  mass: 14.006700
- symbol: N # 4
  coordinates: [  0.333332985432215,  0.666666983183674,  0.557655824832574 ]
  mass: 14.006700
- symbol: O # 5
  coordinates: [  0.333332985432215,  0.666666983183674,  0.652317667616210 ]
  mass: 15.999400
- symbol: Sc # 6
  coordinates: [  0.333332985432215,  0.666666983183674,  0.413321759217626 ]
  mass: 44.955912
- symbol: Sc # 7
  coordinates: [  0.666666984744048,  0.333332985985145,  0.506088105304823 ]
  mass: 44.955912

phonon:
- q-position: [    0.0000000,    0.0000000,    0.0000000 ]
  distance:    0.0000000
  band:
  - # 1
    frequency:   -0.0000192723
  - # 2
    frequency:   -0.0000004641
  - # 3
    frequency:    0.0000175150
  - # 4
    frequency:    1.0648462632
  - # 5
    frequency:    1.0648462633
  - # 6
    frequency:    4.1878635819
  - # 7
    frequency:    4.1878635820
  - # 8
    frequency:    5.6444097069
  - # 9
    frequency:    6.8570540296
  - # 10
    frequency:    6.8570540297
  - # 11
    frequency:    7.7706482188
  - # 12
    frequency:    7.7706482188
  - # 13
    frequency:    9.2356209844
  - # 14
    frequency:   11.7802009475
  - # 15
    frequency:   13.1345165346
  - # 16
    frequency:   13.6909303464
  - # 17
    frequency:   13.6909303464
  - # 18
    frequency:   17.5514781749
  - # 19
    frequency:   17.5514781750
  - # 20
    frequency:   38.6203458164
  - # 21
    frequency:   69.2795374765

- q-position: [    0.0050505,    0.0000000,    0.0000000 ]
  distance:    0.0017502
  band:
  - # 1
    frequency:   -0.1101173301
  - # 2
    frequency:   -0.0912375778
  - # 3
    frequency:    0.0017968997
  - # 4
    frequency:    1.0734265802
  - # 5
    frequency:    1.0746060795
  - # 6
    frequency:    4.1877765316
  - # 7
    frequency:    4.1891432709
  - # 8
    frequency:    5.6439700423
  - # 9
    frequency:    6.8568617499
  - # 10
    frequency:    6.8568827767
  - # 11
    frequency:    7.7705720286
  - # 12
    frequency:    7.7708649560
  - # 13
    frequency:    9.2351955864
  - # 14
    frequency:   11.7785101234
  - # 15
    frequency:   13.1348163268
  - # 16
    frequency:   13.6889147002
  - # 17
    frequency:   13.6909000807
  - # 18
    frequency:   17.5515324262
  - # 19
    frequency:   17.5517507099
  - # 20
    frequency:   38.6203530408
  - # 21
    frequency:   69.2782801598

- q-position: [    0.0101010,    0.0000000,    0.0000000 ]
  distance:    0.0035004
  band:
  - # 1
    frequency:   -0.2141427401
  - # 2
    frequency:   -0.1781016450
  - # 3
    frequency:    0.0071815720
  - # 4
    frequency:    1.0980281149
  - # 5
    frequency:    1.1021749326
  - # 6
    frequency:    4.1875172430
  - # 7
    frequency:    4.1929730605
  - # 8
    frequency:    5.6426536854
  - # 9
    frequency:    6.8562853274
  - # 10
    frequency:    6.8563746192
  - # 11
    frequency:    7.7703468873
  - # 12
    frequency:    7.7715104341
  - # 13
    frequency:    9.2339224528
  - # 14
    frequency:   11.7734389367
  - # 15
    frequency:   13.1357095242
  - # 16
    frequency:   13.6828782323
  - # 17
    frequency:   13.6908072259
  - # 18
    frequency:   17.5516949334
  - # 19
    frequency:   17.5525676583
  - # 20
    frequency:   38.6203747047
  - # 21
    frequency:   69.2745108764

- q-position: [    0.0151515,    0.0000000,    0.0000000 ]
  distance:    0.0052506
  band:
  - # 1
    frequency:   -0.3081772516
  - # 2
    frequency:   -0.2575646568
  - # 3
    frequency:    0.0161352001
  - # 4
    frequency:    1.1358625311
  - # 5
    frequency:    1.1435722729
  - # 6
    frequency:    4.1870913582
  - # 7
    frequency:    4.1993252475
  - # 8
    frequency:    5.6404686139
  - # 9
    frequency:    6.8553260505
  - # 10
    frequency:    6.8555459339
  - # 11
    frequency:    7.7699829886
  - # 12
    frequency:    7.7725707745
  - # 13
    frequency:    9.2318107504
  - # 14
    frequency:   11.7649912569
  - # 15
    frequency:   13.1371772134
  - # 16
    frequency:   13.6728527506
  - # 17
    frequency:   13.6906456243
  - # 18
    frequency:   17.5519649596
  - # 19
    frequency:   17.5539270538
  - # 20
    frequency:   38.6204107800
  - # 21
    frequency:   69.2682376195

- q-position: [    0.0202020,    0.0000000,    0.0000000 ]
  distance:    0.0070007
  band:
  - # 1
    frequency:   -0.3908282980
  - # 2
    frequency:   -0.3283012979
  - # 3
    frequency:    0.0286267190
  - # 4
    frequency:    1.1837158247
  - # 5
    frequency:    1.1945843917
  - # 6
    frequency:    4.1865084592
  - # 7
    frequency:    4.2081540793
  - # 8
    frequency:    5.6374283396
  - # 9
    frequency:    6.8539861874
  - # 10
    frequency:    6.8544226299
  - # 11
    frequency:    7.7694970099
  - # 12
    frequency:    7.7740238925
  - # 13
    frequency:    9.2288757071
  - # 14
    frequency:   11.7531735796
  - # 15
    frequency:   13.1391865319
  - # 16
    frequency:   13.6588926750
  - # 17
    frequency:   13.6904050644
  - # 18
    frequency:   17.5523412876
  - # 19
    frequency:   17.5558256277
  - # 20
    frequency:   38.6204612180
  - # 21
    frequency:   69.2594736853

- q-position: [    0.0252525,    0.0000000,    0.0000000 ]
  distance:    0.0087509
  band:
  - # 1
    frequency:   -0.4622725168
  - # 2
    frequency:   -0.3902344067
  - # 3
    frequency:    0.0446129560
  - # 4
    frequency:    1.2387899887
  - # 5
    frequency:    1.2518936745
  - # 6
    frequency:    4.1857823327
  - # 7
    frequency:    4.2193963613
  - # 8
    frequency:    5.6335522060
  - # 9
    frequency:    6.8522691606
  - # 10
    frequency:    6.8530381924
  - # 11
    frequency:    7.7689116531
  - # 12
    frequency:    7.7758409772
  - # 13
    frequency:    9.2251385362
  - # 14
    frequency:   11.7379951001
  - # 15
    frequency:   13.1416883220
  - # 16
    frequency:   13.6410774777
  - # 17
    frequency:   13.6900713575
  - # 18
    frequency:   17.5528222364
  - # 19
    frequency:   17.5582588234
  - # 20
    frequency:   38.6205259476
  - # 21
    frequency:   69.2482376353

- q-position: [    0.0303030,    0.0000000,    0.0000000 ]
  distance:    0.0105011
  band:
  - # 1
    frequency:   -0.5233285798
  - # 2
    frequency:   -0.4439347814
  - # 3
    frequency:    0.0640388906
  - # 4
    frequency:    1.2989563696
  - # 5
    frequency:    1.3132263888
  - # 6
    frequency:    4.1849313311
  - # 7
    frequency:    4.2329722629
  - # 8
    frequency:    5.6288657554
  - # 9
    frequency:    6.8501797724
  - # 10
    frequency:    6.8514311751
  - # 11
    frequency:    7.7682550223
  - # 12
    frequency:    7.7779883945
  - # 13
    frequency:    9.2206263287
  - # 14
    frequency:   11.7194678249
  - # 15
    frequency:   13.1446130563
  - # 16
    frequency:   13.6195158818
  - # 17
    frequency:   13.6896264433
  - # 18
    frequency:   17.5534056839
  - # 19
    frequency:   17.5612208146
  - # 20
    frequency:   38.6206048713
  - # 21
    frequency:   69.2345532424

- q-position: [    0.0353535,    0.0000000,    0.0000000 ]
  distance:    0.0122513
  band:
  - # 1
    frequency:   -0.5749393102
  - # 2
    frequency:   -0.4902076686
  - # 3
    frequency:    0.0868379086
  - # 4
    frequency:    1.3626863947
  - # 5
    frequency:    1.3771168451
  - # 6
    frequency:    4.1839788213
  - # 7
    frequency:    4.2487862836
  - # 8
    frequency:    5.6234011201
  - # 9
    frequency:    6.8477244672
  - # 10
    frequency:    6.8496423426
  - # 11
    frequency:    7.7675598548
  - # 12
    frequency:    7.7804298700
  - # 13
    frequency:    9.2153719112
  - # 14
    frequency:   11.6976067315
  - # 15
    frequency:   13.1478638960
  - # 16
    frequency:   13.5943529443
  - # 17
    frequency:   13.6890485252
  - # 18
    frequency:   17.5540890946
  - # 19
    frequency:   17.5647045292
  - # 20
    frequency:   38.6206978617
  - # 21
    frequency:   69.2184494236

- q-position: [    0.0404040,    0.0000000,    0.0000000 ]
  distance:    0.0140015
  band:
  - # 1
    frequency:   -0.6179571200
  - # 2
    frequency:   -0.5298792599
  - # 3
    frequency:    0.1129320082
  - # 4
    frequency:    1.4288967443
  - # 5
    frequency:    1.4426426600
  - # 6
    frequency:    4.1829537075
  - # 7
    frequency:    4.2667283360
  - # 8
    frequency:    5.6171973902
  - # 9
    frequency:    6.8449116086
  - # 10
    frequency:    6.8477116847
  - # 11
    frequency:    7.7668626318
  - # 12
    frequency:    7.7831287922
  - # 13
    frequency:    9.2094136682
  - # 14
    frequency:   11.6724299862
  - # 15
    frequency:   13.1513047349
  - # 16
    frequency:   13.5657821610
  - # 17
    frequency:   13.6883122316
  - # 18
    frequency:   17.5548695544
  - # 19
    frequency:   17.5687016783
  - # 20
    frequency:   38.6208047568
  - # 21
    frequency:   69.1999601558

- q-position: [    0.0454545,    0.0000000,    0.0000000 ]
  distance:    0.0157517
  band:
  - # 1
    frequency:   -0.6530785065
  - # 2
    frequency:   -0.5637071835
  - # 3
    frequency:    0.1422319137
  - # 4
    frequency:    1.4968096340
  - # 5
    frequency:    1.5092287279
  - # 6
    frequency:    4.1818910116
  - # 7
    frequency:    4.2866748995
  - # 8
    frequency:    5.6103009038
  - # 9
    frequency:    6.8417517494
  - # 10
    frequency:    6.8456755278
  - # 11
    frequency:    7.7662025961
  - # 12
    frequency:    7.7860504792
  - # 13
    frequency:    9.2027953275
  - # 14
    frequency:   11.6439592338
  - # 15
    frequency:   13.1547390591
  - # 16
    frequency:   13.5340667487
  - # 17
    frequency:   13.6873888039
  - # 18
    frequency:   17.5557438085
  - # 19
    frequency:   17.5732027893
  - # 20
    frequency:   38.6209253548
  - # 21
    frequency:   69.1791243793

- q-position: [    0.0505051,    0.0000000,    0.0000000 ]
  distance:    0.0175018
  band:
  - # 1
    frequency:   -0.6808374859
  - # 2
    frequency:   -0.5923526997
  - # 3
    frequency:    0.1746370695
  - # 4
    frequency:    1.5658507399
  - # 5
    frequency:    1.5765191881
  - # 6
    frequency:    4.1808324868
  - # 7
    frequency:    4.3084902012
  - # 8
    frequency:    5.6027654170
  - # 9
    frequency:    6.8382578675
  - # 10
    frequency:    6.8435639537
  - # 11
    frequency:    7.7656207079
  - # 12
    frequency:    7.7891642614
  - # 13
    frequency:    9.1955657058
  - # 14
    frequency:   11.6122199756
  - # 15
    frequency:   13.1578713245
  - # 16
    frequency:   13.4995783847
  - # 17
    frequency:   13.6862463083
  - # 18
    frequency:   17.5567083047
  - # 19
    frequency:   17.5781972435
  - # 20
    frequency:   38.6210594087
  - # 21
    frequency:   69.1559858853

- q-position: [    0.0555556,    0.0000000,    0.0000000 ]
  distance:    0.0192520
  band:
  - # 1
    frequency:   -0.7016169172
  - # 2
    frequency:   -0.6163796237
  - # 3
    frequency:    0.2100354983
  - # 4
    frequency:    1.6355804317
  - # 5
    frequency:    1.6442970667
  - # 6
    frequency:    4.1798272371
  - # 7
    frequency:    4.3320273878
  - # 8
    frequency:    5.5946521111
  - # 9
    frequency:    6.8344455435
  - # 10
    frequency:    6.8413987100
  - # 11
    frequency:    7.7651585758
  - # 12
    frequency:    7.7924452488
  - # 13
    frequency:    9.1877784148
  - # 14
    frequency:   11.5772420528
  - # 15
    frequency:   13.1602340995
  - # 16
    frequency:   13.4628701404
  - # 17
    frequency:   13.6848498696
  - # 18
    frequency:   17.5577592401
  - # 19
    frequency:   17.5836733179
  - # 20
    frequency:   38.6212066210
  - # 21
    frequency:   69.1305931904

- q-position: [    0.0606061,    0.0000000,    0.0000000 ]
  distance:    0.0210022
  band:
  - # 1
    frequency:   -0.7156609376
  - # 2
    frequency:   -0.6362631526
  - # 3
    frequency:    0.2483035407
  - # 4
    frequency:    1.7056489520
  - # 5
    frequency:    1.7124340132
  - # 6
    frequency:    4.1789323077
  - # 7
    frequency:    4.3571296566
  - # 8
    frequency:    5.5860294119
  - # 9
    frequency:    6.8303330555
  - # 10
    frequency:    6.8391917642
  - # 11
    frequency:    7.7648573954
  - # 12
    frequency:    7.7958756735
  - # 13
    frequency:    9.1794915266
  - # 14
    frequency:   11.5390602543
  - # 15
    frequency:   13.1610483536
  - # 16
    frequency:   13.4248162073
  - # 17
    frequency:   13.6831619260
  - # 18
    frequency:   17.5588926099
  - # 19
    frequency:   17.5896182309
  - # 20
    frequency:   38.6213666378
  - # 21
    frequency:   69.1029993970

- q-position: [    0.0656566,    0.0000000,    0.0000000 ]
  distance:    0.0227524
  band:
  - # 1
    frequency:   -0.7230818056
  - # 2
    frequency:   -0.6524012172
  - # 3
    frequency:    0.2893055199
  - # 4
    frequency:    1.7757675813
  - # 5
    frequency:    1.7808583816
  - # 6
    frequency:    4.1782132031
  - # 7
    frequency:    4.3836313275
  - # 8
    frequency:    5.5769726067
  - # 9
    frequency:    6.8259413680
  - # 10
    frequency:    6.8369446112
  - # 11
    frequency:    7.7647569335
  - # 12
    frequency:    7.7994457187
  - # 13
    frequency:    9.1707671996
  - # 14
    frequency:   11.4977150683
  - # 15
    frequency:   13.1589658386
  - # 16
    frequency:   13.3868694492
  - # 17
    frequency:   13.6811425004
  - # 18
    frequency:   17.5601042593
  - # 19
    frequency:   17.5960181915
  - # 20
    frequency:   38.6215390438
  - # 21
    frequency:   69.0732620407

- q-position: [    0.0707071,    0.0000000,    0.0000000 ]
  distance:    0.0245026
  band:
  - # 1
    frequency:   -0.7238578815
  - # 2
    frequency:   -0.6651254079
  - # 3
    frequency:    0.3328934120
  - # 4
    frequency:    1.8456902026
  - # 5
    frequency:    1.8495344038
  - # 6
    frequency:    4.1777442832
  - # 7
    frequency:    4.4113588486
  - # 8
    frequency:    5.5675632568
  - # 9
    frequency:    6.8212940014
  - # 10
    frequency:    6.8346484055
  - # 11
    frequency:    7.7648945873
  - # 12
    frequency:    7.8031537677
  - # 13
    frequency:    9.1616712655
  - # 14
    frequency:   11.4532535984
  - # 15
    frequency:   13.1516916227
  - # 16
    frequency:   13.3514387018
  - # 17
    frequency:   13.6787494892
  - # 18
    frequency:   17.5613899360
  - # 19
    frequency:   17.6028584515
  - # 20
    frequency:   38.6217233575
  - # 21
    frequency:   69.0414429250

- q-position: [    0.0757576,    0.0000000,    0.0000000 ]
  distance:    0.0262528
  band:
  - # 1
    frequency:   -0.7178197454
  - # 2
    frequency:   -0.6747104676
  - # 3
    frequency:    0.3789066351
  - # 4
    frequency:    1.9152016109
  - # 5
    frequency:    1.9184480888
  - # 6
    frequency:    4.1776089826
  - # 7
    frequency:    4.4401317409
  - # 8
    frequency:    5.5578884173
  - # 9
    frequency:    6.8164167703
  - # 10
    frequency:    6.8322849478
  - # 11
    frequency:    7.7653045500
  - # 12
    frequency:    7.8070060286
  - # 13
    frequency:    9.1522727807
  - # 14
    frequency:   11.4057306616
  - # 15
    frequency:   13.1358954418
  - # 16
    frequency:   13.3219771369
  - # 17
    frequency:   13.6759389632
  - # 18
    frequency:   17.5627453425
  - # 19
    frequency:   17.6101233618
  - # 20
    frequency:   38.6219190265
  - # 21
    frequency:   69.0076079436

- q-position: [    0.0808081,    0.0000000,    0.0000000 ]
  distance:    0.0280029
  band:
  - # 1
    frequency:   -0.7046195993
  - # 2
    frequency:   -0.6813821514
  - # 3
    frequency:    0.4271720984
  - # 4
    frequency:    1.9841102427
  - # 5
    frequency:    1.9875972285
  - # 6
    frequency:    4.1778997875
  - # 7
    frequency:    4.4697635040
  - # 8
    frequency:    5.5480396823
  - # 9
    frequency:    6.8113373900
  - # 10
    frequency:    6.8298285103
  - # 11
    frequency:    7.7660171026
  - # 12
    frequency:    7.8110155142
  - # 13
    frequency:    9.1426435443
  - # 14
    frequency:   11.3552100846
  - # 15
    frequency:   13.1086056983
  - # 16
    frequency:   13.3015878452
  - # 17
    frequency:   13.6726654800
  - # 18
    frequency:   17.5641661885
  - # 19
    frequency:   17.6177964309
  - # 20
    frequency:   38.6221254246
  - # 21
    frequency:   68.9718268908

- q-position: [    0.0858586,    0.0000000,    0.0000000 ]
  distance:    0.0297531
  band:
  - # 1
    frequency:   -0.6853235524
  - # 2
    frequency:   -0.6836744951
  - # 3
    frequency:    0.4775046567
  - # 4
    frequency:    2.0522438603
  - # 5
    frequency:    2.0569839250
  - # 6
    frequency:    4.1787179065
  - # 7
    frequency:    4.5000625200
  - # 8
    frequency:    5.5381120800
  - # 9
    frequency:    6.8060849589
  - # 10
    frequency:    6.8272484452
  - # 11
    frequency:    7.7670580497
  - # 12
    frequency:    7.8152003852
  - # 13
    frequency:    9.1328575865
  - # 14
    frequency:   11.3017662099
  - # 15
    frequency:   13.0696773508
  - # 16
    frequency:   13.2905553860
  - # 17
    frequency:   13.6688824049
  - # 18
    frequency:   17.5656482417
  - # 19
    frequency:   17.6258603859
  - # 20
    frequency:   38.6223418485
  - # 21
    frequency:   68.9341732608

- q-position: [    0.0909091,    0.0000000,    0.0000000 ]
  distance:    0.0315033
  band:
  - # 1
    frequency:   -0.6866800745
  - # 2
    frequency:   -0.6540635830
  - # 3
    frequency:    0.5297081085
  - # 4
    frequency:    2.1194472635
  - # 5
    frequency:    2.1266086762
  - # 6
    frequency:    4.1801725669
  - # 7
    frequency:    4.5308330071
  - # 8
    frequency:    5.5282028420
  - # 9
    frequency:    6.8006893316
  - # 10
    frequency:    6.8245124723
  - # 11
    frequency:    7.7684483060
  - # 12
    frequency:    7.8195816954
  - # 13
    frequency:    9.1229906302
  - # 14
    frequency:   11.2454856160
  - # 15
    frequency:   13.0215884212
  - # 16
    frequency:   13.2865485697
  - # 17
    frequency:   13.6645422382
  - # 18
    frequency:   17.5671873750
  - # 19
    frequency:   17.6342972369
  - # 20
    frequency:   38.6225675169
  - # 21
    frequency:   68.8947240366

- q-position: [    0.0959596,    0.0000000,    0.0000000 ]
  distance:    0.0332535
  band:
  - # 1
    frequency:   -0.6855632295
  - # 2
    frequency:   -0.6143344874
  - # 3
    frequency:    0.5835768293
  - # 4
    frequency:    2.1855814389
  - # 5
    frequency:    2.1964654268
  - # 6
    frequency:    4.1823798747
  - # 7
    frequency:    4.5618760949
  - # 8
    frequency:    5.5184100671
  - # 9
    frequency:    6.7951804084
  - # 10
    frequency:    6.8215904966
  - # 11
    frequency:    7.7702036359
  - # 12
    frequency:    7.8241806141
  - # 13
    frequency:    9.1131195288
  - # 14
    frequency:   11.1864690506
  - # 15
    frequency:   12.9670937124
  - # 16
    frequency:   13.2869658861
  - # 17
    frequency:   13.6595969466
  - # 18
    frequency:   17.5687796119
  - # 19
    frequency:   17.6430883426
  - # 20
    frequency:   38.6228015692
  - # 21
    frequency:   68.8535594684

- q-position: [    0.1010101,    0.0000000,    0.0000000 ]
  distance:    0.0350037
  band:
  - # 1
    frequency:   -0.6820533921
  - # 2
    frequency:   -0.5621044229
  - # 3
    frequency:    0.6388980702
  - # 4
    frequency:    2.2505237614
  - # 5
    frequency:    2.2665372297
  - # 6
    frequency:    4.1854611880
  - # 7
    frequency:    4.5929911057
  - # 8
    frequency:    5.5088312985
  - # 9
    frequency:    6.7895873711
  - # 10
    frequency:    6.8184587580
  - # 11
    frequency:    7.7723345378
  - # 12
    frequency:    7.8290152414
  - # 13
    frequency:    9.1033216802
  - # 14
    frequency:   11.1248335608
  - # 15
    frequency:   12.9081454915
  - # 16
    frequency:   13.2900138346
  - # 17
    frequency:   13.6539982948
  - # 18
    frequency:   17.5704211668
  - # 19
    frequency:   17.6522144786
  - # 20
    frequency:   38.6230430669
  - # 21
    frequency:   68.8107628428

- q-position: [    0.1060606,    0.0000000,    0.0000000 ]
  distance:    0.0367539
  band:
  - # 1
    frequency:   -0.6762015904
  - # 2
    frequency:   -0.4931091245
  - # 3
    frequency:    0.6954548651
  - # 4
    frequency:    2.3141689790
  - # 5
    frequency:    2.3367923017
  - # 6
    frequency:    4.1895409719
  - # 7
    frequency:    4.6239771393
  - # 8
    frequency:    5.4995620246
  - # 9
    frequency:    6.7839379018
  - # 10
    frequency:    6.8151040707
  - # 11
    frequency:    7.7748462631
  - # 12
    frequency:    7.8340971690
  - # 13
    frequency:    9.0936744164
  - # 14
    frequency:   11.0607147966
  - # 15
    frequency:   12.8459854146
  - # 16
    frequency:   13.2946139010
  - # 17
    frequency:   13.6476981785
  - # 18
    frequency:   17.5721084800
  - # 19
    frequency:   17.6616559072
  - # 20
    frequency:   38.6232909951
  - # 21
    frequency:   68.7664202440

- q-position: [    0.1111111,    0.0000000,    0.0000000 ]
  distance:    0.0385040
  band:
  - # 1
    frequency:   -0.6680303442
  - # 2
    frequency:   -0.3983059426
  - # 3
    frequency:    0.7530294063
  - # 4
    frequency:    2.3764307741
  - # 5
    frequency:    2.4071803580
  - # 6
    frequency:    4.1947441366
  - # 7
    frequency:    4.6546350658
  - # 8
    frequency:    5.4906941193
  - # 9
    frequency:    6.7782574217
  - # 10
    frequency:    6.8115278716
  - # 11
    frequency:    7.7777389515
  - # 12
    frequency:    7.8394279771
  - # 13
    frequency:    9.0842543616
  - # 14
    frequency:   10.9942694473
  - # 15
    frequency:   12.7814260976
  - # 16
    frequency:   13.3001198123
  - # 17
    frequency:   13.6406489525
  - # 18
    frequency:   17.5738382483
  - # 19
    frequency:   17.6713924479
  - # 20
    frequency:   38.6235442659
  - # 21
    frequency:   68.7206203059

- q-position: [    0.1161616,    0.0000000,    0.0000000 ]
  distance:    0.0402542
  band:
  - # 1
    frequency:   -0.6575334791
  - # 2
    frequency:   -0.2490956765
  - # 3
    frequency:    0.8114066821
  - # 4
    frequency:    2.4372437174
  - # 5
    frequency:    2.4776291724
  - # 6
    frequency:    4.2011928954
  - # 7
    frequency:    4.6847700257
  - # 8
    frequency:    5.4823142421
  - # 9
    frequency:    6.7725683903
  - # 10
    frequency:    6.8077497695
  - # 11
    frequency:    7.7810078630
  - # 12
    frequency:    7.8449958810
  - # 13
    frequency:    9.0751367518
  - # 14
    frequency:   10.9256777552
  - # 15
    frequency:   12.7150413576
  - # 16
    frequency:   13.3061260827
  - # 17
    frequency:   13.6328037547
  - # 18
    frequency:   17.5756074485
  - # 19
    frequency:   17.6814035500
  - # 20
    frequency:   38.6238017229
  - # 21
    frequency:   68.6734539585

- q-position: [    0.1212121,    0.0000000,    0.0000000 ]
  distance:    0.0420044
  band:
  - # 1
    frequency:   -0.6446747394
  - # 2
    frequency:    0.2169466059
  - # 3
    frequency:    0.8703781319
  - # 4
    frequency:    2.4965654231
  - # 5
    frequency:    2.5480413523
  - # 6
    frequency:    4.2090032340
  - # 7
    frequency:    4.7141945103
  - # 8
    frequency:    5.4745022441
  - # 9
    frequency:    6.7668896991
  - # 10
    frequency:    6.8038102795
  - # 11
    frequency:    7.7846436851
  - # 12
    frequency:    7.8507727534
  - # 13
    frequency:    9.0663946988
  - # 14
    frequency:   10.8551460370
  - # 15
    frequency:   12.6472706865
  - # 16
    frequency:   13.3123623417
  - # 17
    frequency:   13.6241168229
  - # 18
    frequency:   17.5774133542
  - # 19
    frequency:   17.6916683652
  - # 20
    frequency:   38.6240621468
  - # 21
    frequency:   68.6250141663

- q-position: [    0.1262626,    0.0000000,    0.0000000 ]
  distance:    0.0437546
  band:
  - # 1
    frequency:   -0.6293848627
  - # 2
    frequency:    0.4112870775
  - # 3
    frequency:    0.9297450853
  - # 4
    frequency:    2.5543786934
  - # 5
    frequency:    2.6182913577
  - # 6
    frequency:    4.2182811324
  - # 7
    frequency:    4.7427320535
  - # 8
    frequency:    5.4673296625
  - # 9
    frequency:    6.7612361931
  - # 10
    frequency:    6.7997724418
  - # 11
    frequency:    7.7886328941
  - # 12
    frequency:    7.8567117484
  - # 13
    frequency:    9.0580983806
  - # 14
    frequency:   10.7829091224
  - # 15
    frequency:   12.5784745357
  - # 16
    frequency:   13.3186369180
  - # 17
    frequency:   13.6145438023
  - # 18
    frequency:   17.5792535470
  - # 19
    frequency:   17.7021658203
  - # 20
    frequency:   38.6243242620
  - # 21
    frequency:   68.5753956630

- q-position: [    0.1313131,    0.0000000,    0.0000000 ]
  distance:    0.0455048
  band:
  - # 1
    frequency:   -0.6115565360
  - # 2
    frequency:    0.5520101535
  - # 3
    frequency:    0.9893218002
  - # 4
    frequency:    2.6106934137
  - # 5
    frequency:    2.6882228156
  - # 6
    frequency:    4.2291187391
  - # 7
    frequency:    4.7702214797
  - # 8
    frequency:    5.4608584439
  - # 9
    frequency:    6.7556183445
  - # 10
    frequency:    6.7957220617
  - # 11
    frequency:    7.7929581484
  - # 12
    frequency:    7.8627457315
  - # 13
    frequency:    9.0503141329
  - # 14
    frequency:   10.7092326046
  - # 15
    frequency:   12.5089639387
  - # 16
    frequency:   13.3248062103
  - # 17
    frequency:   13.6040420424
  - # 18
    frequency:   17.5811259185
  - # 19
    frequency:   17.7128746903
  - # 20
    frequency:   38.6245867452
  - # 21
    frequency:   68.5246946800

- q-position: [    0.1363636,    0.0000000,    0.0000000 ]
  distance:    0.0472550
  band:
  - # 1
    frequency:   -0.5910362408
  - # 2
    frequency:    0.6739809362
  - # 3
    frequency:    1.0489380103
  - # 4
    frequency:    2.6655479351
  - # 5
    frequency:    2.7576462194
  - # 6
    frequency:    4.2415907389
  - # 7
    frequency:    4.7965215463
  - # 8
    frequency:    5.4551401054
  - # 9
    frequency:    6.7500420991
  - # 10
    frequency:    6.7917663783
  - # 11
    frequency:    7.7975986967
  - # 12
    frequency:    7.8687866962
  - # 13
    frequency:    9.0431034118
  - # 14
    frequency:   10.6344147756
  - # 15
    frequency:   12.4390168482
  - # 16
    frequency:   13.3307575198
  - # 17
    frequency:   13.5925708815
  - # 18
    frequency:   17.5830286680
  - # 19
    frequency:   17.7237736703
  - # 20
    frequency:   38.6248482333
  - # 21
    frequency:   68.4730086723

- q-position: [    0.1414141,    0.0000000,    0.0000000 ]
  distance:    0.0490052
  band:
  - # 1
    frequency:   -0.5676112697
  - # 2
    frequency:    0.7863083874
  - # 3
    frequency:    1.1084410343
  - # 4
    frequency:    2.7190096790
  - # 5
    frequency:    2.8263371327
  - # 6
    frequency:    4.2557511831
  - # 7
    frequency:    4.8215156769
  - # 8
    frequency:    5.4502156084
  - # 9
    frequency:    6.7445089047
  - # 10
    frequency:    6.7880310610
  - # 11
    frequency:    7.8025307843
  - # 12
    frequency:    7.8747263158
  - # 13
    frequency:    9.0365215981
  - # 14
    frequency:   10.5587880950
  - # 15
    frequency:   12.3688874925
  - # 16
    frequency:   13.3363990886
  - # 17
    frequency:   13.5800919163
  - # 18
    frequency:   17.5849602906
  - # 19
    frequency:   17.7348414470
  - # 20
    frequency:   38.6251073339
  - # 21
    frequency:   68.4204360406

- q-position: [    0.1464646,    0.0000000,    0.0000000 ]
  distance:    0.0507553
  band:
  - # 1
    frequency:   -0.5409888210
  - # 2
    frequency:    0.8929277701
  - # 3
    frequency:    1.1676977324
  - # 4
    frequency:    2.7711747149
  - # 5
    frequency:    2.8940350663
  - # 6
    frequency:    4.2716310492
  - # 7
    frequency:    4.8451163389
  - # 8
    frequency:    5.4461162531
  - # 9
    frequency:    6.7390159269
  - # 10
    frequency:    6.7846555555
  - # 11
    frequency:    7.8077280446
  - # 12
    frequency:    7.8804377490
  - # 13
    frequency:    9.0306166119
  - # 14
    frequency:   10.4827200178
  - # 15
    frequency:   12.2988120067
  - # 16
    frequency:   13.3416541244
  - # 17
    frequency:   13.5665692572
  - # 18
    frequency:   17.5869195612
  - # 19
    frequency:   17.7460567685
  - # 20
    frequency:   38.6253626351
  - # 21
    frequency:   68.3670758521

- q-position: [    0.1515152,    0.0000000,    0.0000000 ]
  distance:    0.0525055
  band:
  - # 1
    frequency:   -0.5107613141
  - # 2
    frequency:    0.9959200408
  - # 3
    frequency:    1.2265970703
  - # 4
    frequency:    2.8221661205
  - # 5
    frequency:    2.9604432575
  - # 6
    frequency:    4.2892367605
  - # 7
    frequency:    4.8672685024
  - # 8
    frequency:    5.4428658711
  - # 9
    frequency:    6.7335564467
  - # 10
    frequency:    6.7817869413
  - # 11
    frequency:    7.8131618654
  - # 12
    frequency:    7.8857787979
  - # 13
    frequency:    9.0254273173
  - # 14
    frequency:   10.4066129701
  - # 15
    frequency:   12.2290120691
  - # 16
    frequency:   13.3464571051
  - # 17
    frequency:   13.5519697661
  - # 18
    frequency:   17.5889055105
  - # 19
    frequency:   17.7573985122
  - # 20
    frequency:   38.6256127167
  - # 21