nqpoint: 300    
npath: 3      
segment_nqpoint:
- 100
- 100
- 100
labels:
- [ 'G', 'M' ]
- [ 'M', 'K' ]
- [ 'K', 'G' ]
reciprocal_lattice:
- [   0.28787739,   0.16620609,   0.00000000 ] # a*
- [   0.00000000,   0.33241218,   0.00000000 ] # b*
- [   0.00000000,   0.00000000,   0.03488403 ] # c*
natom: 9      
lattice:
- [     3.473701054822196,     0.000000000000000,     0.000000000000000 ] # a
- [    -1.736850527411098,     3.008313358629920,     0.000000000000000 ] # b
- [     0.000000000000000,     0.000000000000000,    28.666413262506229 ] # c
points:
- symbol: C # 1
  coordinates: [  0.000000000000000,  0.000000000000000,  0.486425964440544 ]
  mass: 12.010700
- symbol: C # 2
  coordinates: [  0.333332985432215,  0.666666983183674,  0.644508384562284 ]
  mass: 12.010700
- symbol: C # 3
  coordinates: [  0.666666984744047,  0.333332985985145,  0.355437947504336 ]
  mass: 12.010700
- symbol: N # 4
  coordinates: [  0.333332985432215,  0.666666983183674,  0.686043736354997 ]
  mass: 14.006700
- symbol: N # 5
  coordinates: [  0.666666984744047,  0.333332985985145,  0.313956263645003 ]
  mass: 14.006700
- symbol: O # 6
  coordinates: [  0.666666984744047,  0.333332985985145,  0.402095160123830 ]
  mass: 15.999400
- symbol: S # 7
  coordinates: [  0.333332985432215,  0.666666983183674,  0.586196434469703 ]
  mass: 32.065000
- symbol: Sc # 8
  coordinates: [  0.333332985432215,  0.666666983183674,  0.443319498725658 ]
  mass: 44.955912
- symbol: Sc # 9
  coordinates: [  0.666666984744047,  0.333332985985145,  0.528895944346095 ]
  mass: 44.955912

phonon:
- q-position: [    0.0000000,    0.0000000,    0.0000000 ]
  distance:    0.0000000
  band:
  - # 1
    frequency:   -1.1329037862
  - # 2
    frequency:   -1.1329037862
  - # 3
    frequency:   -0.5145016802
  - # 4
    frequency:   -0.5145016802
  - # 5
    frequency:   -0.0000057783
  - # 6
    frequency:   -0.0000007042
  - # 7
    frequency:    0.0000057061
  - # 8
    frequency:    3.6388037293
  - # 9
    frequency:    3.6388037293
  - # 10
    frequency:    4.9205144674
  - # 11
    frequency:    5.6704130901
  - # 12
    frequency:    5.6704130901
  - # 13
    frequency:    6.5294497836
  - # 14
    frequency:    6.5294497836
  - # 15
    frequency:    8.2747130674
  - # 16
    frequency:   10.3528706429
  - # 17
    frequency:   10.3528706429
  - # 18
    frequency:   11.3861444425
  - # 19
    frequency:   11.3861444425
  - # 20
    frequency:   11.5090272561
  - # 21
    frequency:   13.7902354317
  - # 22
    frequency:   13.7902354317
  - # 23
    frequency:   17.6563782240
  - # 24
    frequency:   21.2065847729
  - # 25
    frequency:   31.7642446065
  - # 26
    frequency:   65.0997974619
  - # 27
    frequency:   67.5898613772

- q-position: [    0.0050505,    0.0000000,    0.0000000 ]
  distance:    0.0016788
  band:
  - # 1
    frequency:   -1.1325521771
  - # 2
    frequency:   -1.1304427822
  - # 3
    frequency:   -0.5142300127
  - # 4
    frequency:   -0.5094275425
  - # 5
    frequency:    0.0022672468
  - # 6
    frequency:    0.0683651505
  - # 7
    frequency:    0.1285657981
  - # 8
    frequency:    3.6390785527
  - # 9
    frequency:    3.6405613137
  - # 10
    frequency:    4.9197284689
  - # 11
    frequency:    5.6702663141
  - # 12
    frequency:    5.6735471368
  - # 13
    frequency:    6.5295120453
  - # 14
    frequency:    6.5296548986
  - # 15
    frequency:    8.2748013183
  - # 16
    frequency:   10.3528892820
  - # 17
    frequency:   10.3534370737
  - # 18
    frequency:   11.3859598462
  - # 19
    frequency:   11.3869446130
  - # 20
    frequency:   11.5122347890
  - # 21
    frequency:   13.7902791322
  - # 22
    frequency:   13.7903993020
  - # 23
    frequency:   17.6550296864
  - # 24
    frequency:   21.2065136183
  - # 25
    frequency:   31.7638532343
  - # 26
    frequency:   65.0997086460
  - # 27
    frequency:   67.5896517696

- q-position: [    0.0101010,    0.0000000,    0.0000000 ]
  distance:    0.0033577
  band:
  - # 1
    frequency:   -1.1315099030
  - # 2
    frequency:   -1.1231476866
  - # 3
    frequency:   -0.5133369353
  - # 4
    frequency:   -0.4944333201
  - # 5
    frequency:    0.0090675547
  - # 6
    frequency:    0.1365043049
  - # 7
    frequency:    0.2585503304
  - # 8
    frequency:    3.6399028792
  - # 9
    frequency:    3.6458173472
  - # 10
    frequency:    4.9174061295
  - # 11
    frequency:    5.6698267097
  - # 12
    frequency:    5.6828569728
  - # 13
    frequency:    6.5296980411
  - # 14
    frequency:    6.5302790345
  - # 15
    frequency:    8.2750659784
  - # 16
    frequency:   10.3529448033
  - # 17
    frequency:   10.3551179153
  - # 18
    frequency:   11.3854066122
  - # 19
    frequency:   11.3887297357
  - # 20
    frequency:   11.5224770961
  - # 21
    frequency:   13.7904102481
  - # 22
    frequency:   13.7908907761
  - # 23
    frequency:   17.6509866795
  - # 24
    frequency:   21.2063002809
  - # 25
    frequency:   31.7626800708
  - # 26
    frequency:   65.0994423342
  - # 27
    frequency:   67.5890233693

- q-position: [    0.0151515,    0.0000000,    0.0000000 ]
  distance:    0.0050365
  band:
  - # 1
    frequency:   -1.1298136101
  - # 2
    frequency:   -1.1112555227
  - # 3
    frequency:   -0.5116190171
  - # 4
    frequency:   -0.4697639094
  - # 5
    frequency:    0.0203985534
  - # 6
    frequency:    0.2042649014
  - # 7
    frequency:    0.3906365934
  - # 8
    frequency:    3.6412762759
  - # 9
    frequency:    3.6545222096
  - # 10
    frequency:    4.9136481049
  - # 11
    frequency:    5.6690964376
  - # 12
    frequency:    5.6980740154
  - # 13
    frequency:    6.5300054087
  - # 14
    frequency:    6.5313488413
  - # 15
    frequency:    8.2755067949
  - # 16
    frequency:   10.3530360196
  - # 17
    frequency:   10.3578598475
  - # 18
    frequency:   11.3844864063
  - # 19
    frequency:   11.3900224536
  - # 20
    frequency:   11.5412419328
  - # 21
    frequency:   13.7906288211
  - # 22
    frequency:   13.7917094545
  - # 23
    frequency:   17.6442570221
  - # 24
    frequency:   21.2059451393
  - # 25
    frequency:   31.7607279718
  - # 26
    frequency:   65.0989989335
  - # 27
    frequency:   67.5879774427

- q-position: [    0.0202020,    0.0000000,    0.0000000 ]
  distance:    0.0067154
  band:
  - # 1
    frequency:   -1.1275211038
  - # 2
    frequency:   -1.0950825871
  - # 3
    frequency:   -0.5088159983
  - # 4
    frequency:   -0.4348372033
  - # 5
    frequency:    0.0362828637
  - # 6
    frequency:    0.2715975008
  - # 7
    frequency:    0.5247329061
  - # 8
    frequency:    3.6431980161
  - # 9
    frequency:    3.6665949528
  - # 10
    frequency:    4.9086033440
  - # 11
    frequency:    5.6680790658
  - # 12
    frequency:    5.7187759751
  - # 13
    frequency:    6.5304302275
  - # 14
    frequency:    6.5329096674
  - # 15
    frequency:    8.2761234291
  - # 16
    frequency:   10.3531609534
  - # 17
    frequency:   10.3615803729
  - # 18
    frequency:   11.3832020080
  - # 19
    frequency:   11.3893703564
  - # 20
    frequency:   11.5699909560
  - # 21
    frequency:   13.7909349198
  - # 22
    frequency:   13.7928547074
  - # 23
    frequency:   17.6348537481
  - # 24
    frequency:   21.2054488230
  - # 25
    frequency:   31.7580016845
  - # 26
    frequency:   65.0983791212
  - # 27
    frequency:   67.5865160961

- q-position: [    0.0252525,    0.0000000,    0.0000000 ]
  distance:    0.0083942
  band:
  - # 1
    frequency:   -1.1247068081
  - # 2
    frequency:   -1.0749377550
  - # 3
    frequency:   -0.5046728092
  - # 4
    frequency:   -0.3875037150
  - # 5
    frequency:    0.0568389429
  - # 6
    frequency:    0.3385375249
  - # 7
    frequency:    0.6603750524
  - # 8
    frequency:    3.6456670710
  - # 9
    frequency:    3.6819257896
  - # 10
    frequency:    4.9024474357
  - # 11
    frequency:    5.6667795211
  - # 12
    frequency:    5.7444176996
  - # 13
    frequency:    6.5309670433
  - # 14
    frequency:    6.5350269858
  - # 15
    frequency:    8.2769155745
  - # 16
    frequency:   10.3533168379
  - # 17
    frequency:   10.3661760780
  - # 18
    frequency:   11.3815573145
  - # 19
    frequency:   11.3860192668
  - # 20
    frequency:   11.6094757865
  - # 21
    frequency:   13.7913286364
  - # 22
    frequency:   13.7943257322
  - # 23
    frequency:   17.6227951099
  - # 24
    frequency:   21.2048122110
  - # 25
    frequency:   31.7545078278
  - # 26
    frequency:   65.0975838435
  - # 27
    frequency:   67.5846422686

- q-position: [    0.0303030,    0.0000000,    0.0000000 ]
  distance:    0.0100731
  band:
  - # 1
    frequency:   -1.1214561062
  - # 2
    frequency:   -1.0510481457
  - # 3
    frequency:   -0.4989711238
  - # 4
    frequency:   -0.3227712728
  - # 5
    frequency:    0.0825378434
  - # 6
    frequency:    0.4051649957
  - # 7
    frequency:    0.7970378415
  - # 8
    frequency:    3.6486820993
  - # 9
    frequency:    3.7003793198
  - # 10
    frequency:    4.8953619063
  - # 11
    frequency:    5.6652040211
  - # 12
    frequency:    5.7743635928
  - # 13
    frequency:    6.5316089021
  - # 14
    frequency:    6.5377884326
  - # 15
    frequency:    8.2778831134
  - # 16
    frequency:   10.3535001197
  - # 17
    frequency:   10.3715319721
  - # 18
    frequency:   11.3795573461
  - # 19
    frequency:   11.3798776724
  - # 20
    frequency:   11.6597612313
  - # 21
    frequency:   13.7918100844
  - # 22
    frequency:   13.7961216396
  - # 23
    frequency:   17.6081045866
  - # 24
    frequency:   21.2040364288
  - # 25
    frequency:   31.7502548664
  - # 26
    frequency:   65.0966143128
  - # 27
    frequency:   67.5823597231

- q-position: [    0.0353535,    0.0000000,    0.0000000 ]
  distance:    0.0117519
  band:
  - # 1
    frequency:   -1.1178591762
  - # 2
    frequency:   -1.0235149274
  - # 3
    frequency:   -0.4915329608
  - # 4
    frequency:   -0.2277747860
  - # 5
    frequency:    0.1156029921
  - # 6
    frequency:    0.4715672541
  - # 7
    frequency:    0.9342457421
  - # 8
    frequency:    3.6522414342
  - # 9
    frequency:    3.7217982755
  - # 10
    frequency:    4.8875185000
  - # 11
    frequency:    5.6633599915
  - # 12
    frequency:    5.8079166161
  - # 13
    frequency:    6.5323473941
  - # 14
    frequency:    6.5413064516
  - # 15
    frequency:    8.2790263023
  - # 16
    frequency:   10.3537064621
  - # 17
    frequency:   10.3775304033
  - # 18
    frequency:   11.3711526550
  - # 19
    frequency:   11.3772082525
  - # 20
    frequency:   11.7205771234
  - # 21
    frequency:   13.7923793937
  - # 22
    frequency:   13.7982415768
  - # 23
    frequency:   17.5908108956
  - # 24
    frequency:   21.2031228449
  - # 25
    frequency:   31.7452530768
  - # 26
    frequency:   65.0954720054
  - # 27
    frequency:   67.5796730343

- q-position: [    0.0404040,    0.0000000,    0.0000000 ]
  distance:    0.0134308
  band:
  - # 1
    frequency:   -1.1140049726
  - # 2
    frequency:   -0.9922994592
  - # 3
    frequency:   -0.4822088059
  - # 4
    frequency:   -0.0152946757
  - # 5
    frequency:    0.1746578044
  - # 6
    frequency:    0.5378150792
  - # 7
    frequency:    1.0715905297
  - # 8
    frequency:    3.6563430680
  - # 9
    frequency:    3.7460075571
  - # 10
    frequency:    4.8790698509
  - # 11
    frequency:    5.6612559667
  - # 12
    frequency:    5.8443414869
  - # 13
    frequency:    6.5331727052
  - # 14
    frequency:    6.5457214610
  - # 15
    frequency:    8.2803459785
  - # 16
    frequency:   10.3539307493
  - # 17
    frequency:   10.3840583661
  - # 18
    frequency:   11.3601001785
  - # 19
    frequency:   11.3745173173
  - # 20
    frequency:   11.7915574387
  - # 21
    frequency:   13.7930367059
  - # 22
    frequency:   13.8006848996
  - # 23
    frequency:   17.5709480120
  - # 24
    frequency:   21.2020730674
  - # 25
    frequency:   31.7395145066
  - # 26
    frequency:   65.0941586575
  - # 27
    frequency:   67.5765875740

- q-position: [    0.0454545,    0.0000000,    0.0000000 ]
  distance:    0.0151096
  band:
  - # 1
    frequency:   -1.1099759425
  - # 2
    frequency:   -0.9572275129
  - # 3
    frequency:   -0.4708601891
  - # 4
    frequency:    0.1541625488
  - # 5
    frequency:    0.2930979429
  - # 6
    frequency:    0.6039519289
  - # 7
    frequency:    1.2087270348
  - # 8
    frequency:    3.6609846358
  - # 9
    frequency:    3.7728183424
  - # 10
    frequency:    4.8701459249
  - # 11
    frequency:    5.6589014784
  - # 12
    frequency:    5.8828819089
  - # 13
    frequency:    6.5340736776
  - # 14
    frequency:    6.5512052740
  - # 15
    frequency:    8.2818437788
  - # 16
    frequency:   10.3541670928
  - # 17
    frequency:   10.3910125294
  - # 18
    frequency:   11.3469382972
  - # 19
    frequency:   11.3714929633
  - # 20
    frequency:   11.8723191370
  - # 21
    frequency:   13.7937821682
  - # 22
    frequency:   13.8034514138
  - # 23
    frequency:   17.5485551984
  - # 24
    frequency:   21.2008889382
  - # 25
    frequency:   31.7330529274
  - # 26
    frequency:   65.0926762615
  - # 27
    frequency:   67.5731094939

- q-position: [    0.0505051,    0.0000000,    0.0000000 ]
  distance:    0.0167885
  band:
  - # 1
    frequency:   -1.1058439088
  - # 2
    frequency:   -0.9179962846
  - # 3
    frequency:   -0.4573412256
  - # 4
    frequency:    0.2012794242
  - # 5
    frequency:    0.3998312568
  - # 6
    frequency:    0.6699922484
  - # 7
    frequency:    1.3453653913
  - # 8
    frequency:    3.6661633986
  - # 9
    frequency:    3.8020320801
  - # 10
    frequency:    4.8608546323
  - # 11
    frequency:    5.6563069331
  - # 12
    frequency:    5.9227730671
  - # 13
    frequency:    6.5350378785
  - # 14
    frequency:    6.5579641772
  - # 15
    frequency:    8.2835223628
  - # 16
    frequency:   10.3544088389
  - # 17
    frequency:   10.3983018433
  - # 18
    frequency:   11.3318368783
  - # 19
    frequency:   11.3681447536
  - # 20
    frequency:   11.9624675731
  - # 21
    frequency:   13.7946159267
  - # 22
    frequency:   13.8065417177
  - # 23
    frequency:   17.5236770488
  - # 24
    frequency:   21.1995725282
  - # 25
    frequency:   31.7258837807
  - # 26
    frequency:   65.0910270611
  - # 27
    frequency:   67.5692457068

- q-position: [    0.0555556,    0.0000000,    0.0000000 ]
  distance:    0.0184673
  band:
  - # 1
    frequency:   -1.1016673424
  - # 2
    frequency:   -0.8741714879
  - # 3
    frequency:   -0.4414795662
  - # 4
    frequency:    0.2464549279
  - # 5
    frequency:    0.4922994097
  - # 6
    frequency:    0.7359248245
  - # 7
    frequency:    1.4812619439
  - # 8
    frequency:    3.6718762259
  - # 9
    frequency:    3.8334442211
  - # 10
    frequency:    4.8512848990
  - # 11
    frequency:    5.6534834808
  - # 12
    frequency:    5.9632514481
  - # 13
    frequency:    6.5360516756
  - # 14
    frequency:    6.5662405273
  - # 15
    frequency:    8.2853856353
  - # 16
    frequency:   10.3546485792
  - # 17
    frequency:   10.4058479894
  - # 18
    frequency:   11.3149286263
  - # 19
    frequency:   11.3644833906
  - # 20
    frequency:   12.0615836319
  - # 21
    frequency:   13.7955381183
  - # 22
    frequency:   13.8099576972
  - # 23
    frequency:   17.4963635526
  - # 24
    frequency:   21.1981261311
  - # 25
    frequency:   31.7180241184
  - # 26
    frequency:   65.0892135463
  - # 27
    frequency:   67.5650038644

- q-position: [    0.0606061,    0.0000000,    0.0000000 ]
  distance:    0.0201462
  band:
  - # 1
    frequency:   -1.0974900245
  - # 2
    frequency:   -0.8251638445
  - # 3
    frequency:   -0.4230546028
  - # 4
    frequency:    0.2937143375
  - # 5
    frequency:    0.5764506794
  - # 6
    frequency:    0.8017183112
  - # 7
    frequency:    1.6162095020
  - # 8
    frequency:    3.6781195785
  - # 9
    frequency:    3.8668475842
  - # 10
    frequency:    4.8415108264
  - # 11
    frequency:    5.6504428780
  - # 12
    frequency:    6.0035646887
  - # 13
    frequency:    6.5371003219
  - # 14
    frequency:    6.5763109539
  - # 15
    frequency:    8.2874389629
  - # 16
    frequency:   10.3548781633
  - # 17
    frequency:   10.4135841678
  - # 18
    frequency:   11.2963219026
  - # 19
    frequency:   11.3605207092
  - # 20
    frequency:   12.1692116917
  - # 21
    frequency:   13.7965488624
  - # 22
    frequency:   13.8137032658
  - # 23
    frequency:   17.4666701869
  - # 24
    frequency:   21.1965522559
  - # 25
    frequency:   31.7094925378
  - # 26
    frequency:   65.0872384472
  - # 27
    frequency:   67.5603923333

- q-position: [    0.0656566,    0.0000000,    0.0000000 ]
  distance:    0.0218250
  band:
  - # 1
    frequency:   -1.0933409249
  - # 2
    frequency:   -0.7701707294
  - # 3
    frequency:   -0.4017684233
  - # 4
    frequency:    0.3438027146
  - # 5
    frequency:    0.6552309736
  - # 6
    frequency:    0.8673271653
  - # 7
    frequency:    1.7500279677
  - # 8
    frequency:    3.6848894936
  - # 9
    frequency:    3.9020352971
  - # 10
    frequency:    4.8315960303
  - # 11
    frequency:    5.6471973464
  - # 12
    frequency:    6.0429847770
  - # 13
    frequency:    6.5381680456
  - # 14
    frequency:    6.5884784108
  - # 15
    frequency:    8.2896893835
  - # 16
    frequency:   10.3550887153
  - # 17
    frequency:   10.4214527584
  - # 18
    frequency:   11.2761108397
  - # 19
    frequency:   11.3562696648
  - # 20
    frequency:   12.2848522929
  - # 21
    frequency:   13.7976482516
  - # 22
    frequency:   13.8177855016
  - # 23
    frequency:   17.4346580451
  - # 24
    frequency:   21.1948536200
  - # 25
    frequency:   31.7003091111
  - # 26
    frequency:   65.0851047282
  - # 27
    frequency:   67.5554201692

- q-position: [    0.0707071,    0.0000000,    0.0000000 ]
  distance:    0.0235039
  band:
  - # 1
    frequency:   -1.0892350106
  - # 2
    frequency:   -0.7080533547
  - # 3
    frequency:   -0.3772010901
  - # 4
    frequency:    0.3969186104
  - # 5
    frequency:    0.7302260256
  - # 6
    frequency:    0.9326970476
  - # 7
    frequency:    1.8825561177
  - # 8
    frequency:    3.6921815710
  - # 9
    frequency:    3.9388032896
  - # 10
    frequency:    4.8215976623
  - # 11
    frequency:    5.6437594301
  - # 12
    frequency:    6.0808281752
  - # 13
    frequency:    6.5392381497
  - # 14
    frequency:    6.6030548951
  - # 15
    frequency:    8.2921458065
  - # 16
    frequency:   10.3552706535
  - # 17
    frequency:   10.4294023147
  - # 18
    frequency:   11.2543826836
  - # 19
    frequency:   11.3517443128
  - # 20
    frequency:   12.4079587922
  - # 21
    frequency:   13.7988363415
  - # 22
    frequency:   13.8222164672
  - # 23
    frequency:   17.4003940176
  - # 24
    frequency:   21.1930331409
  - # 25
    frequency:   31.6904953103
  - # 26
    frequency:   65.0828155805
  - # 27
    frequency:   67.5500970889

- q-position: [    0.0757576,    0.0000000,    0.0000000 ]
  distance:    0.0251827
  band:
  - # 1
    frequency:   -1.0851746706
  - # 2
    frequency:   -0.6370754281
  - # 3
    frequency:   -0.3487328310
  - # 4
    frequency:    0.4531033683
  - # 5
    frequency:    0.8023735855
  - # 6
    frequency:    0.9977692713
  - # 7
    frequency:    2.0136448402
  - # 8
    frequency:    3.6999909616
  - # 9
    frequency:    3.9769523457
  - # 10
    frequency:    4.8115699035
  - # 11
    frequency:    5.6401418537
  - # 12
    frequency:    6.1164853726
  - # 13
    frequency:    6.5402931177
  - # 14
    frequency:    6.6203326275
  - # 15
    frequency:    8.2948192058
  - # 16
    frequency:   10.3554137149
  - # 17
    frequency:   10.4373842068
  - # 18
    frequency:   11.2312231996
  - # 19
    frequency:   11.3469597801
  - # 20
    frequency:   12.5379361752
  - # 21
    frequency:   13.8001131397
  - # 22
    frequency:   13.8270162499
  - # 23
    frequency:   17.3639510399
  - # 24
    frequency:   21.1910939271
  - # 25
    frequency:   31.6800739285
  - # 26
    frequency:   65.0803744153
  - # 27
    frequency:   67.5444334400

- q-position: [    0.0808081,    0.0000000,    0.0000000 ]
  distance:    0.0268616
  band:
  - # 1
    frequency:   -1.0811514605
  - # 2
    frequency:   -0.5542913546
  - # 3
    frequency:   -0.3153916906
  - # 4
    frequency:    0.5123179420
  - # 5
    frequency:    0.8722679989
  - # 6
    frequency:    1.0624842000
  - # 7
    frequency:    2.1431517566
  - # 8
    frequency:    3.7083123600
  - # 9
    frequency:    4.0162897405
  - # 10
    frequency:    4.8015669112
  - # 11
    frequency:    5.6363573824
  - # 12
    frequency:    6.1494588784
  - # 13
    frequency:    6.5413147275
  - # 14
    frequency:    6.6405449697
  - # 15
    frequency:    8.2977228052
  - # 16
    frequency:   10.3555069848
  - # 17
    frequency:   10.4453490653
  - # 18
    frequency:   11.2067209536
  - # 19
    frequency:   11.3419322252
  - # 20
    frequency:   12.6741397426
  - # 21
    frequency:   13.8014785949
  - # 22
    frequency:   13.8322183070
  - # 23
    frequency:   17.3254084352
  - # 24
    frequency:   21.1890392692
  - # 25
    frequency:   31.6690689970
  - # 26
    frequency:   65.0777848556
  - # 27
    frequency:   67.5384401694

- q-position: [    0.0858586,    0.0000000,    0.0000000 ]
  distance:    0.0285404
  band:
  - # 1
    frequency:   -1.0771479348
  - # 2
    frequency:   -0.4538331770
  - # 3
    frequency:   -0.2755093071
  - # 4
    frequency:    0.5744402014
  - # 5
    frequency:    0.9403056167
  - # 6
    frequency:    1.1267836725
  - # 7
    frequency:    2.2709369797
  - # 8
    frequency:    3.7171399995
  - # 9
    frequency:    4.0566305004
  - # 10
    frequency:    4.7916452976
  - # 11
    frequency:    5.6324186874
  - # 12
    frequency:    6.1794027548
  - # 13
    frequency:    6.5422841732
  - # 14
    frequency:    6.6638242802
  - # 15
    frequency:    8.3008722589
  - # 16
    frequency:   10.3555389318
  - # 17
    frequency:   10.4532430307
  - # 18
    frequency:   11.1809711131
  - # 19
    frequency:   11.3366787877
  - # 20
    frequency:   12.8158704007
  - # 21
    frequency:   13.8029325844
  - # 22
    frequency:   13.8378794545
  - # 23
    frequency:   17.2848523827
  - # 24
    frequency:   21.1868726298
  - # 25
    frequency:   31.6575056995
  - # 26
    frequency:   65.0750507280
  - # 27
    frequency:   67.5321287903

- q-position: [    0.0909091,    0.0000000,    0.0000000 ]
  distance:    0.0302193
  band:
  - # 1
    frequency:   -1.0731394008
  - # 2
    frequency:   -0.3200820253
  - # 3
    frequency:   -0.2257599941
  - # 4
    frequency:    0.6392343813
  - # 5
    frequency:    1.0067610564
  - # 6
    frequency:    1.1906126106
  - # 7
    frequency:    2.3968597037
  - # 8
    frequency:    3.7264676522
  - # 9
    frequency:    4.0977983289
  - # 10
    frequency:    4.7818662743
  - # 11
    frequency:    5.6283382169
  - # 12
    frequency:    6.2061512383
  - # 13
    frequency:    6.5431821956
  - # 14
    frequency:    6.6901694807
  - # 15
    frequency:    8.3042858290
  - # 16
    frequency:   10.3554974493
  - # 17
    frequency:   10.4610036717
  - # 18
    frequency:   11.1540792903
  - # 19
    frequency:   11.3312175240
  - # 20
    frequency:   12.9623603650
  - # 21
    frequency:   13.8044749020
  - # 22
    frequency:   13.8440999702
  - # 23
    frequency:   17.2423765593
  - # 24
    frequency:   21.1845976326
  - # 25
    frequency:   31.6454102835
  - # 26
    frequency:   65.0721760541
  - # 27
    frequency:   67.5255113469

- q-position: [    0.0959596,    0.0000000,    0.0000000 ]
  distance:    0.0318981
  band:
  - # 1
    frequency:   -1.0690954961
  - # 2
    frequency:   -0.1571960725
  - # 3
    frequency:    0.0557328968
  - # 4
    frequency:    0.7063220317
  - # 5
    frequency:    1.0718302835
  - # 6
    frequency:    1.2539199889
  - # 7
    frequency:    2.5207753345
  - # 8
    frequency:    3.7362886322
  - # 9
    frequency:    4.1396262375
  - # 10
    frequency:    4.7722976182
  - # 11
    frequency:    5.6241280754
  - # 12
    frequency:    6.2297237853
  - # 13
    frequency:    6.5439892206
  - # 14
    frequency:    6.7194363307
  - # 15
    frequency:    8.3079845601
  - # 16
    frequency:   10.3553699037
  - # 17
    frequency:   10.4685553184
  - # 18
    frequency:   11.1261658940
  - # 19
    frequency:   11.3255673291
  - # 20
    frequency:   13.1127345271
  - # 21
    frequency:   13.8061052456
  - # 22
    frequency:   13.8510680110
  - # 23
    frequency:   17.1980830196
  - # 24
    frequency:   21.1822180520
  - # 25
    frequency:   31.6328099698
  - # 26
    frequency:   65.0691650414
  - # 27
    frequency:   67.5186003789

- q-position: [    0.1010101,    0.0000000,    0.0000000 ]
  distance:    0.0335770
  band:
  - # 1
    frequency:   -1.0649815425
  - # 2
    frequency:    0.0530494457
  - # 3
    frequency:    0.3329412457
  - # 4
    frequency:    0.7751836083
  - # 5
    frequency:    1.1356564367
  - # 6
    frequency:    1.3166593357
  - # 7
    frequency:    2.6425329012
  - # 8
    frequency:    3.7465958045
  - # 9
    frequency:    4.1819569130
  - # 10
    frequency:    4.7630156319
  - # 11
    frequency:    5.6197999115
  - # 12
    frequency:    6.2503016527
  - # 13
    frequency:    6.5446855067
  - # 14
    frequency:    6.7513556146
  - # 15
    frequency:    8.3119924520
  - # 16
    frequency:   10.3551431897
  - # 17
    frequency:   10.4758034311
  - # 18
    frequency:   11.0973714729
  - # 19
    frequency:   11.3197478440
  - # 20
    frequency:   13.2659050009
  - # 21
    frequency:   13.8078232037
  - # 22
    frequency:   13.8591703793
  - # 23
    frequency:   17.1520834070
  - # 24
    frequency:   21.1797378016
  - # 25
    frequency:   31.6197328601
  - # 26
    frequency:   65.0660220734
  - # 27
    frequency:   67.5114088837

- q-position: [    0.1060606,    0.0000000,    0.0000000 ]
  distance:    0.0352558
  band:
  - # 1
    frequency:   -1.0607596647
  - # 2
    frequency:    0.1776421387
  - # 3
    frequency:    0.4704055944
  - # 4
    frequency:    0.8452072161
  - # 5
    frequency:    1.1983460765
  - # 6
    frequency:    1.3787889048
  - # 7
    frequency:    2.7619725235
  - # 8
    frequency:    3.7573815977
  - # 9
    frequency:    4.2246428330
  - # 10
    frequency:    4.7541072827
  - # 11
    frequency:    5.6153648165
  - # 12
    frequency:    6.2681828331
  - # 13
    frequency:    6.5452513012
  - # 14
    frequency:    6.7855727091
  - # 15
    frequency:    8.3163366307
  - # 16
    frequency:   10.3548037944
  - # 17
    frequency:   10.4826275033
  - # 18
    frequency:   11.0678635953
  - # 19
    frequency:   11.3137793471
  - # 20
    frequency:   13.4202508756
  - # 21
    frequency:   13.8096282427
  - # 22
    frequency:   13.8693172239
  - # 23
    frequency:   17.1045006297
  - # 24
    frequency:   21.1771609216
  - # 25
    frequency:   31.6062078435
  - # 26
    frequency:   65.0627517003
  - # 27
    frequency:   67.5039502785

- q-position: [    0.1111111,    0.0000000,    0.0000000 ]
  distance:    0.0369347
  band:
  - # 1
    frequency:   -1.0563896900
  - # 2
    frequency:    0.2479270970
  - # 3
    frequency:    0.5789647334
  - # 4
    frequency:    0.9157710414
  - # 5
    frequency:    1.2599798315
  - # 6
    frequency:    1.4402716306
  - # 7
    frequency:    2.8789227310
  - # 8
    frequency:    3.7686380209
  - # 9
    frequency:    4.2675461128
  - # 10
    frequency:    4.7456727394
  - # 11
    frequency:    5.6108332342
  - # 12
    frequency:    6.2837297206
  - # 13
    frequency:    6.5456670049
  - # 14
    frequency:    6.8216943971
  - # 15
    frequency:    8.3210475134
  - # 16
    frequency:   10.3543378678
  - # 17
    frequency:   10.4888718838
  - # 18
    frequency:   11.0378458882
  - # 19
    frequency:   11.3076826297
  - # 20
    frequency:   13.5724386902
  - # 21
    frequency:   13.8115196941
  - # 22
    frequency:   13.8841247976
  - # 23
    frequency:   17.0554711983
  - # 24
    frequency:   21.1744915671
  - # 25
    frequency:   31.5922645027
  - # 26
    frequency:   65.0593586289
  - # 27
    frequency:   67.4962383611

- q-position: [    0.1161616,    0.0000000,    0.0000000 ]
  distance:    0.0386135
  band:
  - # 1
    frequency:   -1.0518298488
  - # 2
    frequency:    0.3041380867
  - # 3
    frequency:    0.6734720194
  - # 4
    frequency:    0.9863230338
  - # 5
    frequency:    1.3206196231
  - # 6
    frequency:    1.5010749479
  - # 7
    frequency:    2.9931974428
  - # 8
    frequency:    3.7803566862
  - # 9
    frequency:    4.3105380102
  - # 10
    frequency:    4.7378285757
  - # 11
    frequency:    5.6062148827
  - # 12
    frequency:    6.2973230874
  - # 13
    frequency:    6.5459133448
  - # 14
    frequency:    6.8593295381
  - # 15
    frequency:    8.3261589644
  - # 16
    frequency:   10.3537313030
  - # 17
    frequency:   10.4943338654
  - # 18
    frequency:   11.0075698869
  - # 19
    frequency:   11.3014788563
  - # 20
    frequency:   13.7120304524
  - # 21
    frequency:   13.8134967417
  - # 22
    frequency:   13.9133090527
  - # 23
    frequency:   17.0051485163
  - # 24
    frequency:   21.1717339948
  - # 25
    frequency:   31.5779330186
  - # 26
    frequency:   65.0558477117
  - # 27
    frequency:   67.4882872699

- q-position: [    0.1212121,    0.0000000,    0.0000000 ]
  distance:    0.0402924
  band:
  - # 1
    frequency:   -1.0470373091
  - # 2
    frequency:    0.3529971915
  - # 3
    frequency:    0.7598351625
  - # 4
    frequency:    1.0564277413
  - # 5
    frequency:    1.3803137250
  - # 6
    frequency:    1.5611705348
  - # 7
    frequency:    3.1045924257
  - # 8
    frequency:    3.7925288336
  - # 9
    frequency:    4.3534979118
  - # 10
    frequency:    4.7307120180