nqpoint: 300    
npath: 3      
segment_nqpoint:
- 100
- 100
- 100
labels:
- [ 'G', 'M' ]
- [ 'M', 'K' ]
- [ 'K', 'G' ]
reciprocal_lattice:
- [   0.28787739,   0.16620609,   0.00000000 ] # a*
- [   0.00000000,   0.33241218,   0.00000000 ] # b*
- [   0.00000000,   0.00000000,   0.03488403 ] # c*
natom: 9      
lattice:
- [     3.473701054822196,     0.000000000000000,     0.000000000000000 ] # a
- [    -1.736850527411098,     3.008313358629920,     0.000000000000000 ] # b
- [     0.000000000000000,     0.000000000000000,    28.666413262506229 ] # c
points:
- symbol: C # 1
  coordinates: [  0.000000000000000,  0.000000000000000,  0.486425964440544 ]
  mass: 12.010700
- symbol: C # 2
  coordinates: [  0.333332985432215,  0.666666983183674,  0.644508384562284 ]
  mass: 12.010700
- symbol: C # 3
  coordinates: [  0.666666984744047,  0.333332985985145,  0.355437947504336 ]
  mass: 12.010700
- symbol: N # 4
  coordinates: [  0.333332985432215,  0.666666983183674,  0.686043736354997 ]
  mass: 14.006700
- symbol: N # 5
  coordinates: [  0.666666984744047,  0.333332985985145,  0.313956263645003 ]
  mass: 14.006700
- symbol: O # 6
  coordinates: [  0.666666984744047,  0.333332985985145,  0.402095160123830 ]
  mass: 15.999400
- symbol: S # 7
  coordinates: [  0.333332985432215,  0.666666983183674,  0.586196434469703 ]
  mass: 32.065000
- symbol: Sc # 8
  coordinates: [  0.333332985432215,  0.666666983183674,  0.443319498725658 ]
  mass: 44.955912
- symbol: Sc # 9
  coordinates: [  0.666666984744047,  0.333332985985145,  0.528895944346095 ]
  mass: 44.955912

phonon:
- q-position: [    0.0000000,    0.0000000,    0.0000000 ]
  distance:    0.0000000
  band:
  - # 1
    frequency:   -1.5121924991
  - # 2
    frequency:   -1.5121924991
  - # 3
    frequency:   -0.4393918238
  - # 4
    frequency:   -0.4393918238
  - # 5
    frequency:   -0.0000007531
  - # 6
    frequency:    0.0000007718
  - # 7
    frequency:    0.0000010792
  - # 8
    frequency:    3.6350093101
  - # 9
    frequency:    3.6350093101
  - # 10
    frequency:    4.9354859161
  - # 11
    frequency:    5.3135454589
  - # 12
    frequency:    5.3135454589
  - # 13
    frequency:    6.4526705277
  - # 14
    frequency:    6.4526705277
  - # 15
    frequency:    8.3598752275
  - # 16
    frequency:   10.1399847718
  - # 17
    frequency:   10.1399847718
  - # 18
    frequency:   10.6622416264
  - # 19
    frequency:   10.6622416264
  - # 20
    frequency:   11.5578261094
  - # 21
    frequency:   13.7892541307
  - # 22
    frequency:   13.7892541307
  - # 23
    frequency:   17.7691558309
  - # 24
    frequency:   21.2115068451
  - # 25
    frequency:   31.8246132201
  - # 26
    frequency:   65.1007153064
  - # 27
    frequency:   67.6045054269

- q-position: [    0.0050505,    0.0000000,    0.0000000 ]
  distance:    0.0016788
  band:
  - # 1
    frequency:   -1.5116563713
  - # 2
    frequency:   -1.5102501837
  - # 3
    frequency:   -0.4394801720
  - # 4
    frequency:   -0.4350778411
  - # 5
    frequency:   -0.0520493220
  - # 6
    frequency:    0.0726435108
  - # 7
    frequency:    0.1185053545
  - # 8
    frequency:    3.6354875157
  - # 9
    frequency:    3.6367000473
  - # 10
    frequency:    4.9342301104
  - # 11
    frequency:    5.3139114701
  - # 12
    frequency:    5.3195565152
  - # 13
    frequency:    6.4528510243
  - # 14
    frequency:    6.4530136351
  - # 15
    frequency:    8.3597687594
  - # 16
    frequency:   10.1403316983
  - # 17
    frequency:   10.1438221021
  - # 18
    frequency:   10.6626042044
  - # 19
    frequency:   10.6652140676
  - # 20
    frequency:   11.5572972683
  - # 21
    frequency:   13.7892940101
  - # 22
    frequency:   13.7894226010
  - # 23
    frequency:   17.7675442599
  - # 24
    frequency:   21.2114252017
  - # 25
    frequency:   31.8240796835
  - # 26
    frequency:   65.1006239833
  - # 27
    frequency:   67.6042602485

- q-position: [    0.0101010,    0.0000000,    0.0000000 ]
  distance:    0.0033577
  band:
  - # 1
    frequency:   -1.5100510129
  - # 2
    frequency:   -1.5044327112
  - # 3
    frequency:   -0.4394809897
  - # 4
    frequency:   -0.4218594815
  - # 5
    frequency:   -0.0653573764
  - # 6
    frequency:    0.1445056919
  - # 7
    frequency:    0.2229522071
  - # 8
    frequency:    3.6369203399
  - # 9
    frequency:    3.6417558485
  - # 10
    frequency:    4.9306590673
  - # 11
    frequency:    5.3150057581
  - # 12
    frequency:    5.3372405470
  - # 13
    frequency:    6.4533907923
  - # 14
    frequency:    6.4540487143
  - # 15
    frequency:    8.3594510534
  - # 16
    frequency:   10.1413672441
  - # 17
    frequency:   10.1550855500
  - # 18
    frequency:   10.6636918105
  - # 19
    frequency:   10.6743317768
  - # 20
    frequency:   11.5557510951
  - # 21
    frequency:   13.7894136426
  - # 22
    frequency:   13.7899277697
  - # 23
    frequency:   17.7627138171
  - # 24
    frequency:   21.2111804703
  - # 25
    frequency:   31.8224810467
  - # 26
    frequency:   65.1003501681
  - # 27
    frequency:   67.6035253957

- q-position: [    0.0151515,    0.0000000,    0.0000000 ]
  distance:    0.0050365
  band:
  - # 1
    frequency:   -1.5073853987
  - # 2
    frequency:   -1.4947674027
  - # 3
    frequency:   -0.4387714299
  - # 4
    frequency:   -0.3988566606
  - # 5
    frequency:   -0.0789935491
  - # 6
    frequency:    0.2151382888
  - # 7
    frequency:    0.3299520563
  - # 8
    frequency:    3.6393024216
  - # 9
    frequency:    3.6501281106
  - # 10
    frequency:    4.9252597322
  - # 11
    frequency:    5.3168171377
  - # 12
    frequency:    5.3656614885
  - # 13
    frequency:    6.4542846805
  - # 14
    frequency:    6.4557934356
  - # 15
    frequency:    8.3589272236
  - # 16
    frequency:   10.1430758141
  - # 17
    frequency:   10.1730255307
  - # 18
    frequency:   10.6655039957
  - # 19
    frequency:   10.6901901357
  - # 20
    frequency:   11.5533159134
  - # 21
    frequency:   13.7896130114
  - # 22
    frequency:   13.7907689179
  - # 23
    frequency:   17.7546773054
  - # 24
    frequency:   21.2107732471
  - # 25
    frequency:   31.8198232150
  - # 26
    frequency:   65.0998943226
  - # 27
    frequency:   67.6023029120

- q-position: [    0.0202020,    0.0000000,    0.0000000 ]
  distance:    0.0067154
  band:
  - # 1
    frequency:   -1.5036741605
  - # 2
    frequency:   -1.4812961665
  - # 3
    frequency:   -0.4366831620
  - # 4
    frequency:   -0.3643406137
  - # 5
    frequency:   -0.0917374922
  - # 6
    frequency:    0.2844833382
  - # 7
    frequency:    0.4380972309
  - # 8
    frequency:    3.6426248860
  - # 9
    frequency:    3.6617378483
  - # 10
    frequency:    4.9185975676
  - # 11
    frequency:    5.3193271380
  - # 12
    frequency:    5.4035348802
  - # 13
    frequency:    6.4555241527
  - # 14
    frequency:    6.4582786033
  - # 15
    frequency:    8.3582058495
  - # 16
    frequency:   10.1454317670
  - # 17
    frequency:   10.1963955514
  - # 18
    frequency:   10.6680397993
  - # 19
    frequency:   10.7137439910
  - # 20
    frequency:   11.5502322793
  - # 21
    frequency:   13.7898920891
  - # 22
    frequency:   13.7919448732
  - # 23
    frequency:   17.7434560373
  - # 24
    frequency:   21.2102045222
  - # 25
    frequency:   31.8161159890
  - # 26
    frequency:   65.0992572149
  - # 27
    frequency:   67.6005961910

- q-position: [    0.0252525,    0.0000000,    0.0000000 ]
  distance:    0.0083942
  band:
  - # 1
    frequency:   -1.4989371114
  - # 2
    frequency:   -1.4640702041
  - # 3
    frequency:   -0.4326878127
  - # 4
    frequency:   -0.3150231952
  - # 5
    frequency:   -0.1009447636
  - # 6
    frequency:    0.3527261325
  - # 7
    frequency:    0.5470514425
  - # 8
    frequency:    3.6468754323
  - # 9
    frequency:    3.6764784897
  - # 10
    frequency:    4.9111516647
  - # 11
    frequency:    5.3225102553
  - # 12
    frequency:    5.4494336125
  - # 13
    frequency:    6.4570973590
  - # 14
    frequency:    6.4615502615
  - # 15
    frequency:    8.3572990450
  - # 16
    frequency:   10.1483999365
  - # 17
    frequency:   10.2235108865
  - # 18
    frequency:   10.6712974330
  - # 19
    frequency:   10.7461881177
  - # 20
    frequency:   11.5469027208
  - # 21
    frequency:   13.7902508394
  - # 22
    frequency:   13.7934540504
  - # 23
    frequency:   17.7290797984
  - # 24
    frequency:   21.2094756751
  - # 25
    frequency:   31.8113730016
  - # 26
    frequency:   65.0984399170
  - # 27
    frequency:   67.5984099587

- q-position: [    0.0303030,    0.0000000,    0.0000000 ]
  distance:    0.0100731
  band:
  - # 1
    frequency:   -1.4931986078
  - # 2
    frequency:   -1.4431429314
  - # 3
    frequency:   -0.4264199794
  - # 4
    frequency:   -0.2446521131
  - # 5
    frequency:   -0.0994795599
  - # 6
    frequency:    0.4201359214
  - # 7
    frequency:    0.6567400250
  - # 8
    frequency:    3.6520384560
  - # 9
    frequency:    3.6942193761
  - # 10
    frequency:    4.9032550101
  - # 11
    frequency:    5.3263342976
  - # 12
    frequency:    5.5018984947
  - # 13
    frequency:    6.4589892356
  - # 14
    frequency:    6.4656727828
  - # 15
    frequency:    8.3562225290
  - # 16
    frequency:   10.1519363505
  - # 17
    frequency:   10.2524217269
  - # 18
    frequency:   10.6752738500
  - # 19
    frequency:   10.7886761662
  - # 20
    frequency:   11.5439856602
  - # 21
    frequency:   13.7906892182
  - # 22
    frequency:   13.7952945109
  - # 23
    frequency:   17.7115867970
  - # 24
    frequency:   21.2085884675
  - # 25
    frequency:   31.8056116313
  - # 26
    frequency:   65.0974438016
  - # 27
    frequency:   67.5957502482

- q-position: [    0.0353535,    0.0000000,    0.0000000 ]
  distance:    0.0117519
  band:
  - # 1
    frequency:   -1.4864867768
  - # 2
    frequency:   -1.4185615061
  - # 3
    frequency:   -0.4176253447
  - # 4
    frequency:   -0.1625988047
  - # 5
    frequency:    0.0690173191
  - # 6
    frequency:    0.4869730098
  - # 7
    frequency:    0.7671472337
  - # 8
    frequency:    3.6580952018
  - # 9
    frequency:    3.7148096680
  - # 10
    frequency:    4.8951075177
  - # 11
    frequency:    5.3307608136
  - # 12
    frequency:    5.5594808124
  - # 13
    frequency:    6.4611816282
  - # 14
    frequency:    6.4707330574
  - # 15
    frequency:    8.3549956785
  - # 16
    frequency:   10.1559891349
  - # 17
    frequency:   10.2812199904
  - # 18
    frequency:   10.6799642080
  - # 19
    frequency:   10.8418225222
  - # 20
    frequency:   11.5425713828
  - # 21
    frequency:   13.7912071756
  - # 22
    frequency:   13.7974640458
  - # 23
    frequency:   17.6910236033
  - # 24
    frequency:   21.2075450347
  - # 25
    frequency:   31.7988528918
  - # 26
    frequency:   65.0962705379
  - # 27
    frequency:   67.5926243679

- q-position: [    0.0404040,    0.0000000,    0.0000000 ]
  distance:    0.0134308
  band:
  - # 1
    frequency:   -1.4788326428
  - # 2
    frequency:   -1.3903574637
  - # 3
    frequency:   -0.4060971619
  - # 4
    frequency:   -0.1349472488
  - # 5
    frequency:    0.2313380352
  - # 6
    frequency:    0.5534523632
  - # 7
    frequency:    0.8782583066
  - # 8
    frequency:    3.6650239455
  - # 9
    frequency:    3.7380823807
  - # 10
    frequency:    4.8868148856
  - # 11
    frequency:    5.3357455960
  - # 12
    frequency:    5.6207584864
  - # 13
    frequency:    6.4636534389
  - # 14
    frequency:    6.4768458621
  - # 15
    frequency:    8.3536415492
  - # 16
    frequency:   10.1604995836
  - # 17
    frequency:   10.3083913896
  - # 18
    frequency:   10.6853612456
  - # 19
    frequency:   10.9050054861
  - # 20
    frequency:   11.5445117626
  - # 21
    frequency:   13.7918046579
  - # 22
    frequency:   13.7999602882
  - # 23
    frequency:   17.6674450804
  - # 24
    frequency:   21.2063478754
  - # 25
    frequency:   31.7911212992
  - # 26
    frequency:   65.0949220865
  - # 27
    frequency:   67.5890408632

- q-position: [    0.0454545,    0.0000000,    0.0000000 ]
  distance:    0.0151096
  band:
  - # 1
    frequency:   -1.4702691925
  - # 2
    frequency:   -1.3585369754
  - # 3
    frequency:   -0.3916205794
  - # 4
    frequency:   -0.1166025130
  - # 5
    frequency:    0.3396330136
  - # 6
    frequency:    0.6197369985
  - # 7
    frequency:    0.9900418924
  - # 8
    frequency:    3.6728002019
  - # 9
    frequency:    3.7638583269
  - # 10
    frequency:    4.8784263000
  - # 11
    frequency:    5.3412392471
  - # 12
    frequency:    5.6843480956
  - # 13
    frequency:    6.4663807932
  - # 14
    frequency:    6.4841603586
  - # 15
    frequency:    8.3521868520
  - # 16
    frequency:   10.1654033697
  - # 17
    frequency:   10.3330409096
  - # 18
    frequency:   10.6914545923
  - # 19
    frequency:   10.9755365666
  - # 20
    frequency:   11.5530125535
  - # 21
    frequency:   13.7924816085
  - # 22
    frequency:   13.8027808659
  - # 23
    frequency:   17.6409143120
  - # 24
    frequency:   21.2049998392
  - # 25
    frequency:   31.7824447184
  - # 26
    frequency:   65.0934006933
  - # 27
    frequency:   67.5850094719

- q-position: [    0.0505051,    0.0000000,    0.0000000 ]
  distance:    0.0167885
  band:
  - # 1
    frequency:   -1.4608304221
  - # 2
    frequency:   -1.3230710989
  - # 3
    frequency:   -0.3739220315
  - # 4
    frequency:   -0.0820129855
  - # 5
    frequency:    0.4301154670
  - # 6
    frequency:    0.6859432402
  - # 7
    frequency:    1.1024460029
  - # 8
    frequency:    3.6813969554
  - # 9
    frequency:    3.7919498084
  - # 10
    frequency:    4.8699621811
  - # 11
    frequency:    5.3471877959
  - # 12
    frequency:    5.7489181722
  - # 13
    frequency:    6.4693372237
  - # 14
    frequency:    6.4928673249
  - # 15
    frequency:    8.3506618804
  - # 16
    frequency:   10.1706318629
  - # 17
    frequency:   10.3548858074
  - # 18
    frequency:   10.6982300467
  - # 19
    frequency:   11.0477869205
  - # 20
    frequency:   11.5735046790
  - # 21
    frequency:   13.7932379699
  - # 22
    frequency:   13.8059236103
  - # 23
    frequency:   17.6115025313
  - # 24
    frequency:   21.2035041125
  - # 25
    frequency:   31.7728541894
  - # 26
    frequency:   65.0917088831
  - # 27
    frequency:   67.5805410738

- q-position: [    0.0555556,    0.0000000,    0.0000000 ]
  distance:    0.0184673
  band:
  - # 1
    frequency:   -1.4505504074
  - # 2
    frequency:   -1.2838860578
  - # 3
    frequency:   -0.3526116157
  - # 4
    frequency:    0.0617442064
  - # 5
    frequency:    0.5115561226
  - # 6
    frequency:    0.7521491766
  - # 7
    frequency:    1.2153991765
  - # 8
    frequency:    3.6907849101
  - # 9
    frequency:    3.8221639516
  - # 10
    frequency:    4.8614319071
  - # 11
    frequency:    5.3535333522
  - # 12
    frequency:    5.8132024142
  - # 13
    frequency:    6.4724938690
  - # 14
    frequency:    6.5032059990
  - # 15
    frequency:    8.3491003881
  - # 16
    frequency:   10.1761135139
  - # 17
    frequency:   10.3740741756
  - # 18
    frequency:   10.7056688561
  - # 19
    frequency:   11.1129483384
  - # 20
    frequency:   11.6140602420
  - # 21
    frequency:   13.7940736839
  - # 22
    frequency:   13.8093868483
  - # 23
    frequency:   17.5792890585
  - # 24
    frequency:   21.2018642037
  - # 25
    frequency:   31.7623837347
  - # 26
    frequency:   65.0898494520
  - # 27
    frequency:   67.5756476345

- q-position: [    0.0606061,    0.0000000,    0.0000000 ]
  distance:    0.0201462
  band:
  - # 1
    frequency:   -1.4394624368
  - # 2
    frequency:   -1.2408530622
  - # 3
    frequency:   -0.3270968816
  - # 4
    frequency:    0.1377977343
  - # 5
    frequency:    0.5874680695
  - # 6
    frequency:    0.8184028726
  - # 7
    frequency:    1.3288136915
  - # 8
    frequency:    3.7009327555
  - # 9
    frequency:    3.8543056333
  - # 10
    frequency:    4.8528440776
  - # 11
    frequency:    5.3602147875
  - # 12
    frequency:    5.8760115282
  - # 13
    frequency:    6.4758196828
  - # 14
    frequency:    6.5154681003
  - # 15
    frequency:    8.3475394199
  - # 16
    frequency:   10.1817752556
  - # 17
    frequency:   10.3909678719
  - # 18
    frequency:   10.7137470447
  - # 19
    frequency:   11.1616454899
  - # 20
    frequency:   11.6829982994
  - # 21
    frequency:   13.7949886908
  - # 22
    frequency:   13.8131698225
  - # 23
    frequency:   17.5443612583
  - # 24
    frequency:   21.2000839258
  - # 25
    frequency:   31.7510701514
  - # 26
    frequency:   65.0878254584
  - # 27
    frequency:   67.5703421444

- q-position: [    0.0656566,    0.0000000,    0.0000000 ]
  distance:    0.0218250
  band:
  - # 1
    frequency:   -1.4275982417
  - # 2
    frequency:   -1.1937764576
  - # 3
    frequency:   -0.2964218831
  - # 4
    frequency:    0.1992236588
  - # 5
    frequency:    0.6596090370
  - # 6
    frequency:    0.8847292755
  - # 7
    frequency:    1.4425893223
  - # 8
    frequency:    3.7118074444
  - # 9
    frequency:    3.8881799748
  - # 10
    frequency:    4.8442119340
  - # 11
    frequency:    5.3671684276
  - # 12
    frequency:    5.9362456645
  - # 13
    frequency:    6.4792816526
  - # 14
    frequency:    6.5299945679
  - # 15
    frequency:    8.3460191004
  - # 16
    frequency:   10.1875438709
  - # 17
    frequency:   10.4059821650
  - # 18
    frequency:   10.7224348351
  - # 19
    frequency:   11.1896343361
  - # 20
    frequency:   11.7833530099
  - # 21
    frequency:   13.7959829284
  - # 22
    frequency:   13.8172733166
  - # 23
    frequency:   17.5068145285
  - # 24
    frequency:   21.1981673783
  - # 25
    frequency:   31.7389527879
  - # 26
    frequency:   65.0856402150
  - # 27
    frequency:   67.5646385537

- q-position: [    0.0707071,    0.0000000,    0.0000000 ]
  distance:    0.0235039
  band:
  - # 1
    frequency:   -1.4149873474
  - # 2
    frequency:   -1.1423779444
  - # 3
    frequency:   -0.2589040197
  - # 4
    frequency:    0.2584380592
  - # 5
    frequency:    0.7289818188
  - # 6
    frequency:    0.9511356944
  - # 7
    frequency:    1.5566168009
  - # 8
    frequency:    3.7233744794
  - # 9
    frequency:    3.9235944123
  - # 10
    frequency:    4.8355558995
  - # 11
    frequency:    5.3743287475
  - # 12
    frequency:    5.9929133908
  - # 13
    frequency:    6.4828450229
  - # 14
    frequency:    6.5471582795
  - # 15
    frequency:    8.3445823862
  - # 16
    frequency:   10.1933472731
  - # 17
    frequency:   10.4194988646
  - # 18
    frequency:   10.7316962103
  - # 19
    frequency:   11.1995234924
  - # 20
    frequency:   11.9112497793
  - # 21
    frequency:   13.7970563281
  - # 22
    frequency:   13.8217006195
  - # 23
    frequency:   17.4667523404
  - # 24
    frequency:   21.1961189278
  - # 25
    frequency:   31.7260733073
  - # 26
    frequency:   65.0832972782
  - # 27
    frequency:   67.5585517018

- q-position: [    0.0757576,    0.0000000,    0.0000000 ]
  distance:    0.0251827
  band:
  - # 1
    frequency:   -1.4016565602
  - # 2
    frequency:   -1.0862729489
  - # 3
    frequency:   -0.2110986684
  - # 4
    frequency:    0.3180570750
  - # 5
    frequency:    0.7962099121
  - # 6
    frequency:    1.0176160419
  - # 7
    frequency:    1.6707805350
  - # 8
    frequency:    3.7355982045
  - # 9
    frequency:    3.9603603684
  - # 10
    frequency:    4.8269045390
  - # 11
    frequency:    5.3816290575
  - # 12
    frequency:    6.0451652334
  - # 13
    frequency:    6.4864735227
  - # 14
    frequency:    6.5673253223
  - # 15
    frequency:    8.3432747873
  - # 16
    frequency:   10.1991156492
  - # 17
    frequency:   10.4318319956
  - # 18
    frequency:   10.7414886596
  - # 19
    frequency:   11.1964462802
  - # 20
    frequency:   12.0602811789
  - # 21
    frequency:   13.7982088107
  - # 22
    frequency:   13.8264590794
  - # 23
    frequency:   17.4242863529
  - # 24
    frequency:   21.1939431875
  - # 25
    frequency:   31.7124754414
  - # 26
    frequency:   65.0808004382
  - # 27
    frequency:   67.5520972450

- q-position: [    0.0808081,    0.0000000,    0.0000000 ]
  distance:    0.0268616
  band:
  - # 1
    frequency:   -1.3876295946
  - # 2
    frequency:   -1.0249321491
  - # 3
    frequency:   -0.1432912150
  - # 4
    frequency:    0.3790435543
  - # 5
    frequency:    0.8617050804
  - # 6
    frequency:    1.0841540908
  - # 7
    frequency:    1.7849603903
  - # 8
    frequency:    3.7484420977
  - # 9
    frequency:    3.9982945585
  - # 10
    frequency:    4.8182947378
  - # 11
    frequency:    5.3890021708
  - # 12
    frequency:    6.0923461216
  - # 13
    frequency:    6.4901295938
  - # 14
    frequency:    6.5907919400
  - # 15
    frequency:    8.3421440630
  - # 16
    frequency:   10.2047824235
  - # 17
    frequency:   10.4432213822
  - # 18
    frequency:   10.7517631430
  - # 19
    frequency:   11.1846404228
  - # 20
    frequency:   12.2249483873
  - # 21
    frequency:   13.7994402790
  - # 22
    frequency:   13.8315627294
  - # 23
    frequency:   17.3795366366
  - # 24
    frequency:   21.1916449951
  - # 25
    frequency:   31.6982047345
  - # 26
    frequency:   65.0781537080
  - # 27
    frequency:   67.5452915798

- q-position: [    0.0858586,    0.0000000,    0.0000000 ]
  distance:    0.0285404
  band:
  - # 1
    frequency:   -1.3729268349
  - # 2
    frequency:   -0.9576148847
  - # 3
    frequency:    0.0706328845
  - # 4
    frequency:    0.4418183374
  - # 5
    frequency:    0.9257515327
  - # 6
    frequency:    1.1507259710
  - # 7
    frequency:    1.8990325339
  - # 8
    frequency:    3.7618690626
  - # 9
    frequency:    4.0372199781
  - # 10
    frequency:    4.8097715761
  - # 11
    frequency:    5.3963810440
  - # 12
    frequency:    6.1340584928
  - # 13
    frequency:    6.4937746194
  - # 14
    frequency:    6.6177072081
  - # 15
    frequency:    8.3412398986
  - # 16
    frequency:   10.2102850119
  - # 17
    frequency:   10.4538375912
  - # 18
    frequency:   10.7624642957
  - # 19
    frequency:   11.1668812018
  - # 20
    frequency:   12.4012364045
  - # 21
    frequency:   13.8007506091
  - # 22
    frequency:   13.8370369759
  - # 23
    frequency:   17.3326320534
  - # 24
    frequency:   21.1892293910
  - # 25
    frequency:   31.6833082818
  - # 26
    frequency:   65.0753613116
  - # 27
    frequency:   67.5381517645

- q-position: [    0.0909091,    0.0000000,    0.0000000 ]
  distance:    0.0302193
  band:
  - # 1
    frequency:   -1.3575652179
  - # 2
    frequency:   -0.8832471822
  - # 3
    frequency:    0.1786970218
  - # 4
    frequency:    0.5065641636
  - # 5
    frequency:    0.9885520820
  - # 6
    frequency:    1.2173020854
  - # 7
    frequency:    2.0128694322
  - # 8
    frequency:    3.7758417146
  - # 9
    frequency:    4.0769666139
  - # 10
    frequency:    4.8013881737
  - # 11
    frequency:    5.4036993861
  - # 12
    frequency:    6.1702105929
  - # 13
    frequency:    6.4973691517
  - # 14
    frequency:    6.6480086863
  - # 15
    frequency:    8.3406135663
  - # 16
    frequency:   10.2155653490
  - # 17
    frequency:   10.4637894797
  - # 18
    frequency:   10.7735308810
  - # 19
    frequency:   11.1449032433
  - # 20
    frequency:   12.5861930756
  - # 21
    frequency:   13.8021396392
  - # 22
    frequency:   13.8429275440
  - # 23
    frequency:   17.2837108580
  - # 24
    frequency:   21.1867015945
  - # 25
    frequency:   31.6678344628
  - # 26
    frequency:   65.0724276727
  - # 27
    frequency:   67.5306954385

- q-position: [    0.0959596,    0.0000000,    0.0000000 ]
  distance:    0.0318981
  band:
  - # 1
    frequency:   -1.3415582172
  - # 2
    frequency:   -0.8001826639
  - # 3
    frequency:    0.2454202122
  - # 4
    frequency:    0.5733296614
  - # 5
    frequency:    1.0502552308
  - # 6
    frequency:    1.2838485793
  - # 7
    frequency:    2.1263391475
  - # 8
    frequency:    3.7903226601
  - # 9
    frequency:    4.1173719232
  - # 10
    frequency:    4.7932056690
  - # 11
    frequency:    5.4108922273
  - # 12
    frequency:    6.2010181698
  - # 13
    frequency:    6.5008731378
  - # 14
    frequency:    6.6814043611
  - # 15
    frequency:    8.3403175778
  - # 16
    frequency:   10.2205701882
  - # 17
    frequency:   10.4731303315
  - # 18
    frequency:   10.7848964810
  - # 19
    frequency:   11.1198249712
  - # 20
    frequency:   12.7774954944
  - # 21
    frequency:   13.8036071556
  - # 22
    frequency:   13.8493189917
  - # 23
    frequency:   17.2329216156
  - # 24
    frequency:   21.1840669802
  - # 25
    frequency:   31.6518326724
  - # 26
    frequency:   65.0693574018
  - # 27
    frequency:   67.5229407407

- q-position: [    0.1010101,    0.0000000,    0.0000000 ]
  distance:    0.0335770
  band:
  - # 1
    frequency:   -1.3249159065
  - # 2
    frequency:   -0.7056870111
  - # 3
    frequency:    0.2996967982
  - # 4
    frequency:    0.6420638943
  - # 5
    frequency:    1.1109719536
  - # 6
    frequency:    1.3503284635
  - # 7
    frequency:    2.2393040715
  - # 8
    frequency:    3.8052747646
  - # 9
    frequency:    4.1582811202
  - # 10
    frequency:    4.7852934335
  - # 11
    frequency:    5.4178964473
  - # 12
    frequency:    6.2269460259
  - # 13
    frequency:    6.5042461451
  - # 14
    frequency:    6.7174155391
  - # 15
    frequency:    8.3404053331
  - # 16
    frequency:   10.2252511894
  - # 17
    frequency:   10.4818608585
  - # 18
    frequency:   10.7964904039
  - # 19
    frequency:   11.0924195839
  - # 20
    frequency:   12.9731464126
  - # 21
    frequency:   13.8051528776
  - # 22
    frequency:   13.8563772321
  - # 23
    frequency:   17.1804245704
  - # 24
    frequency:   21.1813310533
  - # 25
    frequency:   31.6353530516
  - # 26
    frequency:   65.0661552834
  - # 27
    frequency:   67.5149062267

- q-position: [    0.1060606,    0.0000000,    0.0000000 ]
  distance:    0.0352558
  band:
  - # 1
    frequency:   -1.3076450779
  - # 2
    frequency:   -0.5946460513
  - # 3
    frequency:    0.3473164267
  - # 4
    frequency:    0.7126226056
  - # 5
    frequency:    1.1707865784
  - # 6
    frequency:    1.4167024654
  - # 7
    frequency:    2.3516192123
  - # 8
    frequency:    3.8206614093
  - # 9
    frequency:    4.1995473017
  - # 10
    frequency:    4.7777295952
  - # 11
    frequency:    5.4246512569
  - # 12
    frequency:    6.2486085354
  - # 13
    frequency:    6.5074475863
  - # 14
    frequency:    6.7554623119
  - # 15
    frequency:    8.3409307728
  - # 16
    frequency:   10.2295648198
  - # 17
    frequency:   10.4899282197
  - # 18
    frequency:   10.8082387681
  - # 19
    frequency:   11.0632744283
  - # 20
    frequency:   13.1712134201
  - # 21
    frequency:   13.8067764391
  - # 22
    frequency:   13.8644617334
  - # 23
    frequency:   17.1263936649
  - # 24
    frequency:   21.1784994251
  - # 25
    frequency:   31.6184462209
  - # 26
    frequency:   65.0628262635
  - # 27
    frequency:   67.5066107863

- q-position: [    0.1111111,    0.0000000,    0.0000000 ]
  distance:    0.0369347
  band:
  - # 1
    frequency:   -1.2897493927
  - # 2
    frequency:   -0.4553345823
  - # 3
    frequency:    0.3906383215
  - # 4
    frequency:    0.7847657353
  - # 5
    frequency:    1.2297641187
  - # 6
    frequency:    1.4829296669
  - # 7
    frequency:    2.4631301080
  - # 8
    frequency:    3.8364467330
  - # 9
    frequency:    4.2410314296
  - # 10
    frequency:    4.7706019401
  - # 11
    frequency:    5.4310986341
  - # 12
    frequency:    6.2666668269
  - # 13
    frequency:    6.5104369447
  - # 14
    frequency:    6.7949542717
  - # 15
    frequency:    8.3419480399
  - # 16
    frequency:   10.2334721048
  - # 17
    frequency:   10.4972203788
  - # 18
    frequency:   10.8200657185
  - # 19
    frequency:   11.0328875577
  - # 20
    frequency:   13.3693845820
  - # 21
    frequency:   13.8084773689
  - # 22
    frequency:   13.8744852346
  - # 23
    frequency:   17.0710195065
  - # 24
    frequency:   21.1755777877
  - # 25
    frequency:   31.6011630157
  - # 26
    frequency:   65.0593754359
  - # 27
    frequency:   67.4980735607

- q-position: [    0.1161616,    0.0000000,    0.0000000 ]
  distance:    0.0386135
  band:
  - # 1
    frequency:   -1.2712295428
  - # 2
    frequency:   -0.2431987326
  - # 3
    frequency:    0.4308866202
  - # 4
    frequency:    0.8581600773
  - # 5
    frequency:    1.2879553880
  - # 6
    frequency:    1.5489679711
  - # 7
    frequency:    2.5736704051
  - # 8
    frequency:    3.8525958572
  - # 9
    frequency:    4.2826021761
  - # 10
    frequency:    4.7640092698
  - # 11
    frequency:    5.4371837120
  - # 12
    frequency:    6.2817521927
  - # 13
    frequency:    6.5131740028
  - # 14
    frequency:    6.8353570190
  - # 15
    frequency:    8.3435111585
  - # 16
    frequency:   10.2369382702
  - # 17
    frequency:   10.5035550541
  - # 18
    frequency:   10.8318947236
  - # 19
    frequency:   11.0017321218
  - # 20
    frequency:   13.5633796778
  - # 21
    frequency:   13.8102550699
  - # 22
    frequency:   13.8894516089
  - # 23
    frequency:   17.0145137349
  - # 24
    frequency:   21.1725718887
  - # 25
    frequency:   31.5835542295
  - # 26
    frequency:   65.0558080290
  - # 27
    frequency:   67.4893138612

- q-position: [    0.1212121,    0.0000000,    0.0000000 ]
  distance:    0.0402924
  band:
  - # 1
    frequency:   -1.2520834055
  - # 2
    frequency:    0.3020751213
  - # 3
    frequency:    0.4687862391
  - # 4
    frequency:    0.9323967640
  - # 5
    frequency:    1.3454006803
  - # 6
    frequency:    1.6147744368
  - # 7
    frequency:    2.6830591028
  - # 8
    frequency:    3.8690750948
  - # 9
    frequency:    4.3241356037
  - # 10
    frequency:    4.7580633162