nqpoint: 300    
npath: 3      
segment_nqpoint:
- 100
- 100
- 100
labels:
- [ 'G', 'M' ]
- [ 'M', 'K' ]
- [ 'K', 'G' ]
reciprocal_lattice:
- [   0.27792934,   0.16046258,   0.00000000 ] # a*
- [   0.00000000,   0.32092516,   0.00000000 ] # b*
- [   0.00000000,   0.00000000,   0.03890529 ] # c*
natom: 7      
lattice:
- [     3.598036864202991,     0.000000000000000,     0.000000000000000 ] # a
- [    -1.799018432101495,     3.115991328159124,     0.000000000000000 ] # b
- [     0.000000000000000,     0.000000000000000,    25.703444049736898 ] # c
points:
- symbol: C # 1
  coordinates: [  0.000000000000000,  0.000000000000000,  0.448736887666073 ]
  mass: 12.010700
- symbol: C # 2
  coordinates: [  0.333332985432215,  0.666666983183674,  0.602925443707725 ]
  mass: 12.010700
- symbol: N # 3
  coordinates: [  0.333332985432215,  0.666666983183674,  0.554457877449540 ]
  mass: 14.006700
- symbol: O # 4
  coordinates: [  0.333332985432215,  0.666666983183674,  0.649852370655670 ]
  mass: 15.999400
- symbol: O # 5
  coordinates: [  0.666666984744048,  0.333332985985145,  0.350147629344330 ]
  mass: 15.999400
- symbol: Y # 6
  coordinates: [  0.333332985432215,  0.666666983183674,  0.377245762466315 ]
  mass: 88.905850
- symbol: Y # 7
  coordinates: [  0.666666984744048,  0.333332985985145,  0.498047023494613 ]
  mass: 88.905850

phonon:
- q-position: [    0.0000000,    0.0000000,    0.0000000 ]
  distance:    0.0000000
  band:
  - # 1
    frequency:   -0.6287149556
  - # 2
    frequency:   -0.6287149556
  - # 3
    frequency:   -0.0000127398
  - # 4
    frequency:    0.0000001790
  - # 5
    frequency:    0.0000133286
  - # 6
    frequency:    2.1304486639
  - # 7
    frequency:    2.1304486639
  - # 8
    frequency:    3.9762878587
  - # 9
    frequency:    5.3998542574
  - # 10
    frequency:    5.3998542574
  - # 11
    frequency:    7.6674878780
  - # 12
    frequency:    9.4746327897
  - # 13
    frequency:    9.4746327898
  - # 14
    frequency:   11.9978129801
  - # 15
    frequency:   12.2308809763
  - # 16
    frequency:   12.2308809764
  - # 17
    frequency:   14.7496348171
  - # 18
    frequency:   17.7887019781
  - # 19
    frequency:   17.7887019781
  - # 20
    frequency:   38.6412061363
  - # 21
    frequency:   68.6787905773

- q-position: [    0.0050505,    0.0000000,    0.0000000 ]
  distance:    0.0016208
  band:
  - # 1
    frequency:   -0.6292975914
  - # 2
    frequency:   -0.6277485912
  - # 3
    frequency:   -0.0385081788
  - # 4
    frequency:    0.0017732402
  - # 5
    frequency:    0.0756624076
  - # 6
    frequency:    2.1306482971
  - # 7
    frequency:    2.1324335181
  - # 8
    frequency:    3.9755388675
  - # 9
    frequency:    5.4000858207
  - # 10
    frequency:    5.4003699950
  - # 11
    frequency:    7.6666789264
  - # 12
    frequency:    9.4744322509
  - # 13
    frequency:    9.4762128659
  - # 14
    frequency:   11.9929736917
  - # 15
    frequency:   12.2306111502
  - # 16
    frequency:   12.2348391624
  - # 17
    frequency:   14.7494708290
  - # 18
    frequency:   17.7887220606
  - # 19
    frequency:   17.7889364180
  - # 20
    frequency:   38.6411789405
  - # 21
    frequency:   68.6777290465

- q-position: [    0.0101010,    0.0000000,    0.0000000 ]
  distance:    0.0032417
  band:
  - # 1
    frequency:   -0.6310917637
  - # 2
    frequency:   -0.6248391857
  - # 3
    frequency:   -0.0765869372
  - # 4
    frequency:    0.0070765835
  - # 5
    frequency:    0.1512405171
  - # 6
    frequency:    2.1312517387
  - # 7
    frequency:    2.1383736575
  - # 8
    frequency:    3.9733011187
  - # 9
    frequency:    5.4007798094
  - # 10
    frequency:    5.4019131770
  - # 11
    frequency:    7.6642561004
  - # 12
    frequency:    9.4738321363
  - # 13
    frequency:    9.4809349573
  - # 14
    frequency:   11.9793441708
  - # 15
    frequency:   12.2298023082
  - # 16
    frequency:   12.2458343261
  - # 17
    frequency:   14.7489804966
  - # 18
    frequency:   17.7887822980
  - # 19
    frequency:   17.7896391384
  - # 20
    frequency:   38.6410974138
  - # 21
    frequency:   68.6745467008

- q-position: [    0.0151515,    0.0000000,    0.0000000 ]
  distance:    0.0048625
  band:
  - # 1
    frequency:   -0.6342370296
  - # 2
    frequency:   -0.6199587935
  - # 3
    frequency:   -0.1137845808
  - # 4
    frequency:    0.0158794904
  - # 5
    frequency:    0.2266586665
  - # 6
    frequency:    2.1322724480
  - # 7
    frequency:    2.1482265090
  - # 8
    frequency:    3.9696020713
  - # 9
    frequency:    5.4019341238
  - # 10
    frequency:    5.4044718354
  - # 11
    frequency:    7.6602313708
  - # 12
    frequency:    9.4728369440
  - # 13
    frequency:    9.4887448786
  - # 14
    frequency:   11.9588956313
  - # 15
    frequency:   12.2284563563
  - # 16
    frequency:   12.2619221193
  - # 17
    frequency:   14.7481687219
  - # 18
    frequency:   17.7888826602
  - # 19
    frequency:   17.7908083444
  - # 20
    frequency:   38.6409617388
  - # 21
    frequency:   68.6692502744

- q-position: [    0.0202020,    0.0000000,    0.0000000 ]
  distance:    0.0064833
  band:
  - # 1
    frequency:   -0.6389671576
  - # 2
    frequency:   -0.6130692479
  - # 3
    frequency:   -0.1496077801
  - # 4
    frequency:    0.0281302502
  - # 5
    frequency:    0.3018548665
  - # 6
    frequency:    2.1337323094
  - # 7
    frequency:    2.1619233556
  - # 8
    frequency:    3.9644867857
  - # 9
    frequency:    5.4035452823
  - # 10
    frequency:    5.4080264293
  - # 11
    frequency:    7.6546243146
  - # 12
    frequency:    9.4714541452
  - # 13
    frequency:    9.4995530579
  - # 14
    frequency:   11.9335782809
  - # 15
    frequency:   12.2265764623
  - # 16
    frequency:   12.2811971624
  - # 17
    frequency:   14.7470436952
  - # 18
    frequency:   17.7890230970
  - # 19
    frequency:   17.7924410527
  - # 20
    frequency:   38.6407722188
  - # 21
    frequency:   68.6618509688

- q-position: [    0.0252525,    0.0000000,    0.0000000 ]
  distance:    0.0081042
  band:
  - # 1
    frequency:   -0.6456068074
  - # 2
    frequency:   -0.6041305855
  - # 3
    frequency:   -0.1835097455
  - # 4
    frequency:    0.0437605648
  - # 5
    frequency:    0.3767810146
  - # 6
    frequency:    2.1356608370
  - # 7
    frequency:    2.1793724283
  - # 8
    frequency:    3.9580169161
  - # 9
    frequency:    5.4056084459
  - # 10
    frequency:    5.4125504192
  - # 11
    frequency:    7.6474615947
  - # 12
    frequency:    9.4696941464
  - # 13
    frequency:    9.5132355852
  - # 14
    frequency:   11.9048497388
  - # 15
    frequency:   12.2241670423
  - # 16
    frequency:   12.3022647063
  - # 17
    frequency:   14.7456169231
  - # 18
    frequency:   17.7892035373
  - # 19
    frequency:   17.7945331035
  - # 20
    frequency:   38.6405292778
  - # 21
    frequency:   68.6523644200

- q-position: [    0.0303030,    0.0000000,    0.0000000 ]
  distance:    0.0097250
  band:
  - # 1
    frequency:   -0.6545561944
  - # 2
    frequency:   -0.5931076273
  - # 3
    frequency:   -0.2148933697
  - # 4
    frequency:    0.0626885674
  - # 5
    frequency:    0.4513996073
  - # 6
    frequency:    2.1380941085
  - # 7
    frequency:    2.2004627527
  - # 8
    frequency:    3.9502693918
  - # 9
    frequency:    5.4081174532
  - # 10
    frequency:    5.4180110070
  - # 11
    frequency:    7.6387763052
  - # 12
    frequency:    9.4675702356
  - # 13
    frequency:    9.5296355756
  - # 14
    frequency:   11.8736987123
  - # 15
    frequency:   12.2212337418
  - # 16
    frequency:   12.3242170662
  - # 17
    frequency:   14.7439032666
  - # 18
    frequency:   17.7894238892
  - # 19
    frequency:   17.7970791778
  - # 20
    frequency:   38.6402334583
  - # 21
    frequency:   68.6408106535

- q-position: [    0.0353535,    0.0000000,    0.0000000 ]
  distance:    0.0113458
  band:
  - # 1
    frequency:   -0.6662538182
  - # 2
    frequency:   -0.5799736084
  - # 3
    frequency:   -0.2431387631
  - # 4
    frequency:    0.0848211901
  - # 5
    frequency:    0.5256792505
  - # 6
    frequency:    2.1410734778
  - # 7
    frequency:    2.2250683747
  - # 8
    frequency:    3.9413348669
  - # 9
    frequency:    5.4110648646
  - # 10
    frequency:    5.4243699880
  - # 11
    frequency:    7.6286072436
  - # 12
    frequency:    9.4650985156
  - # 13
    frequency:    9.5485647602
  - # 14
    frequency:   11.8407929263
  - # 15
    frequency:   12.2177834125
  - # 16
    frequency:   12.3464858337
  - # 17
    frequency:   14.7419209830
  - # 18
    frequency:   17.7896840388
  - # 19
    frequency:   17.8000728186
  - # 20
    frequency:   38.6398854210
  - # 21
    frequency:   68.6272140247

- q-position: [    0.0404040,    0.0000000,    0.0000000 ]
  distance:    0.0129667
  band:
  - # 1
    frequency:   -0.6811106217
  - # 2
    frequency:   -0.5647109360
  - # 3
    frequency:   -0.2676613155
  - # 4
    frequency:    0.1100548165
  - # 5
    frequency:    0.5995907331
  - # 6
    frequency:    2.1446441235
  - # 7
    frequency:    2.2530525988
  - # 8
    frequency:    3.9313160257
  - # 9
    frequency:    5.4144420141
  - # 10
    frequency:    5.4315846581
  - # 11
    frequency:    7.6169981685
  - # 12
    frequency:    9.4622978223
  - # 13
    frequency:    9.5698052163
  - # 14
    frequency:   11.8066033867
  - # 15
    frequency:   12.2138240826
  - # 16
    frequency:   12.3687177810
  - # 17
    frequency:   14.7396917708
  - # 18
    frequency:   17.7899838502
  - # 19
    frequency:   17.8035064573
  - # 20
    frequency:   38.6394859420
  - # 21
    frequency:   68.6116031486

- q-position: [    0.0454545,    0.0000000,    0.0000000 ]
  distance:    0.0145875
  band:
  - # 1
    frequency:   -0.6994222803
  - # 2
    frequency:   -0.5473090697
  - # 3
    frequency:   -0.2879931395
  - # 4
    frequency:    0.1382730468
  - # 5
    frequency:    0.6731044119
  - # 6
    frequency:    2.1488534980
  - # 7
    frequency:    2.2842719302
  - # 8
    frequency:    3.9203258298
  - # 9
    frequency:    5.4182390689
  - # 10
    frequency:    5.4396087219
  - # 11
    frequency:    7.6039970989
  - # 12
    frequency:    9.4591896297
  - # 13
    frequency:    9.5931111565
  - # 14
    frequency:   11.7714853973
  - # 15
    frequency:   12.2093649247
  - # 16
    frequency:   12.3906940302
  - # 17
    frequency:   14.7372408114
  - # 18
    frequency:   17.7903231641
  - # 19
    frequency:   17.8073714444
  - # 20
    frequency:   38.6390359110
  - # 21
    frequency:   68.5940108155

- q-position: [    0.0505051,    0.0000000,    0.0000000 ]
  distance:    0.0162083
  band:
  - # 1
    frequency:   -0.7212865883
  - # 2
    frequency:   -0.5277583325
  - # 3
    frequency:   -0.3038605225
  - # 4
    frequency:    0.1693405818
  - # 5
    frequency:    0.7461889010
  - # 6
    frequency:    2.1537497461
  - # 7
    frequency:    2.3185794907
  - # 8
    frequency:    3.9084857868
  - # 9
    frequency:    5.4224450956
  - # 10
    frequency:    5.4483931565
  - # 11
    frequency:    7.5896556937
  - # 12
    frequency:    9.4557979425
  - # 13
    frequency:    9.6182107175
  - # 14
    frequency:   11.7357278656
  - # 15
    frequency:   12.2044162168
  - # 16
    frequency:   12.4122809340
  - # 17
    frequency:   14.7345968033
  - # 18
    frequency:   17.7907017971
  - # 19
    frequency:   17.8116580844
  - # 20
    frequency:   38.6385363293
  - # 21
    frequency:   68.5744738958

- q-position: [    0.0555556,    0.0000000,    0.0000000 ]
  distance:    0.0178292
  band:
  - # 1
    frequency:   -0.7465630473
  - # 2
    frequency:   -0.5060366865
  - # 3
    frequency:   -0.3152199144
  - # 4
    frequency:    0.2030929981
  - # 5
    frequency:    0.8188107390
  - # 6
    frequency:    2.1593801634
  - # 7
    frequency:    2.3558277748
  - # 8
    frequency:    3.8959243084
  - # 9
    frequency:    5.4270481317
  - # 10
    frequency:    5.4578869932
  - # 11
    frequency:    7.5740287406
  - # 12
    frequency:    9.4521491769
  - # 13
    frequency:    9.6448077149
  - # 14
    frequency:   11.6995830743
  - # 15
    frequency:   12.1989893010
  - # 16
    frequency:   12.4334004633
  - # 17
    frequency:   14.7317919818
  - # 18
    frequency:   17.7911195410
  - # 19
    frequency:   17.8163556748
  - # 20
    frequency:   38.6379883064
  - # 21
    frequency:   68.5530332314

- q-position: [    0.0606061,    0.0000000,    0.0000000 ]
  distance:    0.0194500
  band:
  - # 1
    frequency:   -0.7748947692
  - # 2
    frequency:   -0.4820846929
  - # 3
    frequency:   -0.3222319555
  - # 4
    frequency:    0.2393238986
  - # 5
    frequency:    0.8909346646
  - # 6
    frequency:    2.1657897580
  - # 7
    frequency:    2.3958706934
  - # 8
    frequency:    3.8827752113
  - # 9
    frequency:    5.4320352620
  - # 10
    frequency:    5.4680379958
  - # 11
    frequency:    7.5571737662
  - # 12
    frequency:    9.4482720301
  - # 13
    frequency:    9.6725833688
  - # 14
    frequency:   11.6632849316
  - # 15
    frequency:   12.1930965376
  - # 16
    frequency:   12.4540120413
  - # 17
    frequency:   14.7288621196
  - # 18
    frequency:   17.7915761612
  - # 19
    frequency:   17.8214525490
  - # 20
    frequency:   38.6373930572
  - # 21
    frequency:   68.5297335173

- q-position: [    0.0656566,    0.0000000,    0.0000000 ]
  distance:    0.0210708
  band:
  - # 1
    frequency:   -0.8057783642
  - # 2
    frequency:   -0.4557626737
  - # 3
    frequency:   -0.3251874490
  - # 4
    frequency:    0.2777734838
  - # 5
    frequency:    0.9625242150
  - # 6
    frequency:    2.1730199712
  - # 7
    frequency:    2.4385649198
  - # 8
    frequency:    3.8691764013
  - # 9
    frequency:    5.4373926984
  - # 10
    frequency:    5.4787932198
  - # 11
    frequency:    7.5391507666
  - # 12
    frequency:    9.4441973402
  - # 13
    frequency:    9.7011980440
  - # 14
    frequency:   11.6270603864
  - # 15
    frequency:   12.1867512551
  - # 16
    frequency:   12.4741010658
  - # 17
    frequency:   14.7258464990
  - # 18
    frequency:   17.7920713963
  - # 19
    frequency:   17.8269361229
  - # 20
    frequency:   38.6367518987
  - # 21
    frequency:   68.5046231702

- q-position: [    0.0707071,    0.0000000,    0.0000000 ]
  distance:    0.0226917
  band:
  - # 1
    frequency:   -0.8386463268
  - # 2
    frequency:   -0.4267834712
  - # 3
    frequency:   -0.3244202199
  - # 4
    frequency:    0.3181247878
  - # 5
    frequency:    1.0335424547
  - # 6
    frequency:    2.1811076001
  - # 7
    frequency:    2.4837706038
  - # 8
    frequency:    3.8552687655
  - # 9
    frequency:    5.4431058628
  - # 10
    frequency:    5.4900994528
  - # 11
    frequency:    7.5200220500
  - # 12
    frequency:    9.4399579366
  - # 13
    frequency:    9.7302931002
  - # 14
    frequency:   11.5911366294
  - # 15
    frequency:   12.1799676978
  - # 16
    frequency:   12.4936713910
  - # 17
    frequency:   14.7227878495
  - # 18
    frequency:   17.7926049566
  - # 19
    frequency:   17.8327929447
  - # 20
    frequency:   38.6360662466
  - # 21
    frequency:   68.4777541877

- q-position: [    0.0757576,    0.0000000,    0.0000000 ]
  distance:    0.0243125
  band:
  - # 1
    frequency:   -0.8729325433
  - # 2
    frequency:   -0.3946110822
  - # 3
    frequency:   -0.3202354800
  - # 4
    frequency:    0.3600133108
  - # 5
    frequency:    1.1039527179
  - # 6
    frequency:    2.1900839505
  - # 7
    frequency:    2.5313515445
  - # 8
    frequency:    3.8411952874
  - # 9
    frequency:    5.4491594708
  - # 10
    frequency:    5.5019035388
  - # 11
    frequency:    7.4998521750
  - # 12
    frequency:    9.4355884825
  - # 13
    frequency:    9.7594930040
  - # 14
    frequency:   11.5557455028
  - # 15
    frequency:   12.1727609704
  - # 16
    frequency:   12.5127401967
  - # 17
    frequency:   14.7197322437
  - # 18
    frequency:   17.7931765230
  - # 19
    frequency:   17.8390087482
  - # 20
    frequency:   38.6353376110
  - # 21
    frequency:   68.4491819965

- q-position: [    0.0808081,    0.0000000,    0.0000000 ]
  distance:    0.0259333
  band:
  - # 1
    frequency:   -0.9081107041
  - # 2
    frequency:   -0.3582989088
  - # 3
    frequency:   -0.3128627411
  - # 4
    frequency:    0.4030509678
  - # 5
    frequency:    1.1737192942
  - # 6
    frequency:    2.1999742341
  - # 7
    frequency:    2.5811749254
  - # 8
    frequency:    3.8271003923
  - # 9
    frequency:    5.4555376174
  - # 10
    frequency:    5.5141525982
  - # 11
    frequency:    7.4787079651
  - # 12
    frequency:    9.4311253114
  - # 13
    frequency:    9.7884079162
  - # 14
    frequency:   11.5211258293
  - # 15
    frequency:   12.1651469791
  - # 16
    frequency:   12.5313343247
  - # 17
    frequency:   14.7167289409
  - # 18
    frequency:   17.7937857459
  - # 19
    frequency:   17.8455685079
  - # 20
    frequency:   38.6345675922
  - # 21
    frequency:   68.4189652903

- q-position: [    0.0858586,    0.0000000,    0.0000000 ]
  distance:    0.0275542
  band:
  - # 1
    frequency:   -0.9437097117
  - # 2
    frequency:   -0.3161796457
  - # 3
    frequency:   -0.3024272161
  - # 4
    frequency:    0.4468581952
  - # 5
    frequency:    1.2428080111
  - # 6
    frequency:    2.2107972061
  - # 7
    frequency:    2.6331107135
  - # 8
    frequency:    3.8131295250
  - # 9
    frequency:    5.4622238619
  - # 10
    frequency:    5.5267941571
  - # 11
    frequency:    7.4566585791
  - # 12
    frequency:    9.4266062567
  - # 13
    frequency:    9.8166370359
  - # 14
    frequency:   11.4875239422
  - # 15
    frequency:   12.1571423715
  - # 16
    frequency:   12.5494875373
  - # 17
    frequency:   14.7138301731
  - # 18
    frequency:   17.7944322445
  - # 19
    frequency:   17.8524564978
  - # 20
    frequency:   38.6337578767
  - # 21
    frequency:   68.3871658592

- q-position: [    0.0909091,    0.0000000,    0.0000000 ]
  distance:    0.0291750
  band:
  - # 1
    frequency:   -0.9793147748
  - # 2
    frequency:   -0.2889274139
  - # 3
    frequency:   -0.2650866013
  - # 4
    frequency:    0.4910938295
  - # 5
    frequency:    1.3111866814
  - # 6
    frequency:    2.2225650294
  - # 7
    frequency:    2.6870308081
  - # 8
    frequency:    3.7994289623
  - # 9
    frequency:    5.4692013123
  - # 10
    frequency:    5.5397762003
  - # 11
    frequency:    7.4337756193
  - # 12
    frequency:    9.4220704774
  - # 13
    frequency:    9.8437730427
  - # 14
    frequency:   11.4551924260
  - # 15
    frequency:   12.1487644739
  - # 16
    frequency:   12.5672383637
  - # 17
    frequency:   14.7110908635
  - # 18
    frequency:   17.7951156052
  - # 19
    frequency:   17.8596563510
  - # 20
    frequency:   38.6329102321
  - # 21
    frequency:   68.3538484094

- q-position: [    0.0959596,    0.0000000,    0.0000000 ]
  distance:    0.0307958
  band:
  - # 1
    frequency:   -1.0145616205
  - # 2
    frequency:   -0.2722043060
  - # 3
    frequency:   -0.1975547189
  - # 4
    frequency:    0.5354742704
  - # 5
    frequency:    1.3788253897
  - # 6
    frequency:    2.2352833398
  - # 7
    frequency:    2.7428080072
  - # 8
    frequency:    3.7861458706
  - # 9
    frequency:    5.4764527088
  - # 10
    frequency:    5.5530471650
  - # 11
    frequency:    7.4101332586
  - # 12
    frequency:    9.4175582808
  - # 13
    frequency:    9.8694080121
  - # 14
    frequency:   11.4243869147
  - # 15
    frequency:   12.1400312272
  - # 16
    frequency:   12.5846283308
  - # 17
    frequency:   14.7085682712
  - # 18
    frequency:   17.7958353809
  - # 19
    frequency:   17.8671511218
  - # 20
    frequency:   38.6320265025
  - # 21
    frequency:   68.3190803752

- q-position: [    0.1010101,    0.0000000,    0.0000000 ]
  distance:    0.0324167
  band:
  - # 1
    frequency:   -1.0491284573
  - # 2
    frequency:   -0.2518815529
  - # 3
    frequency:   -0.0773554683
  - # 4
    frequency:    0.5797793609
  - # 5
    frequency:    1.4456965967
  - # 6
    frequency:    2.2489514800
  - # 7
    frequency:    2.8003148233
  - # 8
    frequency:    3.7734286282
  - # 9
    frequency:    5.4839605048
  - # 10
    frequency:    5.5665558876
  - # 11
    frequency:    7.3858083744
  - # 12
    frequency:    9.4131109418
  - # 13
    frequency:    9.8931411633
  - # 14
    frequency:   11.3953607347
  - # 15
    frequency:   12.1309611217
  - # 16
    frequency:   12.6017004546
  - # 17
    frequency:   14.7063215555
  - # 18
    frequency:   17.7965910899
  - # 19
    frequency:   17.8749233491
  - # 20
    frequency:   38.6311086030
  - # 21
    frequency:   68.2829317227

- q-position: [    0.1060606,    0.0000000,    0.0000000 ]
  distance:    0.0340375
  band:
  - # 1
    frequency:   -1.0827280262
  - # 2
    frequency:   -0.2272346076
  - # 3
    frequency:    0.1705815250
  - # 4
    frequency:    0.6238477050
  - # 5
    frequency:    1.5117750446
  - # 6
    frequency:    2.2635628665
  - # 7
    frequency:    2.8594221400
  - # 8
    frequency:    3.7614274624
  - # 9
    frequency:    5.4917069458
  - # 10
    frequency:    5.5802515186
  - # 11
    frequency:    7.3608806743
  - # 12
    frequency:    9.4087705217
  - # 13
    frequency:    9.9145886863
  - # 14
    frequency:   11.3683572377
  - # 15
    frequency:   12.1215731304
  - # 16
    frequency:   12.6184979154
  - # 17
    frequency:   14.7044112533
  - # 18
    frequency:   17.7973822154
  - # 19
    frequency:   17.8829551200
  - # 20
    frequency:   38.6301585144
  - # 21
    frequency:   68.2454747469

- q-position: [    0.1111111,    0.0000000,    0.0000000 ]
  distance:    0.0356584
  band:
  - # 1
    frequency:   -1.1151006688
  - # 2
    frequency:   -0.1968684930
  - # 3
    frequency:    0.2577265817
  - # 4
    frequency:    0.6675662084
  - # 5
    frequency:    1.5770374547
  - # 6
    frequency:    2.2791054548
  - # 7
    frequency:    2.9199976381
  - # 8
    frequency:    3.7502954906
  - # 9
    frequency:    5.4996741460
  - # 10
    frequency:    5.5940834161
  - # 11
    frequency:    7.3354328067
  - # 12
    frequency:    9.4045796869
  - # 13
    frequency:    9.9333956581
  - # 14
    frequency:   11.3435998740
  - # 15
    frequency:   12.1118866423
  - # 16
    frequency:   12.6350628757
  - # 17
    frequency:   14.7028986684
  - # 18
    frequency:   17.7982082044
  - # 19
    frequency:   17.8912281348
  - # 20
    frequency:   38.6291782778
  - # 21
    frequency:   68.2067838621

- q-position: [    0.1161616,    0.0000000,    0.0000000 ]
  distance:    0.0372792
  band:
  - # 1
    frequency:   -1.1460086242
  - # 2
    frequency:   -0.1577341672
  - # 3
    frequency:    0.3258216466
  - # 4
    frequency:    0.7108580172
  - # 5
    frequency:    1.6414620137
  - # 6
    frequency:    2.2955622672
  - # 7
    frequency:    2.9819038216
  - # 8
    frequency:    3.7401903405
  - # 9
    frequency:    5.5078441609
  - # 10
    frequency:    5.6080010289
  - # 11
    frequency:    7.3095504472
  - # 12
    frequency:    9.4005815280
  - # 13
    frequency:    9.9492496612
  - # 14
    frequency:   11.3212804229
  - # 15
    frequency:   12.1019213943
  - # 16
    frequency:   12.6514354213
  - # 17
    frequency:   14.7018451697
  - # 18
    frequency:   17.7990684670
  - # 19
    frequency:   17.8997237722
  - # 20
    frequency:   38.6281699886
  - # 21
    frequency:   68.1669353866

- q-position: [    0.1212121,    0.0000000,    0.0000000 ]
  distance:    0.0389000
  band:
  - # 1
    frequency:   -1.1752314570
  - # 2
    frequency:   -0.1003017249
  - # 3
    frequency:    0.3852813863
  - # 4
    frequency:    0.7536714076
  - # 5
    frequency:    1.7050276585
  - # 6
    frequency:    2.3129119547
  - # 7
    frequency:    3.0449953110
  - # 8
    frequency:    3.7312766680
  - # 9
    frequency:    5.5161990576
  - # 10
    frequency:    5.6219537777
  - # 11
    frequency:    7.2833223539
  - # 12
    frequency:    9.3968193806
  - # 13
    frequency:    9.9618952057
  - # 14
    frequency:   11.3015462933
  - # 15
    frequency:   12.0916974040
  - # 16
    frequency:   12.6676526236
  - # 17
    frequency:   14.7013114016
  - # 18
    frequency:   17.7999623762
  - # 19
    frequency:   17.9084231536
  - # 20
    frequency:   38.6271357906
  - # 21
    frequency:   68.1260073224

- q-position: [    0.1262626,    0.0000000,    0.0000000 ]
  distance:    0.0405209
  band:
  - # 1
    frequency:   -1.2025624142
  - # 2
    frequency:    0.0752178043
  - # 3
    frequency:    0.4397396020
  - # 4
    frequency:    0.7959707292
  - # 5
    frequency:    1.7677131762
  - # 6
    frequency:    2.3311293660
  - # 7
    frequency:    3.1091147715
  - # 8
    frequency:    3.7237301796
  - # 9
    frequency:    5.5247209813
  - # 10
    frequency:    5.6358909448
  - # 11
    frequency:    7.2568403870
  - # 12
    frequency:    9.3933366482
  - # 13
    frequency:    9.9711475150
  - # 14
    frequency:   11.2844883300
  - # 15
    frequency:   12.0812349018
  - # 16
    frequency:   12.6837477288
  - # 17
    frequency:   14.7013564124
  - # 18
    frequency:   17.8008892672
  - # 19
    frequency:   17.9173072081
  - # 20
    frequency:   38.6260778695
  - # 21
    frequency:   68.0840791306

- q-position: [    0.1313131,    0.0000000,    0.0000000 ]
  distance:    0.0421417
  band:
  - # 1
    frequency:   -1.2278055011
  - # 2
    frequency:    0.1491342799
  - # 3
    frequency:    0.4909408852
  - # 4
    frequency:    0.8377295982
  - # 5
    frequency:    1.8294961520
  - # 6
    frequency:    2.3501861057
  - # 7
    frequency:    3.1740862566
  - # 8
    frequency:    3.7177443430
  - # 9
    frequency:    5.5333922176
  - # 10
    frequency:    5.6497615789
  - # 11
    frequency:    7.2301994870
  - # 12
    frequency:    9.3901766288
  - # 13
    frequency:    9.9769038486
  - # 14
    frequency:   11.2701309360
  - # 15
    frequency:   12.0705542638
  - # 16
    frequency:   12.6997494921
  - # 17
    frequency:   14.7020367102
  - # 18
    frequency:   17.8018484369
  - # 19
    frequency:   17.9263567358
  - # 20
    frequency:   38.6249984473
  - # 21
    frequency:   68.0412315031

- q-position: [    0.1363636,    0.0000000,    0.0000000 ]
  distance:    0.0437625
  band:
  - # 1
    frequency:   -1.2507730914
  - # 2
    frequency:    0.1991621742
  - # 3
    frequency:    0.5398638683
  - # 4
    frequency:    0.8789261135
  - # 5
    frequency:    1.8903518081
  - # 6
    frequency:    2.3700510643
  - # 7
    frequency:    3.2397035115
  - # 8
    frequency:    3.7135421884
  - # 9
    frequency:    5.5421952522
  - # 10
    frequency:    5.6635144264
  - # 11
    frequency:    7.2034976033
  - # 12
    frequency:    9.3873823442
  - # 13
    frequency:    9.9791505043
  - # 14
    frequency:   11.2584263442
  - # 15
    frequency:   12.0596759449
  - # 16
    frequency:   12.7156816731
  - # 17
    frequency:   14.7034052623
  - # 18
    frequency:   17.8028391442
  - # 19
    frequency:   17.9355524706
  - # 20
    frequency:   38.6238997750
  - # 21
    frequency:   67.9975461317

- q-position: [    0.1414141,    0.0000000,    0.0000000 ]
  distance:    0.0453834
  band:
  - # 1
    frequency:   -1.2712839212
  - # 2
    frequency:    0.2406575881
  - # 3
    frequency:    0.5871125622
  - # 4
    frequency:    0.9195397250
  - # 5
    frequency:    1.9502517935
  - # 6
    frequency:    2.3906909113
  - # 7
    frequency:    3.3057080246
  - # 8
    frequency:    3.7113983551
  - # 9
    frequency:    5.5511128264
  - # 10
    frequency:    5.6770978985
  - # 11
    frequency:    7.1768355689
  - # 12
    frequency:    9.3849963742
  - # 13
    frequency:    9.9779640921
  - # 14
    frequency:   11.2492544136
  - # 15
    frequency:   12.0486204129
  - # 16
    frequency:   12.7315627127
  - # 17
    frequency:   14.7055104582
  - # 18
    frequency:   17.8038606096
  - # 19
    frequency:   17.9448751419
  - # 20
    frequency:   38.6227841264
  - # 21
    frequency:   67.9531054746

- q-position: [    0.1464646,    0.0000000,    0.0000000 ]
  distance:    0.0470042
  band:
  - # 1
    frequency:   -1.2891613454
  - # 2
    frequency:    0.2774628378
  - # 3
    frequency:    0.6330857632
  - # 4
    frequency:    0.9595493929
  - # 5
    frequency:    2.0091629957
  - # 6
    frequency:    2.4120705449
  - # 7
    frequency:    3.3717450806
  - # 8
    frequency:    3.7116830609
  - # 9
    frequency:    5.5601279887
  - # 10
    frequency:    5.6904600873
  - # 11
    frequency:    7.1503169088
  - # 12
    frequency:    9.3830606943
  - # 13
    frequency:    9.9735065668
  - # 14
    frequency:   11.2424284301
  - # 15
    frequency:   12.0374080834
  - # 16
    frequency:   12.7474056058
  - # 17
    frequency:   14.7083950606
  - # 18
    frequency:   17.8049120151
  - # 19
    frequency:   17.9543055339
  - # 20
    frequency:   38.6216537914
  - # 21
    frequency:   67.9079925231

- q-position: [    0.1515152,    0.0000000,    0.0000000 ]
  distance:    0.0486250
  band:
  - # 1
    frequency:   -1.3042317643
  - # 2
    frequency:    0.3112486065
  - # 3
    frequency:    0.6780611103
  - # 4
    frequency:    0.9989327230
  - # 5
    frequency:    2.0670464641
  - # 6
    frequency:    2.4341534940
  - # 7
    frequency:    3.4372698685
  - # 8
    frequency:    3.7149558613
  - # 9
    frequency:    5.5692241428
  - # 10
    frequency:    5.7035488442
  - # 11
    frequency:    7.1240475737
  - # 12
    frequency:    9.3816165185
  - # 13
    frequency:    9.9660146028
  - # 14
    frequency:   11.2377062961
  - # 15
    frequency:   12.0260592557
  - # 16
    frequency:   12.7632179776
  - # 17
    frequency:   14.7120951762
  - # 18
    frequency:   17.8059925049
  - # 19
    frequency:   17.9638245446
  - # 20
    frequency:   38.6205110689
  - # 21
    frequency:   67.8622905657
