nqpoint: 300    
npath: 3      
segment_nqpoint:
- 100
- 100
- 100
labels:
- [ 'G', 'M' ]
- [ 'M', 'K' ]
- [ 'K', 'G' ]
reciprocal_lattice:
- [   0.29755568,   0.17179385,   0.00000000 ] # a*
- [   0.00000000,   0.34358770,   0.00000000 ] # b*
- [   0.00000000,   0.00000000,   0.03978613 ] # c*
natom: 6      
lattice:
- [     3.360715540222043,     0.000000000000000,     0.000000000000000 ] # a
- [    -1.680357770111021,     2.910465032719570,     0.000000000000000 ] # b
- [     0.000000000000000,     0.000000000000000,    25.134384318444823 ] # c
points:
- symbol: F # 1
  coordinates: [  0.666666984744047,  0.333332985985145,  0.358075212265906 ]
  mass: 18.998403
- symbol: N # 2
  coordinates: [  0.000000000000000,  0.000000000000000,  0.452952173251056 ]
  mass: 14.006700
- symbol: O # 3
  coordinates: [  0.333332985432215,  0.666666983183674,  0.641924787734093 ]
  mass: 15.999400
- symbol: P # 4
  coordinates: [  0.333332985432215,  0.666666983183674,  0.582463543019265 ]
  mass: 30.973762
- symbol: Zr # 5
  coordinates: [  0.333332985432215,  0.666666983183674,  0.409876385563797 ]
  mass: 91.224000
- symbol: Zr # 6
  coordinates: [  0.666666984744047,  0.333332985985145,  0.504772280924347 ]
  mass: 91.224000

phonon:
- q-position: [    0.0000000,    0.0000000,    0.0000000 ]
  distance:    0.0000000
  band:
  - # 1
    frequency:   -1.5802021185
  - # 2
    frequency:   -1.5802021185
  - # 3
    frequency:   -0.0000133447
  - # 4
    frequency:   -0.0000003192
  - # 5
    frequency:    0.0000107338
  - # 6
    frequency:    3.9361454704
  - # 7
    frequency:    3.9361454704
  - # 8
    frequency:    4.4865531494
  - # 9
    frequency:    4.4865531494
  - # 10
    frequency:    5.4289856126
  - # 11
    frequency:    6.0434987694
  - # 12
    frequency:    6.0434987694
  - # 13
    frequency:    8.8000623276
  - # 14
    frequency:   11.4200851153
  - # 15
    frequency:   12.7986228145
  - # 16
    frequency:   15.6613479169
  - # 17
    frequency:   15.6613479169
  - # 18
    frequency:   33.9693699353

- q-position: [    0.0050505,    0.0000000,    0.0000000 ]
  distance:    0.0017353
  band:
  - # 1
    frequency:   -1.5795277444
  - # 2
    frequency:   -1.5790024411
  - # 3
    frequency:    0.0011388414
  - # 4
    frequency:    0.0524941623
  - # 5
    frequency:    0.1139320552
  - # 6
    frequency:    3.9359421918
  - # 7
    frequency:    3.9366754984
  - # 8
    frequency:    4.4860306323
  - # 9
    frequency:    4.4866935175
  - # 10
    frequency:    5.4296408245
  - # 11
    frequency:    6.0434118600
  - # 12
    frequency:    6.0437532114
  - # 13
    frequency:    8.7997969569
  - # 14
    frequency:   11.4198096708
  - # 15
    frequency:   12.7981726948
  - # 16
    frequency:   15.6611821760
  - # 17
    frequency:   15.6615222080
  - # 18
    frequency:   33.9692071893

- q-position: [    0.0101010,    0.0000000,    0.0000000 ]
  distance:    0.0034706
  band:
  - # 1
    frequency:   -1.5775118752
  - # 2
    frequency:   -1.5754021553
  - # 3
    frequency:    0.0045547937
  - # 4
    frequency:    0.1050262491
  - # 5
    frequency:    0.2278058970
  - # 6
    frequency:    3.9353336284
  - # 7
    frequency:    3.9382627529
  - # 8
    frequency:    4.4844697593
  - # 9
    frequency:    4.4871132515
  - # 10
    frequency:    5.4315993176
  - # 11
    frequency:    6.0431521334
  - # 12
    frequency:    6.0445179479
  - # 13
    frequency:    8.7989988378
  - # 14
    frequency:   11.4189837615
  - # 15
    frequency:   12.7968253940
  - # 16
    frequency:   15.6606857414
  - # 17
    frequency:   15.6620437764
  - # 18
    frequency:   33.9687192115

- q-position: [    0.0151515,    0.0000000,    0.0000000 ]
  distance:    0.0052059
  band:
  - # 1
    frequency:   -1.5741762883
  - # 2
    frequency:   -1.5693967559
  - # 3
    frequency:    0.0102393611
  - # 4
    frequency:    0.1576337732
  - # 5
    frequency:    0.3415602561
  - # 6
    frequency:    3.9343235773
  - # 7
    frequency:    3.9408986959
  - # 8
    frequency:    4.4818904466
  - # 9
    frequency:    4.4878082733
  - # 10
    frequency:    5.4348398775
  - # 11
    frequency:    6.0427225802
  - # 12
    frequency:    6.0457971873
  - # 13
    frequency:    8.7976619914
  - # 14
    frequency:   11.4176086296
  - # 15
    frequency:   12.7945900832
  - # 16
    frequency:   15.6598609739
  - # 17
    frequency:   15.6629087115
  - # 18
    frequency:   33.9679067818

- q-position: [    0.0202020,    0.0000000,    0.0000000 ]
  distance:    0.0069412
  band:
  - # 1
    frequency:   -1.5695573339
  - # 2
    frequency:   -1.5609763803
  - # 3
    frequency:    0.0181796630
  - # 4
    frequency:    0.2103533873
  - # 5
    frequency:    0.4551282809
  - # 6
    frequency:    3.9329182989
  - # 7
    frequency:    3.9445689258
  - # 8
    frequency:    4.4783255154
  - # 9
    frequency:    4.4887718946
  - # 10
    frequency:    5.4393278446
  - # 11
    frequency:    6.0421281390
  - # 12
    frequency:    6.0475978678
  - # 13
    frequency:    8.7957765934
  - # 14
    frequency:   11.4156862470
  - # 15
    frequency:   12.7914820334
  - # 16
    frequency:   15.6587117961
  - # 17
    frequency:   15.6641105062
  - # 18
    frequency:   33.9667711977

- q-position: [    0.0252525,    0.0000000,    0.0000000 ]
  distance:    0.0086765
  band:
  - # 1
    frequency:   -1.5637059957
  - # 2
    frequency:   -1.5501226732
  - # 3
    frequency:    0.0283579618
  - # 4
    frequency:    0.2632203767
  - # 5
    frequency:    0.5684359226
  - # 6
    frequency:    3.9311264191
  - # 7
    frequency:    3.9492529043
  - # 8
    frequency:    4.4738202076
  - # 9
    frequency:    4.4899949743
  - # 10
    frequency:    5.4450161016
  - # 11
    frequency:    6.0413756275
  - # 12
    frequency:    6.0499295436
  - # 13
    frequency:    8.7933291818
  - # 14
    frequency:   11.4132191701
  - # 15
    frequency:   12.7875225933
  - # 16
    frequency:   15.6572436746
  - # 17
    frequency:   15.6656400741
  - # 18
    frequency:   33.9653142715

- q-position: [    0.0303030,    0.0000000,    0.0000000 ]
  distance:    0.0104117
  band:
  - # 1
    frequency:   -1.5566879299
  - # 2
    frequency:   -1.5368050586
  - # 3
    frequency:    0.0407519561
  - # 4
    frequency:    0.3162680643
  - # 5
    frequency:    0.6814014090
  - # 6
    frequency:    3.9289587992
  - # 7
    frequency:    3.9549235354
  - # 8
    frequency:    4.4684316492
  - # 9
    frequency:    4.4914661305
  - # 10
    frequency:    5.4518463502
  - # 11
    frequency:    6.0404736482
  - # 12
    frequency:    6.0528042214
  - # 13
    frequency:    8.7903029428
  - # 14
    frequency:   11.4102103411
  - # 15
    frequency:   12.7827391565
  - # 16
    frequency:   15.6554635946
  - # 17
    frequency:   15.6674857725
  - # 18
    frequency:   33.9635383257

- q-position: [    0.0353535,    0.0000000,    0.0000000 ]
  distance:    0.0121470
  band:
  - # 1
    frequency:   -1.5485834423
  - # 2
    frequency:   -1.5209768249
  - # 3
    frequency:    0.0553351541
  - # 4
    frequency:    0.3695271135
  - # 5
    frequency:    0.7939357484
  - # 6
    frequency:    3.9264283797
  - # 7
    frequency:    3.9615465597
  - # 8
    frequency:    4.4622283862
  - # 9
    frequency:    4.4931719989
  - # 10
    frequency:    5.4597505908
  - # 11
    frequency:    6.0394324681
  - # 12
    frequency:    6.0562361479
  - # 13
    frequency:    8.7866780683
  - # 14
    frequency:   11.4066628418
  - # 15
    frequency:   12.7771651150
  - # 16
    frequency:   15.6533800278
  - # 17
    frequency:   15.6696334327
  - # 18
    frequency:   33.9614461872

- q-position: [    0.0404040,    0.0000000,    0.0000000 ]
  distance:    0.0138823
  band:
  - # 1
    frequency:   -1.5394873518
  - # 2
    frequency:   -1.5025712924
  - # 3
    frequency:    0.0720773289
  - # 4
    frequency:    0.4230247276
  - # 5
    frequency:    0.9059440274
  - # 6
    frequency:    3.9235500057
  - # 7
    frequency:    3.9690797037
  - # 8
    frequency:    4.4552901353
  - # 9
    frequency:    4.4950975278
  - # 10
    frequency:    5.4686527194
  - # 11
    frequency:    6.0382638749
  - # 12
    frequency:    6.0602415424
  - # 13
    frequency:    8.7824321791
  - # 14
    frequency:   11.4025796063
  - # 15
    frequency:   12.7708397981
  - # 16
    frequency:   15.6510028936
  - # 17
    frequency:   15.6720663972
  - # 18
    frequency:   33.9590411808

- q-position: [    0.0454545,    0.0000000,    0.0000000 ]
  distance:    0.0156176
  band:
  - # 1
    frequency:   -1.5295086824
  - # 2
    frequency:   -1.4814981375
  - # 3
    frequency:    0.0909450538
  - # 4
    frequency:    0.4767837576
  - # 5
    frequency:    1.0173271863
  - # 6
    frequency:    3.9203402398
  - # 7
    frequency:    3.9774715093
  - # 8
    frequency:    4.4477079044
  - # 9
    frequency:    4.4972262998
  - # 10
    frequency:    5.4784701631
  - # 11
    frequency:    6.0369810116
  - # 12
    frequency:    6.0648382730
  - # 13
    frequency:    8.7775408059
  - # 14
    frequency:   11.3979631007
  - # 15
    frequency:   12.7638083903
  - # 16
    frequency:   15.6483435135
  - # 17
    frequency:   15.6747655645
  - # 18
    frequency:   33.9563271208

- q-position: [    0.0505051,    0.0000000,    0.0000000 ]
  distance:    0.0173529
  band:
  - # 1
    frequency:   -1.5187701290
  - # 2
    frequency:   -1.4576397449
  - # 3
    frequency:    0.1119023270
  - # 4
    frequency:    0.5308217489
  - # 5
    frequency:    1.1279839547
  - # 6
    frequency:    3.9168171705
  - # 7
    frequency:    3.9866597351
  - # 8
    frequency:    4.4395846457
  - # 9
    frequency:    4.4995408715
  - # 10
    frequency:    5.4891154958
  - # 11
    frequency:    6.0355981903
  - # 12
    frequency:    6.0700454701
  - # 13
    frequency:    8.7719779176
  - # 14
    frequency:   11.3928149802
  - # 15
    frequency:   12.7561218267
  - # 16
    frequency:   15.6454145584
  - # 17
    frequency:   15.6777094404
  - # 18
    frequency:   33.9533083019

- q-position: [    0.0555556,    0.0000000,    0.0000000 ]
  distance:    0.0190882
  band:
  - # 1
    frequency:   -1.5074072436
  - # 2
    frequency:   -1.4308472773
  - # 3
    frequency:    0.1349112940
  - # 4
    frequency:    0.5851499761
  - # 5
    frequency:    1.2378126990
  - # 6
    frequency:    3.9130002210
  - # 7
    frequency:    3.9965691945
  - # 8
    frequency:    4.4310366220
  - # 9
    frequency:    4.5020231201
  - # 10
    frequency:    5.5004979907
  - # 11
    frequency:    6.0341306891
  - # 12
    frequency:    6.0758830757
  - # 13
    frequency:    8.7657164876
  - # 14
    frequency:   11.3871357356
  - # 15
    frequency:   12.7478366582
  - # 16
    frequency:   15.6422299908
  - # 17
    frequency:   15.6808741976
  - # 18
    frequency:   33.9499894887

- q-position: [    0.0606061,    0.0000000,    0.0000000 ]
  distance:    0.0208235
  band:
  - # 1
    frequency:   -1.4955673049
  - # 2
    frequency:   -1.4009359994
  - # 3
    frequency:    0.1599330885
  - # 4
    frequency:    0.6397725316
  - # 5
    frequency:    1.3467130216
  - # 6
    frequency:    3.9089099634
  - # 7
    frequency:    4.0071088592
  - # 8
    frequency:    4.4221956751
  - # 9
    frequency:    4.5046545896
  - # 10
    frequency:    5.5125250888
  - # 11
    frequency:    6.0325945342
  - # 12
    frequency:    6.0823713226
  - # 13
    frequency:    8.7587290872
  - # 14
    frequency:   11.3809243429
  - # 15
    frequency:   12.7390148817
  - # 16
    frequency:   15.6388050000
  - # 17
    frequency:   15.6842337437
  - # 18
    frequency:   33.9463759045

- q-position: [    0.0656566,    0.0000000,    0.0000000 ]
  distance:    0.0225588
  band:
  - # 1
    frequency:   -1.4834078544
  - # 2
    frequency:   -1.3676792305
  - # 3
    frequency:    0.1869288293
  - # 4
    frequency:    0.6946855457
  - # 5
    frequency:    1.4545870392
  - # 6
    frequency:    3.9045679419
  - # 7
    frequency:    4.0181680266
  - # 8
    frequency:    4.4132126028
  - # 9
    frequency:    4.5074168278
  - # 10
    frequency:    5.5251037744
  - # 11
    frequency:    6.0310062705
  - # 12
    frequency:    6.0895301453
  - # 13
    frequency:    8.7509884926
  - # 14
    frequency:   11.3741779304
  - # 15
    frequency:   12.7297237271
  - # 16
    frequency:   15.6351559317
  - # 17
    frequency:   15.6877597957
  - # 18
    frequency:   33.9424732183

- q-position: [    0.0707071,    0.0000000,    0.0000000 ]
  distance:    0.0242941
  band:
  - # 1
    frequency:   -1.4710949064
  - # 2
    frequency:   -1.3308000934
  - # 3
    frequency:    0.2158608287
  - # 4
    frequency:    0.7498766202
  - # 5
    frequency:    1.5613403318
  - # 6
    frequency:    3.8999965066
  - # 7
    frequency:    4.0296113599
  - # 8
    frequency:    4.4042618296
  - # 9
    frequency:    4.5102917090
  - # 10
    frequency:    5.5381418621
  - # 11
    frequency:    6.0293827235
  - # 12
    frequency:    6.0973785221
  - # 13
    frequency:    8.7424682956
  - # 14
    frequency:   11.3668914803
  - # 15
    frequency:   12.7200353944
  - # 16
    frequency:   15.6313002128
  - # 17
    frequency:   15.6914219650
  - # 18
    frequency:   33.9382875315

- q-position: [    0.0757576,    0.0000000,    0.0000000 ]
  distance:    0.0260294
  band:
  - # 1
    frequency:   -1.4588008702
  - # 2
    frequency:   -1.2899598854
  - # 3
    frequency:    0.2466941115
  - # 4
    frequency:    0.8053245520
  - # 5
    frequency:    1.6668825943
  - # 6
    frequency:    3.8952186596
  - # 7
    frequency:    4.0412726951
  - # 8
    frequency:    4.3955474570
  - # 9
    frequency:    4.5132617350
  - # 10
    frequency:    5.5515492013
  - # 11
    frequency:    6.0277407574
  - # 12
    frequency:    6.1059337573
  - # 13
    frequency:    8.7331435039
  - # 14
    frequency:   11.3590575828
  - # 15
    frequency:   12.7100267308
  - # 16
    frequency:   15.6272562702
  - # 17
    frequency:   15.6951878498
  - # 18
    frequency:   33.9338253635

- q-position: [    0.0808081,    0.0000000,    0.0000000 ]
  distance:    0.0277647
  band:
  - # 1
    frequency:   -1.4467022512
  - # 2
    frequency:   -1.2447413074
  - # 3
    frequency:    0.2793984003
  - # 4
    frequency:    0.8609994048
  - # 5
    frequency:    1.7711280415
  - # 6
    frequency:    3.8902579119
  - # 7
    frequency:    4.0529478118
  - # 8
    frequency:    4.3873104808
  - # 9
    frequency:    4.5163103118
  - # 10
    frequency:    5.5652388058
  - # 11
    frequency:    6.0260970320
  - # 12
    frequency:    6.1152107143
  - # 13
    frequency:    8.7229911203
  - # 14
    frequency:   11.3506662578
  - # 15
    frequency:   12.6997788406
  - # 16
    frequency:   15.6230434458
  - # 17
    frequency:   15.6990231370
  - # 18
    frequency:   33.9290936357

- q-position: [    0.0858586,    0.0000000,    0.0000000 ]
  distance:    0.0295000
  band:
  - # 1
    frequency:   -1.4349772165
  - # 2
    frequency:   -1.1946237125
  - # 3
    frequency:    0.3139508293
  - # 4
    frequency:    0.9168629588
  - # 5
    frequency:    1.8739956158
  - # 6
    frequency:    3.8851381515
  - # 7
    frequency:    4.0643870565
  - # 8
    frequency:    4.3798362630
  - # 9
    frequency:    4.5194219983
  - # 10
    frequency:    5.5791279091
  - # 11
    frequency:    6.0244677637
  - # 12
    frequency:    6.1252210214
  - # 13
    frequency:    8.7119906881
  - # 14
    frequency:   11.3417048652
  - # 15
    frequency:   12.6893766185
  - # 16
    frequency:   15.6186819068
  - # 17
    frequency:   15.7028917137
  - # 18
    frequency:   33.9240996551

- q-position: [    0.0909091,    0.0000000,    0.0000000 ]
  distance:    0.0312352
  band:
  - # 1
    frequency:   -1.4238031250
  - # 2
    frequency:   -1.1389455285
  - # 3
    frequency:    0.3503398265
  - # 4
    frequency:    0.9728695343
  - # 5
    frequency:    1.9754090418
  - # 6
    frequency:    3.8798835210
  - # 7
    frequency:    4.0752900881
  - # 8
    frequency:    4.3734599742
  - # 9
    frequency:    4.5225827228
  - # 10
    frequency:    5.5931389408
  - # 11
    frequency:    6.0228684927
  - # 12
    frequency:    6.1359722761
  - # 13
    frequency:    8.7001247923
  - # 14
    frequency:   11.3321581169
  - # 15
    frequency:   12.6789081998
  - # 16
    frequency:   15.6141925517
  - # 17
    frequency:   15.7067557874
  - # 18
    frequency:   33.9188510978

- q-position: [    0.0959596,    0.0000000,    0.0000000 ]
  distance:    0.0329705
  band:
  - # 1
    frequency:   -1.4133541182
  - # 2
    frequency:   -1.0768450535
  - # 3
    frequency:    0.3885709251
  - # 4
    frequency:    1.0289671471
  - # 5
    frequency:    2.0752967592
  - # 6
    frequency:    3.8745183016
  - # 7
    frequency:    4.0853072244
  - # 8
    frequency:    4.3685655137
  - # 9
    frequency:    4.5257799672
  - # 10
    frequency:    5.6072004071
  - # 11
    frequency:    6.0213138630
  - # 12
    frequency:    6.1474672823
  - # 13
    frequency:    8.6873795075
  - # 14
    frequency:   11.3220082046
  - # 15
    frequency:   12.6684643207
  - # 16
    frequency:   15.6095969141
  - # 17
    frequency:   15.7105760171
  - # 18
    frequency:   33.9133559897

- q-position: [    0.1010101,    0.0000000,    0.0000000 ]
  distance:    0.0347058
  band:
  - # 1
    frequency:   -1.4037988572
  - # 2
    frequency:   -1.0071624873
  - # 3
    frequency:    0.4286758566
  - # 4
    frequency:    1.0850989225
  - # 5
    frequency:    2.1735917501
  - # 6
    frequency:    3.8690668040
  - # 7
    frequency:    4.0940543357
  - # 8
    frequency:    4.3655709565
  - # 9
    frequency:    4.5290029166
  - # 10
    frequency:    5.6212476558
  - # 11
    frequency:    6.0198174171
  - # 12
    frequency:    6.1597033589
  - # 13
    frequency:    8.6737447831
  - # 14
    frequency:   11.3112350559
  - # 15
    frequency:   12.6581375864
  - # 16
    frequency:   15.6049170624
  - # 17
    frequency:   15.7143116531
  - # 18
    frequency:   33.9076226890

- q-position: [    0.1060606,    0.0000000,    0.0000000 ]
  distance:    0.0364411
  band:
  - # 1
    frequency:   -1.3952984678
  - # 2
    frequency:   -0.9282668437
  - # 3
    frequency:    0.4707274031
  - # 4
    frequency:    1.1412046716
  - # 5
    frequency:    2.2702312655
  - # 6
    frequency:    3.8635532628
  - # 7
    frequency:    4.1011485871
  - # 8
    frequency:    4.3648932294
  - # 9
    frequency:    4.5322425734
  - # 10
    frequency:    5.6352234963
  - # 11
    frequency:    6.0183914092
  - # 12
    frequency:    6.1726717607
  - # 13
    frequency:    8.6592147603
  - # 14
    frequency:   11.2998167203
  - # 15
    frequency:   12.6480216466
  - # 16
    frequency:   15.6001754979
  - # 17
    frequency:   15.7179206874
  - # 18
    frequency:   33.9016598657

- q-position: [    0.1111111,    0.0000000,    0.0000000 ]
  distance:    0.0381764
  band:
  - # 1
    frequency:   -1.3880047303
  - # 2
    frequency:   -0.8377214545
  - # 3
    frequency:    0.5148646956
  - # 4
    frequency:    1.1972225243
  - # 5
    frequency:    2.3651564405
  - # 6
    frequency:    3.8580017340
  - # 7
    frequency:    4.1062662763
  - # 8
    frequency:    4.3668907786
  - # 9
    frequency:    4.5354918359
  - # 10
    frequency:    5.6490786484
  - # 11
    frequency:    6.0170466418
  - # 12
    frequency:    6.1863572483
  - # 13
    frequency:    8.6437880143
  - # 14
    frequency:   11.2877298881
  - # 15
    frequency:   12.6382102857
  - # 16
    frequency:   15.5953950505
  - # 17
    frequency:   15.7213600135
  - # 18
    frequency:   33.8954764821

- q-position: [    0.1161616,    0.0000000,    0.0000000 ]
  distance:    0.0399117
  band:
  - # 1
    frequency:   -1.3820585264
  - # 2
    frequency:   -0.7315489284
  - # 3
    frequency:    0.5613380222
  - # 4
    frequency:    1.2530905190
  - # 5
    frequency:    2.4583117752
  - # 6
    frequency:    3.8524359949
  - # 7
    frequency:    4.1092095832
  - # 8
    frequency:    4.3717974390
  - # 9
    frequency:    4.5387455412
  - # 10
    frequency:    5.6627719969
  - # 11
    frequency:    6.0157923263
  - # 12
    frequency:    6.2007378383
  - # 13
    frequency:    8.6274677212
  - # 14
    frequency:   11.2749505330
  - # 15
    frequency:   12.6287964353
  - # 16
    frequency:   15.5905987736
  - # 17
    frequency:   15.7245855961
  - # 18
    frequency:   33.8890817723

- q-position: [    0.1212121,    0.0000000,    0.0000000 ]
  distance:    0.0416470
  band:
  - # 1
    frequency:   -1.3775885384
  - # 2
    frequency:   -0.6022606160
  - # 3
    frequency:    0.6105906726
  - # 4
    frequency:    1.3087480599
  - # 5
    frequency:    2.5496444430
  - # 6
    frequency:    3.8468794462
  - # 7
    frequency:    4.1099546275
  - # 8
    frequency:    4.3796751442
  - # 9
    frequency:    4.5420004731
  - # 10
    frequency:    5.6762706364
  - # 11
    frequency:    6.0146359713
  - # 12
    frequency:    6.2157847538
  - # 13
    frequency:    8.6102617459
  - # 14
    frequency:   11.2614546636
  - # 15
    frequency:   12.6198711282
  - # 16
    frequency:   15.5858098379
  - # 17
    frequency:   15.7275526500
  - # 18
    frequency:   33.8824852205

- q-position: [    0.1262626,    0.0000000,    0.0000000 ]
  distance:    0.0433823
  band:
  - # 1
    frequency:   -1.3747101823
  - # 2
    frequency:   -0.4312986864
  - # 3
    frequency:    0.6634091409
  - # 4
    frequency:    1.3641371804
  - # 5
    frequency:    2.6391033715
  - # 6
    frequency:    3.8413550156
  - # 7
    frequency:    4.1086559541
  - # 8
    frequency:    4.3904104127
  - # 9
    frequency:    4.5452553358
  - # 10
    frequency:    5.6895497055
  - # 11
    frequency:    6.0135833001
  - # 12
    frequency:    6.2314625807
  - # 13
    frequency:    8.5921826537
  - # 14
    frequency:   11.2472191622
  - # 15
    frequency:   12.6115224155
  - # 16
    frequency:   15.5810514250
  - # 17
    frequency:   15.7302158281
  - # 18
    frequency:   33.8756965401

- q-position: [    0.1313131,    0.0000000,    0.0000000 ]
  distance:    0.0451176
  band:
  - # 1
    frequency:   -1.3735247604
  - # 2
    frequency:   -0.0890965893
  - # 3
    frequency:    0.7211781788
  - # 4
    frequency:    1.4192035722
  - # 5
    frequency:    2.7266380152
  - # 6
    frequency:    3.8358850652
  - # 7
    frequency:    4.1056066826
  - # 8
    frequency:    4.4037554525
  - # 9
    frequency:    4.5485106954
  - # 10
    frequency:    5.7025920199
  - # 11
    frequency:    6.0126381974
  - # 12
    frequency:    6.2477296201
  - # 13
    frequency:    8.5732476479
  - # 14
    frequency:   11.2322226798
  - # 15
    frequency:   12.6038342749
  - # 16
    frequency:   15.5763466219
  - # 17
    frequency:   15.7325294180
  - # 18
    frequency:   33.8687256516

- q-position: [    0.1363636,    0.0000000,    0.0000000 ]
  distance:    0.0468529
  band:
  - # 1
    frequency:   -1.3741188178
  - # 2
    frequency:    0.4079995268
  - # 3
    frequency:    0.7861666894
  - # 4
    frequency:    1.4738973662
  - # 5
    frequency:    2.8121967135
  - # 6
    frequency:    3.8304913033
  - # 7
    frequency:    4.1011779814
  - # 8
    frequency:    4.4193903304
  - # 9
    frequency:    4.5517688907
  - # 10
    frequency:    5.7153875304
  - # 11
    frequency:    6.0118026874
  - # 12
    frequency:    6.2645384150
  - # 13
    frequency:    8.5534784374
  - # 14
    frequency:   11.2164465542
  - # 15
    frequency:   12.5968855445
  - # 16
    frequency:   15.5717183153
  - # 17
    frequency:   15.7344475465
  - # 18
    frequency:   33.8615826605

- q-position: [    0.1414141,    0.0000000,    0.0000000 ]
  distance:    0.0485882
  band:
  - # 1
    frequency:   -1.3765636988
  - # 2
    frequency:    0.5742091611
  - # 3
    frequency:    0.8611877284
  - # 4
    frequency:    1.5281736691
  - # 5
    frequency:    2.8957244780
  - # 6
    frequency:    3.8251947009
  - # 7
    frequency:    4.0957651345
  - # 8
    frequency:    4.4369790941
  - # 9
    frequency:    4.5550339167
  - # 10
    frequency:    5.7279326384
  - # 11
    frequency:    6.0110769405
  - # 12
    frequency:    6.2818364170
  - # 13
    frequency:    8.5329010410
  - # 14
    frequency:   11.1998757092
  - # 15
    frequency:   12.5907489152
  - # 16
    frequency:   15.5671890887
  - # 17
    frequency:   15.7359243913
  - # 18
    frequency:   33.8542778350

- q-position: [    0.1464646,    0.0000000,    0.0000000 ]
  distance:    0.0503235
  band:
  - # 1
    frequency:   -1.3809153057
  - # 2
    frequency:    0.6895101824
  - # 3
    frequency:    0.9473088119
  - # 4
    frequency:    1.5819928770
  - # 5
    frequency:    2.9771599990
  - # 6
    frequency:    3.8200154169
  - # 7
    frequency:    4.0897540999
  - # 8
    frequency:    4.4562061600
  - # 9
    frequency:    4.5583112821
  - # 10
    frequency:    5.7402294116
  - # 11
    frequency:    6.0104593096
  - # 12
    frequency:    6.2995667522
  - # 13
    frequency:    8.5115455343
  - # 14
    frequency:   11.1824994969
  - # 15
    frequency:   12.5854900203
  - # 16
    frequency:   15.5627811211
  - # 17
    frequency:   15.7369143995
  - # 18
    frequency:   33.8468215833

- q-position: [    0.1515152,    0.0000000,    0.0000000 ]
  distance:    0.0520587
  band:
  - # 1
    frequency:   -1.3872140684
  - # 2
    frequency:    0.7773890862
  - # 3
    frequency:    1.0414709969
  - # 4
    frequency:    1.6353207931
  - # 5
    frequency:    3.0564315702
  - # 6
    frequency:    3.8149727315
  - # 7
    frequency:    4.0835086342
  - # 8
    frequency:    4.4767931926
  - # 9
    frequency:    4.5616078466
  - # 10
    frequency:    5.7522847412
  - # 11
    frequency:    6.0099463932
  - # 12
    frequency:    6.3176690443
  - # 13
    frequency:    8.4894457487
  - # 14
    frequency:   11.1643124419
  - # 15
    frequency:   12.5811666539
  - # 16
    frequency:   15.5585160876
  - # 17
    frequency:   15.7373725114
  - # 18
    frequency:   33.8392244315

- q-position: [    0.1565657,    0.0000000,    0.0000000 ]
  distance:    0.0537940
  band:
  - # 1
    frequency:   -1.3954851321
  - # 2
    frequency:    0.8504157409
  - # 3
    frequency:    1.1387459797
  - # 4
    frequency:    1.6881285838
  - # 5
    frequency:    3.1334515174
  - # 6
    frequency:    3.8100849903
  - # 7
    frequency:    4.0773720371
  - # 8
    frequency:    4.4985028406
  - # 9
    frequency:    4.5649316395
  - # 10
    frequency:    5.7641094814
  - # 11
    frequency:    6.0095331237
  - # 12
    frequency:    6.3360802545
  - # 13
    frequency:    8.4666389288
  - # 14
    frequency:   11.1453148556
  - # 15
    frequency:   12.5778281480
  - # 16
    frequency:   15.5544150644
  - # 17
    frequency:   15.7372543888
  - # 18
    frequency:   33.8314970007

- q-position: [    0.1616162,    0.0000000,    0.0000000 ]
  distance:    0.0555293
  band:
  - # 1
    frequency:   -1.4057387704
  - # 2
    frequency:    0.9158272166
  - # 3
    frequency:    1.2356986362
  - # 4
    frequency:    1.7403926056
  - # 5
    frequency:    3.2081085641
  - # 6
    frequency:    3.8053695611
  - # 7
    frequency:    4.0716776986
  - # 8
    frequency:    4.5211357146
  - # 9
    frequency:    4.5682916651
  - # 10
    frequency:    5.7757176078
  - # 11
    frequency:    6.0092128773
  - # 12
    frequency:    6.3547355034
  - # 13
    frequency:    8.4431653595
  - # 14
    frequency:   11.1255132907
  - # 15
    frequency:   12.5755149284
  - # 16
    frequency:   15.5504984360
  - # 17
    frequency:   15.7365166473
  - # 18
    frequency:   33.8236499844

- q-position: [    0.1666667,    0.0000000,    0.0000000 ]
  distance:    0.0572646
  band:
  - # 1
    frequency:   -1.4179710174
  - # 2
    frequency:    0.9773801318
  - # 3
    frequency:    1.3307559161
  - # 4
    frequency:    1.7920941339
  - # 5
    frequency:    3.2802574013
  - # 6
    frequency:    3.8008428021
  - # 7
    frequency:    4.0667649244
  - # 8
    frequency:    4.5445248663
  - # 9
    frequency:    4.5716976981
  - # 10
    frequency:    5.7871254207
  - # 11
    frequency:    6.0089776039
  - # 12
    frequency:    6.3735688485
  - # 13
    frequency:    8.4190679689
  - # 14
    frequency:   11.1049208208
  - # 15
    frequency:   12.5742582627
  - # 16
    frequency:   15.5467858078
  - # 17
    frequency:   15.7351170908
  - # 18
    frequency:   33.8156941266

- q-position: [    0.1717172,    0.0000000,    0.0000000 ]
  distance:    0.0589999
  band:
  - # 1
    frequency:   -1.4321645088
  - # 2
    frequency:    1.0369702962
  - # 3
    frequency:    1.4233883810
  - # 4
    frequency:    1.8432190199
  - # 5
    frequency:    3.3497046152
  - # 6
    frequency:    3.7965200450
  - # 7
    frequency:    4.0629986367
  - # 8
    frequency:    4.5685300217
  - # 9
    frequency:    4.5751600745
  - # 10
    frequency:    5.7983508132
  - # 11
    frequency:    6.0088179724
  - # 12
    frequency:    6.3925139980
  - # 13
    frequency:    8.3943919172
  - # 14
    frequency:   11.0835571358
  - # 15
    frequency:   12.5740802008
  - # 16
    frequency:   15.5432959224
  - # 17
    frequency:   15.7330149477
  - # 18
    frequency:   33.8076401994

- q-position: [    0.1767677,    0.0000000,    0.0000000 ]
  distance:    0.0607352
  band:
  - # 1
    frequency:   -1.4482895056
  - # 2
    frequency:    1.0955779650
  - # 3
    frequency:    1.5135188966
  - # 4
    frequency:    1.8937573001
  - # 5
    frequency:    3.4161903054
  - # 6
    frequency:    3.7924155896
  - # 7
    frequency:    4.0607926655
  - # 8
    frequency:    4.5786894806
  - # 9
    frequency:    4.5930325228
  - # 10
    frequency:    5.8094126166
  - # 11
    frequency:    6.0087235295
  - # 12
    frequency:    6.4115049502
  - # 13
    frequency:    8.3691841790
  - # 14