nqpoint: 300    
npath: 3      
segment_nqpoint:
- 100
- 100
- 100
labels:
- [ 'G', 'M' ]
- [ 'M', 'K' ]
- [ 'K', 'G' ]
reciprocal_lattice:
- [   0.30886341,   0.17832237,   0.00000000 ] # a*
- [   0.00000000,   0.35664474,   0.00000000 ] # b*
- [   0.00000000,   0.00000000,   0.04018086 ] # c*
natom: 7      
lattice:
- [     3.237677178845892,     0.000000000000000,     0.000000000000000 ] # a
- [    -1.618838589422946,     2.803910686117840,     0.000000000000000 ] # b
- [     0.000000000000000,     0.000000000000000,    24.887468271750169 ] # c
points:
- symbol: H # 1
  coordinates: [  0.333332985432215,  0.666666983183674,  0.638372216019420 ]
  mass: 1.007940
- symbol: H # 2
  coordinates: [  0.666666984744048,  0.333332985985144,  0.361627783980580 ]
  mass: 1.007940
- symbol: N # 3
  coordinates: [  0.000000000000000,  0.000000000000000,  0.500000035807636 ]
  mass: 14.006700
- symbol: O # 4
  coordinates: [  0.333332985432215,  0.666666983183674,  0.598755186200405 ]
  mass: 15.999400
- symbol: O # 5
  coordinates: [  0.666666984744048,  0.333332985985144,  0.401244813799605 ]
  mass: 15.999400
- symbol: Sc # 6
  coordinates: [  0.333332985432215,  0.666666983183674,  0.450509920172736 ]
  mass: 44.955912
- symbol: Sc # 7
  coordinates: [  0.666666984744048,  0.333332985985144,  0.549490079292821 ]
  mass: 44.955912

phonon:
- q-position: [    0.0000000,    0.0000000,    0.0000000 ]
  distance:    0.0000000
  band:
  - # 1
    frequency:   -0.0000352312
  - # 2
    frequency:    0.0000005308
  - # 3
    frequency:    0.0000216406
  - # 4
    frequency:    5.1034338241
  - # 5
    frequency:    5.1034338242
  - # 6
    frequency:    7.7269086591
  - # 7
    frequency:    8.8726883202
  - # 8
    frequency:    8.8726883202
  - # 9
    frequency:    9.0377186497
  - # 10
    frequency:    9.0377186498
  - # 11
    frequency:   11.0992451490
  - # 12
    frequency:   11.0992451491
  - # 13
    frequency:   11.7781388121
  - # 14
    frequency:   11.7781388122
  - # 15
    frequency:   13.4187247073
  - # 16
    frequency:   13.9376264791
  - # 17
    frequency:   14.2685188933
  - # 18
    frequency:   14.2685188934
  - # 19
    frequency:   15.1798491678
  - # 20
    frequency:  111.7315136038
  - # 21
    frequency:  112.2555523527

- q-position: [    0.0050505,    0.0000000,    0.0000000 ]
  distance:    0.0018012
  band:
  - # 1
    frequency:    0.0019144737
  - # 2
    frequency:    0.0745079241
  - # 3
    frequency:    0.0933400839
  - # 4
    frequency:    5.1027415071
  - # 5
    frequency:    5.1045320338
  - # 6
    frequency:    7.7269908680
  - # 7
    frequency:    8.8725515692
  - # 8
    frequency:    8.8727210234
  - # 9
    frequency:    9.0370473510
  - # 10
    frequency:    9.0378756054
  - # 11
    frequency:   11.0976738545
  - # 12
    frequency:   11.0984943167
  - # 13
    frequency:   11.7766343214
  - # 14
    frequency:   11.7780314563
  - # 15
    frequency:   13.4183563919
  - # 16
    frequency:   13.9358236917
  - # 17
    frequency:   14.2672980346
  - # 18
    frequency:   14.2685395416
  - # 19
    frequency:   15.1806040008
  - # 20
    frequency:  111.7305750555
  - # 21
    frequency:  112.2546597226

- q-position: [    0.0101010,    0.0000000,    0.0000000 ]
  distance:    0.0036025
  band:
  - # 1
    frequency:    0.0076486836
  - # 2
    frequency:    0.1492767443
  - # 3
    frequency:    0.1866635394
  - # 4
    frequency:    5.1006743543
  - # 5
    frequency:    5.1078137934
  - # 6
    frequency:    7.7272343991
  - # 7
    frequency:    8.8721406155
  - # 8
    frequency:    8.8728251474
  - # 9
    frequency:    9.0350268767
  - # 10
    frequency:    9.0383399746
  - # 11
    frequency:   11.0929726812
  - # 12
    frequency:   11.0962537858
  - # 13
    frequency:   11.7721205598
  - # 14
    frequency:   11.7777051072
  - # 15
    frequency:   13.4172491821
  - # 16
    frequency:   13.9304231914
  - # 17
    frequency:   14.2636493696
  - # 18
    frequency:   14.2686012615
  - # 19
    frequency:   15.1828638308
  - # 20
    frequency:  111.7277631719
  - # 21
    frequency:  112.2519854248

- q-position: [    0.0151515,    0.0000000,    0.0000000 ]
  distance:    0.0054037
  band:
  - # 1
    frequency:    0.0171757794
  - # 2
    frequency:    0.2245628803
  - # 3
    frequency:    0.2799525633
  - # 4
    frequency:    5.0972617531
  - # 5
    frequency:    5.1132407213
  - # 6
    frequency:    7.7276299586
  - # 7
    frequency:    8.8714532670
  - # 8
    frequency:    8.8730184451
  - # 9
    frequency:    9.0316377212
  - # 10
    frequency:    9.0390923847
  - # 11
    frequency:   11.0851797494
  - # 12
    frequency:   11.0925592021
  - # 13
    frequency:   11.7645965387
  - # 14
    frequency:   11.7771472252
  - # 15
    frequency:   13.4153962710
  - # 16
    frequency:   13.9214498350
  - # 17
    frequency:   14.2576136417
  - # 18
    frequency:   14.2687033427
  - # 19
    frequency:   15.1866145857
  - # 20
    frequency:  111.7230892229
  - # 21
    frequency:  112.2475402241

- q-position: [    0.0202020,    0.0000000,    0.0000000 ]
  distance:    0.0072049
  band:
  - # 1
    frequency:    0.0304512266
  - # 2
    frequency:    0.3006140371
  - # 3
    frequency:    0.3731870301
  - # 4
    frequency:    5.0925526522
  - # 5
    frequency:    5.1207495886
  - # 6
    frequency:    7.7281620349
  - # 7
    frequency:    8.8704855782
  - # 8
    frequency:    8.8733295267
  - # 9
    frequency:    9.0268481641
  - # 10
    frequency:    9.0401009438
  - # 11
    frequency:   11.0743585489
  - # 12
    frequency:   11.0874691564
  - # 13
    frequency:   11.7540602221
  - # 14
    frequency:   11.7763378950
  - # 15
    frequency:   13.4127862306
  - # 16
    frequency:   13.9089491722
  - # 17
    frequency:   14.2492555667
  - # 18
    frequency:   14.2688444811
  - # 19
    frequency:   15.1918326083
  - # 20
    frequency:  111.7165719434
  - # 21
    frequency:  112.2413420154

- q-position: [    0.0252525,    0.0000000,    0.0000000 ]
  distance:    0.0090062
  band:
  - # 1
    frequency:    0.0474133463
  - # 2
    frequency:    0.3776652873
  - # 3
    frequency:    0.4663434026
  - # 4
    frequency:    5.0866155090
  - # 5
    frequency:    5.1302533899
  - # 6
    frequency:    7.7288088678
  - # 7
    frequency:    8.8692314382
  - # 8
    frequency:    8.8737963263
  - # 9
    frequency:    9.0206155564
  - # 10
    frequency:    9.0413218185
  - # 11
    frequency:   11.0605978371
  - # 12
    frequency:   11.0810640393
  - # 13
    frequency:   11.7405079928
  - # 14
    frequency:   11.7752511983
  - # 15
    frequency:   13.4094027912
  - # 16
    frequency:   13.8929932384
  - # 17
    frequency:   14.2386594302
  - # 18
    frequency:   14.2690226078
  - # 19
    frequency:   15.1984844046
  - # 20
    frequency:  111.7082374616
  - # 21
    frequency:  112.2334157547

- q-position: [    0.0303030,    0.0000000,    0.0000000 ]
  distance:    0.0108074
  band:
  - # 1
    frequency:    0.0679839282
  - # 2
    frequency:    0.4559356748
  - # 3
    frequency:    0.5593937305
  - # 4
    frequency:    5.0795382001
  - # 5
    frequency:    5.1416427663
  - # 6
    frequency:    7.7295424072
  - # 7
    frequency:    8.8676820359
  - # 8
    frequency:    8.8744637687
  - # 9
    frequency:    9.0128883875
  - # 10
    frequency:    9.0427000191
  - # 11
    frequency:   11.0440114260
  - # 12
    frequency:   11.0734445866
  - # 13
    frequency:   11.7239340023
  - # 14
    frequency:   11.7738569472
  - # 15
    frequency:   13.4052243359
  - # 16
    frequency:   13.8736879330
  - # 17
    frequency:   14.2259236588
  - # 18
    frequency:   14.2692346642
  - # 19
    frequency:   15.2065263811
  - # 20
    frequency:  111.6981191990
  - # 21
    frequency:  112.2237933636

- q-position: [    0.0353535,    0.0000000,    0.0000000 ]
  distance:    0.0126087
  band:
  - # 1
    frequency:    0.0920689505
  - # 2
    frequency:    0.5356254308
  - # 3
    frequency:    0.6523047654
  - # 4
    frequency:    5.0714278782
  - # 5
    frequency:    5.1547877120
  - # 6
    frequency:    7.7303282666
  - # 7
    frequency:    8.8658252303
  - # 8
    frequency:    8.8753802529
  - # 9
    frequency:    9.0036095865
  - # 10
    frequency:    9.0441703846
  - # 11
    frequency:   11.0247377894
  - # 12
    frequency:   11.0647302286
  - # 13
    frequency:   11.7043295060
  - # 14
    frequency:   11.7721226240
  - # 15
    frequency:   13.4002229049
  - # 16
    frequency:   13.8511813720
  - # 17
    frequency:   14.2111550063
  - # 18
    frequency:   14.2694763390
  - # 19
    frequency:   15.2159046439
  - # 20
    frequency:  111.6862577415
  - # 21
    frequency:  112.2125136052

- q-position: [    0.0404040,    0.0000000,    0.0000000 ]
  distance:    0.0144099
  band:
  - # 1
    frequency:    0.1195593673
  - # 2
    frequency:    0.6169138600
  - # 3
    frequency:    0.7450372256
  - # 4
    frequency:    5.0624107533
  - # 5
    frequency:    5.1695394908
  - # 6
    frequency:    7.7311256722
  - # 7
    frequency:    8.8636448440
  - # 8
    frequency:    8.8765919774
  - # 9
    frequency:    8.9927221231
  - # 10
    frequency:    9.0456587758
  - # 11
    frequency:   11.0029394001
  - # 12
    frequency:   11.0550573458
  - # 13
    frequency:   11.6816823157
  - # 14
    frequency:   11.7700153745
  - # 15
    frequency:   13.3943624313
  - # 16
    frequency:   13.8256726219
  - # 17
    frequency:   14.1944630335
  - # 18
    frequency:   14.2697417841
  - # 19
    frequency:   15.2265549200
  - # 20
    frequency:  111.6727006844
  - # 21
    frequency:  112.1996219349

- q-position: [    0.0454545,    0.0000000,    0.0000000 ]
  distance:    0.0162111
  band:
  - # 1
    frequency:    0.1503319318
  - # 2
    frequency:    0.6999579125
  - # 3
    frequency:    0.8375452431
  - # 4
    frequency:    5.0526317688
  - # 5
    frequency:    5.1857326840
  - # 6
    frequency:    7.7318874115
  - # 7
    frequency:    8.8611198836
  - # 8
    frequency:    8.8781324433
  - # 9
    frequency:    8.9801796758
  - # 10
    frequency:    9.0470835067
  - # 11
    frequency:   10.9788016939
  - # 12
    frequency:   11.0445775109
  - # 13
    frequency:   11.6559765380
  - # 14
    frequency:   11.7675039146
  - # 15
    frequency:   13.3875958502
  - # 16
    frequency:   13.7974203678
  - # 17
    frequency:   14.1759554698
  - # 18
    frequency:   14.2700233278
  - # 19
    frequency:   15.2384026525
  - # 20
    frequency:  111.6575024482
  - # 21
    frequency:  112.1851703245

- q-position: [    0.0505051,    0.0000000,    0.0000000 ]
  distance:    0.0180124
  band:
  - # 1
    frequency:    0.1842500303
  - # 2
    frequency:    0.7848914088
  - # 3
    frequency:    0.9297760291
  - # 4
    frequency:    5.0422541374
  - # 5
    frequency:    5.2031872992
  - # 6
    frequency:    7.7325597833
  - # 7
    frequency:    8.8582236775
  - # 8
    frequency:    8.8799989768
  - # 9
    frequency:    8.9659706265
  - # 10
    frequency:    9.0483570645
  - # 11
    frequency:   10.9525315379
  - # 12
    frequency:   11.0334557573
  - # 13
    frequency:   11.6271928034
  - # 14
    frequency:   11.7645602398
  - # 15
    frequency:   13.3798606553
  - # 16
    frequency:   13.7667513226
  - # 17
    frequency:   14.1557348606
  - # 18
    frequency:   14.2703112056
  - # 19
    frequency:   15.2513632969
  - # 20
    frequency:  111.6407240701
  - # 21
    frequency:  112.1692170610

- q-position: [    0.0555556,    0.0000000,    0.0000000 ]
  distance:    0.0198136
  band:
  - # 1
    frequency:    0.2211645135
  - # 2
    frequency:    0.8718248510
  - # 3
    frequency:    1.0216697937
  - # 4
    frequency:    5.0314586925
  - # 5
    frequency:    5.2217108794
  - # 6
    frequency:    7.7330825507
  - # 7
    frequency:    8.8549229078
  - # 8
    frequency:    8.8820867962
  - # 9
    frequency:    8.9501849651
  - # 10
    frequency:    9.0493881887
  - # 11
    frequency:   10.9243550703
  - # 12
    frequency:   11.0218688772
  - # 13
    frequency:   11.5953092291
  - # 14
    frequency:   11.7611610603
  - # 15
    frequency:   13.3710724595
  - # 16
    frequency:   13.7340684392
  - # 17
    frequency:   14.1338966518
  - # 18
    frequency:   14.2705933275
  - # 19
    frequency:   15.2653428310
  - # 20
    frequency:  111.6224329677
  - # 21
    frequency:  112.1518265202

- q-position: [    0.0606061,    0.0000000,    0.0000000 ]
  distance:    0.0216148
  band:
  - # 1
    frequency:    0.2609145252
  - # 2
    frequency:    0.9608457271
  - # 3
    frequency:    1.1131599601
  - # 4
    frequency:    5.0204430040
  - # 5
    frequency:    5.2411005653
  - # 6
    frequency:    7.7333888956
  - # 7
    frequency:    8.8511765062
  - # 8
    frequency:    8.8839473347
  - # 9
    frequency:    8.9332574764
  - # 10
    frequency:    9.0500843898
  - # 11
    frequency:   10.8945147664
  - # 12
    frequency:   11.0100037138
  - # 13
    frequency:   11.5603033956
  - # 14
    frequency:   11.7572889164
  - # 15
    frequency:   13.3611162971
  - # 16
    frequency:   13.6998590552
  - # 17
    frequency:   14.1105286269
  - # 18
    frequency:   14.2708550988
  - # 19
    frequency:   15.2802384686
  - # 20
    frequency:  111.6027026793
  - # 21
    frequency:  112.1330689170

- q-position: [    0.0656566,    0.0000000,    0.0000000 ]
  distance:    0.0234161
  band:
  - # 1
    frequency:    0.3033283370
  - # 2
    frequency:    1.0520191937
  - # 3
    frequency:    1.2041737141
  - # 4
    frequency:    5.0094201994
  - # 5
    frequency:    5.2611450873
  - # 6
    frequency:    7.7334053741
  - # 7
    frequency:    8.8469343877
  - # 8
    frequency:    8.8836490145
  - # 9
    frequency:    8.9171090766
  - # 10
    frequency:    9.0503549882
  - # 11
    frequency:   10.8632655803
  - # 12
    frequency:   10.9980553845
  - # 13
    frequency:   11.5221556487
  - # 14
    frequency:   11.7529329614
  - # 15
    frequency:   13.3498360857
  - # 16
    frequency:   13.6647026024
  - # 17
    frequency:   14.0857114341
  - # 18
    frequency:   14.2710793108
  - # 19
    frequency:   15.2959395557
  - # 20
    frequency:  111.5816125791
  - # 21
    frequency:  112.1130200321

- q-position: [    0.0707071,    0.0000000,    0.0000000 ]
  distance:    0.0252173
  band:
  - # 1
    frequency:    0.3482242080
  - # 2
    frequency:    1.1453890190
  - # 3
    frequency:    1.2946329293
  - # 4
    frequency:    4.9986174254
  - # 5
    frequency:    5.2816266798
  - # 6
    frequency:    7.7330518668
  - # 7
    frequency:    8.8421360075
  - # 8
    frequency:    8.8747397005
  - # 9
    frequency:    8.9081870867
  - # 10
    frequency:    9.0501147326
  - # 11
    frequency:   10.8308700040
  - # 12
    frequency:   10.9862253542
  - # 13
    frequency:   11.4808540630
  - # 14
    frequency:   11.7480894220
  - # 15
    frequency:   13.3370244578
  - # 16
    frequency:   13.6292758392
  - # 17
    frequency:   14.0595198550
  - # 18
    frequency:   14.2712461110
  - # 19
    frequency:   15.3123286177
  - # 20
    frequency:  111.5592475693
  - # 21
    frequency:  112.0917609162

- q-position: [    0.0757576,    0.0000000,    0.0000000 ]
  distance:    0.0270185
  band:
  - # 1
    frequency:    0.3954112960
  - # 2
    frequency:    1.2409786636
  - # 3
    frequency:    1.3844555064
  - # 4
    frequency:    4.9882738811
  - # 5
    frequency:    5.3023229388
  - # 6
    frequency:    7.7322415191
  - # 7
    frequency:    8.8367087620
  - # 8
    frequency:    8.8548492178
  - # 9
    frequency:    8.9088660147
  - # 10
    frequency:    9.0492880167
  - # 11
    frequency:   10.7975918705
  - # 12
    frequency:   10.9747192776
  - # 13
    frequency:   11.4364014189
  - # 14
    frequency:   11.7427617630
  - # 15
    frequency:   13.3224189529
  - # 16
    frequency:   13.5943498356
  - # 17
    frequency:   14.0320244699
  - # 18
    frequency:   14.2713330635
  - # 19
    frequency:   15.3292825203
  - # 20
    frequency:  111.5356977511
  - # 21
    frequency:  112.0693775733

- q-position: [    0.0808081,    0.0000000,    0.0000000 ]
  distance:    0.0288198
  band:
  - # 1
    frequency:    0.4446906464
  - # 2
    frequency:    1.3387923861
  - # 3
    frequency:    1.4735571617
  - # 4
    frequency:    4.9786383518
  - # 5
    frequency:    5.3230086671
  - # 6
    frequency:    7.7308806614
  - # 7
    frequency:    8.8295179621
  - # 8
    frequency:    8.8305663081
  - # 9
    frequency:    8.9136226989
  - # 10
    frequency:    9.0478136317
  - # 11
    frequency:   10.7636887077
  - # 12
    frequency:   10.9637445401
  - # 13
    frequency:   11.3888245508
  - # 14
    frequency:   11.7369605979
  - # 15
    frequency:   13.3057165430
  - # 16
    frequency:   13.5607669823
  - # 17
    frequency:   14.0032934321
  - # 18
    frequency:   14.2713153009
  - # 19
    frequency:   15.3466737041
  - # 20
    frequency:  111.5110580733
  - # 21
    frequency:  112.0459606241

- q-position: [    0.0858586,    0.0000000,    0.0000000 ]
  distance:    0.0306210
  band:
  - # 1
    frequency:    0.4958562866
  - # 2
    frequency:    1.4388162733
  - # 3
    frequency:    1.5618536864
  - # 4
    frequency:    4.9699661823
  - # 5
    frequency:    5.3434577759
  - # 6
    frequency:    7.7288686982
  - # 7
    frequency:    8.8010341297
  - # 8
    frequency:    8.8236069631
  - # 9
    frequency:    8.9202030814
  - # 10
    frequency:    9.0456498799
  - # 11
    frequency:   10.7294023845
  - # 12
    frequency:   10.9535074562
  - # 13
    frequency:   11.3381864322
  - # 14
    frequency:   11.7307033912
  - # 15
    frequency:   13.2866231995
  - # 16
    frequency:   13.5293815924
  - # 17
    frequency:   13.9733941507
  - # 18
    frequency:   14.2711657694
  - # 19
    frequency:   15.3643714550
  - # 20
    frequency:  111.4854279624
  - # 21
    frequency:  112.0216049498

- q-position: [    0.0909091,    0.0000000,    0.0000000 ]
  distance:    0.0324222
  band:
  - # 1
    frequency:    0.5486964499
  - # 2
    frequency:    1.5410191065
  - # 3
    frequency:    1.6492636853
  - # 4
    frequency:    4.9625156368
  - # 5
    frequency:    5.3634453433
  - # 6
    frequency:    7.7260979518
  - # 7
    frequency:    8.7700393607
  - # 8
    frequency:    8.8157124694
  - # 9
    frequency:    8.9280205281
  - # 10
    frequency:    9.0427797080
  - # 11
    frequency:   10.6949476875
  - # 12
    frequency:   10.9442101254
  - # 13
    frequency:   11.2846013991
  - # 14
    frequency:   11.7240140014
  - # 15
    frequency:   13.2649476055
  - # 16
    frequency:   13.5009553262
  - # 17
    frequency:   13.9423947707
  - # 18
    frequency:   14.2708555618
  - # 19
    frequency:   15.3822431738
  - # 20
    frequency:  111.4589109336
  - # 21
    frequency:  111.9964093190

- q-position: [    0.0959596,    0.0000000,    0.0000000 ]
  distance:    0.0342235
  band:
  - # 1
    frequency:    0.6029949458
  - # 2
    frequency:    1.6453529957
  - # 3
    frequency:    1.7357117741
  - # 4
    frequency:    4.9565436182
  - # 5
    frequency:    5.3827499523
  - # 6
    frequency:    7.7224534396
  - # 7
    frequency:    8.7368188035
  - # 8
    frequency:    8.8067475579
  - # 9
    frequency:    8.9368693213
  - # 10
    frequency:    9.0392153256
  - # 11
    frequency:   10.6604982693
  - # 12
    frequency:   10.9360469977
  - # 13
    frequency:   11.2282539960
  - # 14
    frequency:   11.7169221133
  - # 15
    frequency:   13.2407160068
  - # 16
    frequency:   13.4760308626
  - # 17
    frequency:   13.9103654104
  - # 18
    frequency:   14.2703543301
  - # 19
    frequency:   15.4001556128
  - # 20
    frequency:  111.4316141853
  - # 21
    frequency:  111.9704759975

- q-position: [    0.1010101,    0.0000000,    0.0000000 ]
  distance:    0.0360247
  band:
  - # 1
    frequency:    0.6585326870
  - # 2
    frequency:    1.7517537277
  - # 3
    frequency:    1.8211321851
  - # 4
    frequency:    4.9523007556
  - # 5
    frequency:    5.4011564617
  - # 6
    frequency:    7.7178125560
  - # 7
    frequency:    8.7015866259
  - # 8
    frequency:    8.7965608961
  - # 9
    frequency:    8.9466418890
  - # 10
    frequency:    9.0350015716
  - # 11
    frequency:   10.6261691304
  - # 12
    frequency:   10.9292012537
  - # 13
    frequency:   11.1694220958
  - # 14
    frequency:   11.7094626061
  - # 15
    frequency:   13.2142447477
  - # 16
    frequency:   13.4548477733
  - # 17
    frequency:   13.8773791772
  - # 18
    frequency:   14.2696307687
  - # 19
    frequency:   15.4179760543
  - # 20
    frequency:  111.4036481779
  - # 21
    frequency:  111.9439103437

- q-position: [    0.1060606,    0.0000000,    0.0000000 ]
  distance:    0.0378260
  band:
  - # 1
    frequency:    0.7150893743
  - # 2
    frequency:    1.8601407909
  - # 3
    frequency:    1.9054726833
  - # 4
    frequency:    4.9500259115
  - # 5
    frequency:    5.4184593848
  - # 6
    frequency:    7.7120446124
  - # 7
    frequency:    8.6645619135
  - # 8
    frequency:    8.7849880988
  - # 9
    frequency:    8.9572544158
  - # 10
    frequency:    9.0302171553
  - # 11
    frequency:   10.5919944641
  - # 12
    frequency:   10.9238411580
  - # 13
    frequency:   11.1085051653
  - # 14
    frequency:   11.7016748957
  - # 15
    frequency:   13.1861129735
  - # 16
    frequency:   13.4373586773
  - # 17
    frequency:   13.8435130287
  - # 18
    frequency:   14.2686531534
  - # 19
    frequency:   15.4355734080
  - # 20
    frequency:  111.3751261981
  - # 21
    frequency:  111.9168203908

- q-position: [    0.1111111,    0.0000000,    0.0000000 ]
  distance:    0.0396272
  band:
  - # 1
    frequency:    0.7724453324
  - # 2
    frequency:    1.9704170541
  - # 3
    frequency:    1.9886986445
  - # 4
    frequency:    4.9499402237
  - # 5
    frequency:    5.4344670679
  - # 6
    frequency:    7.7050101669
  - # 7
    frequency:    8.6259935791
  - # 8
    frequency:    8.7718574171
  - # 9
    frequency:    8.9686218515
  - # 10
    frequency:    9.0249729304
  - # 11
    frequency:   10.5578995480
  - # 12
    frequency:   10.9201165814
  - # 13
    frequency:   11.0460586074
  - # 14
    frequency:   11.6936022873
  - # 15
    frequency:   13.1570472023
  - # 16
    frequency:   13.4233345087
  - # 17
    frequency:   13.8088485932
  - # 18
    frequency:   14.2673899220
  - # 19
    frequency:   15.4528192139
  - # 20
    frequency:  111.3461639119
  - # 21
    frequency:  111.8893164161

- q-position: [    0.1161616,    0.0000000,    0.0000000 ]
  distance:    0.0414284
  band:
  - # 1
    frequency:    0.8303834811
  - # 2
    frequency:    2.0707970920
  - # 3
    frequency:    2.0824680886
  - # 4
    frequency:    4.9522408596
  - # 5
    frequency:    5.4490068679
  - # 6
    frequency:    7.6965600333
  - # 7
    frequency:    8.5861687643
  - # 8
    frequency:    8.7569983974
  - # 9
    frequency:    8.9806476067
  - # 10
    frequency:    9.0194066733
  - # 11
    frequency:   10.5236661303
  - # 12
    frequency:   10.9181559079
  - # 13
    frequency:   10.9828343046
  - # 14
    frequency:   11.6852913667
  - # 15
    frequency:   13.1277874814
  - # 16
    frequency:   13.4124895881
  - # 17
    frequency:   13.7734731411
  - # 18
    frequency:   14.2658102813
  - # 19
    frequency:   15.4695885385
  - # 20
    frequency:  111.3168789059
  - # 21
    frequency:  111.8615105013

- q-position: [    0.1212121,    0.0000000,    0.0000000 ]
  distance:    0.0432297
  band:
  - # 1
    frequency:    0.8886914205
  - # 2
    frequency:    2.1517804325
  - # 3
    frequency:    2.1961611341
  - # 4
    frequency:    4.9570947314
  - # 5
    frequency:    5.4619315096
  - # 6
    frequency:    7.6865338209
  - # 7
    frequency:    8.5454141971
  - # 8
    frequency:    8.7402531816
  - # 9
    frequency:    8.9932184297
  - # 10
    frequency:    9.0136744716
  - # 11
    frequency:   10.4888942342
  - # 12
    frequency:   10.9180635322
  - # 13
    frequency:   10.9198240111
  - # 14
    frequency:   11.6767914495
  - # 15
    frequency:   13.0989931281
  - # 16
    frequency:   13.4045686085
  - # 17
    frequency:   13.7374810403
  - # 18
    frequency:   14.2638848251
  - # 19
    frequency:   15.4857607606
  - # 20
    frequency:  111.2873902201
  - # 21
    frequency:  111.8335160835

- q-position: [    0.1262626,    0.0000000,    0.0000000 ]
  distance:    0.0450309
  band:
  - # 1
    frequency:    0.9471636043
  - # 2
    frequency:    2.2316895913
  - # 3
    frequency:    2.3113437201
  - # 4
    frequency:    4.9646324808
  - # 5
    frequency:    5.4731267670
  - # 6
    frequency:    7.6747578079
  - # 7
    frequency:    8.5040938528
  - # 8
    frequency:    8.7214893005
  - # 9
    frequency:    9.0062013336
  - # 10
    frequency:    9.0079396900
  - # 11
    frequency:   10.4529730520
  - # 12
    frequency:   10.8582925210
  - # 13
    frequency:   10.9199181196
  - # 14
    frequency:   11.6681541034
  - # 15
    frequency:   13.0712005780
  - # 16
    frequency:   13.3993825854
  - # 17
    frequency:   13.7009763625
  - # 18
    frequency:   14.2615861463
  - # 19
    frequency:   15.5012202451
  - # 20
    frequency:  111.2578178734
  - # 21
    frequency:  111.8054474994

- q-position: [    0.1313131,    0.0000000,    0.0000000 ]
  distance:    0.0468321
  band:
  - # 1
    frequency:    1.0056035718
  - # 2
    frequency:    2.3105962237
  - # 3
    frequency:    2.4278419626
  - # 4
    frequency:    4.9749430875
  - # 5
    frequency:    5.4825205249
  - # 6
    frequency:    7.6610419483
  - # 7
    frequency:    8.4626045916
  - # 8
    frequency:    8.7006121057
  - # 9
    frequency:    9.0023612530
  - # 10
    frequency:    9.0194413949
  - # 11
    frequency:   10.4150934651
  - # 12
    frequency:   10.7997676913
  - # 13
    frequency:   10.9237717429
  - # 14
    frequency:   11.6594327507
  - # 15
    frequency:   13.0448181772
  - # 16
    frequency:   13.3968074492
  - # 17
    frequency:   13.6640781276
  - # 18
    frequency:   14.2588894307
  - # 19
    frequency:   15.5158569064
  - # 20
    frequency:  111.2282823838
  - # 21
    frequency:  111.7774195247

- q-position: [    0.1363636,    0.0000000,    0.0000000 ]
  distance:    0.0486334
  band:
  - # 1
    frequency:    1.0638262085
  - # 2
    frequency:    2.3886036925
  - # 3
    frequency:    2.5454585748
  - # 4
    frequency:    4.9880694679
  - # 5
    frequency:    5.4900931552
  - # 6
    frequency:    7.6451758845
  - # 7
    frequency:    8.4213709686
  - # 8
    frequency:    8.6775747428
  - # 9
    frequency:    8.9970833016
  - # 10
    frequency:    9.0327599819
  - # 11
    frequency:   10.3743588134
  - # 12
    frequency:   10.7459302990
  - # 13
    frequency:   10.9296499345
  - # 14
    frequency:   11.6506823519
  - # 15
    frequency:   13.0201395632
  - # 16
    frequency:   13.3967596714
  - # 17
    frequency:   13.6269319414
  - # 18
    frequency:   14.2557730174
  - # 19
    frequency:   15.5295666674
  - # 20
    frequency:  111.1989042849
  - # 21
    frequency:  111.7495469101

- q-position: [    0.1414141,    0.0000000,    0.0000000 ]
  distance:    0.0504346
  band:
  - # 1
    frequency:    1.1216600103
  - # 2
    frequency:    2.4658465524
  - # 3
    frequency:    2.6639706468
  - # 4
    frequency:    5.0040054074
  - # 5
    frequency:    5.4958889613
  - # 6
    frequency:    7.6269240880
  - # 7
    frequency:    8.3808401842
  - # 8
    frequency:    8.6523840193
  - # 9
    frequency:    8.9922279141
  - # 10
    frequency:    9.0459533486
  - # 11
    frequency:   10.3300414410
  - # 12
    frequency:   10.6983556976
  - # 13
    frequency:   10.9375526177
  - # 14
    frequency:   11.6419591667
  - # 15
    frequency:   12.9973636690
  - # 16
    frequency:   13.3991496334
  - # 17
    frequency:   13.5897389078
  - # 18
    frequency:   14.2522189159
  - # 19
    frequency:   15.5422518214
  - # 20
    frequency:  111.1698036412
  - # 21
    frequency:  111.7219439159

- q-position: [    0.1464646,    0.0000000,    0.0000000 ]
  distance:    0.0522358
  band:
  - # 1
    frequency:    1.1789493249
  - # 2
    frequency:    2.5424883698
  - # 3
    frequency:    2.7831272879
  - # 4
    frequency:    5.0226941069
  - # 5
    frequency:    5.5000282171
  - # 6
    frequency:    7.6060207561
  - # 7
    frequency:    8.3414777862
  - # 8
    frequency:    8.6251015029
  - # 9
    frequency:    8.9878916681
  - # 10
    frequency:    9.0587918445
  - # 11
    frequency:   10.2819317367
  - # 12
    frequency:   10.6581598480
  - # 13
    frequency:   10.9474558129
  - # 14
    frequency:   11.6333205833
  - # 15
    frequency:   12.9766154528
  - # 16
    frequency:   13.4037807124
  - # 17
    frequency:   13.5528392871
  - # 18
    frequency:   14.2482132681
  - # 19
    frequency:   15.5538213045
  - # 20
    frequency:  111.1410995633
  - # 21
    frequency:  111.6947238473

- q-position: [    0.1515152,    0.0000000,    0.0000000 ]
  distance:    0.0540371
  band:
  - # 1
    frequency:    1.2355565532
  - # 2
    frequency:    2.6187178375
  - # 3
    frequency:    2.9026472806
  - # 4
    frequency:    5.0440285165
  - # 5
    frequency:    5.5027190660
  - # 6
    frequency:    7.5821659006
  - # 7
    frequency:    8.3037640611
  - # 8
    frequency:    8.5958402920
  - # 9
    frequency:    8.9841457681
  - # 10
    frequency:    9.0710203611
  - # 11
    frequency:   10.2305780317
  - # 12
    frequency:   10.6257503365
  - # 13
    frequency:   10.9593139627
  - # 14
    frequency:   11.6248250025
  - # 15
    frequency:   12.9579649312
  - # 16
    frequency:   13.4100343435
  - # 17
    frequency:   13.5170125888
  - # 18
    frequency:   14.2437467475
  - # 19
    frequency:   15.5641908900
  - # 20
    frequency:  111.1129097258
  - # 21
    frequency:  111.6679985914
