nqpoint: 300    
npath: 3      
segment_nqpoint:
- 100
- 100
- 100
labels:
- [ 'G', 'M' ]
- [ 'M', 'K' ]
- [ 'K', 'G' ]
reciprocal_lattice:
- [   0.29665391,   0.17127321,   0.00000000 ] # a*
- [   0.00000000,   0.34254642,   0.00000000 ] # b*
- [   0.00000000,   0.00000000,   0.04209617 ] # c*
natom: 5      
lattice:
- [     3.370931517671380,     0.000000000000000,     0.000000000000000 ] # a
- [    -1.685465758835690,     2.919312328717046,     0.000000000000000 ] # b
- [     0.000000000000000,     0.000000000000000,    23.755131558251243 ] # c
points:
- symbol: Cl # 1
  coordinates: [  0.333332985432215,  0.666666983183674,  0.621134491386393 ]
  mass: 35.453000
- symbol: Cl # 2
  coordinates: [  0.666666984744047,  0.333332985985145,  0.378865508613607 ]
  mass: 35.453000
- symbol: N # 3
  coordinates: [  0.000000000000000,  0.000000000000000,  0.500000034607171 ]
  mass: 14.006700
- symbol: Sc # 4
  coordinates: [  0.333332985432215,  0.666666983183674,  0.449931848469585 ]
  mass: 44.955912
- symbol: Sc # 5
  coordinates: [  0.666666984744047,  0.333332985985145,  0.550068151013881 ]
  mass: 44.955912

phonon:
- q-position: [    0.0000000,    0.0000000,    0.0000000 ]
  distance:    0.0000000
  band:
  - # 1
    frequency:   -0.0000134636
  - # 2
    frequency:    0.0000002179
  - # 3
    frequency:    0.0000092754
  - # 4
    frequency:    4.0972704177
  - # 5
    frequency:    4.0972704177
  - # 6
    frequency:    5.7257746652
  - # 7
    frequency:    6.3889359142
  - # 8
    frequency:    6.3889359142
  - # 9
    frequency:    7.1223822079
  - # 10
    frequency:    7.1223822079
  - # 11
    frequency:    9.4520003583
  - # 12
    frequency:   11.9125294684
  - # 13
    frequency:   13.1000075993
  - # 14
    frequency:   13.1173908670
  - # 15
    frequency:   13.1173908670

- q-position: [    0.0050505,    0.0000000,    0.0000000 ]
  distance:    0.0017300
  band:
  - # 1
    frequency:    0.0020529847
  - # 2
    frequency:    0.0829772692
  - # 3
    frequency:    0.0865216496
  - # 4
    frequency:    4.0975560444
  - # 5
    frequency:    4.0990303442
  - # 6
    frequency:    5.7248272484
  - # 7
    frequency:    6.3889824214
  - # 8
    frequency:    6.3896015401
  - # 9
    frequency:    7.1224351357
  - # 10
    frequency:    7.1226849708
  - # 11
    frequency:    9.4516616076
  - # 12
    frequency:   11.9107949797
  - # 13
    frequency:   13.1001897767
  - # 14
    frequency:   13.1154740094
  - # 15
    frequency:   13.1174045959

- q-position: [    0.0101010,    0.0000000,    0.0000000 ]
  distance:    0.0034601
  band:
  - # 1
    frequency:    0.0081968592
  - # 2
    frequency:    0.1661026790
  - # 3
    frequency:    0.1729848964
  - # 4
    frequency:    4.0984131247
  - # 5
    frequency:    4.1042940377
  - # 6
    frequency:    5.7219993421
  - # 7
    frequency:    6.3891204738
  - # 8
    frequency:    6.3915895896
  - # 9
    frequency:    7.1225955386
  - # 10
    frequency:    7.1235883200
  - # 11
    frequency:    9.4506477294
  - # 12
    frequency:   11.9055896941
  - # 13
    frequency:   13.1006625788
  - # 14
    frequency:   13.1098036264
  - # 15
    frequency:   13.1174442914

- q-position: [    0.0151515,    0.0000000,    0.0000000 ]
  distance:    0.0051901
  band:
  - # 1
    frequency:    0.0183869580
  - # 2
    frequency:    0.2495220760
  - # 3
    frequency:    0.2593317979
  - # 4
    frequency:    4.0998422428
  - # 5
    frequency:    4.1130137013
  - # 6
    frequency:    5.7173332126
  - # 7
    frequency:    6.3893456794
  - # 8
    frequency:    6.3948740850
  - # 9
    frequency:    7.1228682528
  - # 10
    frequency:    7.1250776886
  - # 11
    frequency:    9.4489658271
  - # 12
    frequency:   11.8969081717
  - # 13
    frequency:   13.0988151274
  - # 14
    frequency:   13.1030099909
  - # 15
    frequency:   13.1175054863

- q-position: [    0.0202020,    0.0000000,    0.0000000 ]
  distance:    0.0069201
  band:
  - # 1
    frequency:    0.0325507070
  - # 2
    frequency:    0.3333767447
  - # 3
    frequency:    0.3455053290
  - # 4
    frequency:    4.1018443162
  - # 5
    frequency:    4.1251111766
  - # 6
    frequency:    5.7108968646
  - # 7
    frequency:    6.3896507708
  - # 8
    frequency:    6.3994133259
  - # 9
    frequency:    7.1232612635
  - # 10
    frequency:    7.1271296211
  - # 11
    frequency:    9.4466276780
  - # 12
    frequency:   11.8847414087
  - # 13
    frequency:   13.0861263161
  - # 14
    frequency:   13.1036465802
  - # 15
    frequency:   13.1175807610

- q-position: [    0.0252525,    0.0000000,    0.0000000 ]
  distance:    0.0086502
  band:
  - # 1
    frequency:    0.0505902855
  - # 2
    frequency:    0.4178011755
  - # 3
    frequency:    0.4314498340
  - # 4
    frequency:    4.1044205127
  - # 5
    frequency:    4.1404800835
  - # 6
    frequency:    5.7027807418
  - # 7
    frequency:    6.3900256842
  - # 8
    frequency:    6.4051519778
  - # 9
    frequency:    7.1237855937
  - # 10
    frequency:    7.1297129569
  - # 11
    frequency:    9.4436496416
  - # 12
    frequency:   11.8690769486
  - # 13
    frequency:   13.0690006719
  - # 14
    frequency:   13.1053542684
  - # 15
    frequency:   13.1176597800

- q-position: [    0.0303030,    0.0000000,    0.0000000 ]
  distance:    0.0103802
  band:
  - # 1
    frequency:    0.0723860877
  - # 2
    frequency:    0.5029209007
  - # 3
    frequency:    0.5171114694
  - # 4
    frequency:    4.1075721350
  - # 5
    frequency:    4.1589885984
  - # 6
    frequency:    5.6930937342
  - # 7
    frequency:    6.3904576726
  - # 8
    frequency:    6.4120234739
  - # 9
    frequency:    7.1244551458
  - # 10
    frequency:    7.1327903886
  - # 11
    frequency:    9.4400525304
  - # 12
    frequency:   11.8498990696
  - # 13
    frequency:   13.0481478723
  - # 14
    frequency:   13.1074818544
  - # 15
    frequency:   13.1177293443

- q-position: [    0.0353535,    0.0000000,    0.0000000 ]
  distance:    0.0121102
  band:
  - # 1
    frequency:    0.0978007554
  - # 2
    frequency:    0.5888504227
  - # 3
    frequency:    0.6024386351
  - # 4
    frequency:    4.1113004748
  - # 5
    frequency:    4.1804826889
  - # 6
    frequency:    5.6819589355
  - # 7
    frequency:    6.3909314531
  - # 8
    frequency:    6.4199523764
  - # 9
    frequency:    7.1252864988
  - # 10
    frequency:    7.1363203097
  - # 11
    frequency:    9.4358614430
  - # 12
    frequency:   11.8271890807
  - # 13
    frequency:   13.0237069058
  - # 14
    frequency:   13.1099619061
  - # 15
    frequency:   13.1177734574

- q-position: [    0.0404040,    0.0000000,    0.0000000 ]
  distance:    0.0138403
  band:
  - # 1
    frequency:    0.1266835313
  - # 2
    frequency:    0.6756912629
  - # 3
    frequency:    0.6873823893
  - # 4
    frequency:    4.1156066386
  - # 5
    frequency:    4.2047896033
  - # 6
    frequency:    5.6695095393
  - # 7
    frequency:    6.3914293909
  - # 8
    frequency:    6.4288564137
  - # 9
    frequency:    7.1262986601
  - # 10
    frequency:    7.1402588554
  - # 11
    frequency:    9.4311055612
  - # 12
    frequency:   11.8009257668
  - # 13
    frequency:   12.9958000603
  - # 14
    frequency:   13.1127566984
  - # 15
    frequency:   13.1177734048

- q-position: [    0.0454545,    0.0000000,    0.0000000 ]
  distance:    0.0155703
  band:
  - # 1
    frequency:    0.1588746845
  - # 2
    frequency:    0.7635301629
  - # 3
    frequency:    0.7718968428
  - # 4
    frequency:    4.1204913463
  - # 5
    frequency:    4.2317214225
  - # 6
    frequency:    5.6558851567
  - # 7
    frequency:    6.3919317211
  - # 8
    frequency:    6.4386480195
  - # 9
    frequency:    7.1275127710
  - # 10
    frequency:    7.1445620349
  - # 11
    frequency:    9.4258179090
  - # 12
    frequency:   11.7710860279
  - # 13
    frequency:   12.9645594652
  - # 14
    frequency:   13.1158314755
  - # 15
    frequency:   13.1177078475

- q-position: [    0.0505051,    0.0000000,    0.0000000 ]
  distance:    0.0173003
  band:
  - # 1
    frequency:    0.1942097828
  - # 2
    frequency:    0.8524374649
  - # 3
    frequency:    0.8559395276
  - # 4
    frequency:    4.1259547084
  - # 5
    frequency:    4.2610784997
  - # 6
    frequency:    5.6412287203
  - # 7
    frequency:    6.3924168096
  - # 8
    frequency:    6.4492353152
  - # 9
    frequency:    7.1289517686
  - # 10
    frequency:    7.1491878558
  - # 11
    frequency:    9.4200350752
  - # 12
    frequency:   11.7376457658
  - # 13
    frequency:   12.9301309961
  - # 14
    frequency:   13.1175529271
  - # 15
    frequency:   13.1191501803

- q-position: [    0.0555556,    0.0000000,    0.0000000 ]
  distance:    0.0190304
  band:
  - # 1
    frequency:    0.2325236215
  - # 2
    frequency:    0.9394717354
  - # 3
    frequency:    0.9424656956
  - # 4
    frequency:    4.1319959825
  - # 5
    frequency:    4.2926526449
  - # 6
    frequency:    5.6256840370
  - # 7
    frequency:    6.3928614538
  - # 8
    frequency:    6.4605225780
  - # 9
    frequency:    7.1306400041
  - # 10
    frequency:    7.1540983467
  - # 11
    frequency:    9.4137969007
  - # 12
    frequency:   11.7005810706
  - # 13
    frequency:   12.8926746043
  - # 14
    frequency:   13.1172823833
  - # 15
    frequency:   13.1226745377

- q-position: [    0.0606061,    0.0000000,    0.0000000 ]
  distance:    0.0207604
  band:
  - # 1
    frequency:    0.2736536652
  - # 2
    frequency:    1.0224588179
  - # 3
    frequency:    1.0336483703
  - # 4
    frequency:    4.1386133159
  - # 5
    frequency:    4.3262299469
  - # 6
    frequency:    5.6093939789
  - # 7
    frequency:    6.3932412230
  - # 8
    frequency:    6.4724103051
  - # 9
    frequency:    7.1326028218
  - # 10
    frequency:    7.1592613848
  - # 11
    frequency:    9.4071461301
  - # 12
    frequency:   11.6598697590
  - # 13
    frequency:   12.8523635660
  - # 14
    frequency:   13.1168676821
  - # 15
    frequency:   13.1263639521

- q-position: [    0.0656566,    0.0000000,    0.0000000 ]
  distance:    0.0224904
  band:
  - # 1
    frequency:    0.3174429069
  - # 2
    frequency:    1.1048704439
  - # 3
    frequency:    1.1259990266
  - # 4
    frequency:    4.1458034797
  - # 5
    frequency:    4.3615931609
  - # 6
    frequency:    5.5924992550
  - # 7
    frequency:    6.3935308363
  - # 8
    frequency:    6.4847950274
  - # 9
    frequency:    7.1348661008
  - # 10
    frequency:    7.1646522436
  - # 11
    frequency:    9.4001280311
  - # 12
    frequency:   11.6154933061
  - # 13
    frequency:   12.8093831653
  - # 14
    frequency:   13.1162781546
  - # 15
    frequency:   13.1301756666

- q-position: [    0.0707071,    0.0000000,    0.0000000 ]
  distance:    0.0242205
  band:
  - # 1
    frequency:    0.3637420974
  - # 2
    frequency:    1.1866808060
  - # 3
    frequency:    1.2195104821
  - # 4
    frequency:    4.1535615988
  - # 5
    frequency:    4.3985236249
  - # 6
    frequency:    5.5751376889
  - # 7
    frequency:    6.3937045771
  - # 8
    frequency:    6.4975690446
  - # 9
    frequency:    7.1374557669
  - # 10
    frequency:    7.1702547709
  - # 11
    frequency:    9.3927899832
  - # 12
    frequency:   11.5674392023
  - # 13
    frequency:   12.7639289458
  - # 14
    frequency:   13.1154811446
  - # 15
    frequency:   13.1340650270

- q-position: [    0.0757576,    0.0000000,    0.0000000 ]
  distance:    0.0259505
  band:
  - # 1
    frequency:    0.4124113383
  - # 2
    frequency:    1.2678687696
  - # 3
    frequency:    1.3141543036
  - # 4
    frequency:    4.1618808871
  - # 5
    frequency:    4.4368026908
  - # 6
    frequency:    5.5574439247
  - # 7
    frequency:    6.3937367377
  - # 8
    frequency:    6.5106202570
  - # 9
    frequency:    7.1403972814
  - # 10
    frequency:    7.1760621084
  - # 11
    frequency:    9.3851810384
  - # 12
    frequency:   11.5157037391
  - # 13
    frequency:   12.7162045903
  - # 14
    frequency:   13.1144421658
  - # 15
    frequency:   13.1379857921

- q-position: [    0.0808081,    0.0000000,    0.0000000 ]
  distance:    0.0276805
  band:
  - # 1
    frequency:    0.4633210676
  - # 2
    frequency:    1.3484179575
  - # 3
    frequency:    1.4098804602
  - # 4
    frequency:    4.1707523932
  - # 5
    frequency:    4.4762126799
  - # 6
    frequency:    5.5395494947
  - # 7
    frequency:    6.3936020893
  - # 8
    frequency:    6.5238322671
  - # 9
    frequency:    7.1437151141
  - # 10
    frequency:    7.1820768547
  - # 11
    frequency:    9.3773514589
  - # 12
    frequency:   11.4602952075
  - # 13
    frequency:   12.6664194800
  - # 14
    frequency:   13.1131250653
  - # 15
    frequency:   13.1418904694

- q-position: [    0.0858586,    0.0000000,    0.0000000 ]
  distance:    0.0294106
  band:
  - # 1
    frequency:    0.5163524933
  - # 2
    frequency:    1.4283167628
  - # 3
    frequency:    1.5066171257
  - # 4
    frequency:    4.1801647665
  - # 5
    frequency:    4.5165373835
  - # 6
    frequency:    5.5215831928
  - # 7
    frequency:    6.3932763684
  - # 8
    frequency:    6.5370849170
  - # 9
    frequency:    7.1474322139
  - # 10
    frequency:    7.1883105705
  - # 11
    frequency:    9.3693522353
  - # 12
    frequency:   11.4012374529
  - # 13
    frequency:   12.6147860081
  - # 14
    frequency:   13.1114921948
  - # 15
    frequency:   13.1457306617

- q-position: [    0.0909091,    0.0000000,    0.0000000 ]
  distance:    0.0311406
  band:
  - # 1
    frequency:    0.5713975462
  - # 2
    frequency:    1.5075582859
  - # 3
    frequency:    1.6042705874
  - # 4
    frequency:    4.1901040502
  - # 5
    frequency:    4.5575621369
  - # 6
    frequency:    5.5036717173
  - # 7
    frequency:    6.3927367721
  - # 8
    frequency:    6.5502554081
  - # 9
    frequency:    7.1515694866
  - # 10
    frequency:    7.1947825243
  - # 11
    frequency:    9.3612345900
  - # 12
    frequency:   11.3385737028
  - # 13
    frequency:   12.5615167537
  - # 14
    frequency:   13.1095045877
  - # 15
    frequency:   13.1494574204

- q-position: [    0.0959596,    0.0000000,    0.0000000 ]
  distance:    0.0328706
  band:
  - # 1
    frequency:    0.6283584350
  - # 2
    frequency:    1.5861401881
  - # 3
    frequency:    1.7027252105
  - # 4
    frequency:    4.2005535113
  - # 5
    frequency:    4.5990734961
  - # 6
    frequency:    5.4859405570
  - # 7
    frequency:    6.3919624488
  - # 8
    frequency:    6.5632201314
  - # 9
    frequency:    7.1561452937
  - # 10
    frequency:    7.2015175863
  - # 11
    frequency:    9.3530494735
  - # 12
    frequency:   11.2723705524
  - # 13
    frequency:   12.5068216446
  - # 14
    frequency:   13.1071221406
  - # 15
    frequency:   13.1530215992

- q-position: [    0.1010101,    0.0000000,    0.0000000 ]
  distance:    0.0346006
  band:
  - # 1
    frequency:    0.6871468870
  - # 2
    frequency:    1.6640644606
  - # 3
    frequency:    1.8018434100
  - # 4
    frequency:    4.2114935138
  - # 5
    frequency:    4.6408585482
  - # 6
    frequency:    5.4685151136
  - # 7
    frequency:    6.3909349759
  - # 8
    frequency:    6.5758572899
  - # 9
    frequency:    7.1611749859
  - # 10
    frequency:    7.2085432081
  - # 11
    frequency:    9.3448470579
  - # 12
    frequency:   11.2027219757
  - # 13
    frequency:   12.4509052614
  - # 14
    frequency:   13.1043037995
  - # 15
    frequency:   13.1563742043

- q-position: [    0.1060606,    0.0000000,    0.0000000 ]
  distance:    0.0363307
  band:
  - # 1
    frequency:    0.7476831573
  - # 2
    frequency:    1.7413371046
  - # 3
    frequency:    1.9014655776
  - # 4
    frequency:    4.2229014442
  - # 5
    frequency:    4.6827038786
  - # 6
    frequency:    5.4515220576
  - # 7
    frequency:    6.3896388119
  - # 8
    frequency:    6.5880503373
  - # 9
    frequency:    7.1666704826
  - # 10
    frequency:    7.2158854780
  - # 11
    frequency:    9.3366762343
  - # 12
    frequency:   11.1297532212
  - # 13
    frequency:   12.3939644345
  - # 14
    frequency:   13.1010077500
  - # 15
    frequency:   13.1594667398

- q-position: [    0.1111111,    0.0000000,    0.0000000 ]
  distance:    0.0380607
  band:
  - # 1
    frequency:    0.8098948808
  - # 2
    frequency:    1.8179677237
  - # 3
    frequency:    2.0014099161
  - # 4
    frequency:    4.2347516952
  - # 5
    frequency:    4.7243942239
  - # 6
    frequency:    5.4350909265
  - # 7
    frequency:    6.3880617112
  - # 8
    frequency:    6.5996921655
  - # 9
    frequency:    7.1726399115
  - # 10
    frequency:    7.2235643208
  - # 11
    frequency:    9.3285841225
  - # 12
    frequency:   11.0536244665
  - # 13
    frequency:   12.3361862751
  - # 14
    frequency:   13.0971916088
  - # 15
    frequency:   13.1622515426

- q-position: [    0.1161616,    0.0000000,    0.0000000 ]
  distance:    0.0397907
  band:
  - # 1
    frequency:    0.8737158344
  - # 2
    frequency:    1.8939690294
  - # 3
    frequency:    2.1014721395
  - # 4
    frequency:    4.2470157136
  - # 5
    frequency:    4.7657108360
  - # 6
    frequency:    5.4193559694
  - # 7
    frequency:    6.3861950936
  - # 8
    frequency:    6.6106898691
  - # 9
    frequency:    7.1790873159
  - # 10
    frequency:    7.2315880175
  - # 11
    frequency:    9.3206155969
  - # 12
    frequency:   10.9745341274
  - # 13
    frequency:   12.2777467479
  - # 14
    frequency:   13.0928126191
  - # 15
    frequency:   13.1646821063

- q-position: [    0.1212121,    0.0000000,    0.0000000 ]
  distance:    0.0415208
  band:
  - # 1
    frequency:    0.9390846640
  - # 2
    frequency:    1.9693562644
  - # 3
    frequency:    2.2014250045
  - # 4
    frequency:    4.2596621175
  - # 5
    frequency:    4.8064296105
  - # 6
    frequency:    5.4044582246
  - # 7
    frequency:    6.3840343606
  - # 8
    frequency:    6.6209697994
  - # 9
    frequency:    7.1860124385
  - # 10
    frequency:    7.2399473330
  - # 11
    frequency:    9.3128128367
  - # 12
    frequency:   10.8927217547
  - # 13
    frequency:   12.2188098503
  - # 14
    frequency:   13.0878278461
  - # 15
    frequency:   13.1667133905

- q-position: [    0.1262626,    0.0000000,    0.0000000 ]
  distance:    0.0432508
  band:
  - # 1
    frequency:    1.0059436224
  - # 2
    frequency:    2.0441465490
  - # 3
    frequency:    2.3010176513
  - # 4
    frequency:    4.2726568850
  - # 5
    frequency:    4.8463190755
  - # 6
    frequency:    5.3905477690
  - # 7
    frequency:    6.3815791511
  - # 8
    frequency:    6.6304825157
  - # 9
    frequency:    7.1934105866
  - # 10
    frequency:    7.2486096456
  - # 11
    frequency:    9.3052149045
  - # 12
    frequency:   10.8084704853
  - # 13
    frequency:   12.1595274121
  - # 14
    frequency:   13.0821943737
  - # 15
    frequency:   13.1683021130

- q-position: [    0.1313131,    0.0000000,    0.0000000 ]
  distance:    0.0449808
  band:
  - # 1
    frequency:    1.0742373506
  - # 2
    frequency:    2.1183581583
  - # 3
    frequency:    2.3999747475
  - # 4
    frequency:    4.2859636178
  - # 5
    frequency:    4.8851384521
  - # 6
    frequency:    5.3777859638
  - # 7
    frequency:    6.3788335361
  - # 8
    frequency:    6.6392071836
  - # 9
    frequency:    7.2012725785
  - # 10
    frequency:    7.2575135489
  - # 11
    frequency:    9.2978573582
  - # 12
    frequency:   10.7221090412
  - # 13
    frequency:   12.1000394792
  - # 14
    frequency:   13.0758695026
  - # 15
    frequency:   13.1694070237

- q-position: [    0.1363636,    0.0000000,    0.0000000 ]
  distance:    0.0467109
  band:
  - # 1
    frequency:    1.1439117296
  - # 2
    frequency:    2.1920097415
  - # 3
    frequency:    2.4979954523
  - # 4
    frequency:    4.2995438790
  - # 5
    frequency:    4.9226362188
  - # 6
    frequency:    5.3663472935
  - # 7
    frequency:    6.3758061486
  - # 8
    frequency:    6.6471549669
  - # 9
    frequency:    7.2095847707
  - # 10
    frequency:    7.2665644122
  - # 11
    frequency:    9.2907718990
  - # 12
    frequency:   10.6340132759
  - # 13
    frequency:   12.0404752042
  - # 14
    frequency:   13.0688109468
  - # 15
    frequency:   13.1699891565

- q-position: [    0.1414141,    0.0000000,    0.0000000 ]
  distance:    0.0484409
  band:
  - # 1
    frequency:    1.2149128153
  - # 2
    frequency:    2.2651194926
  - # 3
    frequency:    2.5947522455
  - # 4
    frequency:    4.3133576051
  - # 5
    frequency:    4.9585500428
  - # 6
    frequency:    5.3564199568
  - # 7
    frequency:    6.3725102524
  - # 8
    frequency:    6.6543710318
  - # 9
    frequency:    7.2183291610
  - # 10
    frequency:    7.2756313521
  - # 11
    frequency:    9.2839860557
  - # 12
    frequency:   10.5446072451
  - # 13
    frequency:   11.9809541399
  - # 14
    frequency:   13.0609770312
  - # 15
    frequency:   13.1700120592

- q-position: [    0.1464646,    0.0000000,    0.0000000 ]
  distance:    0.0501709
  band:
  - # 1
    frequency:    1.2871858678
  - # 2
    frequency:    2.3377042864
  - # 3
    frequency:    2.6898897124
  - # 4
    frequency:    4.3273635910
  - # 5
    frequency:    4.9926096856
  - # 6
    frequency:    5.3482036007
  - # 7
    frequency:    6.3689637508
  - # 8
    frequency:    6.6609349099
  - # 9
    frequency:    7.2274835586
  - # 10
    frequency:    7.2845459875
  - # 11
    frequency:    9.2775229053
  - # 12
    frequency:   10.4543637222
  - # 13
    frequency:   11.9215878199
  - # 14
    frequency:   13.0523268874
  - # 15
    frequency:   13.1694419978

- q-position: [    0.1515152,    0.0000000,    0.0000000 ]
  distance:    0.0519010
  band:
  - # 1
    frequency:    1.3606744732
  - # 2
    frequency:    2.4097787913
  - # 3
    frequency:    2.7830234280
  - # 4
    frequency:    4.3415200452
  - # 5
    frequency:    5.0245456279
  - # 6
    frequency:    5.3419014239
  - # 7
    frequency:    6.3651891404
  - # 8
    frequency:    6.6669591251
  - # 9
    frequency:    7.2370218155
  - # 10
    frequency:    7.2931032625
  - # 11
    frequency:    9.2714008228
  - # 12
    frequency:   10.3638039873
  - # 13
    frequency:   11.8624815124
  - # 14
    frequency:   13.0428206499
  - # 15
    frequency:   13.1682481360

- q-position: [    0.1565657,    0.0000000,    0.0000000 ]
  distance:    0.0536310
  band:
  - # 1
    frequency:    1.4353197548
  - # 2
    frequency:    2.4813545727
  - # 3
    frequency:    2.8737391572
  - # 4
    frequency:    4.3557852124
  - # 5
    frequency:    5.0541074290
  - # 6
    frequency:    5.3377025497
  - # 7
    frequency:    6.3612134122
  - # 8
    frequency:    6.6725861456
  - # 9
    frequency:    7.2469141051
  - # 10
    frequency:    7.3010645649
  - # 11
    frequency:    9.2656332520
  - # 12
    frequency:   10.2734965905
  - # 13
    frequency:   11.8037360488
  - # 14
    frequency:   13.0324196494
  - # 15
    frequency:   13.1664026866

- q-position: [    0.1616162,    0.0000000,    0.0000000 ]
  distance:    0.0553610
  band:
  - # 1
    frequency:    1.5110596630
  - # 2
    frequency:    2.5524391977
  - # 3
    frequency:    2.9615926781
  - # 4
    frequency:    4.3701180611
  - # 5
    frequency:    5.0810961025
  - # 6
    frequency:    5.3357502374
  - # 7
    frequency:    6.3570679073
  - # 8
    frequency:    6.6779838396
  - # 9
    frequency:    7.2571272399
  - # 10
    frequency:    7.3081633694
  - # 11
    frequency:    9.2602284806
  - # 12
    frequency:   10.1840546441
  - # 13
    frequency:   11.7454496483
  - # 14
    frequency:   13.0210866066
  - # 15
    frequency:   13.1638810351

- q-position: [    0.1666667,    0.0000000,    0.0000000 ]
  distance:    0.0570911
  band:
  - # 1
    frequency:    1.5878283268
  - # 2
    frequency:    2.6230353540
  - # 3
    frequency:    3.0461106346
  - # 4
    frequency:    4.3844790337
  - # 5
    frequency:    5.1054114172
  - # 6
    frequency:    5.3360947782
  - # 7
    frequency:    6.3527881278
  - # 8
    frequency:    6.6833396861
  - # 9
    frequency:    7.2676250167
  - # 10
    frequency:    7.3141136912
  - # 11
    frequency:    9.2551893934
  - # 12
    frequency:   10.0961310403
  - # 13
    frequency:   11.6877196865
  - # 14
    frequency:   13.0087858234
  - # 15
    frequency:   13.1606618347

- q-position: [    0.1717172,    0.0000000,    0.0000000 ]
  distance:    0.0588211
  band:
  - # 1
    frequency:    1.6655554444
  - # 2
    frequency:    2.6931399901
  - # 3
    frequency:    3.1267929263
  - # 4
    frequency:    4.3988308559
  - # 5
    frequency:    5.1271051615
  - # 6
    frequency:    5.3386396954
  - # 7
    frequency:    6.3484135080
  - # 8
    frequency:    6.6888540307
  - # 9
    frequency:    7.2783685783
  - # 10
    frequency:    7.3186217233
  - # 11
    frequency:    9.2505131649
  - # 12
    frequency:   10.0104108706
  - # 13
    frequency:   11.6306443764
  - # 14
    frequency:   12.9954833728
  - # 15
    frequency:   13.1567270714

- q-position: [    0.1767677,    0.0000000,    0.0000000 ]
  distance:    0.0605511
  band:
  - # 1
    frequency:    1.7441656830
  - # 2
    frequency:    2.7627434870
  - # 3
    frequency:    3.2031172171
  - # 4
    frequency:    4.4131394043
  - # 5
    frequency:    5.1464173418
  - # 6
    frequency:    5.3431038478
  - # 7
    frequency:    6.3439871464
  - # 8
    frequency:    6.6947326932
  - # 9
    frequency:    7.2893167840
  - # 10
    frequency:    7.3214010654
  - # 11
    frequency:    9.2461908331
  - # 12
    frequency:    9.9276002821
  - # 13
    frequency:   11.5743243529
  - # 14
    frequency:   12.9811472876
  - # 15
    frequency:   13.1520620998

- q-position: [    0.1818182,    0.0000000,    0.0000000 ]
  distance:    0.0622812
  band:
  - # 1
    frequency:    1.8235780452
  - # 2
    frequency:    2.8318288643
  - # 3
    frequency:    3.2745461537
  - # 4
    frequency:    4.4273746296
  - # 5
    frequency:    5.1637670094
  - # 6
    frequency:    5.3490272836
  - # 7
    frequency:    6.3395555002
  - # 8
    frequency:    6.7011792590
  - # 9
    frequency:    7.3004265789
  - # 10
    frequency:    7.3221918445
  - # 11
    frequency:    9.2422066699
  - # 12
    frequency:    9.8484111289
  - # 13
    frequency:   11.5188641669
  - # 14
    frequency:   12.9657477468
  - # 15
    frequency:   13.1466556490

- q-position: [    0.1868687,    0.0000000,    0.0000000 ]
  distance:    0.0640112
  band:
  - # 1
    frequency:    1.9037051458
  - # 2
    frequency:    2.9003710266
  - # 3
    frequency:    3.3405377830
  - # 4
    frequency:    4.4415115355
  - # 5
    frequency:    5.1796869090
  - # 6
    frequency:    5.3558312858
  - # 7
    frequency:    6.3351680430
  - # 8
    frequency:    6.7083874369
  - # 9
    frequency:    7.3116533566
  - # 10
    frequency:    7.3207836678
  - # 11
    frequency:    9.2385372352
  - # 12
    frequency:    9.7735411364
  - # 13
    frequency:   11.4643737064
  - # 14
    frequency:   12.9492572604
  - # 15
    frequency:   13.1404997997

- q-position: [    0.1919192,    0.0000000,    0.0000000 ]
  distance:    0.0657412
  band:
  - # 1
    frequency:    1.9844523180
  - # 2
    frequency:    2.9683360506
  - # 3
    frequency:    3.4005593941
  - # 4
    frequency:    4.4555312089
  - # 5
    frequency:    5.1947226171
  - # 6
    frequency:    5.3629118490
  - # 7
    frequency:    6.3308768843
  - # 8
    frequency:    6.7165339263
  - # 9
    frequency:    7.3170416495
  - # 10
    frequency:    7.3229513096
  - # 11
    frequency:    9.2351499684
  - # 12
    frequency:    9.7036499603
  - # 13
    frequency:   11.4109695681
  - # 14
    frequency:   12.9316508523
  - # 15
    frequency:   13.1335899311

- q-position: [    0.1969697,    0.0000000,    0.0000000 ]
  distance:    0.0674713
  band:
  - # 1
    frequency:    2.0657164337
  - # 2
    frequency:    3.0356805146
  - # 3
    frequency:    3.4541045832
  - # 4
    frequency:    4.4694218995
  - # 5
    frequency:    5.2093331463
  - # 6
    frequency:    5.3697300283
  - # 7
    frequency:    6.3267363518
  - # 8
    frequency:    6.7257723062
  - # 9
    frequency:    7.3109337278
  - # 10
    frequency:    7.3342737614
  - # 11
    frequency:    9.2320011747
  - # 12
    frequency:    9.6393324437
  - # 13
    frequency:   11.3587764022
  - # 14
    frequency:   12.9129062405
  - # 15
    frequency:   13.1259246407

- q-position: [    0.2020202,    0.0000000,    0.0000000 ]
  distance:    0.0692013
  band:
  - # 1
    frequency:    2.1473842608
  - # 2
    frequency:    3.1023508714
  - # 3
    frequency:    3.5007128021
  - # 4
    frequency:    4.4831801434
  - # 5
    frequency:    5.2238189156
  - # 6
    frequency:    5.3758743724
  - # 7
    frequency:    6.3228025373
  - # 8
    frequency:    6.7362284941
  - # 9
    frequency:    7.3025562586
  - # 10
    frequency:    7.3455734797
  - # 11
    frequency:    9.2290333452
  - # 12
    frequency:    9.5810913834
  - # 13
    frequency:   11.3079282506
  - # 14
    frequency:   12.8930040159
  - # 15
    frequency:   13.1175056365

- q-position: [    0.2070707,    0.0000000,    0.0000000 ]
  distance:    0.0709313
  band:
  - # 1
    frequency:    2.2293300917
  - # 2
    frequency:    3.1682828684
  - # 3
    frequency:    3.5399901647
  - # 4
    frequency:    4.4968119168
  - # 5
    frequency:    5.2382819478
  - # 6
    frequency:    5.3810924468
  - # 7
    frequency:    6.3191328062
  - # 8
    frequency:    6.7479982978
  - # 9
    frequency:    7.2921537656
  - # 10
    frequency:    7.3568029666
  - # 11
    frequency:    9.2261720664
  - # 12
    frequency:    9.5293127663
  - # 13
    frequency:   11.2585698874
  - # 14
    frequency:   12.8719278173
  - # 15
    frequency:   13.1083376028

- q-position: [    0.2121212,    0.0000000,    0.0000000 ]
  distance:    0.0726614
  band:
  - # 1
    frequency:    2.3114122101