nqpoint: 300    
npath: 3      
segment_nqpoint:
- 100
- 100
- 100
labels:
- [ 'G', 'M' ]
- [ 'M', 'K' ]
- [ 'K', 'G' ]
reciprocal_lattice:
- [   0.29925329,   0.17277397,   0.00000000 ] # a*
- [   0.00000000,   0.34554793,   0.00000000 ] # b*
- [   0.00000000,   0.00000000,   0.03788894 ] # c*
natom: 6      
lattice:
- [     3.341650838090990,     0.000000000000000,     0.000000000000000 ] # a
- [    -1.670825419045495,     2.893954516363730,     0.000000000000000 ] # b
- [     0.000000000000000,     0.000000000000000,    26.392925887713439 ] # c
points:
- symbol: C # 1
  coordinates: [  0.000000000000000,  0.000000000000000,  0.437109785893417 ]
  mass: 12.010700
- symbol: Cl # 2
  coordinates: [  0.333332985432215,  0.666666983183674,  0.658999535015945 ]
  mass: 35.453000
- symbol: F # 3
  coordinates: [  0.666666984744047,  0.333332985985145,  0.341000464984056 ]
  mass: 18.998403
- symbol: O # 4
  coordinates: [  0.333332985432215,  0.666666983183674,  0.526408111557060 ]
  mass: 15.999400
- symbol: Zr # 5
  coordinates: [  0.333332985432215,  0.666666983183674,  0.390720095121296 ]
  mass: 91.224000
- symbol: Zr # 6
  coordinates: [  0.666666984744047,  0.333332985985145,  0.492594767611064 ]
  mass: 91.224000

phonon:
- q-position: [    0.0000000,    0.0000000,    0.0000000 ]
  distance:    0.0000000
  band:
  - # 1
    frequency:   -1.6994772706
  - # 2
    frequency:   -1.6994772706
  - # 3
    frequency:   -0.0000047629
  - # 4
    frequency:   -0.0000002474
  - # 5
    frequency:    0.0000034039
  - # 6
    frequency:    1.1782742789
  - # 7
    frequency:    2.6246287784
  - # 8
    frequency:    2.6246287784
  - # 9
    frequency:    6.4672337251
  - # 10
    frequency:    6.6050062398
  - # 11
    frequency:    6.6050062398
  - # 12
    frequency:    7.7206105022
  - # 13
    frequency:    7.7206105022
  - # 14
    frequency:   11.7478676286
  - # 15
    frequency:   13.9832917741
  - # 16
    frequency:   14.5394495615
  - # 17
    frequency:   14.5394495615
  - # 18
    frequency:   18.2104634665

- q-position: [    0.0050505,    0.0000000,    0.0000000 ]
  distance:    0.0017452
  band:
  - # 1
    frequency:   -1.7025680454
  - # 2
    frequency:   -1.7001588747
  - # 3
    frequency:   -0.0570413047
  - # 4
    frequency:   -0.0026849087
  - # 5
    frequency:    0.0024880096
  - # 6
    frequency:    1.1794217034
  - # 7
    frequency:    2.6262124732
  - # 8
    frequency:    2.6268763907
  - # 9
    frequency:    6.4666977678
  - # 10
    frequency:    6.6045040428
  - # 11
    frequency:    6.6056024761
  - # 12
    frequency:    7.7185345063
  - # 13
    frequency:    7.7216197890
  - # 14
    frequency:   11.7470779508
  - # 15
    frequency:   13.9830956158
  - # 16
    frequency:   14.5382434067
  - # 17
    frequency:   14.5386272925
  - # 18
    frequency:   18.2098432854

- q-position: [    0.0101010,    0.0000000,    0.0000000 ]
  distance:    0.0034904
  band:
  - # 1
    frequency:   -1.7118396798
  - # 2
    frequency:   -1.7022116409
  - # 3
    frequency:   -0.1124671302
  - # 4
    frequency:   -0.0106211813
  - # 5
    frequency:    0.0093209753
  - # 6
    frequency:    1.1827796305
  - # 7
    frequency:    2.6309599964
  - # 8
    frequency:    2.6335887221
  - # 9
    frequency:    6.4650910695
  - # 10
    frequency:    6.6030006779
  - # 11
    frequency:    6.6073859977
  - # 12
    frequency:    7.7123236014
  - # 13
    frequency:    7.7246439678
  - # 14
    frequency:   11.7447095513
  - # 15
    frequency:   13.9825009202
  - # 16
    frequency:   14.5346346652
  - # 17
    frequency:   14.5361663882
  - # 18
    frequency:   18.2079846625

- q-position: [    0.0151515,    0.0000000,    0.0000000 ]
  distance:    0.0052356
  band:
  - # 1
    frequency:   -1.7272865432
  - # 2
    frequency:   -1.7056591003
  - # 3
    frequency:   -0.1647918601
  - # 4
    frequency:   -0.0234426875
  - # 5
    frequency:    0.0206828858
  - # 6
    frequency:    1.1881137047
  - # 7
    frequency:    2.6388601879
  - # 8
    frequency:    2.6446753181
  - # 9
    frequency:    6.4624167879
  - # 10
    frequency:    6.6005056655
  - # 11
    frequency:    6.6103413706
  - # 12
    frequency:    7.7020293536
  - # 13
    frequency:    7.7296720890
  - # 14
    frequency:   11.7407643631
  - # 15
    frequency:   13.9814889143
  - # 16
    frequency:   14.5286526030
  - # 17
    frequency:   14.5320845224
  - # 18
    frequency:   18.2048933612

- q-position: [    0.0202020,    0.0000000,    0.0000000 ]
  distance:    0.0069808
  band:
  - # 1
    frequency:   -1.7488875694
  - # 2
    frequency:   -1.7105393367
  - # 3
    frequency:   -0.2127869796
  - # 4
    frequency:   -0.0404971268
  - # 5
    frequency:    0.0365520313
  - # 6
    frequency:    1.1950880601
  - # 7
    frequency:    2.6498929853
  - # 8
    frequency:    2.6599888955
  - # 9
    frequency:    6.4586791578
  - # 10
    frequency:    6.5970343601
  - # 11
    frequency:    6.6144430792
  - # 12
    frequency:    7.6877388004
  - # 13
    frequency:    7.7366862127
  - # 14
    frequency:   11.7352457087
  - # 15
    frequency:   13.9800279359
  - # 16
    frequency:   14.5203463235
  - # 17
    frequency:   14.5264110356
  - # 18
    frequency:   18.2005789944

- q-position: [    0.0252525,    0.0000000,    0.0000000 ]
  distance:    0.0087260
  band:
  - # 1
    frequency:   -1.7765897811
  - # 2
    frequency:   -1.7169031834
  - # 3
    frequency:   -0.2556172663
  - # 4
    frequency:   -0.0607568554
  - # 5
    frequency:    0.0568868059
  - # 6
    frequency:    1.2033259145
  - # 7
    frequency:    2.6640276377
  - # 8
    frequency:    2.6793303257
  - # 9
    frequency:    6.4538824758
  - # 10
    frequency:    6.5926072276
  - # 11
    frequency:    6.6196551904
  - # 12
    frequency:    7.6695762081
  - # 13
    frequency:    7.7456618353
  - # 14
    frequency:   11.7281584455
  - # 15
    frequency:   13.9780728640
  - # 16
    frequency:   14.5097852688
  - # 17
    frequency:   14.5191867615
  - # 18
    frequency:   18.1950550326

- q-position: [    0.0303030,    0.0000000,    0.0000000 ]
  distance:    0.0104711
  band:
  - # 1
    frequency:   -1.8102883317
  - # 2
    frequency:   -1.7248115337
  - # 3
    frequency:   -0.2930176105
  - # 4
    frequency:   -0.0826358715
  - # 5
    frequency:    0.0816251288
  - # 6
    frequency:    1.2124645759
  - # 7
    frequency:    2.6812209242
  - # 8
    frequency:    2.7024551794
  - # 9
    frequency:    6.4480304117
  - # 10
    frequency:    6.5872489202
  - # 11
    frequency:    6.6259298906
  - # 12
    frequency:    7.6477057852
  - # 13
    frequency:    7.7565684233
  - # 14
    frequency:   11.7195091586
  - # 15
    frequency:   13.9755643094
  - # 16
    frequency:   14.4970599382
  - # 17
    frequency:   14.5104637805
  - # 18
    frequency:   18.1883388116

- q-position: [    0.0353535,    0.0000000,    0.0000000 ]
  distance:    0.0122163
  band:
  - # 1
    frequency:   -1.8498073658
  - # 2
    frequency:   -1.7343316811
  - # 3
    frequency:   -0.3255492585
  - # 4
    frequency:   -0.1036482416
  - # 5
    frequency:    0.1106804931
  - # 6
    frequency:    1.2221944022
  - # 7
    frequency:    2.7014158912
  - # 8
    frequency:    2.7290814500
  - # 9
    frequency:    6.4411258936
  - # 10
    frequency:    6.5809872214
  - # 11
    frequency:    6.6332043458
  - # 12
    frequency:    7.6223356405
  - # 13
    frequency:    7.7693699988
  - # 14
    frequency:   11.7093063916
  - # 15
    frequency:   13.9724275629
  - # 16
    frequency:   14.4822828310
  - # 17
    frequency:   14.5003051007
  - # 18
    frequency:   18.1804515341

- q-position: [    0.0404040,    0.0000000,    0.0000000 ]
  distance:    0.0139615
  band:
  - # 1
    frequency:   -1.8948868656
  - # 2
    frequency:   -1.7455326868
  - # 3
    frequency:   -0.3549107419
  - # 4
    frequency:   -0.1198531673
  - # 5
    frequency:    0.1439382935
  - # 6
    frequency:    1.2322793598
  - # 7
    frequency:    2.7245415281
  - # 8
    frequency:    2.7588980277
  - # 9
    frequency:    6.4331715899
  - # 10
    frequency:    6.5738519394
  - # 11
    frequency:    6.6413954064
  - # 12
    frequency:    7.5937234258
  - # 13
    frequency:    7.7840257289
  - # 14
    frequency:   11.6975609022
  - # 15
    frequency:   13.9685713199
  - # 16
    frequency:   14.4655895979
  - # 17
    frequency:   14.4887842631
  - # 18
    frequency:   18.1714182630

- q-position: [    0.0454545,    0.0000000,    0.0000000 ]
  distance:    0.0157067
  band:
  - # 1
    frequency:   -1.9451796083
  - # 2
    frequency:   -1.7584799037
  - # 3
    frequency:   -0.3840269339
  - # 4
    frequency:   -0.1250817180
  - # 5
    frequency:    0.1812533133
  - # 6
    frequency:    1.2425619137
  - # 7
    frequency:    2.7505136020
  - # 8
    frequency:    2.7915734920
  - # 9
    frequency:    6.4241708698
  - # 10
    frequency:    6.5658738206
  - # 11
    frequency:    6.6503916078
  - # 12
    frequency:    7.5621843012
  - # 13
    frequency:    7.8004904724
  - # 14
    frequency:   11.6842859324
  - # 15
    frequency:   13.9638862428
  - # 16
    frequency:   14.4471403493
  - # 17
    frequency:   14.4759848683
  - # 18
    frequency:   18.1612678972

- q-position: [    0.0505051,    0.0000000,    0.0000000 ]
  distance:    0.0174519
  band:
  - # 1
    frequency:   -2.0002595359
  - # 2
    frequency:   -1.7732289555
  - # 3
    frequency:   -0.4163369634
  - # 4
    frequency:   -0.1091110851
  - # 5
    frequency:    0.2224489280
  - # 6
    frequency:    1.2529567533
  - # 7
    frequency:    2.7792366206
  - # 8
    frequency:    2.8267648165
  - # 9
    frequency:    6.4141290805
  - # 10
    frequency:    6.5570835497
  - # 11
    frequency:    6.6600416782
  - # 12
    frequency:    7.5281021329
  - # 13
    frequency:    7.8187152580
  - # 14
    frequency:   11.6694974785
  - # 15
    frequency:   13.9582434985
  - # 16
    frequency:   14.4271209856
  - # 17
    frequency:   14.4620000233
  - # 18
    frequency:   18.1500331271

- q-position: [    0.0555556,    0.0000000,    0.0000000 ]
  distance:    0.0191971
  band:
  - # 1
    frequency:   -2.0596395296
  - # 2
    frequency:   -1.7898196309
  - # 3
    frequency:   -0.4543210063
  - # 4
    frequency:   -0.0301499595
  - # 5
    frequency:    0.2673183525
  - # 6
    frequency:    1.2634376790
  - # 7
    frequency:    2.8106066422
  - # 8
    frequency:    2.8641256386
  - # 9
    frequency:    6.4030549995
  - # 10
    frequency:    6.5475108849
  - # 11
    frequency:    6.6701383901
  - # 12
    frequency:    7.4919451739
  - # 13
    frequency:    7.8386476782
  - # 14
    frequency:   11.6532145512
  - # 15
    frequency:   13.9514935417
  - # 16
    frequency:   14.4057442883
  - # 17
    frequency:   14.4469317053
  - # 18
    frequency:   18.1377503618

- q-position: [    0.0606061,    0.0000000,    0.0000000 ]
  distance:    0.0209423
  band:
  - # 1
    frequency:   -2.1227943286
  - # 2
    frequency:   -1.8082702715
  - # 3
    frequency:   -0.4986881239
  - # 4
    frequency:    0.1350665023
  - # 5
    frequency:    0.3156279966
  - # 6
    frequency:    1.2740211446
  - # 7
    frequency:    2.8445144610
  - # 8
    frequency:    2.9033138192
  - # 9
    frequency:    6.3909623674
  - # 10
    frequency:    6.5371839642
  - # 11
    frequency:    6.6803961981
  - # 12
    frequency:    7.4542877994
  - # 13
    frequency:    7.8602322042
  - # 14
    frequency:   11.6354594136
  - # 15
    frequency:   13.9434656101
  - # 16
    frequency:   14.3832503113
  - # 17
    frequency:   14.4308900405
  - # 18
    frequency:   18.1244596225

- q-position: [    0.0656566,    0.0000000,    0.0000000 ]
  distance:    0.0226875
  band:
  - # 1
    frequency:   -2.1891839065
  - # 2
    frequency:   -1.8285732541
  - # 3
    frequency:   -0.5489260070
  - # 4
    frequency:    0.2125470940
  - # 5
    frequency:    0.3671227027
  - # 6
    frequency:    1.2847491408
  - # 7
    frequency:    2.8808486068
  - # 8
    frequency:    2.9439980976
  - # 9
    frequency:    6.3778714441
  - # 10
    frequency:    6.5261288021
  - # 11
    frequency:    6.6904209996
  - # 12
    frequency:    7.4158399196
  - # 13
    frequency:    7.8834104399
  - # 14
    frequency:   11.6162577881
  - # 15
    frequency:   13.9339686680
  - # 16
    frequency:   14.3599053422
  - # 17
    frequency:   14.4139924973
  - # 18
    frequency:   18.1102043967

- q-position: [    0.0707071,    0.0000000,    0.0000000 ]
  distance:    0.0244327
  band:
  - # 1
    frequency:   -2.2582737128
  - # 2
    frequency:   -1.8506920752
  - # 3
    frequency:   -0.6041759395
  - # 4
    frequency:    0.2806606667
  - # 5
    frequency:    0.4215323746
  - # 6
    frequency:    1.2956734712
  - # 7
    frequency:    2.9194976161
  - # 8
    frequency:    2.9858637252
  - # 9
    frequency:    6.3638105549
  - # 10
    frequency:    6.5143689833
  - # 11
    frequency:    6.6996713067
  - # 12
    frequency:    7.3774846860
  - # 13
    frequency:    7.9081213443
  - # 14
    frequency:   11.5956390261
  - # 15
    frequency:   13.9227948269
  - # 16
    frequency:   14.3359984131
  - # 17
    frequency:   14.3963629930
  - # 18
    frequency:   18.0950314475

- q-position: [    0.0757576,    0.0000000,    0.0000000 ]
  distance:    0.0261779
  band:
  - # 1
    frequency:   -2.3295499133
  - # 2
    frequency:   -1.8745603472
  - # 3
    frequency:   -0.6636875574
  - # 4
    frequency:    0.3428875209
  - # 5
    frequency:    0.4785793201
  - # 6
    frequency:    1.3068429897
  - # 7
    frequency:    2.9603511549
  - # 8
    frequency:    3.0286170297
  - # 9
    frequency:    6.3488176010
  - # 10
    frequency:    6.5019255483
  - # 11
    frequency:    6.7074139144
  - # 12
    frequency:    7.3403212749
  - # 13
    frequency:    7.9343014608
  - # 14
    frequency:   11.5736362344
  - # 15
    frequency:   13.9097264754
  - # 16
    frequency:   14.3118341327
  - # 17
    frequency:   14.3781309156
  - # 18
    frequency:   18.0789905756

- q-position: [    0.0808081,    0.0000000,    0.0000000 ]
  distance:    0.0279231
  band:
  - # 1
    frequency:   -2.4025293186
  - # 2
    frequency:   -1.9000827529
  - # 3
    frequency:   -0.7269311821
  - # 4
    frequency:    0.4000255263
  - # 5
    frequency:    0.5379855669
  - # 6
    frequency:    1.3182949356
  - # 7
    frequency:    3.0032997700
  - # 8
    frequency:    3.0719889148
  - # 9
    frequency:    6.3329414988
  - # 10
    frequency:    6.4888170582
  - # 11
    frequency:    6.7126870621
  - # 12
    frequency:    7.3056996036
  - # 13
    frequency:    7.9618851894
  - # 14
    frequency:   11.5502863566
  - # 15
    frequency:   13.8945482135
  - # 16
    frequency:   14.2877207517
  - # 17
    frequency:   14.3594300629
  - # 18
    frequency:   18.0621343292

- q-position: [    0.0858586,    0.0000000,    0.0000000 ]
  distance:    0.0296683
  band:
  - # 1
    frequency:   -2.4767646839
  - # 2
    frequency:   -1.9271377422
  - # 3
    frequency:   -0.7935816215
  - # 4
    frequency:    0.4523088065
  - # 5
    frequency:    0.5994794752
  - # 6
    frequency:    1.3300510394
  - # 7
    frequency:    3.0482332848
  - # 8
    frequency:    3.1157373435
  - # 9
    frequency:    6.3162434918
  - # 10
    frequency:    6.4750598187
  - # 11
    frequency:    6.7143033081
  - # 12
    frequency:    7.2752146056
  - # 13
    frequency:    7.9908051400
  - # 14
    frequency:   11.5256302067
  - # 15
    frequency:   13.8770639121
  - # 16
    frequency:   14.2639531440
  - # 17
    frequency:   14.3403975033
  - # 18
    frequency:   18.0445176623

- q-position: [    0.0909091,    0.0000000,    0.0000000 ]
  distance:    0.0314134
  band:
  - # 1
    frequency:   -2.5518464843
  - # 2
    frequency:   -1.9555815548
  - # 3
    frequency:   -0.8634743742
  - # 4
    frequency:    0.4998551812
  - # 5
    frequency:    0.6628011455
  - # 6
    frequency:    1.3421185192
  - # 7
    frequency:    3.0950380971
  - # 8
    frequency:    3.1596488801
  - # 9
    frequency:    6.2987982378
  - # 10
    frequency:    6.4606682417
  - # 11
    frequency:    6.7109472504
  - # 12
    frequency:    7.2506048045
  - # 13
    frequency:    8.0209925965
  - # 14
    frequency:   11.4997124584
  - # 15
    frequency:   13.8571176241
  - # 16
    frequency:   14.2407919836
  - # 17
    frequency:   14.3211723669
  - # 18
    frequency:   18.0261975401

- q-position: [    0.0959596,    0.0000000,    0.0000000 ]
  distance:    0.0331586
  band:
  - # 1
    frequency:   -2.6274022945
  - # 2
    frequency:   -1.9852530455
  - # 3
    frequency:   -0.9365621594
  - # 4
    frequency:    0.5428115140
  - # 5
    frequency:    0.7277063440
  - # 6
    frequency:    1.3544953892
  - # 7
    frequency:    3.1435938421
  - # 8
    frequency:    3.2035393834
  - # 9
    frequency:    6.2806945232
  - # 10
    frequency:    6.4456553203
  - # 11
    frequency:    6.7014175287
  - # 12
    frequency:    7.2335056766
  - # 13
    frequency:    8.0523781093
  - # 14
    frequency:   11.4725815897
  - # 15
    frequency:   13.8346149706
  - # 16
    frequency:   14.2184424939
  - # 17
    frequency:   14.3018945744
  - # 18
    frequency:   18.0072324950

- q-position: [    0.1010101,    0.0000000,    0.0000000 ]
  distance:    0.0349038
  band:
  - # 1
    frequency:   -2.7030947204
  - # 2
    frequency:   -2.0159787894
  - # 3
    frequency:   -1.0128750076
  - # 4
    frequency:    0.5814154938
  - # 5
    frequency:    0.7939688998
  - # 6
    frequency:    1.3671787239
  - # 7
    frequency:    3.1937700263
  - # 8
    frequency:    3.2472539528
  - # 9
    frequency:    6.2620353830
  - # 10
    frequency:    6.4300331925
  - # 11
    frequency:    6.6849759701
  - # 12
    frequency:    7.2250949561
  - # 13
    frequency:    8.0848922278
  - # 14
    frequency:   11.4442897891
  - # 15
    frequency:   13.8095400435
  - # 16
    frequency:   14.1970377336
  - # 17
    frequency:   14.2827035182
  - # 18
    frequency:   17.9876821355

- q-position: [    0.1060606,    0.0000000,    0.0000000 ]
  distance:    0.0366490
  band:
  - # 1
    frequency:   -2.7786185872
  - # 2
    frequency:   -2.0475780196
  - # 3
    frequency:   -1.0924819197
  - # 4
    frequency:    0.6160253769
  - # 5
    frequency:    0.8613817060
  - # 6
    frequency:    1.3801738256
  - # 7
    frequency:    3.2454232779
  - # 8
    frequency:    3.2906662332
  - # 9
    frequency:    6.2429373223
  - # 10
    frequency:    6.4138137729
  - # 11
    frequency:    6.6616243387
  - # 12
    frequency:    7.2258095809
  - # 13
    frequency:    8.1184663649
  - # 14
    frequency:   11.4148928250
  - # 15
    frequency:   13.7819630917
  - # 16
    frequency:   14.1766311501
  - # 17
    frequency:   14.2637367099
  - # 18
    frequency:   17.9676066148

- q-position: [    0.1111111,    0.0000000,    0.0000000 ]
  distance:    0.0383942
  band:
  - # 1
    frequency:   -2.8536978637
  - # 2
    frequency:   -2.0798670740
  - # 3
    frequency:   -1.1754526242
  - # 4
    frequency:    0.6471322686
  - # 5
    frequency:    0.9297565764
  - # 6
    frequency:    1.3935019283
  - # 7
    frequency:    3.2983957965
  - # 8
    frequency:    3.3336771815
  - # 9
    frequency:    6.2235282350
  - # 10
    frequency:    6.3970094292
  - # 11
    frequency:    6.6321111507
  - # 12
    frequency:    7.2353321578
  - # 13
    frequency:    8.1530337779
  - # 14
    frequency:   11.3844498862
  - # 15
    frequency:   13.7520367715
  - # 16
    frequency:   14.1572006212
  - # 17
    frequency:   14.2451284135
  - # 18
    frequency:   17.9470660657

- q-position: [    0.1161616,    0.0000000,    0.0000000 ]
  distance:    0.0401394
  band:
  - # 1
    frequency:   -2.9280826190
  - # 2
    frequency:   -2.1126631622
  - # 3
    frequency:   -1.2618197962
  - # 4
    frequency:    0.6753590735
  - # 5
    frequency:    0.9989232566
  - # 6
    frequency:    1.4072043806
  - # 7
    frequency:    3.3525154173
  - # 8
    frequency:    3.3762133973
  - # 9
    frequency:    6.2039435250
  - # 10
    frequency:    6.3796336870
  - # 11
    frequency:    6.5976727344
  - # 12
    frequency:    7.2528433293
  - # 13
    frequency:    8.1885306350
  - # 14
    frequency:   11.3530233969
  - # 15
    frequency:   13.7199824342
  - # 16
    frequency:   14.1386625107
  - # 17
    frequency:   14.2270082855
  - # 18
    frequency:   17.9261200118

- q-position: [    0.1212121,    0.0000000,    0.0000000 ]
  distance:    0.0418846
  band:
  - # 1
    frequency:   -3.0015461824
  - # 2
    frequency:   -2.1457873758
  - # 3
    frequency:   -1.3515438736
  - # 4
    frequency:    0.7014469302
  - # 5
    frequency:    1.0687278854
  - # 6
    frequency:    1.4213422267
  - # 7
    frequency:    3.4075974649
  - # 8
    frequency:    3.4182251101
  - # 9
    frequency:    6.1843198555
  - # 10
    frequency:    6.3617019452
  - # 11
    frequency:    6.5597036143
  - # 12
    frequency:    7.2773457644
  - # 13
    frequency:    8.2248971291
  - # 14
    frequency:   11.3206788125
  - # 15
    frequency:   13.6860707569
  - # 16
    frequency:   14.1208914284
  - # 17
    frequency:   14.2095000450
  - # 18
    frequency:   17.9048267643

- q-position: [    0.1262626,    0.0000000,    0.0000000 ]
  distance:    0.0436298
  band:
  - # 1
    frequency:   -3.0738825865
  - # 2
    frequency:   -2.1790669615
  - # 3
    frequency:   -1.4444837077
  - # 4
    frequency:    0.7262293330
  - # 5
    frequency:    1.1390311622
  - # 6
    frequency:    1.4359914468
  - # 7
    frequency:    3.4596839138
  - # 8
    frequency:    3.4634483018
  - # 9
    frequency:    6.1647859221
  - # 10
    frequency:    6.3432321894
  - # 11
    frequency:    6.5195241865
  - # 12
    frequency:    7.3078928198
  - # 13
    frequency:    8.2620785911
  - # 14
    frequency:   11.2874844009
  - # 15
    frequency:   13.6506016777
  - # 16
    frequency:   14.1037407295
  - # 17
    frequency:   14.1927202003
  - # 18
    frequency:   17.8832428179

- q-position: [    0.1313131,    0.0000000,    0.0000000 ]
  distance:    0.0453750
  band:
  - # 1
    frequency:   -3.1449043235
  - # 2
    frequency:   -2.2123369250
  - # 3
    frequency:   -1.5403763735
  - # 4
    frequency:    0.7505950829
  - # 5
    frequency:    1.2097064232
  - # 6
    frequency:    1.4512353225
  - # 7
    frequency:    3.5005803285
  - # 8
    frequency:    3.5198702319
  - # 9
    frequency:    6.1454496870
  - # 10
    frequency:    6.3242456899
  - # 11
    frequency:    6.4782805681
  - # 12
    frequency:    7.3436881358
  - # 13
    frequency:    8.3000265524
  - # 14
    frequency:   11.2535110151
  - # 15
    frequency:   13.6138873157
  - # 16
    frequency:   14.0870600675
  - # 17
    frequency:   14.1767768580
  - # 18
    frequency:   17.8614222568

- q-position: [    0.1363636,    0.0000000,    0.0000000 ]
  distance:    0.0471202
  band:
  - # 1
    frequency:   -3.2144404104
  - # 2
    frequency:   -2.2454410700
  - # 3
    frequency:   -1.6388284693
  - # 4
    frequency:    0.7754430648
  - # 5
    frequency:    1.2806377704
  - # 6
    frequency:    1.4671560032
  - # 7
    frequency:    3.5409212614
  - # 8
    frequency:    3.5766672320
  - # 9
    frequency:    6.1263817099
  - # 10
    frequency:    6.3047676737
  - # 11
    frequency:    6.4369349549
  - # 12
    frequency:    7.3840989402
  - # 13
    frequency:    8.3386997035
  - # 14
    frequency:   11.2188318615
  - # 15
    frequency:   13.5762395473
  - # 16
    frequency:   14.0707083213
  - # 17
    frequency:   14.1617686425
  - # 18
    frequency:   17.8394161860

- q-position: [    0.1414141,    0.0000000,    0.0000000 ]
  distance:    0.0488654
  band:
  - # 1
    frequency:   -3.2823347427
  - # 2
    frequency:   -2.2782325813
  - # 3
    frequency:   -1.7393194777
  - # 4
    frequency:    0.8016338427
  - # 5
    frequency:    1.3517183481
  - # 6
    frequency:    1.4838272028
  - # 7
    frequency:    3.5807274330
  - # 8
    frequency:    3.6336508947
  - # 9
    frequency:    6.1075947016
  - # 10
    frequency:    6.2848279614
  - # 11
    frequency:    6.3962993686
  - # 12
    frequency:    7.4286308703
  - # 13
    frequency:    8.3780647001
  - # 14
    frequency:   11.1835222669
  - # 15
    frequency:   13.5379622507
  - # 16
    frequency:   14.0545618785
  - # 17
    frequency:   14.1477837510
  - # 18
    frequency:   17.8172721992

- q-position: [    0.1464646,    0.0000000,    0.0000000 ]
  distance:    0.0506106
  band:
  - # 1
    frequency:   -3.3484447084
  - # 2
    frequency:   -2.3105742568
  - # 3
    frequency:   -1.8412158309
  - # 4
    frequency:    0.8299442932
  - # 5
    frequency:    1.4228488188
  - # 6
    frequency:    1.5013092623
  - # 7
    frequency:    3.6200308232
  - # 8
    frequency:    3.6906459656
  - # 9
    frequency:    6.0890206133
  - # 10
    frequency:    6.2644615575
  - # 11
    frequency:    6.3570837422
  - # 12
    frequency:    7.4768928726
  - # 13
    frequency:    8.4180967712
  - # 14
    frequency:   11.1476594500
  - # 15
    frequency:   13.4993473260
  - # 16
    frequency:   14.0385191548
  - # 17
    frequency:   14.1348991693
  - # 18
    frequency:   17.7950338985

- q-position: [    0.1515152,    0.0000000,    0.0000000 ]
  distance:    0.0523557
  band:
  - # 1
    frequency:   -3.4126400314
  - # 2
    frequency:   -2.3423384832
  - # 3
    frequency:   -1.9437928399
  - # 4
    frequency:    0.8610313010
  - # 5
    frequency:    1.4939360620
  - # 6
    frequency:    1.5196469521
  - # 7
    frequency:    3.6588721857
  - # 8
    frequency:    3.7474949434
  - # 9
    frequency:    6.0704891774
  - # 10
    frequency:    6.2437091849
  - # 11
    frequency:    6.3199428692
  - # 12
    frequency:    7.5285644485
  - # 13
    frequency:    8.4587800922
  - # 14
    frequency:   11.1113222973
  - # 15
    frequency:   13.4606733516
  - # 16
    frequency:   14.0225024788
  - # 17
    frequency:   14.1231800683
  - # 18
    frequency:   17.7727404763

- q-position: [    0.1565657,    0.0000000,    0.0000000 ]
  distance:    0.0541009
  band:
  - # 1
    frequency:   -3.4748018125
  - # 2
    frequency:   -2.3734070304
  - # 3
    frequency:   -2.0462609735
  - # 4
    frequency:    0.8954088225
  - # 5
    frequency:    1.5388697069
  - # 6
    frequency:    1.5648920978
  - # 7
    frequency:    3.6972986700
  - # 8
    frequency:    3.8040613558
  - # 9
    frequency:    6.0517168104
  - # 10
    frequency:    6.2226177537
  - # 11
    frequency:    6.2855101647
  - # 12
    frequency:    7.5833688932
  - # 13
    frequency:    8.5001078979
  - # 14
    frequency:   11.0745911492
  - # 15
    frequency:   13.4222058551
  - # 16
    frequency:   14.0064583501
  - # 17
    frequency:   14.1126793994
  - # 18
    frequency:   17.7504263721

- q-position: [    0.1616162,    0.0000000,    0.0000000 ]
  distance:    0.0558461
  band:
  - # 1
    frequency:   -3.5348217372
  - # 2
    frequency:   -2.4036707288
  - # 3
    frequency:   -2.1477931165
  - # 4
    frequency:    0.9334398910
  - # 5
    frequency:    1.5589936417
  - # 6
    frequency:    1.6356332222
  - # 7
    frequency:    3.7353615836
  - # 8
    frequency:    3.8602314959
  - # 9
    frequency:    6.0323217400
  - # 10
    frequency:    6.2012407501
  - # 11
    frequency:    6.2544024785
  - # 12
    frequency:    7.6410526567
  - # 13
    frequency:    8.5420823184
  - # 14
    frequency:   11.0375475948
  - # 15
    frequency:   13.3841984273
  - # 16
    frequency:   13.9903568264
  - # 17
    frequency:   14.1034376988
  - # 18
    frequency:   17.7281210122

- q-position: [    0.1666667,    0.0000000,    0.0000000 ]
  distance:    0.0575913
  band:
  - # 1
    frequency:   -3.5926014199
  - # 2
    frequency:   -2.4330290751
  - # 3
    frequency:   -2.2475501436
  - # 4
    frequency:    0.9753422761
  - # 5
    frequency:    1.5800246695
  - # 6
    frequency:    1.7060793373
  - # 7
    frequency:    3.7731143196
  - # 8
    frequency:    3.9159145828
  - # 9
    frequency:    6.0118840666
  - # 10
    frequency:    6.1796385362
  - # 11
    frequency:    6.2271781249
  - # 12
    frequency:    7.7013698823
  - # 13
    frequency:    8.5847139348
  - # 14
    frequency:   11.0002742792
  - # 15
    frequency:   13.3468941491
  - # 16
    frequency:   13.9741905493
  - # 17
    frequency:   14.0954831081
  - # 18
    frequency:   17.7058486406

- q-position: [    0.1717172,    0.0000000,    0.0000000 ]
  distance:    0.0593365
  band:
  - # 1
    frequency:   -3.6480518544
  - # 2
    frequency:   -2.4613898037
  - # 3
    frequency:   -2.3447030807
  - # 4
    frequency:    1.0212043457
  - # 5
    frequency:    1.6019622245
  - # 6
    frequency:    1.7761534549
  - # 7
    frequency:    3.8106104696
  - # 8
    frequency:    3.9710414651
  - # 9
    frequency:    5.9900538417
  - # 10
    frequency:    6.1578785445
  - # 11
    frequency:    6.2042457602
  - # 12
    frequency:    7.7640710544
  - # 13
    frequency:    8.6280210636
  - # 14
    frequency:   10.9628547217
  - # 15
    frequency:   13.3105269900
  - # 16
    frequency:   13.9579737267
  - # 17
    frequency:   14.0888316090
  - # 18
    frequency:   17.6836282466

- q-position: [    0.1767677,    0.0000000,    0.0000000 ]
  distance:    0.0610817
  band:
  - # 1
    frequency:   -3.7010929382
  - # 2
    frequency:   -2.4886684474
  - # 3
    frequency:   -2.4384510270
  - # 4
    frequency:    1.0710066578
  - # 5
    frequency:    1.6248033679
  - # 6
    frequency:    1.8457813483
  - # 7
    frequency:    3.8479021361
  - # 8
    frequency:    4.0255621110
  - # 9
    frequency:    5.9666694017
  - # 10
    frequency:    6.1360353562
  - # 11
    frequency:    6.1857621974
  - # 12
    frequency:    7.8288948568
  - # 13
    frequency:    8.6720287892
  - # 14