nqpoint: 300    
npath: 3      
segment_nqpoint:
- 100
- 100
- 100
labels:
- [ 'G', 'M' ]
- [ 'M', 'K' ]
- [ 'K', 'G' ]
reciprocal_lattice:
- [   0.29925329,   0.17277397,   0.00000000 ] # a*
- [   0.00000000,   0.34554793,   0.00000000 ] # b*
- [   0.00000000,   0.00000000,   0.03788894 ] # c*
natom: 6      
lattice:
- [     3.341650838090990,     0.000000000000000,     0.000000000000000 ] # a
- [    -1.670825419045495,     2.893954516363730,     0.000000000000000 ] # b
- [     0.000000000000000,     0.000000000000000,    26.392925887713439 ] # c
points:
- symbol: C # 1
  coordinates: [  0.000000000000000,  0.000000000000000,  0.437109785893417 ]
  mass: 12.010700
- symbol: Cl # 2
  coordinates: [  0.333332985432215,  0.666666983183674,  0.658999535015945 ]
  mass: 35.453000
- symbol: F # 3
  coordinates: [  0.666666984744047,  0.333332985985145,  0.341000464984056 ]
  mass: 18.998403
- symbol: O # 4
  coordinates: [  0.333332985432215,  0.666666983183674,  0.526408111557060 ]
  mass: 15.999400
- symbol: Zr # 5
  coordinates: [  0.333332985432215,  0.666666983183674,  0.390720095121296 ]
  mass: 91.224000
- symbol: Zr # 6
  coordinates: [  0.666666984744047,  0.333332985985145,  0.492594767611064 ]
  mass: 91.224000

phonon:
- q-position: [    0.0000000,    0.0000000,    0.0000000 ]
  distance:    0.0000000
  band:
  - # 1
    frequency:   -0.5207566247
  - # 2
    frequency:   -0.5207566247
  - # 3
    frequency:   -0.0000006956
  - # 4
    frequency:   -0.0000003055
  - # 5
    frequency:    0.0000006519
  - # 6
    frequency:    0.9955881325
  - # 7
    frequency:    2.8601646392
  - # 8
    frequency:    2.8601646392
  - # 9
    frequency:    6.0849008110
  - # 10
    frequency:    6.0849008110
  - # 11
    frequency:    6.4341135453
  - # 12
    frequency:    6.8991058231
  - # 13
    frequency:    6.8991058231
  - # 14
    frequency:   11.7802436054
  - # 15
    frequency:   13.9122654299
  - # 16
    frequency:   14.6283028489
  - # 17
    frequency:   14.6283028489
  - # 18
    frequency:   18.2187228641

- q-position: [    0.0050505,    0.0000000,    0.0000000 ]
  distance:    0.0017452
  band:
  - # 1
    frequency:   -0.5491616806
  - # 2
    frequency:   -0.5267601709
  - # 3
    frequency:   -0.3553109777
  - # 4
    frequency:    0.0587082851
  - # 5
    frequency:    0.3761021993
  - # 6
    frequency:    0.9981761310
  - # 7
    frequency:    2.8613880603
  - # 8
    frequency:    2.8615107925
  - # 9
    frequency:    6.0850815728
  - # 10
    frequency:    6.0853870122
  - # 11
    frequency:    6.4348600807
  - # 12
    frequency:    6.8986911922
  - # 13
    frequency:    6.9014309655
  - # 14
    frequency:   11.7793174519
  - # 15
    frequency:   13.9119473468
  - # 16
    frequency:   14.6276141504
  - # 17
    frequency:   14.6277783643
  - # 18
    frequency:   18.2180774317

- q-position: [    0.0101010,    0.0000000,    0.0000000 ]
  distance:    0.0034904
  band:
  - # 1
    frequency:   -0.6222675296
  - # 2
    frequency:   -0.5450384931
  - # 3
    frequency:   -0.4847081461
  - # 4
    frequency:    0.1205144460
  - # 5
    frequency:    0.5376699246
  - # 6
    frequency:    1.0064956758
  - # 7
    frequency:    2.8650666747
  - # 8
    frequency:    2.8655317861
  - # 9
    frequency:    6.0856184629
  - # 10
    frequency:    6.0867657926
  - # 11
    frequency:    6.4371164485
  - # 12
    frequency:    6.8974800858
  - # 13
    frequency:    6.9083985414
  - # 14
    frequency:   11.7765414069
  - # 15
    frequency:   13.9109936217
  - # 16
    frequency:   14.6255515821
  - # 17
    frequency:   14.6262080741
  - # 18
    frequency:   18.2161443969

- q-position: [    0.0151515,    0.0000000,    0.0000000 ]
  distance:    0.0052356
  band:
  - # 1
    frequency:   -0.7101867130
  - # 2
    frequency:   -0.5877126315
  - # 3
    frequency:   -0.5757367751
  - # 4
    frequency:    0.1865017213
  - # 5
    frequency:    0.6591903745
  - # 6
    frequency:    1.0224154702
  - # 7
    frequency:    2.8712255829
  - # 8
    frequency:    2.8721760031
  - # 9
    frequency:    6.0864957446
  - # 10
    frequency:    6.0888052727
  - # 11
    frequency:    6.4409243108
  - # 12
    frequency:    6.8955734272
  - # 13
    frequency:    6.9199845834
  - # 14
    frequency:   11.7719227021
  - # 15
    frequency:   13.9094057573
  - # 16
    frequency:   14.6221257137
  - # 17
    frequency:   14.6236014542
  - # 18
    frequency:   18.2129335108

- q-position: [    0.0202020,    0.0000000,    0.0000000 ]
  distance:    0.0069808
  band:
  - # 1
    frequency:   -0.7975024442
  - # 2
    frequency:   -0.6869750873
  - # 3
    frequency:   -0.6179351477
  - # 4
    frequency:    0.2558074204
  - # 5
    frequency:    0.7531838767
  - # 6
    frequency:    1.0494027502
  - # 7
    frequency:    2.8799066888
  - # 8
    frequency:    2.8813599634
  - # 9
    frequency:    6.0876886165
  - # 10
    frequency:    6.0911444165
  - # 11
    frequency:    6.4463240328
  - # 12
    frequency:    6.8931480677
  - # 13
    frequency:    6.9361478467
  - # 14
    frequency:   11.7654733406
  - # 15
    frequency:   13.9071860313
  - # 16
    frequency:   14.6173541217
  - # 17
    frequency:   14.6199742482
  - # 18
    frequency:   18.2084609047

- q-position: [    0.0252525,    0.0000000,    0.0000000 ]
  distance:    0.0087260
  band:
  - # 1
    frequency:   -0.8874055721
  - # 2
    frequency:   -0.7791207796
  - # 3
    frequency:   -0.6697022189
  - # 4
    frequency:    0.3269494958
  - # 5
    frequency:    0.8217645651
  - # 6
    frequency:    1.0912815829
  - # 7
    frequency:    2.8911685071
  - # 8
    frequency:    2.8929719440
  - # 9
    frequency:    6.0891651191
  - # 10
    frequency:    6.0933308547
  - # 11
    frequency:    6.4533108616
  - # 12
    frequency:    6.8904699435
  - # 13
    frequency:    6.9568281219
  - # 14
    frequency:   11.7572100228
  - # 15
    frequency:   13.9043371627
  - # 16
    frequency:   14.6112613281
  - # 17
    frequency:   14.6153483922
  - # 18
    frequency:   18.2027489116

- q-position: [    0.0303030,    0.0000000,    0.0000000 ]
  distance:    0.0104711
  band:
  - # 1
    frequency:   -0.9884255998
  - # 2
    frequency:   -0.8546731615
  - # 3
    frequency:   -0.7288055661
  - # 4
    frequency:    0.3987258824
  - # 5
    frequency:    0.8677345177
  - # 6
    frequency:    1.1480595167
  - # 7
    frequency:    2.9050853046
  - # 8
    frequency:    2.9068766692
  - # 9
    frequency:    6.0908883920
  - # 10
    frequency:    6.0948708174
  - # 11
    frequency:    6.4617761917
  - # 12
    frequency:    6.8879122583
  - # 13
    frequency:    6.9819443383
  - # 14
    frequency:   11.7471540428
  - # 15
    frequency:   13.9008618600
  - # 16
    frequency:   14.6038787105
  - # 17
    frequency:   14.6097519096
  - # 18
    frequency:   18.1958258181

- q-position: [    0.0353535,    0.0000000,    0.0000000 ]
  distance:    0.0122163
  band:
  - # 1
    frequency:   -1.1009361904
  - # 2
    frequency:   -0.9124709987
  - # 3
    frequency:   -0.7932501412
  - # 4
    frequency:    0.4703848283
  - # 5
    frequency:    0.8978001050
  - # 6
    frequency:    1.2144716383
  - # 7
    frequency:    2.9217450165
  - # 8
    frequency:    2.9229207416
  - # 9
    frequency:    6.0928189798
  - # 10
    frequency:    6.0952842768
  - # 11
    frequency:    6.4714423286
  - # 12
    frequency:    6.8859766336
  - # 13
    frequency:    7.0113928052
  - # 14
    frequency:   11.7353311561
  - # 15
    frequency:   13.8967622675
  - # 16
    frequency:   14.5952443782
  - # 17
    frequency:   14.6032187755
  - # 18
    frequency:   18.1877255520

- q-position: [    0.0404040,    0.0000000,    0.0000000 ]
  distance:    0.0139615
  band:
  - # 1
    frequency:   -1.2200039527
  - # 2
    frequency:   -0.9568490241
  - # 3
    frequency:   -0.8614516694
  - # 4
    frequency:    0.5414997094
  - # 5
    frequency:    0.9187486937
  - # 6
    frequency:    1.2844495381
  - # 7
    frequency:    2.9409384585
  - # 8
    frequency:    2.9412452828
  - # 9
    frequency:    6.0941548683
  - # 10
    frequency:    6.0949169181
  - # 11
    frequency:    6.4818066790
  - # 12
    frequency:    6.8853111493
  - # 13
    frequency:    7.0450459036
  - # 14
    frequency:   11.7217714194
  - # 15
    frequency:   13.8920393279
  - # 16
    frequency:   14.5854030102
  - # 17
    frequency:   14.5957887482
  - # 18
    frequency:   18.1784873072

- q-position: [    0.0454545,    0.0000000,    0.0000000 ]
  distance:    0.0157067
  band:
  - # 1
    frequency:   -1.3421809364
  - # 2
    frequency:   -0.9907675881
  - # 3
    frequency:   -0.9322095891
  - # 4
    frequency:    0.6118287883
  - # 5
    frequency:    0.9349081456
  - # 6
    frequency:    1.3539539467
  - # 7
    frequency:    2.9607576605
  - # 8
    frequency:    2.9636869569
  - # 9
    frequency:    6.0911643072
  - # 10
    frequency:    6.0971434081
  - # 11
    frequency:    6.4921183819
  - # 12
    frequency:    6.8867119796
  - # 13
    frequency:    7.0827514656
  - # 14
    frequency:   11.7065090060
  - # 15
    frequency:   13.8866920900
  - # 16
    frequency:   14.5744056471
  - # 17
    frequency:   14.5875071708
  - # 18
    frequency:   18.1681551118

- q-position: [    0.0505051,    0.0000000,    0.0000000 ]
  distance:    0.0174519
  band:
  - # 1
    frequency:   -1.4656308124
  - # 2
    frequency:   -1.0156263701
  - # 3
    frequency:   -1.0046230649
  - # 4
    frequency:    0.6812254771
  - # 5
    frequency:    0.9486007673
  - # 6
    frequency:    1.4206757915
  - # 7
    frequency:    2.9822052927
  - # 8
    frequency:    2.9891646025
  - # 9
    frequency:    6.0861060243
  - # 10
    frequency:    6.0994619785
  - # 11
    frequency:    6.5014140417
  - # 12
    frequency:    6.8910867329
  - # 13
    frequency:    7.1243329703
  - # 14
    frequency:   11.6895819975
  - # 15
    frequency:   13.8807169899
  - # 16
    frequency:   14.5623094288
  - # 17
    frequency:   14.5784247383
  - # 18
    frequency:   18.1567773441

- q-position: [    0.0555556,    0.0000000,    0.0000000 ]
  distance:    0.0191971
  band:
  - # 1
    frequency:   -1.5892976370
  - # 2
    frequency:   -1.0780102462
  - # 3
    frequency:   -1.0320599768
  - # 4
    frequency:    0.7495902077
  - # 5
    frequency:    0.9610375453
  - # 6
    frequency:    1.4832364978
  - # 7
    frequency:    3.0051124172
  - # 8
    frequency:    3.0177538964
  - # 9
    frequency:    6.0788800825
  - # 10
    frequency:    6.1018391243
  - # 11
    frequency:    6.5086327988
  - # 12
    frequency:    6.8993567686
  - # 13
    frequency:    7.1695905886
  - # 14
    frequency:   11.6710321586
  - # 15
    frequency:   13.8741071447
  - # 16
    frequency:   14.5491772664
  - # 17
    frequency:   14.5685972326
  - # 18
    frequency:   18.1444062009

- q-position: [    0.0606061,    0.0000000,    0.0000000 ]
  distance:    0.0209423
  band:
  - # 1
    frequency:   -1.7124972209
  - # 2
    frequency:   -1.1518458717
  - # 3
    frequency:   -1.0403258464
  - # 4
    frequency:    0.8168465943
  - # 5
    frequency:    0.9728573258
  - # 6
    frequency:    1.5407136735
  - # 7
    frequency:    3.0293184803
  - # 8
    frequency:    3.0494965026
  - # 9
    frequency:    6.0694767747
  - # 10
    frequency:    6.1042444770
  - # 11
    frequency:    6.5128024479
  - # 12
    frequency:    6.9122990322
  - # 13
    frequency:    7.2183030175
  - # 14
    frequency:   11.6509046987
  - # 15
    frequency:   13.8668517007
  - # 16
    frequency:   14.5350774389
  - # 17
    frequency:   14.5580852229
  - # 18
    frequency:   18.1310971263

- q-position: [    0.0656566,    0.0000000,    0.0000000 ]
  distance:    0.0226875
  band:
  - # 1
    frequency:   -1.8347403970
  - # 2
    frequency:   -1.2257166065
  - # 3
    frequency:   -1.0404668622
  - # 4
    frequency:    0.8829302591
  - # 5
    frequency:    0.9843942023
  - # 6
    frequency:    1.5924218789
  - # 7
    frequency:    3.0546747143
  - # 8
    frequency:    3.0843838204
  - # 9
    frequency:    6.0579573029
  - # 10
    frequency:    6.1066506056
  - # 11
    frequency:    6.5132374025
  - # 12
    frequency:    6.9303779329
  - # 13
    frequency:    7.2702299899
  - # 14
    frequency:   11.6292480262
  - # 15
    frequency:   13.8589352845
  - # 16
    frequency:   14.5200830975
  - # 17
    frequency:   14.5469537324
  - # 18
    frequency:   18.1169082050

- q-position: [    0.0707071,    0.0000000,    0.0000000 ]
  distance:    0.0244327
  band:
  - # 1
    frequency:   -1.9556509002
  - # 2
    frequency:   -1.2992899289
  - # 3
    frequency:   -1.0323803610
  - # 4
    frequency:    0.9477839732
  - # 5
    frequency:    0.9958062286
  - # 6
    frequency:    1.6378204618
  - # 7
    frequency:    3.0810466221
  - # 8
    frequency:    3.1223418130
  - # 9
    frequency:    6.0444375252
  - # 10
    frequency:    6.1090325603
  - # 11
    frequency:    6.5096565000
  - # 12
    frequency:    6.9536530461
  - # 13
    frequency:    7.3251153127
  - # 14
    frequency:   11.6061135036
  - # 15
    frequency:   13.8503376101
  - # 16
    frequency:   14.5042716655
  - # 17
    frequency:   14.5352718696
  - # 18
    frequency:   18.1018995288

- q-position: [    0.0757576,    0.0000000,    0.0000000 ]
  distance:    0.0261779
  band:
  - # 1
    frequency:   -2.0749234881
  - # 2
    frequency:   -1.3722925803
  - # 3
    frequency:   -1.0158438989
  - # 4
    frequency:    1.0071372770
  - # 5
    frequency:    1.0113558861
  - # 6
    frequency:    1.6764781774
  - # 7
    frequency:    3.1083155539
  - # 8
    frequency:    3.1632195814
  - # 9
    frequency:    6.0290773593
  - # 10
    frequency:    6.1113672675
  - # 11
    frequency:    6.5021666990
  - # 12
    frequency:    6.9818137830
  - # 13
    frequency:    7.3826902748
  - # 14
    frequency:   11.5815552092
  - # 15
    frequency:   13.8410332975
  - # 16
    frequency:   14.4877241150
  - # 17
    frequency:   14.5231124250
  - # 18
    frequency:   18.0861325412

- q-position: [    0.0808081,    0.0000000,    0.0000000 ]
  distance:    0.0279231
  band:
  - # 1
    frequency:   -2.1923007795
  - # 2
    frequency:   -1.4444955771
  - # 3
    frequency:   -0.9905156413
  - # 4
    frequency:    1.0183452976
  - # 5
    frequency:    1.0735992345
  - # 6
    frequency:    1.7080617332
  - # 7
    frequency:    3.1363794332
  - # 8
    frequency:    3.2067841652
  - # 9
    frequency:    6.0120757756
  - # 10
    frequency:    6.1136328717
  - # 11
    frequency:    6.4911444568
  - # 12
    frequency:    7.0143090757
  - # 13
    frequency:    7.4426772747
  - # 14
    frequency:   11.5556297118
  - # 15
    frequency:   13.8309919584
  - # 16
    frequency:   14.4705241074
  - # 17
    frequency:   14.5105514335
  - # 18
    frequency:   18.0696693700

- q-position: [    0.0858586,    0.0000000,    0.0000000 ]
  distance:    0.0296683
  band:
  - # 1
    frequency:   -2.3075595869
  - # 2
    frequency:   -1.5157036942
  - # 3
    frequency:   -0.9559140152
  - # 4
    frequency:    1.0293120224
  - # 5
    frequency:    1.1344727331
  - # 6
    frequency:    1.7323341854
  - # 7
    frequency:    3.1651527273
  - # 8
    frequency:    3.2527231278
  - # 9
    frequency:    5.9936698732
  - # 10
    frequency:    6.1158080934
  - # 11
    frequency:    6.4770935338
  - # 12
    frequency:    7.0504945663
  - # 13
    frequency:    7.5047935321
  - # 14
    frequency:   11.5283958647
  - # 15
    frequency:   13.8201786014
  - # 16
    frequency:   14.4527569842
  - # 17
    frequency:   14.4976677027
  - # 18
    frequency:   18.0525721528

- q-position: [    0.0909091,    0.0000000,    0.0000000 ]
  distance:    0.0314134
  band:
  - # 1
    frequency:   -2.4205024317
  - # 2
    frequency:   -1.5857480056
  - # 3
    frequency:   -0.9113736536
  - # 4
    frequency:    1.0398410060
  - # 5
    frequency:    1.1939412453
  - # 6
    frequency:    1.7491591420
  - # 7
    frequency:    3.1945657759
  - # 8
    frequency:    3.3006550645
  - # 9
    frequency:    5.9741360422
  - # 10
    frequency:    6.1178716590
  - # 11
    frequency:    6.4605365943
  - # 12
    frequency:    7.0897416074
  - # 13
    frequency:    7.5687547681
  - # 14
    frequency:   11.4999146238
  - # 15
    frequency:   13.8085543993
  - # 16
    frequency:   14.4345086042
  - # 17
    frequency:   14.4845423084
  - # 18
    frequency:   18.0349023650

- q-position: [    0.0959596,    0.0000000,    0.0000000 ]
  distance:    0.0331586
  band:
  - # 1
    frequency:   -2.5309520644
  - # 2
    frequency:   -1.6544805324
  - # 3
    frequency:   -0.8559664907
  - # 4
    frequency:    1.0496476577
  - # 5
    frequency:    1.2519765301
  - # 6
    frequency:    1.7585129704
  - # 7
    frequency:    3.2245636036
  - # 8
    frequency:    3.3501467304
  - # 9
    frequency:    5.9537912285
  - # 10
    frequency:    6.1198018334
  - # 11
    frequency:    6.4419544987
  - # 12
    frequency:    7.1314957824
  - # 13
    frequency:    7.6342787597
  - # 14
    frequency:   11.4702488903
  - # 15
    frequency:   13.7960778460
  - # 16
    frequency:   14.4158640308
  - # 17
    frequency:   14.4712580598
  - # 18
    frequency:   18.0167201581

- q-position: [    0.1010101,    0.0000000,    0.0000000 ]
  distance:    0.0349038
  band:
  - # 1
    frequency:   -2.6387478153
  - # 2
    frequency:   -1.7217703604
  - # 3
    frequency:   -0.7883620032
  - # 4
    frequency:    1.0583451894
  - # 5
    frequency:    1.3085579601
  - # 6
    frequency:    1.7605115869
  - # 7
    frequency:    3.2551043441
  - # 8
    frequency:    3.4007345102
  - # 9
    frequency:    5.9329925746
  - # 10
    frequency:    6.1215760776
  - # 11
    frequency:    6.4217620198
  - # 12
    frequency:    7.1752975373
  - # 13
    frequency:    7.7010886959
  - # 14
    frequency:   11.4394633816
  - # 15
    frequency:   13.7827063082
  - # 16
    frequency:   14.3969060944
  - # 17
    frequency:   14.4578989359
  - # 18
    frequency:   17.9980837164

- q-position: [    0.1060606,    0.0000000,    0.0000000 ]
  distance:    0.0366490
  band:
  - # 1
    frequency:   -2.7437431049
  - # 2
    frequency:   -1.7875007931
  - # 3
    frequency:   -0.7065643544
  - # 4
    frequency:    1.0654359532
  - # 5
    frequency:    1.3636731527
  - # 6
    frequency:    1.7554614159
  - # 7
    frequency:    3.2861573931
  - # 8
    frequency:    3.4519476797
  - # 9
    frequency:    5.9121340491
  - # 10
    frequency:    6.1231708392
  - # 11
    frequency:    6.4003043887
  - # 12
    frequency:    7.2207815122
  - # 13
    frequency:    7.7689162791
  - # 14
    frequency:   11.4076245269
  - # 15
    frequency:   13.7683979466
  - # 16
    frequency:   14.3777138707
  - # 17
    frequency:   14.4445494984
  - # 18
    frequency:   17.9790486422

- q-position: [    0.1111111,    0.0000000,    0.0000000 ]
  distance:    0.0383942
  band:
  - # 1
    frequency:   -2.8458037121
  - # 2
    frequency:   -1.8515672427
  - # 3
    frequency:   -0.6073526447
  - # 4
    frequency:    1.0703353160
  - # 5
    frequency:    1.4173184835
  - # 6
    frequency:    1.7439449013
  - # 7
    frequency:    3.3177014020
  - # 8
    frequency:    3.5033312435
  - # 9
    frequency:    5.8916390963
  - # 10
    frequency:    6.1245614808
  - # 11
    frequency:    6.3778635018
  - # 12
    frequency:    7.2676664215
  - # 13
    frequency:    7.8375045329
  - # 14
    frequency:   11.3748003860
  - # 15
    frequency:   13.7531139490
  - # 16
    frequency:   14.3583611445
  - # 17
    frequency:   14.4312942838
  - # 18
    frequency:   17.9596673776

- q-position: [    0.1161616,    0.0000000,    0.0000000 ]
  distance:    0.0401394
  band:
  - # 1
    frequency:   -2.9448065529
  - # 2
    frequency:   -1.9138756530
  - # 3
    frequency:   -0.4847877712
  - # 4
    frequency:    1.0725022344
  - # 5
    frequency:    1.4694994637
  - # 6
    frequency:    1.7269456833
  - # 7
    frequency:    3.3497222052
  - # 8
    frequency:    3.5544667803
  - # 9
    frequency:    5.8719488114
  - # 10
    frequency:    6.1257223420
  - # 11
    frequency:    6.3546676977
  - # 12
    frequency:    7.3157419831
  - # 13
    frequency:    7.9066102902
  - # 14
    frequency:   11.3410605875
  - # 15
    frequency:   13.7368209796
  - # 16
    frequency:   14.3389149531
  - # 17
    frequency:   14.4182171807
  - # 18
    frequency:   17.9399886732

- q-position: [    0.1212121,    0.0000000,    0.0000000 ]
  distance:    0.0418846
  band:
  - # 1
    frequency:   -3.0406388082
  - # 2
    frequency:   -1.9743413110
  - # 3
    frequency:   -0.3240070214
  - # 4
    frequency:    1.0718583996
  - # 5
    frequency:    1.5202309702
  - # 6
    frequency:    1.7059977391
  - # 7
    frequency:    3.3822107638
  - # 8
    frequency:    3.6049903499
  - # 9
    frequency:    5.8535056901
  - # 10
    frequency:    6.1266269310
  - # 11
    frequency:    6.3309023446
  - # 12
    frequency:    7.3648558667
  - # 13
    frequency:    7.9760063462
  - # 14
    frequency:   11.3064762804
  - # 15
    frequency:   13.7194937182
  - # 16
    frequency:   14.3194343219
  - # 17
    frequency:   14.4054008006
  - # 18
    frequency:   17.9200571135

- q-position: [    0.1262626,    0.0000000,    0.0000000 ]
  distance:    0.0436298
  band:
  - # 1
    frequency:   -3.1331972949
  - # 2
    frequency:   -2.0328879417
  - # 3
    frequency:    0.0940930251
  - # 4
    frequency:    1.0698408130
  - # 5
    frequency:    1.5695373215
  - # 6
    frequency:    1.6832929317
  - # 7
    frequency:    3.4151611913
  - # 8
    frequency:    3.6546069289
  - # 9
    frequency:    5.8367335753
  - # 10
    frequency:    6.1272482372
  - # 11
    frequency:    6.3067202173
  - # 12
    frequency:    7.4149017603
  - # 13
    frequency:    8.0454832701
  - # 14
    frequency:   11.2711200959
  - # 15
    frequency:   13.7011173404
  - # 16
    frequency:   14.2999693199
  - # 17
    frequency:   14.3929258469
  - # 18
    frequency:   17.8999127082

- q-position: [    0.1313131,    0.0000000,    0.0000000 ]
  distance:    0.0453750
  band:
  - # 1
    frequency:   -3.2223880091
  - # 2
    frequency:   -2.0894470150
  - # 3
    frequency:    0.2928308888
  - # 4
    frequency:    1.0712333099
  - # 5
    frequency:    1.6174521970
  - # 6
    frequency:    1.6616097996
  - # 7
    frequency:    3.4485689154
  - # 8
    frequency:    3.7031010051
  - # 9
    frequency:    5.8220149781
  - # 10
    frequency:    6.1275591544
  - # 11
    frequency:    6.2822514631
  - # 12
    frequency:    7.4658088108
  - # 13
    frequency:    8.1148508739
  - # 14
    frequency:   11.2350661144
  - # 15
    frequency:   13.6816897828
  - # 16
    frequency:   14.2805605576
  - # 17
    frequency:   14.3808704934
  - # 18
    frequency:   17.8795905592

- q-position: [    0.1363636,    0.0000000,    0.0000000 ]
  distance:    0.0471202
  band:
  - # 1
    frequency:   -3.3081257910
  - # 2
    frequency:   -2.1439572094
  - # 3
    frequency:    0.3110981021
  - # 4
    frequency:    1.0847205986
  - # 5
    frequency:    1.6439197580
  - # 6
    frequency:    1.6640184004
  - # 7
    frequency:    3.4824290161
  - # 8
    frequency:    3.7503429586
  - # 9
    frequency:    5.8096673697
  - # 10
    frequency:    6.1275330038
  - # 11
    frequency:    6.2576133435
  - # 12
    frequency:    7.5175323630
  - # 13
    frequency:    8.1839393450
  - # 14
    frequency:   11.1983898347
  - # 15
    frequency:   13.6612236490
  - # 16
    frequency:   14.2612392277
  - # 17
    frequency:   14.3693097808
  - # 18
    frequency:   17.8591206123

- q-position: [    0.1414141,    0.0000000,    0.0000000 ]
  distance:    0.0488654
  band:
  - # 1
    frequency:   -3.3903340776
  - # 2
    frequency:   -2.1963639932
  - # 3
    frequency:    0.1337039805
  - # 4
    frequency:    1.1172435067
  - # 5
    frequency:    1.6327309117
  - # 6
    frequency:    1.7092874701
  - # 7
    frequency:    3.5167347732
  - # 8
    frequency:    3.7962908438
  - # 9
    frequency:    5.7999202035
  - # 10
    frequency:    6.1271441406
  - # 11
    frequency:    6.2329201893
  - # 12
    frequency:    7.5700458359
  - # 13
    frequency:    8.2526000478
  - # 14
    frequency:   11.1611681434
  - # 15
    frequency:   13.6397476444
  - # 16
    frequency:   14.2420277542
  - # 17
    frequency:   14.3583150409
  - # 18
    frequency:   17.8385275001

- q-position: [    0.1464646,    0.0000000,    0.0000000 ]
  distance:    0.0506106
  band:
  - # 1
    frequency:   -3.4689447162
  - # 2
    frequency:   -2.2466192950
  - # 3
    frequency:   -0.3919990584
  - # 4
    frequency:    1.1668133916
  - # 5
    frequency:    1.6295534018
  - # 6
    frequency:    1.7533191452
  - # 7
    frequency:    3.5514764431
  - # 8
    frequency:    3.8409872904
  - # 9
    frequency:    5.7928941882
  - # 10
    frequency:    6.1263686276
  - # 11
    frequency:    6.2082942666
  - # 12
    frequency:    7.6233335729
  - # 13
    frequency:    8.3207060053
  - # 14
    frequency:   11.1234792830
  - # 15
    frequency:   13.6173074708
  - # 16
    frequency:   14.2229410614
  - # 17
    frequency:   14.3479533610
  - # 18
    frequency:   17.8178304836

- q-position: [    0.1515152,    0.0000000,    0.0000000 ]
  distance:    0.0523557
  band:
  - # 1
    frequency:   -3.5438978226
  - # 2
    frequency:   -2.2946812394
  - # 3
    frequency:   -0.6354819401
  - # 4
    frequency:    1.2257904312
  - # 5
    frequency:    1.6348537253
  - # 6
    frequency:    1.7961806982
  - # 7
    frequency:    3.5866402804
  - # 8
    frequency:    3.8845515236
  - # 9
    frequency:    5.7885836059
  - # 10
    frequency:    6.1251849590
  - # 11
    frequency:    6.1838785903
  - # 12
    frequency:    7.6773845443
  - # 13
    frequency:    8.3881520723
  - # 14
    frequency:   11.0854028209
  - # 15
    frequency:   13.5939661654
  - # 16
    frequency:   14.2039884251
  - # 17
    frequency:   14.3382870970
  - # 18
    frequency:   17.7970434962

- q-position: [    0.1565657,    0.0000000,    0.0000000 ]
  distance:    0.0541009
  band:
  - # 1
    frequency:   -3.6151416692
  - # 2
    frequency:   -2.3405139339
  - # 3
    frequency:   -0.8458783000
  - # 4
    frequency:    1.2873836599
  - # 5
    frequency:    1.6484161095
  - # 6
    frequency:    1.8379461506
  - # 7
    frequency:    3.6222078102
  - # 8
    frequency:    3.9271669574
  - # 9
    frequency:    5.7868412646
  - # 10
    frequency:    6.1235748096
  - # 11
    frequency:    6.1598531920
  - # 12
    frequency:    7.7321868115
  - # 13
    frequency:    8.4548548106
  - # 14
    frequency:   11.0470196182
  - # 15
    frequency:   13.5698039149
  - # 16
    frequency:   14.1851758128
  - # 17
    frequency:   14.3293734481
  - # 18
    frequency:   17.7761752926

- q-position: [    0.1616162,    0.0000000,    0.0000000 ]
  distance:    0.0558461
  band:
  - # 1
    frequency:   -3.6826325931
  - # 2
    frequency:   -2.3840872922
  - # 3
    frequency:   -1.0362430171
  - # 4
    frequency:    1.3473344893
  - # 5
    frequency:    1.6697303933
  - # 6
    frequency:    1.8786953903
  - # 7
    frequency:    3.6581553545
  - # 8
    frequency:    3.9690653198
  - # 9
    frequency:    5.7873641861
  - # 10
    frequency:    6.1215237883
  - # 11
    frequency:    6.1364568843
  - # 12
    frequency:    7.7877227002
  - # 13
    frequency:    8.5207520811
  - # 14
    frequency:   11.0084118012
  - # 15
    frequency:   13.5449174122
  - # 16
    frequency:   14.1665085928
  - # 17
    frequency:   14.3212641013
  - # 18
    frequency:   17.7552297019

- q-position: [    0.1666667,    0.0000000,    0.0000000 ]
  distance:    0.0575913
  band:
  - # 1
    frequency:   -3.7463349177
  - # 2
    frequency:   -2.4253768853
  - # 3
    frequency:   -1.2108942300
  - # 4
    frequency:    1.4033166111
  - # 5
    frequency:    1.6981509662
  - # 6
    frequency:    1.9185132164
  - # 7
    frequency:    3.6944538053
  - # 8
    frequency:    4.0105086961
  - # 9
    frequency:    5.7896769070
  - # 10
    frequency:    6.1140168442
  - # 11
    frequency:    6.1190221708
  - # 12
    frequency:    7.8439646512
  - # 13
    frequency:    8.5858023664
  - # 14
    frequency:   10.9696627334
  - # 15
    frequency:   13.5194188418
  - # 16
    frequency:   14.1479944687
  - # 17
    frequency:   14.3140049549
  - # 18
    frequency:   17.7342059818

- q-position: [    0.1717172,    0.0000000,    0.0000000 ]
  distance:    0.0593365
  band:
  - # 1
    frequency:   -3.8062208815
  - # 2
    frequency:   -2.4643638117
  - # 3
    frequency:   -1.3719133638
  - # 4
    frequency:    1.4543350598
  - # 5
    frequency:    1.7328364036
  - # 6
    frequency:    1.9574883369
  - # 7
    frequency:    3.7310686374
  - # 8
    frequency:    4.0517710861
  - # 9
    frequency:    5.7931097137
  - # 10
    frequency:    6.0929871735
  - # 11
    frequency:    6.1160655829
  - # 12
    frequency:    7.9008717324
  - # 13
    frequency:    8.6499838388
  - # 14
    frequency:   10.9308569894
  - # 15
    frequency:   13.4934345788
  - # 16
    frequency:   14.1296465047
  - # 17
    frequency:   14.3076359298
  - # 18
    frequency:   17.7130992690

- q-position: [    0.1767677,    0.0000000,    0.0000000 ]
  distance:    0.0610817
  band:
  - # 1
    frequency:   -3.8622705701
  - # 2
    frequency:   -2.5010345830
  - # 3
    frequency:   -1.5204495806
  - # 4
    frequency:    1.5003810336
  - # 5
    frequency:    1.7726583326
  - # 6
    frequency:    1.9957123496
  - # 7
    frequency:    3.7679601455
  - # 8
    frequency:    4.0931210226
  - # 9
    frequency:    5.7967746505
  - # 10
    frequency:    6.0739917094
  - # 11
    frequency:    6.1126556109
  - # 12
    frequency:    7.9583868034
  - # 13
    frequency:    8.7132931914
  - # 14