nqpoint: 300    
npath: 3      
segment_nqpoint:
- 100
- 100
- 100
labels:
- [ 'G', 'M' ]
- [ 'M', 'K' ]
- [ 'K', 'G' ]
reciprocal_lattice:
- [   0.30720476,   0.17736475,   0.00000000 ] # a*
- [   0.00000000,   0.35472950,   0.00000000 ] # b*
- [   0.00000000,   0.00000000,   0.03967236 ] # c*
natom: 7      
lattice:
- [     3.255157877120564,     0.000000000000000,     0.000000000000000 ] # a
- [    -1.627578938560282,     2.819049414918862,     0.000000000000000 ] # b
- [     0.000000000000000,     0.000000000000000,    25.206463992906713 ] # c
points:
- symbol: C # 1
  coordinates: [  0.666666984744048,  0.333332985985145,  0.404159122295862 ]
  mass: 12.010700
- symbol: H # 2
  coordinates: [  0.333332985432215,  0.666666983183674,  0.642948729241330 ]
  mass: 1.007940
- symbol: N # 3
  coordinates: [  0.000000000000000,  0.000000000000000,  0.554504234559353 ]
  mass: 14.006700
- symbol: N # 4
  coordinates: [  0.666666984744048,  0.333332985985145,  0.357051270758670 ]
  mass: 14.006700
- symbol: O # 5
  coordinates: [  0.666666984744048,  0.333332985985145,  0.457190109250864 ]
  mass: 15.999400
- symbol: Sc # 6
  coordinates: [  0.333332985432215,  0.666666983183674,  0.507671571762792 ]
  mass: 44.955912
- symbol: Sc # 7
  coordinates: [  0.666666984744048,  0.333332985985145,  0.604251643430610 ]
  mass: 44.955912

phonon:
- q-position: [    0.0000000,    0.0000000,    0.0000000 ]
  distance:    0.0000000
  band:
  - # 1
    frequency:   -0.9394103950
  - # 2
    frequency:   -0.9394103950
  - # 3
    frequency:   -0.0000019122
  - # 4
    frequency:   -0.0000010814
  - # 5
    frequency:    0.0000018602
  - # 6
    frequency:    5.1032531588
  - # 7
    frequency:    5.1032531588
  - # 8
    frequency:    6.9936297413
  - # 9
    frequency:    7.5928592867
  - # 10
    frequency:    7.5928592867
  - # 11
    frequency:   11.4406303966
  - # 12
    frequency:   13.7049113517
  - # 13
    frequency:   13.7049113517
  - # 14
    frequency:   13.9027823204
  - # 15
    frequency:   13.9027823204
  - # 16
    frequency:   14.5424416912
  - # 17
    frequency:   28.0016272105
  - # 18
    frequency:   28.1710087984
  - # 19
    frequency:   28.1710087984
  - # 20
    frequency:   32.2540763433
  - # 21
    frequency:   68.1622258615

- q-position: [    0.0050505,    0.0000000,    0.0000000 ]
  distance:    0.0017916
  band:
  - # 1
    frequency:   -0.9379689273
  - # 2
    frequency:   -0.9342035743
  - # 3
    frequency:   -0.1743147613
  - # 4
    frequency:    0.0833410109
  - # 5
    frequency:    0.2283579630
  - # 6
    frequency:    5.1034546743
  - # 7
    frequency:    5.1048704622
  - # 8
    frequency:    6.9932278715
  - # 9
    frequency:    7.5930559884
  - # 10
    frequency:    7.5936624417
  - # 11
    frequency:   11.4379214998
  - # 12
    frequency:   13.7048149330
  - # 13
    frequency:   13.7049997573
  - # 14
    frequency:   13.9029334853
  - # 15
    frequency:   13.9033293050
  - # 16
    frequency:   14.5414720473
  - # 17
    frequency:   27.9949277605
  - # 18
    frequency:   28.1713223466
  - # 19
    frequency:   28.1765300356
  - # 20
    frequency:   32.2533402845
  - # 21
    frequency:   68.1618893839

- q-position: [    0.0101010,    0.0000000,    0.0000000 ]
  distance:    0.0035831
  band:
  - # 1
    frequency:   -0.9336611327
  - # 2
    frequency:   -0.9186088993
  - # 3
    frequency:   -0.2171779119
  - # 4
    frequency:    0.1668555374
  - # 5
    frequency:    0.3668090528
  - # 6
    frequency:    5.1040610226
  - # 7
    frequency:    5.1097074684
  - # 8
    frequency:    6.9920252384
  - # 9
    frequency:    7.5936452004
  - # 10
    frequency:    7.5960679908
  - # 11
    frequency:   11.4298221658
  - # 12
    frequency:   13.7045265074
  - # 13
    frequency:   13.7052484520
  - # 14
    frequency:   13.9033851887
  - # 15
    frequency:   13.9049606860
  - # 16
    frequency:   14.5385708215
  - # 17
    frequency:   27.9768695321
  - # 18
    frequency:   28.1722594423
  - # 19
    frequency:   28.1910598565
  - # 20
    frequency:   32.2511348222
  - # 21
    frequency:   68.1608809321

- q-position: [    0.0151515,    0.0000000,    0.0000000 ]
  distance:    0.0053747
  band:
  - # 1
    frequency:   -0.9265337418
  - # 2
    frequency:   -0.8926427714
  - # 3
    frequency:   -0.2369596192
  - # 4
    frequency:    0.2507017191
  - # 5
    frequency:    0.5038870249
  - # 6
    frequency:    5.1050775987
  - # 7
    frequency:    5.1177197950
  - # 8
    frequency:    6.9900307599
  - # 9
    frequency:    7.5946242532
  - # 10
    frequency:    7.6000642082
  - # 11
    frequency:   11.4164133269
  - # 12
    frequency:   13.7040485551
  - # 13
    frequency:   13.7056097237
  - # 14
    frequency:   13.9041320701
  - # 15
    frequency:   13.9076469945
  - # 16
    frequency:   14.5337611371
  - # 17
    frequency:   27.9511553625
  - # 18
    frequency:   28.1738094678
  - # 19
    frequency:   28.2109140838
  - # 20
    frequency:   32.2474680827
  - # 21
    frequency:   68.1592034429

- q-position: [    0.0202020,    0.0000000,    0.0000000 ]
  distance:    0.0071663
  band:
  - # 1
    frequency:   -0.9166547942
  - # 2
    frequency:   -0.8561483547
  - # 3
    frequency:   -0.2460198157
  - # 4
    frequency:    0.3350092376
  - # 5
    frequency:    0.6438592777
  - # 6
    frequency:    5.1065133606
  - # 7
    frequency:    5.1288345518
  - # 8
    frequency:    6.9872592656
  - # 9
    frequency:    7.5959887308
  - # 10
    frequency:    7.6056316213
  - # 11
    frequency:   11.3978262015
  - # 12
    frequency:   13.7033851682
  - # 13
    frequency:   13.7060098313
  - # 14
    frequency:   13.9051652440
  - # 15
    frequency:   13.9113368880
  - # 16
    frequency:   14.5270815535
  - # 17
    frequency:   27.9204950164
  - # 18
    frequency:   28.1759548209
  - # 19
    frequency:   28.2334139437
  - # 20
    frequency:   32.2423535575
  - # 21
    frequency:   68.1568617943

- q-position: [    0.0252525,    0.0000000,    0.0000000 ]
  distance:    0.0089578
  band:
  - # 1
    frequency:   -0.9041004559
  - # 2
    frequency:   -0.8085718053
  - # 3
    frequency:   -0.2482465638
  - # 4
    frequency:    0.4198704317
  - # 5
    frequency:    0.7867520445
  - # 6
    frequency:    5.1083807772
  - # 7
    frequency:    5.1429519010
  - # 8
    frequency:    6.9837314548
  - # 9
    frequency:    7.5977325182
  - # 10
    frequency:    7.6127431080
  - # 11
    frequency:   11.3742372016
  - # 12
    frequency:   13.7025419895
  - # 13
    frequency:   13.7063563852
  - # 14
    frequency:   13.9064723725
  - # 15
    frequency:   13.9159546799
  - # 16
    frequency:   14.5185861078
  - # 17
    frequency:   27.8864015779
  - # 18
    frequency:   28.1786710545
  - # 19
    frequency:   28.2570895108
  - # 20
    frequency:   32.2358100262
  - # 21
    frequency:   68.1538627796

- q-position: [    0.0303030,    0.0000000,    0.0000000 ]
  distance:    0.0107494
  band:
  - # 1
    frequency:   -0.8889394749
  - # 2
    frequency:   -0.7487111960
  - # 3
    frequency:   -0.2441238877
  - # 4
    frequency:    0.5053367203
  - # 5
    frequency:    0.9318398395
  - # 6
    frequency:    5.1106957501
  - # 7
    frequency:    5.1599471249
  - # 8
    frequency:    6.9794738531
  - # 9
    frequency:    7.5998478645
  - # 10
    frequency:    7.6213640205
  - # 11
    frequency:   11.3458615398
  - # 12
    frequency:   13.7015261247
  - # 13
    frequency:   13.7065464640
  - # 14
    frequency:   13.9080377700
  - # 15
    frequency:   13.9213983385
  - # 16
    frequency:   14.5083443943
  - # 17
    frequency:   27.8496823562
  - # 18
    frequency:   28.1819270711
  - # 19
    frequency:   28.2811885737
  - # 20
    frequency:   32.2278614480
  - # 21
    frequency:   68.1502150720

- q-position: [    0.0353535,    0.0000000,    0.0000000 ]
  distance:    0.0125409
  band:
  - # 1
    frequency:   -0.8712174755
  - # 2
    frequency:   -0.6744509854
  - # 3
    frequency:   -0.2314218601
  - # 4
    frequency:    0.5914203482
  - # 5
    frequency:    1.0783419799
  - # 6
    frequency:    5.1134775071
  - # 7
    frequency:    5.1796730990
  - # 8
    frequency:    6.9745187770
  - # 9
    frequency:    7.6023254587
  - # 10
    frequency:    7.6314523228
  - # 11
    frequency:   11.3129461149
  - # 12
    frequency:   13.7003460296
  - # 13
    frequency:   13.7064739866
  - # 14
    frequency:   13.9098425402
  - # 15
    frequency:   13.9275388404
  - # 16
    frequency:   14.4964417060
  - # 17
    frequency:   27.8107860080
  - # 18
    frequency:   28.1856853701
  - # 19
    frequency:   28.3053292197
  - # 20
    frequency:   32.2185368246
  - # 21
    frequency:   68.1459291792

- q-position: [    0.0404040,    0.0000000,    0.0000000 ]
  distance:    0.0143325
  band:
  - # 1
    frequency:   -0.8509428429
  - # 2
    frequency:   -0.5826984712
  - # 3
    frequency:   -0.2020693483
  - # 4
    frequency:    0.6781003656
  - # 5
    frequency:    1.2255817458
  - # 6
    frequency:    5.1167484614
  - # 7
    frequency:    5.2019630536
  - # 8
    frequency:    6.9689043206
  - # 9
    frequency:    7.6051545142
  - # 10
    frequency:    7.6429587354
  - # 11
    frequency:   11.2757622319
  - # 12
    frequency:   13.6990113710
  - # 13
    frequency:   13.7060352390
  - # 14
    frequency:   13.9118647485
  - # 15
    frequency:   13.9342213874
  - # 16
    frequency:   14.4829792744
  - # 17
    frequency:   27.7699817325
  - # 18
    frequency:   28.1899023461
  - # 19
    frequency:   28.3293202815
  - # 20
    frequency:   32.2078700339
  - # 21
    frequency:   68.1410173894

- q-position: [    0.0454545,    0.0000000,    0.0000000 ]
  distance:    0.0161241
  band:
  - # 1
    frequency:   -0.8280749243
  - # 2
    frequency:   -0.4719012176
  - # 3
    frequency:   -0.1142743013
  - # 4
    frequency:    0.7653310215
  - # 5
    frequency:    1.3730115879
  - # 6
    frequency:    5.1205340318
  - # 7
    frequency:    5.2266335043
  - # 8
    frequency:    6.9626743695
  - # 9
    frequency:    7.6083228570
  - # 10
    frequency:    7.6558268783
  - # 11
    frequency:   11.2345986313
  - # 12
    frequency:   13.6975328619
  - # 13
    frequency:   13.7051320528
  - # 14
    frequency:   13.9140796284
  - # 15
    frequency:   13.9412684725
  - # 16
    frequency:   14.4680746568
  - # 17
    frequency:   27.7274478775
  - # 18
    frequency:   28.1945286353
  - # 19
    frequency:   28.3530723102
  - # 20
    frequency:   32.1958996370
  - # 21
    frequency:   68.1354937075

- q-position: [    0.0505051,    0.0000000,    0.0000000 ]
  distance:    0.0179156
  band:
  - # 1
    frequency:   -0.8025139594
  - # 2
    frequency:   -0.3591284748
  - # 3
    frequency:    0.2340523753
  - # 4
    frequency:    0.8530506199
  - # 5
    frequency:    1.5201995498
  - # 6
    frequency:    5.1248624203
  - # 7
    frequency:    5.2534872364
  - # 8
    frequency:    6.9558786504
  - # 9
    frequency:    7.6118170152
  - # 10
    frequency:    7.6699934094
  - # 11
    frequency:   11.1897551747
  - # 12
    frequency:   13.6959220715
  - # 13
    frequency:   13.7036727308
  - # 14
    frequency:   13.9164598259
  - # 15
    frequency:   13.9484842885
  - # 16
    frequency:   14.4518623372
  - # 17
    frequency:   27.6833168903
  - # 18
    frequency:   28.1995095082
  - # 19
    frequency:   28.3765521392
  - # 20
    frequency:   32.1826686585
  - # 21
    frequency:   68.1293737837

- q-position: [    0.0555556,    0.0000000,    0.0000000 ]
  distance:    0.0197072
  band:
  - # 1
    frequency:   -0.7740908712
  - # 2
    frequency:   -0.2777260402
  - # 3
    frequency:    0.4265040852
  - # 4
    frequency:    0.9411893152
  - # 5
    frequency:    1.6668056595
  - # 6
    frequency:    5.1297643388
  - # 7
    frequency:    5.2823162363
  - # 8
    frequency:    6.9485728172
  - # 9
    frequency:    7.6156223049
  - # 10
    frequency:    7.6853881582
  - # 11
    frequency:   11.1415374014
  - # 12
    frequency:   13.6941912110
  - # 13
    frequency:   13.7015712474
  - # 14
    frequency:   13.9189756799
  - # 15
    frequency:   13.9556596593
  - # 16
    frequency:   14.4344946271
  - # 17
    frequency:   27.6376990824
  - # 18
    frequency:   28.2047853053
  - # 19
    frequency:   28.3997585731
  - # 20
    frequency:   32.1682243435
  - # 21
    frequency:   68.1226748330

- q-position: [    0.0606061,    0.0000000,    0.0000000 ]
  distance:    0.0214988
  band:
  - # 1
    frequency:   -0.7425538707
  - # 2
    frequency:   -0.2100871556
  - # 3
    frequency:    0.5880381746
  - # 4
    frequency:    1.0296750183
  - # 5
    frequency:    1.8125587779
  - # 6
    frequency:    5.1352726854
  - # 7
    frequency:    5.3129044835
  - # 8
    frequency:    6.9408185740
  - # 9
    frequency:    7.6197229081
  - # 10
    frequency:    7.7019342567
  - # 11
    frequency:   11.0902520453
  - # 12
    frequency:   13.6923528963
  - # 13
    frequency:   13.6987454274
  - # 14
    frequency:   13.9215955385
  - # 15
    frequency:   13.9625766027
  - # 16
    frequency:   14.4161429685
  - # 17
    frequency:   27.5906956816
  - # 18
    frequency:   28.2102919111
  - # 19
    frequency:   28.4227087286
  - # 20
    frequency:   32.1526178907
  - # 21
    frequency:   68.1154155493

- q-position: [    0.0656566,    0.0000000,    0.0000000 ]
  distance:    0.0232903
  band:
  - # 1
    frequency:   -0.7075474231
  - # 2
    frequency:   -0.1167328951
  - # 3
    frequency:    0.7283983609
  - # 4
    frequency:    1.1184372445
  - # 5
    frequency:    1.9572374409
  - # 6
    frequency:    5.1414221629
  - # 7
    frequency:    5.3450305299
  - # 8
    frequency:    6.9326838310
  - # 9
    frequency:    7.6241019422
  - # 10
    frequency:    7.7195482733
  - # 11
    frequency:   11.0362035075
  - # 12
    frequency:   13.6904198884
  - # 13
    frequency:   13.6951147809
  - # 14
    frequency:   13.9242861116
  - # 15
    frequency:   13.9690117550
  - # 16
    frequency:   14.3969997444
  - # 17
    frequency:   27.5424061847
  - # 18
    frequency:   28.2159612649
  - # 19
    frequency:   28.4454300168
  - # 20
    frequency:   32.1359041662
  - # 21
    frequency:   68.1076160108

- q-position: [    0.0707071,    0.0000000,    0.0000000 ]
  distance:    0.0250819
  band:
  - # 1
    frequency:   -0.6685765651
  - # 2
    frequency:    0.1407357179
  - # 3
    frequency:    0.8551573290
  - # 4
    frequency:    1.2074091782
  - # 5
    frequency:    2.1006552143
  - # 6
    frequency:    5.1482488412
  - # 7
    frequency:    5.3784698173
  - # 8
    frequency:    6.9242428882
  - # 9
    frequency:    7.6287415167
  - # 10
    frequency:    7.7381403536
  - # 11
    frequency:   10.9796912124
  - # 12
    frequency:   13.6884048135
  - # 13
    frequency:   13.6905985168
  - # 14
    frequency:   13.9270128563
  - # 15
    frequency:   13.9747381441
  - # 16
    frequency:   14.3772806669
  - # 17
    frequency:   27.4929325175
  - # 18
    frequency:   28.2217219029
  - # 19
    frequency:   28.4679552613
  - # 20
    frequency:   32.1181413976
  - # 21
    frequency:   68.0992975808

- q-position: [    0.0757576,    0.0000000,    0.0000000 ]
  distance:    0.0268734
  band:
  - # 1
    frequency:   -0.6249438770
  - # 2
    frequency:    0.2416712153
  - # 3
    frequency:    0.9727137865
  - # 4
    frequency:    1.2965284186
  - # 5
    frequency:    2.2426499182
  - # 6
    frequency:    5.1557896621
  - # 7
    frequency:    5.4129966987
  - # 8
    frequency:    6.9155766391
  - # 9
    frequency:    7.6336227775
  - # 10
    frequency:    7.7576143780
  - # 11
    frequency:   10.9210077360
  - # 12
    frequency:   13.6851140746
  - # 13
    frequency:   13.6863198642
  - # 14
    frequency:   13.9297403951
  - # 15
    frequency:   13.9795251430
  - # 16
    frequency:   14.3572276906
  - # 17
    frequency:   27.4423813112
  - # 18
    frequency:   28.2274995271
  - # 19
    frequency:   28.4903196476
  - # 20
    frequency:   32.0993908523
  - # 21
    frequency:   68.0904828027

- q-position: [    0.0808081,    0.0000000,    0.0000000 ]
  distance:    0.0286650
  band:
  - # 1
    frequency:   -0.5756325707
  - # 2
    frequency:    0.3216643936
  - # 3
    frequency:    1.0836489060
  - # 4
    frequency:    1.3857368820
  - # 5
    frequency:    2.3830758009
  - # 6
    frequency:    5.1640818893
  - # 7
    frequency:    5.4483861510
  - # 8
    frequency:    6.9067727845
  - # 9
    frequency:    7.6387259393
  - # 10
    frequency:    7.7778681376
  - # 11
    frequency:   10.8604375837
  - # 12
    frequency:   13.6785763416
  - # 13
    frequency:   13.6841764810
  - # 14
    frequency:   13.9324329621
  - # 15
    frequency:   13.9831369104
  - # 16
    frequency:   14.3371121118
  - # 17
    frequency:   27.3908650167
  - # 18
    frequency:   28.2332175982
  - # 19
    frequency:   28.5125587852
  - # 20
    frequency:   32.0797165018
  - # 21
    frequency:   68.0811952906

- q-position: [    0.0858586,    0.0000000,    0.0000000 ]
  distance:    0.0304566
  band:
  - # 1
    frequency:   -0.5190719923
  - # 2
    frequency:    0.3949005273
  - # 3
    frequency:    1.1895651757
  - # 4
    frequency:    1.4749802502
  - # 5
    frequency:    2.5217978239
  - # 6
    frequency:    5.1731625082
  - # 7
    frequency:    5.4844151796
  - # 8
    frequency:    6.8979260418
  - # 9
    frequency:    7.6440303063
  - # 10
    frequency:    7.7987935383
  - # 11
    frequency:   10.7982564906
  - # 12
    frequency:   13.6708975940
  - # 13
    frequency:   13.6819850171
  - # 14
    frequency:   13.9350548774
  - # 15
    frequency:   13.9853303309
  - # 16
    frequency:   14.3172369357
  - # 17
    frequency:   27.3385022674
  - # 18
    frequency:   28.2387979464
  - # 19
    frequency:   28.5347074758
  - # 20
    frequency:   32.0591846736
  - # 21
    frequency:   68.0714596163

- q-position: [    0.0909091,    0.0000000,    0.0000000 ]
  distance:    0.0322481
  band:
  - # 1
    frequency:   -0.4526054531
  - # 2
    frequency:    0.4654389328
  - # 3
    frequency:    1.2915109960
  - # 4
    frequency:    1.5642072392
  - # 5
    frequency:    2.6586873978
  - # 6
    frequency:    5.1830675820
  - # 7
    frequency:    5.5208639322
  - # 8
    frequency:    6.8891383330
  - # 9
    frequency:    7.6495142841
  - # 10
    frequency:    7.8202768336
  - # 11
    frequency:   10.7347311353
  - # 12
    frequency:   13.6619880977
  - # 13
    frequency:   13.6797543839
  - # 14
    frequency:   13.9375710435
  - # 15
    frequency:   13.9858545249
  - # 16
    frequency:   14.2979366290
  - # 17
    frequency:   27.2854177400
  - # 18
    frequency:   28.2441613960
  - # 19
    frequency:   28.5567989428
  - # 20
    frequency:   32.0378636951
  - # 21
    frequency:   68.0613011930

- q-position: [    0.0959596,    0.0000000,    0.0000000 ]
  distance:    0.0340397
  band:
  - # 1
    frequency:   -0.3710146521
  - # 2
    frequency:    0.5350100703
  - # 3
    frequency:    1.3902020712
  - # 4
    frequency:    1.6533688600
  - # 5
    frequency:    2.7936190915
  - # 6
    frequency:    5.1938315742
  - # 7
    frequency:    5.5575165536
  - # 8
    frequency:    6.8805189257
  - # 9
    frequency:    7.6551553874
  - # 10
    frequency:    7.8421988904
  - # 11
    frequency:   10.6701191683
  - # 12
    frequency:   13.6517572266
  - # 13
    frequency:   13.6774916791
  - # 14
    frequency:   13.9399474634
  - # 15
    frequency:   13.9844553193
  - # 16
    frequency:   14.2795711162
  - # 17
    frequency:   27.2317416702
  - # 18
    frequency:   28.2492283991
  - # 19
    frequency:   28.5788643720
  - # 20
    frequency:   32.0158235298
  - # 21
    frequency:   68.0507461571

- q-position: [    0.1010101,    0.0000000,    0.0000000 ]
  distance:    0.0358313
  band:
  - # 1
    frequency:   -0.2605595730
  - # 2
    frequency:    0.6044869302
  - # 3
    frequency:    1.4861437620
  - # 4
    frequency:    1.7424177632
  - # 5
    frequency:    2.9264679821
  - # 6
    frequency:    5.2054866477
  - # 7
    frequency:    5.5941618259
  - # 8
    frequency:    6.8721844946
  - # 9
    frequency:    7.6609302450
  - # 10
    frequency:    7.8644354886
  - # 11
    frequency:   10.6046694795
  - # 12
    frequency:   13.6401148956
  - # 13
    frequency:   13.6752017955
  - # 14
    frequency:   13.9421517751
  - # 15
    frequency:   13.9808890257
  - # 16
    frequency:   14.2625099648
  - # 17
    frequency:   27.1776091248
  - # 18
    frequency:   28.2539196733
  - # 19
    frequency:   28.6009326667
  - # 20
    frequency:   31.9931354100
  - # 21
    frequency:   68.0398212486

- q-position: [    0.1060606,    0.0000000,    0.0000000 ]
  distance:    0.0376228
  band:
  - # 1
    frequency:    0.0661110280
  - # 2
    frequency:    0.6743502544
  - # 3
    frequency:    1.5797025995
  - # 4
    frequency:    1.8313077082
  - # 5
    frequency:    3.0571074183
  - # 6
    frequency:    5.2180619549
  - # 7
    frequency:    5.6305936529
  - # 8
    frequency:    6.8642590565
  - # 9
    frequency:    7.6668146104
  - # 10
    frequency:    7.8868576553
  - # 11
    frequency:   10.5386226444
  - # 12
    frequency:   13.6269730639
  - # 13
    frequency:   13.6728870104
  - # 14
    frequency:   13.9441537991
  - # 15
    frequency:   13.9749488655
  - # 16
    frequency:   14.2471037342
  - # 17
    frequency:   27.1231591038
  - # 18
    frequency:   28.2581568386
  - # 19
    frequency:   28.6230303512
  - # 20
    frequency:   31.9698714680
  - # 21
    frequency:   68.0285536910

- q-position: [    0.1111111,    0.0000000,    0.0000000 ]
  distance:    0.0394144
  band:
  - # 1
    frequency:    0.2811942313
  - # 2
    frequency:    0.7448763465
  - # 3
    frequency:    1.6711501701
  - # 4
    frequency:    1.9199931641
  - # 5
    frequency:    3.1854070517
  - # 6
    frequency:    5.2315829331
  - # 7
    frequency:    5.6666114639
  - # 8
    frequency:    6.8568737213
  - # 9
    frequency:    7.6727833806
  - # 10
    frequency:    7.9093320310
  - # 11
    frequency:   10.4722115036
  - # 12
    frequency:   13.6122470673
  - # 13
    frequency:   13.6705465540
  - # 14
    frequency:   13.9459260966
  - # 15
    frequency:   13.9665025107
  - # 16
    frequency:   14.2336443195
  - # 17
    frequency:   27.0685335223
  - # 18
    frequency:   28.2618630480
  - # 19
    frequency:   28.6451815804
  - # 20
    frequency:   31.9461043679
  - # 21
    frequency:   68.0169710712

- q-position: [    0.1161616,    0.0000000,    0.0000000 ]
  distance:    0.0412060
  band:
  - # 1
    frequency:    0.3951445268
  - # 2
    frequency:    0.8162251479
  - # 3
    frequency:    1.7606911827
  - # 4
    frequency:    2.0084290311
  - # 5
    frequency:    3.3112310415
  - # 6
    frequency:    5.2460706218
  - # 7
    frequency:    5.7020206234
  - # 8
    frequency:    6.8501661805
  - # 9
    frequency:    7.6788106299
  - # 10
    frequency:    7.9317212693
  - # 11
    frequency:   10.4056618455
  - # 12
    frequency:   13.5958565942
  - # 13
    frequency:   13.6681761577
  - # 14
    frequency:   13.9474445319
  - # 15
    frequency:   13.9555308139
  - # 16
    frequency:   14.2223244387
  - # 17
    frequency:   27.0138761122
  - # 18
    frequency:   28.2649636088
  - # 19
    frequency:   28.6674082228
  - # 20
    frequency:   31.9219069420
  - # 21
    frequency:   68.0051012202

- q-position: [    0.1212121,    0.0000000,    0.0000000 ]
  distance:    0.0429975
  band:
  - # 1
    frequency:    0.4852891602
  - # 2
    frequency:    0.8884859811
  - # 3
    frequency:    1.8484820630
  - # 4
    frequency:    2.0965704669
  - # 5
    frequency:    3.4344363834
  - # 6
    frequency:    5.2615410181
  - # 7
    frequency:    5.7366329497
  - # 8
    frequency:    6.8442798381
  - # 9
    frequency:    7.6848696636
  - # 10
    frequency:    7.9538844703
  - # 11
    frequency:   10.3391931685
  - # 12
    frequency:   13.5777262538
  - # 13
    frequency:   13.6657675823
  - # 14
    frequency:   13.9421515210
  - # 15
    frequency:   13.9486888352
  - # 16
    frequency:   14.2132125558
  - # 17
    frequency:   26.9593312738
  - # 18
    frequency:   28.2673865870
  - # 19
    frequency:   28.6897299956
  - # 20
    frequency:   31.8973518316
  - # 21
    frequency:   67.9929720960

- q-position: [    0.1262626,    0.0000000,    0.0000000 ]
  distance:    0.0447891
  band:
  - # 1
    frequency:    0.5631105982
  - # 2
    frequency:    0.9617031097
  - # 3
    frequency:    1.9346436473
  - # 4
    frequency:    2.1843727956
  - # 5
    frequency:    3.5548713407
  - # 6
    frequency:    5.2780044872
  - # 7
    frequency:    5.7702674520
  - # 8
    frequency:    6.8393624768
  - # 9
    frequency:    7.6909330972
  - # 10
    frequency:    7.9756776498
  - # 11
    frequency:   10.2730195074
  - # 12
    frequency:   13.5577858805
  - # 13
    frequency:   13.6633081279
  - # 14
    frequency:   13.9266154263
  - # 15
    frequency:   13.9496431596
  - # 16
    frequency:   14.2062556523
  - # 17
    frequency:   26.9050429019
  - # 18
    frequency:   28.2690633924
  - # 19
    frequency:   28.7121646356
  - # 20
    frequency:   31.8725111380
  - # 21
    frequency:   67.9806116682

- q-position: [    0.1313131,    0.0000000,    0.0000000 ]
  distance:    0.0465806
  band:
  - # 1
    frequency:    0.6331066824
  - # 2
    frequency:    1.0358908063
  - # 3
    frequency:    2.0192700760
  - # 4
    frequency:    2.2717914822
  - # 5
    frequency:    3.6723739855
  - # 6
    frequency:    5.2954652433
  - # 7
    frequency:    5.8027513941
  - # 8
    frequency:    6.8355643385
  - # 9
    frequency:    7.6969729642
  - # 10
    frequency:    7.9969542554
  - # 11
    frequency:   10.2073503105
  - # 12
    frequency:   13.5359709419
  - # 13
    frequency:   13.6607801315
  - # 14
    frequency:   13.9092760520
  - # 15
    frequency:   13.9502966234
  - # 16
    frequency:   14.2013084069
  - # 17
    frequency:   26.8511532080
  - # 18
    frequency:   28.2699293390
  - # 19
    frequency:   28.7347280938
  - # 20
    frequency:   31.8474560828
  - # 21
    frequency:   67.9680478063

- q-position: [    0.1363636,    0.0000000,    0.0000000 ]
  distance:    0.0483722
  band:
  - # 1
    frequency:    0.6975780743
  - # 2
    frequency:    1.1110425881
  - # 3
    frequency:    2.1024351671
  - # 4
    frequency:    2.3587821548
  - # 5
    frequency:    3.7867708781
  - # 6
    frequency:    5.3139209162
  - # 7
    frequency:    5.8339217742
  - # 8
    frequency:    6.8330355099
  - # 9
    frequency:    7.7029608572
  - # 10
    frequency:    8.0175657453
  - # 11
    frequency:   10.1423913528
  - # 12
    frequency:   13.5122236046
  - # 13
    frequency:   13.6581604590
  - # 14
    frequency:   13.8905464922
  - # 15
    frequency:   13.9506438275
  - # 16
    frequency:   14.1981745963
  - # 17
    frequency:   26.7978015546
  - # 18
    frequency:   28.2699241755
  - # 19
    frequency:   28.7574347442
  - # 20
    frequency:   31.8222566815
  - # 21
    frequency:   67.9553081709

- q-position: [    0.1414141,    0.0000000,    0.0000000 ]
  distance:    0.0501638
  band:
  - # 1
    frequency:    0.7578801380
  - # 2
    frequency:    1.1871370337
  - # 3
    frequency:    2.1841970756
  - # 4
    frequency:    2.4453006629
  - # 5
    frequency:    3.8978759386
  - # 6
    frequency:    5.3333622163
  - # 7
    frequency:    5.8636272640
  - # 8
    frequency:    6.8319225322
  - # 9
    frequency:    7.7088681028
  - # 10
    frequency:    8.0373622600
  - # 11
    frequency:   10.0783456640
  - # 12
    frequency:   13.4864950582
  - # 13
    frequency:   13.6554200056
  - # 14
    frequency:   13.8708587802
  - # 15
    frequency:   13.9506853333
  - # 16
    frequency:   14.1966447461
  - # 17
    frequency:   26.7451233193
  - # 18
    frequency:   28.2689925833
  - # 19
    frequency:   28.7802976021
  - # 20
    frequency:   31.7969814320
  - # 21
    frequency:   67.9424201101

- q-position: [    0.1464646,    0.0000000,    0.0000000 ]
  distance:    0.0519553
  band:
  - # 1
    frequency:    0.8148857005
  - # 2
    frequency:    1.2641415125
  - # 3
    frequency:    2.2646017599
  - # 4
    frequency:    2.5313031597
  - # 5
    frequency:    4.0054895878
  - # 6
    frequency:    5.3537727079
  - # 7
    frequency:    5.8917305719
  - # 8
    frequency:    6.8323642172
  - # 9
    frequency:    7.7146659725
  - # 10
    frequency:    8.0561934329
  - # 11
    frequency:   10.0154144390
  - # 12
    frequency:   13.4587495463
  - # 13
    frequency:   13.6525232230
  - # 14
    frequency:   13.8506339902
  - # 15
    frequency:   13.9504280810
  - # 16
    frequency:   14.1965213637
  - # 17
    frequency:   26.6932487995
  - # 18
    frequency:   28.2670846364
  - # 19
    frequency:   28.8033285437
  - # 20
    frequency:   31.7716970195
  - # 21
    frequency:   67.9294105591

- q-position: [    0.1515152,    0.0000000,    0.0000000 ]
  distance:    0.0537469
  band:
  - # 1
    frequency:    0.8691925457
  - # 2
    frequency:    1.3420145953
  - # 3
    frequency:    2.3436856030
  - # 4
    frequency:    2.6167462028
  - # 5
    frequency:    4.1093982565
  - # 6
    frequency:    5.3751286988
  - # 7
    frequency:    5.9181110778
  - # 8
    frequency:    6.8344867469
  - # 9
    frequency:    7.7203259275
  - # 10
    frequency:    8.0739094090
  - # 11
    frequency:    9.9537978830
  - # 12
    frequency:   13.4289701657
  - # 13
    frequency:   13.6494277008
  - # 14
    frequency:   13.8302634992
  - # 15
    frequency:   13.9498857226
  - # 16
    frequency:   14.1976312451
  - # 17
    frequency:   26.6423021722
  - # 18
    frequency:   28.2641562198
  - # 19
    frequency:   28.8265385260
  - # 20
    frequency:   31.7464680397
  - # 21
    frequency:   67.9163059470
