nqpoint: 300    
npath: 3      
segment_nqpoint:
- 100
- 100
- 100
labels:
- [ 'G', 'M' ]
- [ 'M', 'K' ]
- [ 'K', 'G' ]
reciprocal_lattice:
- [   0.30720476,   0.17736475,   0.00000000 ] # a*
- [   0.00000000,   0.35472950,   0.00000000 ] # b*
- [   0.00000000,   0.00000000,   0.03967236 ] # c*
natom: 7      
lattice:
- [     3.255157877120564,     0.000000000000000,     0.000000000000000 ] # a
- [    -1.627578938560282,     2.819049414918862,     0.000000000000000 ] # b
- [     0.000000000000000,     0.000000000000000,    25.206463992906713 ] # c
points:
- symbol: C # 1
  coordinates: [  0.666666984744048,  0.333332985985145,  0.404159122295862 ]
  mass: 12.010700
- symbol: H # 2
  coordinates: [  0.333332985432215,  0.666666983183674,  0.642948729241330 ]
  mass: 1.007940
- symbol: N # 3
  coordinates: [  0.000000000000000,  0.000000000000000,  0.554504234559353 ]
  mass: 14.006700
- symbol: N # 4
  coordinates: [  0.666666984744048,  0.333332985985145,  0.357051270758670 ]
  mass: 14.006700
- symbol: O # 5
  coordinates: [  0.666666984744048,  0.333332985985145,  0.457190109250864 ]
  mass: 15.999400
- symbol: Sc # 6
  coordinates: [  0.333332985432215,  0.666666983183674,  0.507671571762792 ]
  mass: 44.955912
- symbol: Sc # 7
  coordinates: [  0.666666984744048,  0.333332985985145,  0.604251643430610 ]
  mass: 44.955912

phonon:
- q-position: [    0.0000000,    0.0000000,    0.0000000 ]
  distance:    0.0000000
  band:
  - # 1
    frequency:   -0.4831388071
  - # 2
    frequency:   -0.4831388070
  - # 3
    frequency:   -0.0000112973
  - # 4
    frequency:   -0.0000003798
  - # 5
    frequency:    0.0000131439
  - # 6
    frequency:    5.3587550050
  - # 7
    frequency:    5.3587550050
  - # 8
    frequency:    6.8913769477
  - # 9
    frequency:    7.8882784396
  - # 10
    frequency:    7.8882784396
  - # 11
    frequency:   11.2195451496
  - # 12
    frequency:   13.7117884177
  - # 13
    frequency:   13.7117884177
  - # 14
    frequency:   14.0175122518
  - # 15
    frequency:   14.0704824792
  - # 16
    frequency:   14.0704824792
  - # 17
    frequency:   27.6597165112
  - # 18
    frequency:   28.5112347256
  - # 19
    frequency:   28.5112347257
  - # 20
    frequency:   32.1774268250
  - # 21
    frequency:   68.1418311079

- q-position: [    0.0050505,    0.0000000,    0.0000000 ]
  distance:    0.0017916
  band:
  - # 1
    frequency:   -0.4940446696
  - # 2
    frequency:   -0.4884319630
  - # 3
    frequency:    0.0025798242
  - # 4
    frequency:    0.1670855700
  - # 5
    frequency:    0.1714646724
  - # 6
    frequency:    5.3585432817
  - # 7
    frequency:    5.3596354429
  - # 8
    frequency:    6.8911172280
  - # 9
    frequency:    7.8882562245
  - # 10
    frequency:    7.8887957153
  - # 11
    frequency:   11.2177155174
  - # 12
    frequency:   13.7116257636
  - # 13
    frequency:   13.7118004620
  - # 14
    frequency:   14.0178241504
  - # 15
    frequency:   14.0699319696
  - # 16
    frequency:   14.0704780759
  - # 17
    frequency:   27.6574361431
  - # 18
    frequency:   28.5109626084
  - # 19
    frequency:   28.5126933351
  - # 20
    frequency:   32.1768682611
  - # 21
    frequency:   68.1415429207

- q-position: [    0.0101010,    0.0000000,    0.0000000 ]
  distance:    0.0035831
  band:
  - # 1
    frequency:   -0.5154658775
  - # 2
    frequency:   -0.4948274187
  - # 3
    frequency:    0.0104703593
  - # 4
    frequency:    0.3182095577
  - # 5
    frequency:    0.3292164202
  - # 6
    frequency:    5.3579121265
  - # 7
    frequency:    5.3622722146
  - # 8
    frequency:    6.8903423602
  - # 9
    frequency:    7.8881898576
  - # 10
    frequency:    7.8903430937
  - # 11
    frequency:   11.2122352506
  - # 12
    frequency:   13.7111404913
  - # 13
    frequency:   13.7118368233
  - # 14
    frequency:   14.0187344993
  - # 15
    frequency:   14.0682982479
  - # 16
    frequency:   14.0704632400
  - # 17
    frequency:   27.6506507974
  - # 18
    frequency:   28.5101464009
  - # 19
    frequency:   28.5170168348
  - # 20
    frequency:   32.1751940237
  - # 21
    frequency:   68.1406789904

- q-position: [    0.0151515,    0.0000000,    0.0000000 ]
  distance:    0.0053747
  band:
  - # 1
    frequency:   -0.5345412738
  - # 2
    frequency:   -0.4903541405
  - # 3
    frequency:    0.0241976031
  - # 4
    frequency:    0.4552531586
  - # 5
    frequency:    0.4741817847
  - # 6
    frequency:    5.3568735565
  - # 7
    frequency:    5.3666516957
  - # 8
    frequency:    6.8890651518
  - # 9
    frequency:    7.8880801642
  - # 10
    frequency:    7.8929073168
  - # 11
    frequency:   11.2031301310
  - # 12
    frequency:   13.7103403108
  - # 13
    frequency:   13.7118981845
  - # 14
    frequency:   14.0201572846
  - # 15
    frequency:   14.0656452028
  - # 16
    frequency:   14.0704331087
  - # 17
    frequency:   27.6395209440
  - # 18
    frequency:   28.5087865361
  - # 19
    frequency:   28.5240550278
  - # 20
    frequency:   32.1724084710
  - # 21
    frequency:   68.1392412091

- q-position: [    0.0202020,    0.0000000,    0.0000000 ]
  distance:    0.0071663
  band:
  - # 1
    frequency:   -0.5471514860
  - # 2
    frequency:   -0.4694510255
  - # 3
    frequency:    0.0449549124
  - # 4
    frequency:    0.5837690345
  - # 5
    frequency:    0.6109605038
  - # 6
    frequency:    5.3554475128
  - # 7
    frequency:    5.3727511867
  - # 8
    frequency:    6.8873067291
  - # 9
    frequency:    7.8879284886
  - # 10
    frequency:    7.8964665737
  - # 11
    frequency:   11.1904427735
  - # 12
    frequency:   13.7092369022
  - # 13
    frequency:   13.7119856736
  - # 14
    frequency:   14.0219064805
  - # 15
    frequency:   14.0621235955
  - # 16
    frequency:   14.0703796269
  - # 17
    frequency:   27.6242932771
  - # 18
    frequency:   28.5068837347
  - # 19
    frequency:   28.5335782853
  - # 20
    frequency:   32.1685188490
  - # 21
    frequency:   68.1372327232

- q-position: [    0.0252525,    0.0000000,    0.0000000 ]
  distance:    0.0089578
  band:
  - # 1
    frequency:   -0.5528117355
  - # 2
    frequency:   -0.4289292764
  - # 3
    frequency:    0.0754336139
  - # 4
    frequency:    0.7073627286
  - # 5
    frequency:    0.7427841189
  - # 6
    frequency:    5.3536617279
  - # 7
    frequency:    5.3805389257
  - # 8
    frequency:    6.8850962255
  - # 9
    frequency:    7.8877366479
  - # 10
    frequency:    7.9009909128
  - # 11
    frequency:   11.1742321123
  - # 12
    frequency:   13.7078442540
  - # 13
    frequency:   13.7121008486
  - # 14
    frequency:   14.0235904883
  - # 15
    frequency:   14.0580789282
  - # 16
    frequency:   14.0702916209
  - # 17
    frequency:   27.6052753986
  - # 18
    frequency:   28.5044390049
  - # 19
    frequency:   28.5453027797
  - # 20
    frequency:   32.1635352665
  - # 21
    frequency:   68.1346579229

- q-position: [    0.0303030,    0.0000000,    0.0000000 ]
  distance:    0.0107494
  band:
  - # 1
    frequency:   -0.5519247504
  - # 2
    frequency:   -0.3659889142
  - # 3
    frequency:    0.1222178199
  - # 4
    frequency:    0.8280104570
  - # 5
    frequency:    0.8715600592
  - # 6
    frequency:    5.3515515391
  - # 7
    frequency:    5.3899741086
  - # 8
    frequency:    6.8824703767
  - # 9
    frequency:    7.8875068681
  - # 10
    frequency:    7.9064427831
  - # 11
    frequency:   11.1545727119
  - # 12
    frequency:   13.7061764891
  - # 13
    frequency:   13.7122456767
  - # 14
    frequency:   14.0243749391
  - # 15
    frequency:   14.0542916829
  - # 16
    frequency:   14.0701548996
  - # 17
    frequency:   27.5828093244
  - # 18
    frequency:   28.5014536410
  - # 19
    frequency:   28.5589168618
  - # 20
    frequency:   32.1574706586
  - # 21
    frequency:   68.1315224275

- q-position: [    0.0353535,    0.0000000,    0.0000000 ]
  distance:    0.0125409
  band:
  - # 1
    frequency:   -0.5449656468
  - # 2
    frequency:   -0.2838305317
  - # 3
    frequency:    0.2004961820
  - # 4
    frequency:    0.9467540751
  - # 5
    frequency:    0.9984013622
  - # 6
    frequency:    5.3491596457
  - # 7
    frequency:    5.4010069187
  - # 8
    frequency:    6.8794730494
  - # 9
    frequency:    7.8872417048
  - # 10
    frequency:    7.9127776776
  - # 11
    frequency:   11.1315539353
  - # 12
    frequency:   13.7042452679
  - # 13
    frequency:   13.7124225072
  - # 14
    frequency:   14.0227929312
  - # 15
    frequency:   14.0521707449
  - # 16
    frequency:   14.0699523818
  - # 17
    frequency:   27.5572482730
  - # 18
    frequency:   28.4979292231
  - # 19
    frequency:   28.5741041225
  - # 20
    frequency:   32.1503407410
  - # 21
    frequency:   68.1278330664

- q-position: [    0.0404040,    0.0000000,    0.0000000 ]
  distance:    0.0143325
  band:
  - # 1
    frequency:   -0.5322557481
  - # 2
    frequency:   -0.2098302293
  - # 3
    frequency:    0.3189130945
  - # 4
    frequency:    1.0641197722
  - # 5
    frequency:    1.1239647998
  - # 6
    frequency:    5.3465358099
  - # 7
    frequency:    5.4135785682
  - # 8
    frequency:    6.8761547346
  - # 9
    frequency:    7.8869439498
  - # 10
    frequency:    7.9199448461
  - # 11
    frequency:   11.1052789999
  - # 12
    frequency:   13.7020568060
  - # 13
    frequency:   13.7126340392
  - # 14
    frequency:   14.0176528102
  - # 15
    frequency:   14.0528498257
  - # 16
    frequency:   14.0696642486
  - # 17
    frequency:   27.5289390881
  - # 18
    frequency:   28.4938676168
  - # 19
    frequency:   28.5905607898
  - # 20
    frequency:   32.1421639545
  - # 21
    frequency:   68.1235978563

- q-position: [    0.0454545,    0.0000000,    0.0000000 ]
  distance:    0.0161241
  band:
  - # 1
    frequency:   -0.5138936659
  - # 2
    frequency:   -0.1598007546
  - # 3
    frequency:    0.4479275882
  - # 4
    frequency:    1.1803463771
  - # 5
    frequency:    1.2486381817
  - # 6
    frequency:    5.3437364966
  - # 7
    frequency:    5.4276213545
  - # 8
    frequency:    6.8725720309
  - # 9
    frequency:    7.8866165245
  - # 10
    frequency:    7.9278880441
  - # 11
    frequency:   11.0758639587
  - # 12
    frequency:   13.6996084662
  - # 13
    frequency:   13.7128832829
  - # 14
    frequency:   14.0092680855
  - # 15
    frequency:   14.0559622979
  - # 16
    frequency:   14.0692681161
  - # 17
    frequency:   27.4982106979
  - # 18
    frequency:   28.4892709737
  - # 19
    frequency:   28.6080070576
  - # 20
    frequency:   32.1329613995
  - # 21
    frequency:   68.1188259750

- q-position: [    0.0505051,    0.0000000,    0.0000000 ]
  distance:    0.0179156
  band:
  - # 1
    frequency:   -0.4897126464
  - # 2
    frequency:   -0.1130998197
  - # 3
    frequency:    0.5698621679
  - # 4
    frequency:    1.2955108059
  - # 5
    frequency:    1.3726446198
  - # 6
    frequency:    5.3408244530
  - # 7
    frequency:    5.4430587340
  - # 8
    frequency:    6.8687871459
  - # 9
    frequency:    7.8862623643
  - # 10
    frequency:    7.9365462915
  - # 11
    frequency:   11.0434366390
  - # 12
    frequency:   13.6968847832
  - # 13
    frequency:   13.7131735157
  - # 14
    frequency:   13.9985113713
  - # 15
    frequency:   14.0605926563
  - # 16
    frequency:   14.0687392294
  - # 17
    frequency:   27.4653677816
  - # 18
    frequency:   28.4841417335
  - # 19
    frequency:   28.6261931776
  - # 20
    frequency:   32.1227567614
  - # 21
    frequency:   68.1135277302

- q-position: [    0.0555556,    0.0000000,    0.0000000 ]
  distance:    0.0197072
  band:
  - # 1
    frequency:   -0.4592085306
  - # 2
    frequency:   -0.0030123050
  - # 3
    frequency:    0.6843394130
  - # 4
    frequency:    1.4095986147
  - # 5
    frequency:    1.4961025370
  - # 6
    frequency:    5.3378682235
  - # 7
    frequency:    5.4598054168
  - # 8
    frequency:    6.8648674322
  - # 9
    frequency:    7.8858842949
  - # 10
    frequency:    7.9458546131
  - # 11
    frequency:   11.0081355725
  - # 12
    frequency:   13.6938526581
  - # 13
    frequency:   13.7135082327
  - # 14
    frequency:   13.9859566036
  - # 15
    frequency:   14.0661405832
  - # 16
    frequency:   14.0680506713
  - # 17
    frequency:   27.4306883197
  - # 18
    frequency:   28.4784826274
  - # 19
    frequency:   28.6449016392
  - # 20
    frequency:   32.1115762270
  - # 21
    frequency:   68.1077145256

- q-position: [    0.0606061,    0.0000000,    0.0000000 ]
  distance:    0.0214988
  band:
  - # 1
    frequency:   -0.4213814168
  - # 2
    frequency:    0.1232489484
  - # 3
    frequency:    0.7931844331
  - # 4
    frequency:    1.5225445385
  - # 5
    frequency:    1.6190614641
  - # 6
    frequency:    5.3349415992
  - # 7
    frequency:    5.4777674859
  - # 8
    frequency:    6.8608849712
  - # 9
    frequency:    7.8854849042
  - # 10
    frequency:    7.9557447460
  - # 11
    frequency:   10.9701089451
  - # 12
    frequency:   13.6904553357
  - # 13
    frequency:   13.7138910902
  - # 14
    frequency:   13.9719249050
  - # 15
    frequency:   14.0671735873
  - # 16
    frequency:   14.0722825986
  - # 17
    frequency:   27.3944237085
  - # 18
    frequency:   28.4722966833
  - # 19
    frequency:   28.6639467576
  - # 20
    frequency:   32.0994483920
  - # 21
    frequency:   68.1013988236

- q-position: [    0.0656566,    0.0000000,    0.0000000 ]
  distance:    0.0232903
  band:
  - # 1
    frequency:   -0.3743619953
  - # 2
    frequency:    0.1848810210
  - # 3
    frequency:    0.8977961971
  - # 4
    frequency:    1.6342561891
  - # 5
    frequency:    1.7415240645
  - # 6
    frequency:    5.3321229984
  - # 7
    frequency:    5.4968425483
  - # 8
    frequency:    6.8569162091
  - # 9
    frequency:    7.8850664119
  - # 10
    frequency:    7.9661457975
  - # 11
    frequency:   10.9295135883
  - # 12
    frequency:   13.6866046643
  - # 13
    frequency:   13.7143258445
  - # 14
    frequency:   13.9566349705
  - # 15
    frequency:   14.0660774200
  - # 16
    frequency:   14.0788308971
  - # 17
    frequency:   27.3568003693
  - # 18
    frequency:   28.4655872338
  - # 19
    frequency:   28.6831727422
  - # 20
    frequency:   32.0864041608
  - # 21
    frequency:   68.0945941038

- q-position: [    0.0707071,    0.0000000,    0.0000000 ]
  distance:    0.0250819
  band:
  - # 1
    frequency:   -0.3143918911
  - # 2
    frequency:    0.2408682483
  - # 3
    frequency:    0.9991058240
  - # 4
    frequency:    1.7446281074
  - # 5
    frequency:    1.8634600186
  - # 6
    frequency:    5.3294947782
  - # 7
    frequency:    5.5169199219
  - # 8
    frequency:    6.8530416402
  - # 9
    frequency:    7.8846305416
  - # 10
    frequency:    7.9769848496
  - # 11
    frequency:   10.8865140318
  - # 12
    frequency:   13.6821711181
  - # 13
    frequency:   13.7148162823
  - # 14
    frequency:   13.9402862500
  - # 15
    frequency:   14.0647301538
  - # 16
    frequency:   14.0856615905
  - # 17
    frequency:   27.3180220831
  - # 18
    frequency:   28.4583579273
  - # 19
    frequency:   28.7024510163
  - # 20
    frequency:   32.0724766373
  - # 21
    frequency:   68.0873148193

- q-position: [    0.0757576,    0.0000000,    0.0000000 ]
  distance:    0.0268734
  band:
  - # 1
    frequency:   -0.2320153832
  - # 2
    frequency:    0.2960443443
  - # 3
    frequency:    1.0977349796
  - # 4
    frequency:    1.8535502027
  - # 5
    frequency:    1.9848149296
  - # 6
    frequency:    5.3271424756
  - # 7
    frequency:    5.5378808724
  - # 8
    frequency:    6.8493455262
  - # 9
    frequency:    7.8841783961
  - # 10
    frequency:    7.9881875075
  - # 11
    frequency:   10.8412816280
  - # 12
    frequency:   13.6769713091
  - # 13
    frequency:   13.7153661451
  - # 14
    frequency:   13.9231040119
  - # 15
    frequency:   14.0630985658
  - # 16
    frequency:   14.0926835266
  - # 17
    frequency:   27.2782725519
  - # 18
    frequency:   28.4506127412
  - # 19
    frequency:   28.7216772876
  - # 20
    frequency:   32.0577010096
  - # 21
    frequency:   68.0795763494

- q-position: [    0.0808081,    0.0000000,    0.0000000 ]
  distance:    0.0286650
  band:
  - # 1
    frequency:   -0.0726012461
  - # 2
    frequency:    0.3520744357
  - # 3
    frequency:    1.1941098517
  - # 4
    frequency:    1.9609128947
  - # 5
    frequency:    2.1055160979
  - # 6
    frequency:    5.3251539777
  - # 7
    frequency:    5.5595989119
  - # 8
    frequency:    6.8459156296
  - # 9
    frequency:    7.8837103421
  - # 10
    frequency:    7.9996783952
  - # 11
    frequency:   10.7939937574
  - # 12
    frequency:   13.6707536367
  - # 13
    frequency:   13.7159790440
  - # 14
    frequency:   13.9053688971
  - # 15
    frequency:   14.0611484816
  - # 16
    frequency:   14.0998244146
  - # 17
    frequency:   27.2377178941
  - # 18
    frequency:   28.4423559998
  - # 19
    frequency:   28.7407686672
  - # 20
    frequency:   32.0421144263
  - # 21
    frequency:   68.0713949500

- q-position: [    0.0858586,    0.0000000,    0.0000000 ]
  distance:    0.0304566
  band:
  - # 1
    frequency:    0.2161021501
  - # 2
    frequency:    0.4096888478
  - # 3
    frequency:    1.2885308682
  - # 4
    frequency:    2.0666103013
  - # 5
    frequency:    2.2254762779
  - # 6
    frequency:    5.3236186238
  - # 7
    frequency:    5.5819401795
  - # 8
    frequency:    6.8428429333
  - # 9
    frequency:    7.8832259046
  - # 10
    frequency:    8.0113816049
  - # 11
    frequency:   10.7448331149
  - # 12
    frequency:   13.6631850182
  - # 13
    frequency:   13.7166583649
  - # 14
    frequency:   13.8874379878
  - # 15
    frequency:   14.0588450351
  - # 16
    frequency:   14.1070242763
  - # 17
    frequency:   27.1965089178
  - # 18
    frequency:   28.4335923953
  - # 19
    frequency:   28.7596609929
  - # 20
    frequency:   32.0257558680
  - # 21
    frequency:   68.0627877011

- q-position: [    0.0909091,    0.0000000,    0.0000000 ]
  distance:    0.0322481
  band:
  - # 1
    frequency:    0.3193092233
  - # 2
    frequency:    0.4692374146
  - # 3
    frequency:    1.3812150007
  - # 4
    frequency:    2.1705422670
  - # 5
    frequency:    2.3445961158
  - # 6
    frequency:    5.3226262418
  - # 7
    frequency:    5.6047639301
  - # 8
    frequency:    6.8402213086
  - # 9
    frequency:    7.8827236763
  - # 10
    frequency:    8.0232211098
  - # 11
    frequency:   10.6939870762
  - # 12
    frequency:   13.6538460453
  - # 13
    frequency:   13.7174071617
  - # 14
    frequency:   13.8697541035
  - # 15
    frequency:   14.0561529323
  - # 16
    frequency:   14.1142321580
  - # 17
    frequency:   27.1547831073
  - # 18
    frequency:   28.4243270127
  - # 19
    frequency:   28.7783064262
  - # 20
    frequency:   32.0086660109
  - # 21
    frequency:   68.0537724522

- q-position: [    0.0959596,    0.0000000,    0.0000000 ]
  distance:    0.0340397
  band:
  - # 1
    frequency:    0.4004883084
  - # 2
    frequency:    0.5308849394
  - # 3
    frequency:    1.4723220511
  - # 4
    frequency:    2.2726156999
  - # 5
    frequency:    2.4627657107
  - # 6
    frequency:    5.3222661241
  - # 7
    frequency:    5.6279231632
  - # 8
    frequency:    6.8381470883
  - # 9
    frequency:    7.8822012443
  - # 10
    frequency:    8.0351211503
  - # 11
    frequency:   10.6416471378
  - # 12
    frequency:   13.6422476899
  - # 13
    frequency:   13.7182280340
  - # 14
    frequency:   13.8528319166
  - # 15
    frequency:   14.0530367187
  - # 16
    frequency:   14.1214043850
  - # 17
    frequency:   27.1126663109
  - # 18
    frequency:   28.4145653590
  - # 19
    frequency:   28.7966713366
  - # 20
    frequency:   31.9908870869
  - # 21
    frequency:   68.0443677658

- q-position: [    0.1010101,    0.0000000,    0.0000000 ]
  distance:    0.0358313
  band:
  - # 1
    frequency:    0.4710549866
  - # 2
    frequency:    0.5946946629
  - # 3
    frequency:    1.5619715020
  - # 4
    frequency:    2.3727454970
  - # 5
    frequency:    2.5798655917
  - # 6
    frequency:    5.3226259526
  - # 7
    frequency:    5.6512654306
  - # 8
    frequency:    6.8367184926
  - # 9
    frequency:    7.8816551362
  - # 10
    frequency:    8.0470066078
  - # 11
    frequency:   10.5880084223
  - # 12
    frequency:   13.6278843757
  - # 13
    frequency:   13.7191229865
  - # 14
    frequency:   13.8372068354
  - # 15
    frequency:   14.0494610536
  - # 16
    frequency:   14.1285035859
  - # 17
    frequency:   27.0702741449
  - # 18
    frequency:   28.4043133961
  - # 19
    frequency:   28.8147344625
  - # 20
    frequency:   31.9724627375
  - # 21
    frequency:   68.0345928582

- q-position: [    0.1060606,    0.0000000,    0.0000000 ]
  distance:    0.0376228
  band:
  - # 1
    frequency:    0.5351310023
  - # 2
    frequency:    0.6606686646
  - # 3
    frequency:    1.6502536599
  - # 4
    frequency:    2.4708552198
  - # 5
    frequency:    2.6957673046
  - # 6
    frequency:    5.3237906829
  - # 7
    frequency:    5.6746338682
  - # 8
    frequency:    6.8360348536
  - # 9
    frequency:    7.8810807888
  - # 10
    frequency:    8.0588033762
  - # 11
    frequency:   10.5332692347
  - # 12
    frequency:   13.6103249254
  - # 13
    frequency:   13.7200932634
  - # 14
    frequency:   13.8233455096
  - # 15
    frequency:   14.0453909956
  - # 16
    frequency:   14.1354981217
  - # 17
    frequency:   27.0277131452
  - # 18
    frequency:   28.3935775776
  - # 19
    frequency:   28.8324853192
  - # 20
    frequency:   31.9534378644
  - # 21
    frequency:   68.0244675402

- q-position: [    0.1111111,    0.0000000,    0.0000000 ]
  distance:    0.0394144
  band:
  - # 1
    frequency:    0.5947381059
  - # 2
    frequency:    0.7287692720
  - # 3
    frequency:    1.7372372426
  - # 4
    frequency:    2.5668776156
  - # 5
    frequency:    2.8103337426
  - # 6
    frequency:    5.3258414030
  - # 7
    frequency:    5.6978684966
  - # 8
    frequency:    6.8361955812
  - # 9
    frequency:    7.8804725413
  - # 10
    frequency:    8.0704387477
  - # 11
    frequency:   10.4776306584
  - # 12
    frequency:   13.5893114882
  - # 13
    frequency:   13.7211391509
  - # 14
    frequency:   13.8115480322
  - # 15
    frequency:   14.0407923047
  - # 16
    frequency:   14.1423617358
  - # 17
    frequency:   26.9850816996
  - # 18
    frequency:   28.3823648893
  - # 19
    frequency:   28.8499228250
  - # 20
    frequency:   31.9338584757
  - # 21
    frequency:   68.0140121549

- q-position: [    0.1161616,    0.0000000,    0.0000000 ]
  distance:    0.0412060
  band:
  - # 1
    frequency:    0.6510344840
  - # 2
    frequency:    0.7989312325
  - # 3
    frequency:    1.8229746855
  - # 4
    frequency:    2.6607550329
  - # 5
    frequency:    2.9234193145
  - # 6
    frequency:    5.3288541848
  - # 7
    frequency:    5.7208078354
  - # 8
    frequency:    6.8372988206
  - # 9
    frequency:    7.8798236542
  - # 10
    frequency:    8.0818418237
  - # 11
    frequency:   10.4212961710
  - # 12
    frequency:   13.5648137849
  - # 13
    frequency:   13.7222597374
  - # 14
    frequency:   13.8018945931
  - # 15
    frequency:   14.0356317726
  - # 16
    frequency:   14.1490733286
  - # 17
    frequency:   26.9424707981
  - # 18
    frequency:   28.3706828928
  - # 19
    frequency:   28.8670541106
  - # 20
    frequency:   31.9137715301
  - # 21
    frequency:   68.0032475153

- q-position: [    0.1212121,    0.0000000,    0.0000000 ]
  distance:    0.0429975
  band:
  - # 1
    frequency:    0.7047504446
  - # 2
    frequency:    0.8710690466
  - # 3
    frequency:    1.9075059433
  - # 4
    frequency:    2.7524397538
  - # 5
    frequency:    3.0348700190
  - # 6
    frequency:    5.3328989519
  - # 7
    frequency:    5.7432908614
  - # 8
    frequency:    6.8394397613
  - # 9
    frequency:    7.8791263550
  - # 10
    frequency:    8.0929439653
  - # 11
    frequency:   10.3644712627
  - # 12
    frequency:   13.5370086522
  - # 13
    frequency:   13.7234526148
  - # 14
    frequency:   13.7942666513
  - # 15
    frequency:   14.0298775963
  - # 16
    frequency:   14.1556168034
  - # 17
    frequency:   26.8999646326
  - # 18
    frequency:   28.3585397723
  - # 19
    frequency:   28.8838934853
  - # 20
    frequency:   31.8932247777
  - # 21
    frequency:   67.9921948409

- q-position: [    0.1262626,    0.0000000,    0.0000000 ]
  distance:    0.0447891
  band:
  - # 1
    frequency:    0.7563777060
  - # 2
    frequency:    0.9450816146
  - # 3
    frequency:    1.9908612730
  - # 4
    frequency:    2.8418942479
  - # 5
    frequency:    3.1445234790
  - # 6
    frequency:    5.3380383894
  - # 7
    frequency:    5.7651593223
  - # 8
    frequency:    6.8427085854
  - # 9
    frequency:    7.8783719114
  - # 10
    frequency:    8.1036792948
  - # 11
    frequency:   10.3073630349
  - # 12
    frequency:   13.5062071572
  - # 13
    frequency:   13.7247135008
  - # 14
    frequency:   13.7884203818
  - # 15
    frequency:   14.0234998156
  - # 16
    frequency:   14.1619809514
  - # 17
    frequency:   26.8576410754
  - # 18
    frequency:   28.3459443826
  - # 19
    frequency:   28.9004615306
  - # 20
    frequency:   31.8722666002
  - # 21
    frequency:   67.9808756936

- q-position: [    0.1313131,    0.0000000,    0.0000000 ]
  distance:    0.0465806
  band:
  - # 1
    frequency:    0.8062635079
  - # 2
    frequency:    1.0208553233
  - # 3
    frequency:    2.0730633131
  - # 4
    frequency:    2.9290913401
  - # 5
    frequency:    3.2522089805
  - # 6
    frequency:    5.3443269254
  - # 7
    frequency:    5.7862603816
  - # 8
    frequency:    6.8471880732
  - # 9
    frequency:    7.8775507318
  - # 10
    frequency:    8.1139852605
  - # 11
    frequency:   10.2501797568
  - # 12
    frequency:   13.4727764978
  - # 13
    frequency:   13.7260357502
  - # 14
    frequency:   13.7840651922
  - # 15
    frequency:   14.0164708495
  - # 16
    frequency:   14.1681593564
  - # 17
    frequency:   26.8155720628
  - # 18
    frequency:   28.3329062998
  - # 19
    frequency:   28.9167843013
  - # 20
    frequency:   31.8509458489
  - # 21
    frequency:   67.9693119128

- q-position: [    0.1363636,    0.0000000,    0.0000000 ]
  distance:    0.0483722
  band:
  - # 1
    frequency:    0.8546620830
  - # 2
    frequency:    1.0982661927
  - # 3
    frequency:    2.1541286637
  - # 4
    frequency:    3.0140142786
  - # 5
    frequency:    3.3577475543
  - # 6
    frequency:    5.3518098170
  - # 7
    frequency:    5.8064495288
  - # 8
    frequency:    6.8529509363
  - # 9
    frequency:    7.8766524914
  - # 10
    frequency:    8.1238032729
  - # 11
    frequency:   10.1931303543
  - # 12
    frequency:   13.4370867105
  - # 13
    frequency:   13.7274097088
  - # 14
    frequency:   13.7809172956
  - # 15
    frequency:   14.0087661757
  - # 16
    frequency:   14.1741503034
  - # 17
    frequency:   26.7738239053
  - # 18
    frequency:   28.3194358719
  - # 19
    frequency:   28.9328926140
  - # 20
    frequency:   31.8293116833
  - # 21
    frequency:   67.9575255517

- q-position: [    0.1414141,    0.0000000,    0.0000000 ]
  distance:    0.0501638
  band:
  - # 1
    frequency:    0.9017648933
  - # 2
    frequency:    1.1771814407
  - # 3
    frequency:    2.2340691078
  - # 4
    frequency:    3.0966566835
  - # 5
    frequency:    3.4609521415
  - # 6
    frequency:    5.3605223745
  - # 7
    frequency:    5.8255936336
  - # 8
    frequency:    6.8600569953
  - # 9
    frequency:    7.8756662830
  - # 10
    frequency:    8.1330794201
  - # 11
    frequency:   10.1364238046
  - # 12
    frequency:   13.3994856057
  - # 13
    frequency:   13.7288218429
  - # 14
    frequency:   13.7787249173
  - # 15
    frequency:   14.0003652262
  - # 16
    frequency:   14.1799566830
  - # 17
    frequency:   26.7324575422
  - # 18
    frequency:   28.3055442687
  - # 19
    frequency:   28.9488214058
  - # 20
    frequency:   31.8074134095
  - # 21
    frequency:   67.9455388118

- q-position: [    0.1464646,    0.0000000,    0.0000000 ]
  distance:    0.0519553
  band:
  - # 1
    frequency:    0.9477194089
  - # 2
    frequency:    1.2574606815
  - # 3
    frequency:    2.3128925701
  - # 4
    frequency:    3.1770223584
  - # 5
    frequency:    3.5616278800
  - # 6
    frequency:    5.3704893565
  - # 7
    frequency:    5.8435739764
  - # 8
    frequency:    6.8685503774
  - # 9
    frequency:    7.8745807904
  - # 10
    frequency:    8.1417652629
  - # 11
    frequency:   10.0802684120
  - # 12
    frequency:   13.3602926134
  - # 13
    frequency:   13.7302535413
  - # 14
    frequency:   13.7772744560
  - # 15
    frequency:   13.9912526007
  - # 16
    frequency:   14.1855858785
  - # 17
    frequency:   26.6915287575
  - # 18
    frequency:   28.2912435319
  - # 19
    frequency:   28.9646091528
  - # 20
    frequency:   31.7853003191
  - # 21
    frequency:   67.9333739795

- q-position: [    0.1515152,    0.0000000,    0.0000000 ]
  distance:    0.0537469
  band:
  - # 1
    frequency:    0.9926413047
  - # 2
    frequency:    1.3389568912
  - # 3
    frequency:    2.3906038795
  - # 4
    frequency:    3.2551249455
  - # 5
    frequency:    3.6595725575
  - # 6
    frequency:    5.3817245670
  - # 7
    frequency:    5.8602890426
  - # 8
    frequency:    6.8784569460
  - # 9
    frequency:    7.8733844800
  - # 10
    frequency:    8.1498187059
  - # 11
    frequency:   10.0248709391
  - # 12
    frequency:   13.3198017792
  - # 13
    frequency:   13.7316794356
  - # 14
    frequency:   13.7763873508
  - # 15
    frequency:   13.9814197571
  - # 16
    frequency:   14.1910496285
  - # 17
    frequency:   26.6510883685
  - # 18
    frequency:   28.2765466209
  - # 19
    frequency:   28.9802973349
  - # 20
    frequency:   31.7630215305
  - # 21
    frequency:   67.9210533625
