nqpoint: 300    
npath: 3      
segment_nqpoint:
- 100
- 100
- 100
labels:
- [ 'G', 'M' ]
- [ 'M', 'K' ]
- [ 'K', 'G' ]
reciprocal_lattice:
- [   0.31423405,   0.18142312,   0.00000000 ] # a*
- [   0.00000000,   0.36284623,   0.00000000 ] # b*
- [   0.00000000,   0.00000000,   0.03957842 ] # c*
natom: 7      
lattice:
- [     3.182341265605627,     0.000000000000000,     0.000000000000000 ] # a
- [    -1.591170632802814,     2.755988379525541,     0.000000000000000 ] # b
- [     0.000000000000000,     0.000000000000000,    25.266294332377104 ] # c
points:
- symbol: C # 1
  coordinates: [  0.000000000000000,  0.000000000000000,  0.498450900376908 ]
  mass: 12.010700
- symbol: C # 2
  coordinates: [  0.333332985432215,  0.666666983183674,  0.596171839205668 ]
  mass: 12.010700
- symbol: N # 3
  coordinates: [  0.333332985432215,  0.666666983183674,  0.643794223181074 ]
  mass: 14.006700
- symbol: N # 4
  coordinates: [  0.666666984744047,  0.333332985985145,  0.408008516995712 ]
  mass: 14.006700
- symbol: O # 5
  coordinates: [  0.666666984744047,  0.333332985985145,  0.356205776818926 ]
  mass: 15.999400
- symbol: Ti # 6
  coordinates: [  0.333332985432215,  0.666666983183674,  0.446095041444784 ]
  mass: 47.867000
- symbol: Ti # 7
  coordinates: [  0.666666984744047,  0.333332985985145,  0.540470009894475 ]
  mass: 47.867000

phonon:
- q-position: [    0.0000000,    0.0000000,    0.0000000 ]
  distance:    0.0000000
  band:
  - # 1
    frequency:   -4.0189127226
  - # 2
    frequency:   -4.0189127226
  - # 3
    frequency:   -0.8690503563
  - # 4
    frequency:   -0.8690503563
  - # 5
    frequency:    0.0000001417
  - # 6
    frequency:    0.0000004062
  - # 7
    frequency:    0.0000006713
  - # 8
    frequency:    5.1695482884
  - # 9
    frequency:    5.1695482884
  - # 10
    frequency:    6.6410788817
  - # 11
    frequency:    8.3497455784
  - # 12
    frequency:    8.3497455784
  - # 13
    frequency:   10.1531158188
  - # 14
    frequency:   10.7137217087
  - # 15
    frequency:   10.7137217087
  - # 16
    frequency:   11.4638193478
  - # 17
    frequency:   16.2065557239
  - # 18
    frequency:   16.2065557239
  - # 19
    frequency:   17.8438957023
  - # 20
    frequency:   41.8670217892
  - # 21
    frequency:   61.0334824844

- q-position: [    0.0050505,    0.0000000,    0.0000000 ]
  distance:    0.0018326
  band:
  - # 1
    frequency:   -4.0186500665
  - # 2
    frequency:   -4.0164806632
  - # 3
    frequency:   -0.8688728979
  - # 4
    frequency:   -0.8671709244
  - # 5
    frequency:   -0.0732246714
  - # 6
    frequency:    0.0907189746
  - # 7
    frequency:    0.1603032066
  - # 8
    frequency:    5.1700485304
  - # 9
    frequency:    5.1709202125
  - # 10
    frequency:    6.6410013634
  - # 11
    frequency:    8.3496924491
  - # 12
    frequency:    8.3505226163
  - # 13
    frequency:   10.1524204960
  - # 14
    frequency:   10.7128241800
  - # 15
    frequency:   10.7141093744
  - # 16
    frequency:   11.4653564748
  - # 17
    frequency:   16.2063739614
  - # 18
    frequency:   16.2070163178
  - # 19
    frequency:   17.8437028499
  - # 20
    frequency:   41.8661860540
  - # 21
    frequency:   61.0333431391

- q-position: [    0.0101010,    0.0000000,    0.0000000 ]
  distance:    0.0036651
  band:
  - # 1
    frequency:   -4.0178641647
  - # 2
    frequency:   -4.0091970582
  - # 3
    frequency:   -0.8683179294
  - # 4
    frequency:   -0.8615191470
  - # 5
    frequency:   -0.0852514433
  - # 6
    frequency:    0.1813453119
  - # 7
    frequency:    0.2978717002
  - # 8
    frequency:    5.1715483257
  - # 9
    frequency:    5.1750277861
  - # 10
    frequency:    6.6407731066
  - # 11
    frequency:    8.3495334224
  - # 12
    frequency:    8.3528437929
  - # 13
    frequency:   10.1503304729
  - # 14
    frequency:   10.7101956188
  - # 15
    frequency:   10.7152705678
  - # 16
    frequency:   11.4699154342
  - # 17
    frequency:   16.2058290113
  - # 18
    frequency:   16.2083983151
  - # 19
    frequency:   17.8431247937
  - # 20
    frequency:   41.8636807179
  - # 21
    frequency:   61.0329255462

- q-position: [    0.0151515,    0.0000000,    0.0000000 ]
  distance:    0.0054977
  band:
  - # 1
    frequency:   -4.0165611945
  - # 2
    frequency:   -3.9970995176
  - # 3
    frequency:   -0.8673240641
  - # 4
    frequency:   -0.8520597983
  - # 5
    frequency:   -0.0952299634
  - # 6
    frequency:    0.2718066782
  - # 7
    frequency:    0.4390963889
  - # 8
    frequency:    5.1740448864
  - # 9
    frequency:    5.1818465623
  - # 10
    frequency:    6.6404069157
  - # 11
    frequency:    8.3492695792
  - # 12
    frequency:    8.3566795061
  - # 13
    frequency:   10.1468346962
  - # 14
    frequency:   10.7060206771
  - # 15
    frequency:   10.7171998935
  - # 16
    frequency:   11.4773451647
  - # 17
    frequency:   16.2049218828
  - # 18
    frequency:   16.2107023555
  - # 19
    frequency:   17.8421630320
  - # 20
    frequency:   41.8595113816
  - # 21
    frequency:   61.0322310329

- q-position: [    0.0202020,    0.0000000,    0.0000000 ]
  distance:    0.0073302
  band:
  - # 1
    frequency:   -4.0147513736
  - # 2
    frequency:   -3.9802503463
  - # 3
    frequency:   -0.8658069958
  - # 4
    frequency:   -0.8387493119
  - # 5
    frequency:   -0.1037345439
  - # 6
    frequency:    0.3620634503
  - # 7
    frequency:    0.5818532677
  - # 8
    frequency:    5.1775335802
  - # 9
    frequency:    5.1913362875
  - # 10
    frequency:    6.6399238374
  - # 11
    frequency:    8.3489027127
  - # 12
    frequency:    8.3619811104
  - # 13
    frequency:   10.1419183840
  - # 14
    frequency:   10.7005840659
  - # 15
    frequency:   10.7198884106
  - # 16
    frequency:   11.4874129377
  - # 17
    frequency:   16.2036542486
  - # 18
    frequency:   16.2139294820
  - # 19
    frequency:   17.8408200456
  - # 20
    frequency:   41.8536873509
  - # 21
    frequency:   61.0312618041

- q-position: [    0.0252525,    0.0000000,    0.0000000 ]
  distance:    0.0091628
  band:
  - # 1
    frequency:   -4.0124488455
  - # 2
    frequency:   -3.9587359375
  - # 3
    frequency:   -0.8636775248
  - # 4
    frequency:   -0.8215545646
  - # 5
    frequency:   -0.1084918161
  - # 6
    frequency:    0.4521102272
  - # 7
    frequency:    0.7254684192
  - # 8
    frequency:    5.1820079514
  - # 9
    frequency:    5.2034416136
  - # 10
    frequency:    6.6393527401
  - # 11
    frequency:    8.3484353144
  - # 12
    frequency:    8.3686819403
  - # 13
    frequency:   10.1355682513
  - # 14
    frequency:   10.6942412075
  - # 15
    frequency:   10.7233237090
  - # 16
    frequency:   11.4998279311
  - # 17
    frequency:   16.2020284317
  - # 18
    frequency:   16.2180811058
  - # 19
    frequency:   17.8390992748
  - # 20
    frequency:   41.8462215944
  - # 21
    frequency:   61.0300209325

- q-position: [    0.0303030,    0.0000000,    0.0000000 ]
  distance:    0.0109953
  band:
  - # 1
    frequency:   -4.0096715196
  - # 2
    frequency:   -3.9326658489
  - # 3
    frequency:   -0.8608554202
  - # 4
    frequency:   -0.8004791922
  - # 5
    frequency:   -0.1059182677
  - # 6
    frequency:    0.5419689311
  - # 7
    frequency:    0.8697082236
  - # 8
    frequency:    5.1874597499
  - # 9
    frequency:    5.2180930494
  - # 10
    frequency:    6.6387297655
  - # 11
    frequency:    8.3478705567
  - # 12
    frequency:    8.3766987172
  - # 13
    frequency:   10.1277792727
  - # 14
    frequency:   10.6873854781
  - # 15
    frequency:   10.7274900161
  - # 16
    frequency:   11.5142664452
  - # 17
    frequency:   16.2000473858
  - # 18
    frequency:   16.2231589569
  - # 19
    frequency:   17.8370050866
  - # 20
    frequency:   41.8371306842
  - # 21
    frequency:   61.0285123441

- q-position: [    0.0353535,    0.0000000,    0.0000000 ]
  distance:    0.0128279
  band:
  - # 1
    frequency:   -4.0064408690
  - # 2
    frequency:   -3.9021714978
  - # 3
    frequency:   -0.8572766485
  - # 4
    frequency:   -0.7756045406
  - # 5
    frequency:   -0.0889628100
  - # 6
    frequency:    0.6316783558
  - # 7
    frequency:    1.0144811873
  - # 8
    frequency:    5.1938789685
  - # 9
    frequency:    5.2352081095
  - # 10
    frequency:    6.6380976855
  - # 11
    frequency:    8.3472122686
  - # 12
    frequency:    8.3859333185
  - # 13
    frequency:   10.1185623001
  - # 14
    frequency:   10.6804167899
  - # 15
    frequency:   10.7323683303
  - # 16
    frequency:   11.5303946849
  - # 17
    frequency:   16.1977146723
  - # 18
    frequency:   16.2291650200
  - # 19
    frequency:   17.8345427348
  - # 20
    frequency:   41.8264347206
  - # 21
    frequency:   61.0267408002

- q-position: [    0.0404040,    0.0000000,    0.0000000 ]
  distance:    0.0146605
  band:
  - # 1
    frequency:   -4.0027816876
  - # 2
    frequency:   -3.8674044045
  - # 3
    frequency:   -0.8528948409
  - # 4
    frequency:   -0.7471529019
  - # 5
    frequency:   -0.0172281038
  - # 6
    frequency:    0.7212842059
  - # 7
    frequency:    1.1597419665
  - # 8
    frequency:    5.2012538870
  - # 9
    frequency:    5.2546926142
  - # 10
    frequency:    6.6375052044
  - # 11
    frequency:    8.3464649073
  - # 12
    frequency:    8.3962748818
  - # 13
    frequency:   10.1079515753
  - # 14
    frequency:   10.6737148006
  - # 15
    frequency:   10.7379365826
  - # 16
    frequency:   11.5478867686
  - # 17
    frequency:   16.1950344319
  - # 18
    frequency:   16.2361014551
  - # 19
    frequency:   17.8317183136
  - # 20
    frequency:   41.8141572411
  - # 21
    frequency:   61.0247118754

- q-position: [    0.0454545,    0.0000000,    0.0000000 ]
  distance:    0.0164930
  band:
  - # 1
    frequency:   -3.9987218096
  - # 2
    frequency:   -3.8285339221
  - # 3
    frequency:   -0.8476792385
  - # 4
    frequency:   -0.7155718194
  - # 5
    frequency:    0.1167292119
  - # 6
    frequency:    0.8108316239
  - # 7
    frequency:    1.3054542395
  - # 8
    frequency:    5.2095711246
  - # 9
    frequency:    5.2764420892
  - # 10
    frequency:    6.6370062428
  - # 11
    frequency:    8.3456335245
  - # 12
    frequency:    8.4076022183
  - # 13
    frequency:   10.0960110143
  - # 14
    frequency:   10.6676185034
  - # 15
    frequency:   10.7441698221
  - # 16
    frequency:   11.5664373294
  - # 17
    frequency:   16.1920113524
  - # 18
    frequency:   16.2439705026
  - # 19
    frequency:   17.8285387053
  - # 20
    frequency:   41.8003251140
  - # 21
    frequency:   61.0224319317

- q-position: [    0.0505051,    0.0000000,    0.0000000 ]
  distance:    0.0183256
  band:
  - # 1
    frequency:   -3.9942917950
  - # 2
    frequency:   -3.7857444089
  - # 3
    frequency:   -0.8416112006
  - # 4
    frequency:   -0.6816079983
  - # 5
    frequency:    0.1904620509
  - # 6
    frequency:    0.9003605197
  - # 7
    frequency:    1.4515737695
  - # 8
    frequency:    5.2188156976
  - # 9
    frequency:    5.3003432172
  - # 10
    frequency:    6.6366592408
  - # 11
    frequency:    8.3447237271
  - # 12
    frequency:    8.4197865077
  - # 13
    frequency:   10.0828381779
  - # 14
    frequency:   10.6624127578
  - # 15
    frequency:   10.7510404255
  - # 16
    frequency:   11.5857692247
  - # 17
    frequency:   16.1886506333
  - # 18
    frequency:   16.2527743728
  - # 19
    frequency:   17.8250115245
  - # 20
    frequency:   41.7849684180
  - # 21
    frequency:   61.0199080893

- q-position: [    0.0555556,    0.0000000,    0.0000000 ]
  distance:    0.0201581
  band:
  - # 1
    frequency:   -3.9895245853
  - # 2
    frequency:   -3.7392318317
  - # 3
    frequency:   -0.8346806201
  - # 4
    frequency:   -0.6462789888
  - # 5
    frequency:    0.2651965263
  - # 6
    frequency:    0.9899031686
  - # 7
    frequency:    1.5980395063
  - # 8
    frequency:    5.2289710844
  - # 9
    frequency:    5.3262752952
  - # 10
    frequency:    6.6365265096
  - # 11
    frequency:    8.3437416331
  - # 12
    frequency:    8.4326942416
  - # 13
    frequency:   10.0685651640
  - # 14
    frequency:   10.6583214712
  - # 15
    frequency:   10.7585183264
  - # 16
    frequency:   11.6056374138
  - # 17
    frequency:   16.1849579472
  - # 18
    frequency:   16.2625151181
  - # 19
    frequency:   17.8211450598
  - # 20
    frequency:   41.7681203082
  - # 21
    frequency:   61.0171481945

- q-position: [    0.0606061,    0.0000000,    0.0000000 ]
  distance:    0.0219907
  band:
  - # 1
    frequency:   -3.9844551340
  - # 2
    frequency:   -3.6891998373
  - # 3
    frequency:   -0.8268828911
  - # 4
    frequency:   -0.6106089931
  - # 5
    frequency:    0.3438847328
  - # 6
    frequency:    1.0794833382
  - # 7
    frequency:    1.7447684327
  - # 8
    frequency:    5.2400192959
  - # 9
    frequency:    5.3541116611
  - # 10
    frequency:    6.6366736541
  - # 11
    frequency:    8.3426938223
  - # 12
    frequency:    8.4461903835
  - # 13
    frequency:   10.0533561839
  - # 14
    frequency:   10.6555065390
  - # 15
    frequency:   10.7665712637
  - # 16
    frequency:   11.6258301458
  - # 17
    frequency:   16.1809393990
  - # 18
    frequency:   16.2731944896
  - # 19
    frequency:   17.8169482153
  - # 20
    frequency:   41.7498168685
  - # 21
    frequency:   61.0141607831

- q-position: [    0.0656566,    0.0000000,    0.0000000 ]
  distance:    0.0238232
  band:
  - # 1
    frequency:   -3.9791200176
  - # 2
    frequency:   -3.6358553788
  - # 3
    frequency:   -0.8182166107
  - # 4
    frequency:   -0.5751153688
  - # 5
    frequency:    0.4262692418
  - # 6
    frequency:    1.1691163088
  - # 7
    frequency:    1.8916525294
  - # 8
    frequency:    5.2519409511
  - # 9
    frequency:    5.3837210553
  - # 10
    frequency:    6.6371690807
  - # 11
    frequency:    8.3415872820
  - # 12
    frequency:    8.4601416999
  - # 13
    frequency:   10.0374021811
  - # 14
    frequency:   10.6540712284
  - # 15
    frequency:   10.7751650458
  - # 16
    frequency:   11.6461684388
  - # 17
    frequency:   16.1766014836
  - # 18
    frequency:   16.2848137752
  - # 19
    frequency:   17.8124304537
  - # 20
    frequency:   41.7300969538
  - # 21
    frequency:   61.0109550422

- q-position: [    0.0707071,    0.0000000,    0.0000000 ]
  distance:    0.0256558
  band:
  - # 1
    frequency:   -3.9735570341
  - # 2
    frequency:   -3.5794040432
  - # 3
    frequency:   -0.8086819640
  - # 4
    frequency:   -0.5393179024
  - # 5
    frequency:    0.5110174708
  - # 6
    frequency:    1.2588093430
  - # 7
    frequency:    2.0385572271
  - # 8
    frequency:    5.2647153570
  - # 9
    frequency:    5.4149688991
  - # 10
    frequency:    6.6380835957
  - # 11
    frequency:    8.3404293468
  - # 12
    frequency:    8.4744202094
  - # 13
    frequency:   10.0209133251
  - # 14
    frequency:   10.6540664768
  - # 15
    frequency:   10.7842638268
  - # 16
    frequency:   11.6665045924
  - # 17
    frequency:   16.1719510431
  - # 18
    frequency:   16.2973736223
  - # 19
    frequency:   17.8076017436
  - # 20
    frequency:   41.7090020203
  - # 21
    frequency:   61.0075407685

- q-position: [    0.0757576,    0.0000000,    0.0000000 ]
  distance:    0.0274884
  band:
  - # 1
    frequency:   -3.9678047933
  - # 2
    frequency:   -3.5200452723
  - # 3
    frequency:   -0.7982796562
  - # 4
    frequency:   -0.5015799157
  - # 5
    frequency:    0.5966816168
  - # 6
    frequency:    1.3485623355
  - # 7
    frequency:    2.1853210835
  - # 8
    frequency:    5.2783205929
  - # 9
    frequency:    5.4477184779
  - # 10
    frequency:    6.6394900898
  - # 11
    frequency:    8.3392276338
  - # 12
    frequency:    8.4889066796
  - # 13
    frequency:   10.0041104412
  - # 14
    frequency:   10.6554986000
  - # 15
    frequency:   10.7938303949
  - # 16
    frequency:   11.6867202394
  - # 17
    frequency:   16.1669952232
  - # 18
    frequency:   16.3108738416
  - # 19
    frequency:   17.8024725123
  - # 20
    frequency:   41.6865759465
  - # 21
    frequency:   61.0039283242

- q-position: [    0.0808081,    0.0000000,    0.0000000 ]
  distance:    0.0293209
  band:
  - # 1
    frequency:   -3.9619023078
  - # 2
    frequency:   -3.4579677022
  - # 3
    frequency:   -0.7870102414
  - # 4
    frequency:   -0.4591753663
  - # 5
    frequency:    0.6821879948
  - # 6
    frequency:    1.4383684980
  - # 7
    frequency:    2.3317565487
  - # 8
    frequency:    5.2927335985
  - # 9
    frequency:    5.4818320268
  - # 10
    frequency:    6.6414632951
  - # 11
    frequency:    8.3379899724
  - # 12
    frequency:    8.5034940826
  - # 13
    frequency:    9.9872164029
  - # 14
    frequency:   10.6583371528
  - # 15
    frequency:   10.8038264668
  - # 16
    frequency:   11.7067242560
  - # 17
    frequency:   16.1617414311
  - # 18
    frequency:   16.3253131951
  - # 19
    frequency:   17.7970536078
  - # 20
    frequency:   41.6628648460
  - # 21
    frequency:   61.0001285910

- q-position: [    0.0858586,    0.0000000,    0.0000000 ]
  distance:    0.0311535
  band:
  - # 1
    frequency:   -3.9558885909
  - # 2
    frequency:   -3.3933448539
  - # 3
    frequency:   -0.7748737227
  - # 4
    frequency:   -0.4080871549
  - # 5
    frequency:    0.7669289022
  - # 6
    frequency:    1.5282150089
  - # 7
    frequency:    2.4776516919
  - # 8
    frequency:    5.3079302639
  - # 9
    frequency:    5.5171717302
  - # 10
    frequency:    6.6440795929
  - # 11
    frequency:    8.3367243284
  - # 12
    frequency:    8.5180909006
  - # 13
    frequency:    9.9704482934
  - # 14
    frequency:   10.6625220610
  - # 15
    frequency:   10.8142129875
  - # 16
    frequency:   11.7264507097
  - # 17
    frequency:   16.1561972939
  - # 18
    frequency:   16.3406891671
  - # 19
    frequency:   17.7913562721
  - # 20
    frequency:   41.6379168730
  - # 21
    frequency:   60.9961529213

- q-position: [    0.0909091,    0.0000000,    0.0000000 ]
  distance:    0.0329860
  band:
  - # 1
    frequency:   -3.9498022679
  - # 2
    frequency:   -3.3263313859
  - # 3
    frequency:   -0.7618693218
  - # 4
    frequency:   -0.3416750693
  - # 5
    frequency:    0.8506542430
  - # 6
    frequency:    1.6180836070
  - # 7
    frequency:    2.6227727345
  - # 8
    frequency:    5.3238855233
  - # 9
    frequency:    5.5536006531
  - # 10
    frequency:    6.6474168411
  - # 11
    frequency:    8.3354387240
  - # 12
    frequency:    8.5326241542
  - # 13
    frequency:    9.9540108463
  - # 14
    frequency:   10.6679695554
  - # 15
    frequency:   10.8249504313
  - # 16
    frequency:   11.7458569335
  - # 17
    frequency:   16.1503706200
  - # 18
    frequency:   16.3569977186
  - # 19
    frequency:   17.7853921285
  - # 20
    frequency:   41.6117820219
  - # 21
    frequency:   60.9920130885

- q-position: [    0.0959596,    0.0000000,    0.0000000 ]
  distance:    0.0348186
  band:
  - # 1
    frequency:   -3.9436812066
  - # 2
    frequency:   -3.2570600726
  - # 3
    frequency:   -0.7479953475
  - # 4
    frequency:   -0.2445043017
  - # 5
    frequency:    0.9333318909
  - # 6
    frequency:    1.7079511254
  - # 7
    frequency:    2.7668671964
  - # 8
    frequency:    5.3405734501
  - # 9
    frequency:    5.5909836327
  - # 10
    frequency:    6.6515541832
  - # 11
    frequency:    8.3341411521
  - # 12
    frequency:    8.5470420129
  - # 13
    frequency:    9.9380914046
  - # 14
    frequency:   10.6745767810
  - # 15
    frequency:   10.8359991026
  - # 16
    frequency:   11.7649217510
  - # 17
    frequency:   16.1442693630
  - # 18
    frequency:   16.3742330257
  - # 19
    frequency:   17.7791731863
  - # 20
    frequency:   41.5845119218
  - # 21
    frequency:   60.9877212353

- q-position: [    0.1010101,    0.0000000,    0.0000000 ]
  distance:    0.0366511
  band:
  - # 1
    frequency:   -3.9375621750
  - # 2
    frequency:   -3.1856396062
  - # 3
    frequency:   -0.7332491076
  - # 4
    frequency:    0.0761940903
  - # 5
    frequency:    1.0150433881
  - # 6
    frequency:    1.7977899746
  - # 7
    frequency:    2.9096674349
  - # 8
    frequency:    5.3579673527
  - # 9
    frequency:    5.6291881677
  - # 10
    frequency:    6.6565717916
  - # 11
    frequency:    8.3328394863
  - # 12
    frequency:    8.5613158407
  - # 13
    frequency:    9.9228564293
  - # 14
    frequency:   10.6822252013
  - # 15
    frequency:   10.8473194321
  - # 16
    frequency:   11.7836438416
  - # 17
    frequency:   16.1379015889
  - # 18
    frequency:   16.3923872036
  - # 19
    frequency:   17.7727118656
  - # 20
    frequency:   41.5561596285
  - # 21
    frequency:   60.9832898214

- q-position: [    0.1060606,    0.0000000,    0.0000000 ]
  distance:    0.0384837
  band:
  - # 1
    frequency:   -3.9314805288
  - # 2
    frequency:   -3.1121532377
  - # 3
    frequency:   -0.7176268272
  - # 4
    frequency:    0.2851433349
  - # 5
    frequency:    1.0959205575
  - # 6
    frequency:    1.8875685843
  - # 7
    frequency:    3.0508943542
  - # 8
    frequency:    5.3760398728
  - # 9
    frequency:    5.6680853491
  - # 10
    frequency:    6.6625504928
  - # 11
    frequency:    8.3315413867
  - # 12
    frequency:    8.5754415387
  - # 13
    frequency:    9.9084494682
  - # 14
    frequency:   10.6907830543
  - # 15
    frequency:   10.8588722661
  - # 16
    frequency:   11.8020402126
  - # 17
    frequency:   16.1312754476
  - # 18
    frequency:   16.4114500142
  - # 19
    frequency:   17.7660210471
  - # 20
    frequency:   41.5267794137
  - # 21
    frequency:   60.9787315694

- q-position: [    0.1111111,    0.0000000,    0.0000000 ]
  distance:    0.0403162
  band:
  - # 1
    frequency:   -3.9254699349
  - # 2
    frequency:   -3.0366582051
  - # 3
    frequency:   -0.7011235419
  - # 4
    frequency:    0.4097136321
  - # 5
    frequency:    1.1761110125
  - # 6
    frequency:    1.9772518135
  - # 7
    frequency:    3.1902610841
  - # 8
    frequency:    5.3947630829
  - # 9
    frequency:    5.7075508786
  - # 10
    frequency:    6.6695712155
  - # 11
    frequency:    8.3302542025
  - # 12
    frequency:    8.5894400605
  - # 13
    frequency:    9.8949904300
  - # 14
    frequency:   10.7001071670
  - # 15
    frequency:   10.8706191475
  - # 16
    frequency:   11.8201447295
  - # 17
    frequency:   16.1243991491
  - # 18
    frequency:   16.4314085593
  - # 19
    frequency:   17.7591141496
  - # 20
    frequency:   41.4964265539
  - # 21
    frequency:   60.9740594113

- q-position: [    0.1161616,    0.0000000,    0.0000000 ]
  distance:    0.0421488
  band:
  - # 1
    frequency:   -3.9195621328
  - # 2
    frequency:   -2.9591858241
  - # 3
    frequency:   -0.6837329403
  - # 4
    frequency:    0.5162477552
  - # 5
    frequency:    1.2557608006
  - # 6
    frequency:    2.0668013375
  - # 7
    frequency:    3.3274764737
  - # 8
    frequency:    5.4141085847
  - # 9
    frequency:    5.7474662233
  - # 10
    frequency:    6.6777142045
  - # 11
    frequency:    8.3289848715
  - # 12
    frequency:    8.6033570138
  - # 13
    frequency:    9.8825759864
  - # 14
    frequency:   10.7100444311
  - # 15
    frequency:   10.8825225832
  - # 16
    frequency:   11.8380066535
  - # 17
    frequency:   16.1172809449
  - # 18
    frequency:   16.4522469576
  - # 19
    frequency:   17.7520052402
  - # 20
    frequency:   41.4651571196
  - # 21
    frequency:   60.9692864336

- q-position: [    0.1212121,    0.0000000,    0.0000000 ]
  distance:    0.0439814
  band:
  - # 1
    frequency:   -3.9137867373
  - # 2
    frequency:   -2.8797420793
  - # 3
    frequency:   -0.6654471305
  - # 4
    frequency:    0.6149653639
  - # 5
    frequency:    1.3350063536
  - # 6
    frequency:    2.1561760150
  - # 7
    frequency:    3.4622483047
  - # 8
    frequency:    5.4340476070
  - # 9
    frequency:    5.7877199449
  - # 10
    frequency:    6.6870579428
  - # 11
    frequency:    8.3277398177
  - # 12
    frequency:    8.6172612990
  - # 13
    frequency:    9.8712809183
  - # 14
    frequency:   10.7204331985
  - # 15
    frequency:   10.8945462989
  - # 16
    frequency:   11.8556891315
  - # 17
    frequency:   16.1099291141
  - # 18
    frequency:   16.4739460054
  - # 19
    frequency:   17.7447091840
  - # 20
    frequency:   41.4330277666
  - # 21
    frequency:   60.9644258232

- q-position: [    0.1262626,    0.0000000,    0.0000000 ]
  distance:    0.0458139
  band:
  - # 1
    frequency:   -3.9081710827
  - # 2
    frequency:   -2.7983085191
  - # 3
    frequency:   -0.6462562994
  - # 4
    frequency:    0.7097409641
  - # 5
    frequency:    1.4139711978
  - # 6
    frequency:    2.2453322401
  - # 7
    frequency:    3.5942861949
  - # 8
    frequency:    5.4545511033
  - # 9
    frequency:    5.8282092290
  - # 10
    frequency:    6.6976777408
  - # 11
    frequency:    8.3265248483
  - # 12
    frequency:    8.6312427851
  - # 13
    frequency:    9.8611602219
  - # 14
    frequency:   10.7311048041
  - # 15
    frequency:   10.9066554756
  - # 16
    frequency:   11.8732675890
  - # 17
    frequency:   16.1023519561
  - # 18
    frequency:   16.4964828166
  - # 19
    frequency:   17.7372418372
  - # 20
    frequency:   41.4000955303
  - # 21
    frequency:   60.9594908132

- q-position: [    0.1313131,    0.0000000,    0.0000000 ]
  distance:    0.0476465
  band:
  - # 1
    frequency:   -3.9027401095
  - # 2
    frequency:   -2.7148432490
  - # 3
    frequency:   -0.6261482317
  - # 4
    frequency:    0.8024614666
  - # 5
    frequency:    1.4927649524
  - # 6
    frequency:    2.3342242796
  - # 7
    frequency:    3.7233042248
  - # 8
    frequency:    5.4755898483
  - # 9
    frequency:    5.8688416065
  - # 10
    frequency:    6.7096439709
  - # 11
    frequency:    8.3253450511
  - # 12
    frequency:    8.6454090714
  - # 13
    frequency:    9.8522517922
  - # 14
    frequency:   10.7418853570
  - # 15
    frequency:   10.9188169682
  - # 16
    frequency:   11.8908279828
  - # 17
    frequency:   16.0945577882
  - # 18
    frequency:   16.5198304404
  - # 19
    frequency:   17.7296202938
  - # 20
    frequency:   41.3664176246
  - # 21
    frequency:   60.9544946293

- q-position: [    0.1363636,    0.0000000,    0.0000000 ]
  distance:    0.0494790
  band:
  - # 1
    frequency:   -3.8975162914
  - # 2
    frequency:   -2.6292818070
  - # 3
    frequency:   -0.6051076345
  - # 4
    frequency:    0.8941685378
  - # 5
    frequency:    1.5714833268
  - # 6
    frequency:    2.4228045966
  - # 7
    frequency:    3.8490233749
  - # 8
    frequency:    5.4971345335
  - # 9
    frequency:    5.9095368203
  - # 10
    frequency:    6.7230199663
  - # 11
    frequency:    8.3242046938
  - # 12
    frequency:    8.6598814247
  - # 13
    frequency:    9.8445795044
  - # 14
    frequency:   10.7525978882
  - # 15
    frequency:   10.9309995027
  - # 16
    frequency:   11.9084648860
  - # 17
    frequency:   16.0865549498
  - # 18
    frequency:   16.5439574490
  - # 19
    frequency:   17.7218631935
  - # 20
    frequency:   41.3320512458
  - # 21
    frequency:   60.9494504372

- q-position: [    0.1414141,    0.0000000,    0.0000000 ]
  distance:    0.0513116
  band:
  - # 1
    frequency:   -3.8925196028
  - # 2
    frequency:   -2.5415376908
  - # 3
    frequency:   -0.5831152013
  - # 4
    frequency:    0.9854801148
  - # 5
    frequency:    1.6502084686
  - # 6
    frequency:    2.5110241590
  - # 7
    frequency:    3.9711738982
  - # 8
    frequency:    5.5191558612
  - # 9
    frequency:    5.9502287299
  - # 10
    frequency:    6.7378596493
  - # 11
    frequency:    8.3231071260
  - # 12
    frequency:    8.6747900161
  - # 13
    frequency:    9.8381565163
  - # 14
    frequency:   10.7630648804
  - # 15
    frequency:   10.9431738509
  - # 16
    frequency:   11.9262793921
  - # 17
    frequency:   16.0783518113
  - # 18
    frequency:   16.5688274880
  - # 19
    frequency:   17.7139911021
  - # 20
    frequency:   41.2970533837
  - # 21
    frequency:   60.9443712912

- q-position: [    0.1464646,    0.0000000,    0.0000000 ]
  distance:    0.0531441
  band:
  - # 1
    frequency:   -3.8877675230
  - # 2
    frequency:   -2.4515022736
  - # 3
    frequency:   -0.5601463108
  - # 4
    frequency:    1.0767787566
  - # 5
    frequency:    1.7290093660
  - # 6
    frequency:    2.5988327335
  - # 7
    frequency:    4.0894977744
  - # 8
    frequency:    5.5416246371
  - # 9
    frequency:    5.9908670779
  - # 10
    frequency:    6.7542050183
  - # 11
    frequency:    8.3220546869
  - # 12
    frequency:    8.6902686006
  - # 13
    frequency:    9.8329886318
  - # 14
    frequency:   10.7731111600
  - # 15
    frequency:   10.9553129812
  - # 16
    frequency:   11.9443768528
  - # 17
    frequency:   16.0699567888
  - # 18
    frequency:   16.5943987771
  - # 19
    frequency:   17.7060269793
  - # 20
    frequency:   41.2614806404
  - # 21
    frequency:   60.9392700836

- q-position: [    0.1515152,    0.0000000,    0.0000000 ]
  distance:    0.0549767
  band:
  - # 1
    frequency:   -3.8832750741
  - # 2
    frequency:   -2.3590437673
  - # 3
    frequency:   -0.5361692065
  - # 4
    frequency:    1.1683069720
  - # 5
    frequency:    1.8079421970
  - # 6
    frequency:    2.6861791628
  - # 7
    frequency:    4.2037513978
  - # 8
    frequency:    5.5645118608
  - # 9
    frequency:    6.0314188736
  - # 10
    frequency:    6.7720836895
  - # 11
    frequency:    8.3210486195
  - # 12
    frequency:    8.7064487956
  - # 13
    frequency:    9.8290775764
  - # 14
    frequency:   10.7825670824
  - # 15
    frequency:   10.9673921839
  - # 16
    frequency:   11.9628644872
  - # 17
    frequency:   16.0613783640
  - # 18
    frequency:   16.6206235471
  - # 19
    frequency:   17.6979967500
  - # 20
    frequency:   41.2253890571
  - # 21
    frequency:   60.9341594965