nqpoint: 300    
npath: 3      
segment_nqpoint:
- 100
- 100
- 100
labels:
- [ 'G', 'M' ]
- [ 'M', 'K' ]
- [ 'K', 'G' ]
reciprocal_lattice:
- [   0.32531399,   0.18782012,   0.00000000 ] # a*
- [   0.00000000,   0.37564024,   0.00000000 ] # b*
- [   0.00000000,   0.00000000,   0.03413749 ] # c*
natom: 7      
lattice:
- [     3.073953281690741,     0.000000000000000,     0.000000000000000 ] # a
- [    -1.536976640845370,     2.662121631990729,     0.000000000000000 ] # b
- [     0.000000000000000,     0.000000000000000,    29.293304002196699 ] # c
points:
- symbol: C # 1
  coordinates: [  0.333332985432215,  0.666666983183674,  0.651611258061961 ]
  mass: 12.010700
- symbol: Cl # 2
  coordinates: [  0.666666984744047,  0.333332985985145,  0.307237449190610 ]
  mass: 35.453000
- symbol: N # 3
  coordinates: [  0.000000000000000,  0.000000000000000,  0.563815645141452 ]
  mass: 14.006700
- symbol: N # 4
  coordinates: [  0.333332985432215,  0.666666983183674,  0.692762550809390 ]
  mass: 14.006700
- symbol: O # 5
  coordinates: [  0.666666984744047,  0.333332985985145,  0.490173564870145 ]
  mass: 15.999400
- symbol: Ti # 6
  coordinates: [  0.333332985432215,  0.666666983183674,  0.520993950178277 ]
  mass: 47.867000
- symbol: Ti # 7
  coordinates: [  0.666666984744047,  0.333332985985145,  0.603523232923376 ]
  mass: 47.867000

phonon:
- q-position: [    0.0000000,    0.0000000,    0.0000000 ]
  distance:    0.0000000
  band:
  - # 1
    frequency:   -0.2810140990
  - # 2
    frequency:   -0.0000004933
  - # 3
    frequency:   -0.0000004288
  - # 4
    frequency:    0.0000004344
  - # 5
    frequency:    0.8004155396
  - # 6
    frequency:    0.8004155396
  - # 7
    frequency:    2.4991344919
  - # 8
    frequency:    2.4991344919
  - # 9
    frequency:    3.5266488578
  - # 10
    frequency:    3.5266488578
  - # 11
    frequency:    7.4164279207
  - # 12
    frequency:    8.7797090727
  - # 13
    frequency:    8.7797090727
  - # 14
    frequency:    9.1319617773
  - # 15
    frequency:    9.1319617773
  - # 16
    frequency:   11.1158724081
  - # 17
    frequency:   14.5583689208
  - # 18
    frequency:   14.5583689208
  - # 19
    frequency:   16.2349073182
  - # 20
    frequency:   18.0041726666
  - # 21
    frequency:   59.9552322583

- q-position: [    0.0050505,    0.0000000,    0.0000000 ]
  distance:    0.0018972
  band:
  - # 1
    frequency:   -0.2833063675
  - # 2
    frequency:   -0.0066531670
  - # 3
    frequency:    0.0279887179
  - # 4
    frequency:    0.1034634007
  - # 5
    frequency:    0.7905982632
  - # 6
    frequency:    0.7946683064
  - # 7
    frequency:    2.4991863936
  - # 8
    frequency:    2.4998907637
  - # 9
    frequency:    3.5284970411
  - # 10
    frequency:    3.5301407799
  - # 11
    frequency:    7.4164814477
  - # 12
    frequency:    8.7803580914
  - # 13
    frequency:    8.7808500590
  - # 14
    frequency:    9.1323453466
  - # 15
    frequency:    9.1327581235
  - # 16
    frequency:   11.1162313860
  - # 17
    frequency:   14.5581578296
  - # 18
    frequency:   14.5583470400
  - # 19
    frequency:   16.2346230494
  - # 20
    frequency:   18.0037920236
  - # 21
    frequency:   59.9551776483

- q-position: [    0.0101010,    0.0000000,    0.0000000 ]
  distance:    0.0037943
  band:
  - # 1
    frequency:   -0.2891961331
  - # 2
    frequency:   -0.0285236697
  - # 3
    frequency:    0.0486890370
  - # 4
    frequency:    0.1917973208
  - # 5
    frequency:    0.7645751463
  - # 6
    frequency:    0.7777109832
  - # 7
    frequency:    2.4993401258
  - # 8
    frequency:    2.5021545675
  - # 9
    frequency:    3.5340286832
  - # 10
    frequency:    3.5405759563
  - # 11
    frequency:    7.4166447019
  - # 12
    frequency:    8.7822999010
  - # 13
    frequency:    8.7842524624
  - # 14
    frequency:    9.1334991858
  - # 15
    frequency:    9.1351531835
  - # 16
    frequency:   11.1173082316
  - # 17
    frequency:   14.5575261340
  - # 18
    frequency:   14.5582814635
  - # 19
    frequency:   16.2337709059
  - # 20
    frequency:   18.0026516608
  - # 21
    frequency:   59.9550139693

- q-position: [    0.0151515,    0.0000000,    0.0000000 ]
  distance:    0.0056915
  band:
  - # 1
    frequency:   -0.3049964761
  - # 2
    frequency:   -0.0709917908
  - # 3
    frequency:    0.0457435106
  - # 4
    frequency:    0.2459975870
  - # 5
    frequency:    0.7377875772
  - # 6
    frequency:    0.7507133277
  - # 7
    frequency:    2.4995899642
  - # 8
    frequency:    2.5059111670
  - # 9
    frequency:    3.5432052992
  - # 10
    frequency:    3.5578342978
  - # 11
    frequency:    7.4169255548
  - # 12
    frequency:    8.7855187226
  - # 13
    frequency:    8.7898546972
  - # 14
    frequency:    9.1354327258
  - # 15
    frequency:    9.1391652720
  - # 16
    frequency:   11.1191026230
  - # 17
    frequency:   14.5564785630
  - # 18
    frequency:   14.5581723860
  - # 19
    frequency:   16.2323528780
  - # 20
    frequency:   18.0007562621
  - # 21
    frequency:   59.9547416739

- q-position: [    0.0202020,    0.0000000,    0.0000000 ]
  distance:    0.0075887
  band:
  - # 1
    frequency:   -0.3662900022
  - # 2
    frequency:   -0.1269602223
  - # 3
    frequency:   -0.0765285932
  - # 4
    frequency:    0.2516067131
  - # 5
    frequency:    0.7168577836
  - # 6
    frequency:    0.7437351850
  - # 7
    frequency:    2.4999269954
  - # 8
    frequency:    2.5111370221
  - # 9
    frequency:    3.5559635441
  - # 10
    frequency:    3.5817210884
  - # 11
    frequency:    7.4173366417
  - # 12
    frequency:    8.7899881337
  - # 13
    frequency:    8.7975544512
  - # 14
    frequency:    9.1381618038
  - # 15
    frequency:    9.1448256775
  - # 16
    frequency:   11.1216138339
  - # 17
    frequency:   14.5550229856
  - # 18
    frequency:   14.5580201254
  - # 19
    frequency:   16.2303722915
  - # 20
    frequency:   17.9981135844
  - # 21
    frequency:   59.9543615143

- q-position: [    0.0252525,    0.0000000,    0.0000000 ]
  distance:    0.0094859
  band:
  - # 1
    frequency:   -0.5140177405
  - # 2
    frequency:   -0.1791688540
  - # 3
    frequency:   -0.1476113978
  - # 4
    frequency:    0.2472572284
  - # 5
    frequency:    0.6833143366
  - # 6
    frequency:    0.8008924452
  - # 7
    frequency:    2.5003399743
  - # 8
    frequency:    2.5178013962
  - # 9
    frequency:    3.5722163989
  - # 10
    frequency:    3.6119745601
  - # 11
    frequency:    7.4178946690
  - # 12
    frequency:    8.7956709017
  - # 13
    frequency:    8.8072093939
  - # 14
    frequency:    9.1417088231
  - # 15
    frequency:    9.1521795471
  - # 16
    frequency:   11.1248404560
  - # 17
    frequency:   14.5531703911
  - # 18
    frequency:   14.5578251122
  - # 19
    frequency:   16.2278338194
  - # 20
    frequency:   17.9947343833
  - # 21
    frequency:   59.9538745401

- q-position: [    0.0303030,    0.0000000,    0.0000000 ]
  distance:    0.0113830
  band:
  - # 1
    frequency:   -0.6990415529
  - # 2
    frequency:   -0.3013921363
  - # 3
    frequency:   -0.1237353884
  - # 4
    frequency:    0.2604362911
  - # 5
    frequency:    0.6614503780
  - # 6
    frequency:    0.8921930470
  - # 7
    frequency:    2.5008163804
  - # 8
    frequency:    2.5258687411
  - # 9
    frequency:    3.5918548108
  - # 10
    frequency:    3.6482754632
  - # 11
    frequency:    7.4186195068
  - # 12
    frequency:    8.8025187926
  - # 13
    frequency:    8.8186386210
  - # 14
    frequency:    9.1461029358
  - # 15
    frequency:    9.1612865846
  - # 16
    frequency:   11.1287800251
  - # 17
    frequency:   14.5509348616
  - # 18
    frequency:   14.5575878758
  - # 19
    frequency:   16.2247434964
  - # 20
    frequency:   17.9906323104
  - # 21
    frequency:   59.9532820941

- q-position: [    0.0353535,    0.0000000,    0.0000000 ]
  distance:    0.0132802
  band:
  - # 1
    frequency:   -0.8845620903
  - # 2
    frequency:   -0.4374630505
  - # 3
    frequency:   -0.0346025026
  - # 4
    frequency:    0.2853861947
  - # 5
    frequency:    0.6601266537
  - # 6
    frequency:    1.0002388911
  - # 7
    frequency:    2.5013435605
  - # 8
    frequency:    2.5353019702
  - # 9
    frequency:    3.6147497502
  - # 10
    frequency:    3.6902578188
  - # 11
    frequency:    7.4195331220
  - # 12
    frequency:    8.8104724048
  - # 13
    frequency:    8.8316253206
  - # 14
    frequency:    9.1513802037
  - # 15
    frequency:    9.1722209917
  - # 16
    frequency:   11.1334285653
  - # 17
    frequency:   14.5483335369
  - # 18
    frequency:   14.5573090267
  - # 19
    frequency:   16.2211087346
  - # 20
    frequency:   17.9858237836
  - # 21
    frequency:   59.9525858081

- q-position: [    0.0404040,    0.0000000,    0.0000000 ]
  distance:    0.0151774
  band:
  - # 1
    frequency:   -1.0639445683
  - # 2
    frequency:   -0.5764157495
  - # 3
    frequency:    0.1365846315
  - # 4
    frequency:    0.3169712602
  - # 5
    frequency:    0.6790500625
  - # 6
    frequency:    1.1167407893
  - # 7
    frequency:    2.5019098568
  - # 8
    frequency:    2.5460667808
  - # 9
    frequency:    3.6407546298
  - # 10
    frequency:    3.7375200539
  - # 11
    frequency:    7.4206584133
  - # 12
    frequency:    8.8194610937
  - # 13
    frequency:    8.8459212913
  - # 14
    frequency:    9.1575836717
  - # 15
    frequency:    9.1850699301
  - # 16
    frequency:   11.1387800693
  - # 17
    frequency:   14.5453865718
  - # 18
    frequency:   14.5569892360
  - # 19
    frequency:   16.2169383383
  - # 20
    frequency:   17.9803278303
  - # 21
    frequency:   59.9517875964

- q-position: [    0.0454545,    0.0000000,    0.0000000 ]
  distance:    0.0170746
  band:
  - # 1
    frequency:   -1.2371635132
  - # 2
    frequency:   -0.7120238576
  - # 3
    frequency:    0.2094112886
  - # 4
    frequency:    0.3529690835
  - # 5
    frequency:    0.7127703466
  - # 6
    frequency:    1.2379886813
  - # 7
    frequency:    2.5025056419
  - # 8
    frequency:    2.5581373137
  - # 9
    frequency:    3.6697080041
  - # 10
    frequency:    3.7896358258
  - # 11
    frequency:    7.4220180123
  - # 12
    frequency:    8.8294030787
  - # 13
    frequency:    8.8612539845
  - # 14
    frequency:    9.1647632659
  - # 15
    frequency:    9.1999297288
  - # 16
    frequency:   11.1448259378
  - # 17
    frequency:   14.5421170851
  - # 18
    frequency:   14.5566292118
  - # 19
    frequency:   16.2122425155
  - # 20
    frequency:   17.9741659068
  - # 21
    frequency:   59.9508896496

- q-position: [    0.0505051,    0.0000000,    0.0000000 ]
  distance:    0.0189717
  band:
  - # 1
    frequency:   -1.4050498787
  - # 2
    frequency:   -0.8425015367
  - # 3
    frequency:    0.2726970489
  - # 4
    frequency:    0.3925681362
  - # 5
    frequency:    0.7562606560
  - # 6
    frequency:    1.3621446474
  - # 7
    frequency:    2.5031242134
  - # 8
    frequency:    2.5715037128
  - # 9
    frequency:    3.7014364529
  - # 10
    frequency:    3.8461640043
  - # 11
    frequency:    7.4236331123
  - # 12
    frequency:    8.8402058477
  - # 13
    frequency:    8.8773365769
  - # 14
    frequency:    9.1729754047
  - # 15
    frequency:    9.2168992274
  - # 16
    frequency:   11.1515544033
  - # 17
    frequency:   14.5385511007
  - # 18
    frequency:   14.5562296739
  - # 19
    frequency:   16.2070328822
  - # 20
    frequency:   17.9673616957
  - # 21
    frequency:   59.9498944264

- q-position: [    0.0555556,    0.0000000,    0.0000000 ]
  distance:    0.0208689
  band:
  - # 1
    frequency:   -1.5683282407
  - # 2
    frequency:   -0.9678821541
  - # 3
    frequency:    0.3316705616
  - # 4
    frequency:    0.4357719129
  - # 5
    frequency:    0.8062302399
  - # 6
    frequency:    1.4881640239
  - # 7
    frequency:    2.5037625352
  - # 8
    frequency:    2.5861827064
  - # 9
    frequency:    3.7357575421
  - # 10
    frequency:    3.9066574538
  - # 11
    frequency:    7.4255223810
  - # 12
    frequency:    8.8517669891
  - # 13
    frequency:    8.8938810900
  - # 14
    frequency:    9.1822821951
  - # 15
    frequency:    9.2360701353
  - # 16
    frequency:   11.1589499667
  - # 17
    frequency:   14.5347174797
  - # 18
    frequency:   14.5557913260
  - # 19
    frequency:   16.2013224572
  - # 20
    frequency:   17.9599408824
  - # 21
    frequency:   59.9488046451

- q-position: [    0.0606061,    0.0000000,    0.0000000 ]
  distance:    0.0227661
  band:
  - # 1
    frequency:   -1.7275108471
  - # 2
    frequency:   -1.0886620400
  - # 3
    frequency:    0.3874892612
  - # 4
    frequency:    0.4831426735
  - # 5
    frequency:    0.8606839203
  - # 6
    frequency:    1.6153492066
  - # 7
    frequency:    2.5044218429
  - # 8
    frequency:    2.6022334093
  - # 9
    frequency:    3.7724827534
  - # 10
    frequency:    3.9706704272
  - # 11
    frequency:    7.4277010092
  - # 12
    frequency:    8.8639755911
  - # 13
    frequency:    8.9106137473
  - # 14
    frequency:    9.1927500800
  - # 15
    frequency:    9.2575151213
  - # 16
    frequency:   11.1669928765
  - # 17
    frequency:   14.5306478444
  - # 18
    frequency:   14.5553148270
  - # 19
    frequency:   16.1951256438
  - # 20
    frequency:   17.9519309150
  - # 21
    frequency:   59.9476232739

- q-position: [    0.0656566,    0.0000000,    0.0000000 ]
  distance:    0.0246632
  band:
  - # 1
    frequency:   -1.8829340914
  - # 2
    frequency:   -1.2053512060
  - # 3
    frequency:    0.4401567184
  - # 4
    frequency:    0.5354166216
  - # 5
    frequency:    0.9183979615
  - # 6
    frequency:    1.7431360755
  - # 7
    frequency:    2.5051081540
  - # 8
    frequency:    2.6197826871
  - # 9
    frequency:    3.8114202868
  - # 10
    frequency:    4.0377645203
  - # 11
    frequency:    7.4301799378
  - # 12
    frequency:    8.8767143210
  - # 13
    frequency:    8.9272907923
  - # 14
    frequency:    9.2044478229
  - # 15
    frequency:    9.2812753164
  - # 16
    frequency:   11.1756586837
  - # 17
    frequency:   14.5263764912
  - # 18
    frequency:   14.5548007625
  - # 19
    frequency:   16.1884581947
  - # 20
    frequency:   17.9433607495
  - # 21
    frequency:   59.9463535204

- q-position: [    0.0707071,    0.0000000,    0.0000000 ]
  distance:    0.0265604
  band:
  - # 1
    frequency:   -2.0348062787
  - # 2
    frequency:   -1.3183625939
  - # 3
    frequency:    0.4897182124
  - # 4
    frequency:    0.5928906613
  - # 5
    frequency:    0.9785893426
  - # 6
    frequency:    1.8709609428
  - # 7
    frequency:    2.5058327409
  - # 8
    frequency:    2.6390688428
  - # 9
    frequency:    3.8523776559
  - # 10
    frequency:    4.1075132379
  - # 11
    frequency:    7.4329653009
  - # 12
    frequency:    8.8898622436
  - # 13
    frequency:    8.9437123131
  - # 14
    frequency:    9.2174437774
  - # 15
    frequency:    9.3073496060
  - # 16
    frequency:   11.1849179010
  - # 17
    frequency:   14.5219402933
  - # 18
    frequency:   14.5542496149
  - # 19
    frequency:   16.1813371567
  - # 20
    frequency:   17.9342605844
  - # 21
    frequency:   59.9449988203

- q-position: [    0.0757576,    0.0000000,    0.0000000 ]
  distance:    0.0284576
  band:
  - # 1
    frequency:   -2.1832450929
  - # 2
    frequency:   -1.4280036207
  - # 3
    frequency:    0.5367353743
  - # 4
    frequency:    0.6551483590
  - # 5
    frequency:    1.0407293546
  - # 6
    frequency:    1.9981348106
  - # 7
    frequency:    2.5066126397
  - # 8
    frequency:    2.6605217865
  - # 9
    frequency:    3.8951640153
  - # 10
    frequency:    4.1795052928
  - # 11
    frequency:    7.4360581150
  - # 12
    frequency:    8.9032983321
  - # 13
    frequency:    8.9597316845
  - # 14
    frequency:    9.2318024882
  - # 15
    frequency:    9.3356880257
  - # 16
    frequency:   11.1947357979
  - # 17
    frequency:   14.5173785908
  - # 18
    frequency:   14.5536617348
  - # 19
    frequency:   16.1737807922
  - # 20
    frequency:   17.9246615871
  - # 21
    frequency:   59.9435628251

- q-position: [    0.0808081,    0.0000000,    0.0000000 ]
  distance:    0.0303548
  band:
  - # 1
    frequency:   -2.3283042242
  - # 2
    frequency:   -1.5344930970
  - # 3
    frequency:    0.5820168177
  - # 4
    frequency:    0.7214158469
  - # 5
    frequency:    1.1044392776
  - # 6
    frequency:    2.1236637340
  - # 7
    frequency:    2.5074712754
  - # 8
    frequency:    2.6849179615
  - # 9
    frequency:    3.9395921860
  - # 10
    frequency:    4.2533467955
  - # 11
    frequency:    7.4394542414
  - # 12
    frequency:    8.9169054819
  - # 13
    frequency:    8.9752591927
  - # 14
    frequency:    9.2475808145
  - # 15
    frequency:    9.3661906337
  - # 16
    frequency:   11.2050723563
  - # 17
    frequency:   14.5127330667
  - # 18
    frequency:   14.5530373139
  - # 19
    frequency:   16.1658084737
  - # 20
    frequency:   17.9145956171
  - # 21
    frequency:   59.9420493895

- q-position: [    0.0858586,    0.0000000,    0.0000000 ]
  distance:    0.0322519
  band:
  - # 1
    frequency:   -2.4699918846
  - # 2
    frequency:   -1.6379808916
  - # 3
    frequency:    0.6262541243
  - # 4
    frequency:    0.7909690396
  - # 5
    frequency:    1.1694303931
  - # 6
    frequency:    2.2459275621
  - # 7
    frequency:    2.5084392995
  - # 8
    frequency:    2.7136874434
  - # 9
    frequency:    3.9854803595
  - # 10
    frequency:    4.3286625059
  - # 11
    frequency:    7.4431446426
  - # 12
    frequency:    8.9305746901
  - # 13
    frequency:    8.9902598937
  - # 14
    frequency:    9.2648239159
  - # 15
    frequency:    9.3987117549
  - # 16
    frequency:   11.2158824100
  - # 17
    frequency:   14.5080476070
  - # 18
    frequency:   14.5523763587
  - # 19
    frequency:   16.1574405505
  - # 20
    frequency:   17.9040949484
  - # 21
    frequency:   59.9404625578

- q-position: [    0.0909091,    0.0000000,    0.0000000 ]
  distance:    0.0341491
  band:
  - # 1
    frequency:   -2.6082837138
  - # 2
    frequency:   -1.7385646165
  - # 3
    frequency:    0.6699209637
  - # 4
    frequency:    0.8632583545
  - # 5
    frequency:    1.2354680008
  - # 6
    frequency:    2.3620938611
  - # 7
    frequency:    2.5095557525
  - # 8
    frequency:    2.7494914575
  - # 9
    frequency:    4.0326534838
  - # 10
    frequency:    4.4050963206
  - # 11
    frequency:    7.4471159512
  - # 12
    frequency:    8.9442089414
  - # 13
    frequency:    9.0047470891
  - # 14
    frequency:    9.2835615590
  - # 15
    frequency:    9.4330681727
  - # 16
    frequency:   11.2271159829
  - # 17
    frequency:   14.5033681423
  - # 18
    frequency:   14.5516786674
  - # 19
    frequency:   16.1486981847
  - # 20
    frequency:   17.8931919966
  - # 21
    frequency:   59.9388065493

- q-position: [    0.0959596,    0.0000000,    0.0000000 ]
  distance:    0.0360463
  band:
  - # 1
    frequency:   -2.7431318799
  - # 2
    frequency:   -1.8363025776
  - # 3
    frequency:    0.7133168781
  - # 4
    frequency:    0.9378790291
  - # 5
    frequency:    1.3023486015
  - # 6
    frequency:    2.4673441693
  - # 7
    frequency:    2.5108696936
  - # 8
    frequency:    2.7969906492
  - # 9
    frequency:    4.0809443442
  - # 10
    frequency:    4.4823111514
  - # 11
    frequency:    7.4513513658
  - # 12
    frequency:    8.9577263097
  - # 13
    frequency:    9.0187734459
  - # 14
    frequency:    9.3038052355
  - # 15
    frequency:    9.4690492070
  - # 16
    frequency:   11.2387188373
  - # 17
    frequency:   14.4987424686
  - # 18
    frequency:   14.5509438084
  - # 19
    frequency:   16.1396031553
  - # 20
    frequency:   17.8819190523
  - # 21
    frequency:   59.9370857443

- q-position: [    0.1010101,    0.0000000,    0.0000000 ]
  distance:    0.0379435
  band:
  - # 1
    frequency:   -2.8744715916
  - # 2
    frequency:   -1.9312235306
  - # 3
    frequency:    0.7566289292
  - # 4
    frequency:    1.0145182137
  - # 5
    frequency:    1.3698843031
  - # 6
    frequency:    2.5124424828
  - # 7
    frequency:    2.5553314062
  - # 8
    frequency:    2.8623839567
  - # 9
    frequency:    4.1301943643
  - # 10
    frequency:    4.5599883374
  - # 11
    frequency:    7.4558318822
  - # 12
    frequency:    8.9710618687
  - # 13
    frequency:    9.0324216645
  - # 14
    frequency:    9.3255464974
  - # 15
    frequency:    9.5064267582
  - # 16
    frequency:   11.2506332335
  - # 17
    frequency:   14.4942200452
  - # 18
    frequency:   14.5501711030
  - # 19
    frequency:   16.1301776330
  - # 20
    frequency:   17.8703080271
  - # 21
    frequency:   59.9353046681

- q-position: [    0.1060606,    0.0000000,    0.0000000 ]
  distance:    0.0398406
  band:
  - # 1
    frequency:   -3.0022258349
  - # 2
    frequency:   -2.0233339754
  - # 3
    frequency:    0.7999756724
  - # 4
    frequency:    1.0929165691
  - # 5
    frequency:    1.4378910139
  - # 6
    frequency:    2.5143509639
  - # 7
    frequency:    2.6226122169
  - # 8
    frequency:    2.9489735751
  - # 9
    frequency:    4.1802541540
  - # 10
    frequency:    4.6378267111
  - # 11
    frequency:    7.4605378663
  - # 12
    frequency:    8.9841681969
  - # 13
    frequency:    9.0457959892
  - # 14
    frequency:    9.3487567232
  - # 15
    frequency:    9.5449640123
  - # 16
    frequency:   11.2627988962
  - # 17
    frequency:   14.4898517662
  - # 18
    frequency:   14.5493596109
  - # 19
    frequency:   16.1204439240
  - # 20
    frequency:   17.8583902129
  - # 21
    frequency:   59.9334679754

- q-position: [    0.1111111,    0.0000000,    0.0000000 ]
  distance:    0.0417378
  band:
  - # 1
    frequency:   -3.1263088715
  - # 2
    frequency:   -2.1126236214
  - # 3
    frequency:    0.8434339013
  - # 4
    frequency:    1.1728451128
  - # 5
    frequency:    1.5061782651
  - # 6
    frequency:    2.5166918940
  - # 7
    frequency:    2.6726275882
  - # 8
    frequency:    3.0531822694
  - # 9
    frequency:    4.2309838390
  - # 10
    frequency:    4.7155414233
  - # 11
    frequency:    7.4654509601
  - # 12
    frequency:    8.9970145026
  - # 13
    frequency:    9.0590151577
  - # 14
    frequency:    9.3733882852
  - # 15
    frequency:    9.5844222173
  - # 16
    frequency:   11.2751541753
  - # 17
    frequency:   14.4856897044
  - # 18
    frequency:   14.5485081195
  - # 19
    frequency:   16.1104241883
  - # 20
    frequency:   17.8461960603
  - # 21
    frequency:   59.9315804346

- q-position: [    0.1161616,    0.0000000,    0.0000000 ]
  distance:    0.0436350
  band:
  - # 1
    frequency:   -3.2466288655
  - # 2
    frequency:   -2.1990695127
  - # 3
    frequency:    0.8870542625
  - # 4
    frequency:    1.2540918973
  - # 5
    frequency:    1.5745391279
  - # 6
    frequency:    2.5195880875
  - # 7
    frequency:    2.7117963302
  - # 8
    frequency:    3.1684582154
  - # 9
    frequency:    4.2822532006
  - # 10
    frequency:    4.7928626144
  - # 11
    frequency:    7.4705563095
  - # 12
    frequency:    9.0095846245
  - # 13
    frequency:    9.0722068502
  - # 14
    frequency:    9.3993768629
  - # 15
    frequency:    9.6245654910
  - # 16
    frequency:   11.2876373807
  - # 17
    frequency:   14.4817868247
  - # 18
    frequency:   14.5476151382
  - # 19
    frequency:   16.1001401345
  - # 20
    frequency:   17.8337549767
  - # 21
    frequency:   59.9296469106

- q-position: [    0.1212121,    0.0000000,    0.0000000 ]
  distance:    0.0455321
  band:
  - # 1
    frequency:   -3.3630898826
  - # 2
    frequency:   -2.2826391691
  - # 3
    frequency:    0.9308703872
  - # 4
    frequency:    1.3364542807
  - # 5
    frequency:    1.6427389522
  - # 6
    frequency:    2.5231969074
  - # 7
    frequency:    2.7449736025
  - # 8
    frequency:    3.2898150571
  - # 9
    frequency:    4.3339416587
  - # 10
    frequency:    4.8695340116
  - # 11
    frequency:    7.4758450796
  - # 12
    frequency:    9.0218742952
  - # 13
    frequency:    9.0855033994
  - # 14
    frequency:    9.4266445082
  - # 15
    frequency:    9.6651639315
  - # 16
    frequency:   11.3001882632
  - # 17
    frequency:   14.4781966666
  - # 18
    frequency:   14.5466788955
  - # 19
    frequency:   16.0896126979
  - # 20
    frequency:   17.8210951481
  - # 21
    frequency:   59.9276723484

- q-position: [    0.1262626,    0.0000000,    0.0000000 ]
  distance:    0.0474293
  band:
  - # 1
    frequency:   -3.4755934350
  - # 2
    frequency:   -2.3632930031
  - # 3
    frequency:    0.9749043342
  - # 4
    frequency:    1.4197342504
  - # 5
    frequency:    1.7105017287
  - # 6
    frequency:    2.5277219085
  - # 7
    frequency:    2.7749555564
  - # 8
    frequency:    3.4143260415
  - # 9
    frequency:    4.3859381253
  - # 10
    frequency:    4.9453115273
  - # 11
    frequency:    7.4813172097
  - # 12
    frequency:    9.0338880953
  - # 13
    frequency:    9.0990384281
  - # 14
    frequency:    9.4551030346
  - # 15
    frequency:    9.7059954179
  - # 16
    frequency:   11.3127496091
  - # 17
    frequency:   14.4749729963
  - # 18
    frequency:   14.5456973417
  - # 19
    frequency:   16.0788617078
  - # 20
    frequency:   17.8082433846
  - # 21
    frequency:   59.9256617561

- q-position: [    0.1313131,    0.0000000,    0.0000000 ]
  distance:    0.0493265
  band:
  - # 1
    frequency:   -3.5840396901
  - # 2
    frequency:   -2.4409861982
  - # 3
    frequency:    1.0191699195
  - # 4
    frequency:    1.5037353835
  - # 5
    frequency:    1.7774929220
  - # 6
    frequency:    2.5334285368
  - # 7
    frequency:    2.8032744109
  - # 8
    frequency:    3.5403278723
  - # 9
    frequency:    4.4381407525
  - # 10
    frequency:    5.0199619358
  - # 11
    frequency:    7.4869843358
  - # 12
    frequency:    9.0456364618
  - # 13
    frequency:    9.1129440985
  - # 14
    frequency:    9.4846573606
  - # 15
    frequency:    9.7468464820
  - # 16
    frequency:   11.3252689069
  - # 17
    frequency:   14.4721694272
  - # 18
    frequency:   14.5446681554
  - # 19
    frequency:   16.0679055518
  - # 20
    frequency:   17.7952249933
  - # 21
    frequency:   59.9236201874

- q-position: [    0.1363636,    0.0000000,    0.0000000 ]
  distance:    0.0512237
  band:
  - # 1
    frequency:   -3.6883284275
  - # 2
    frequency:   -2.5156701837
  - # 3
    frequency:    1.0636748135
  - # 4
    frequency:    1.5882606648
  - # 5
    frequency:    1.8432979204
  - # 6
    frequency:    2.5406645795
  - # 7
    frequency:    2.8307987699
  - # 8
    frequency:    3.6668194532
  - # 9
    frequency:    4.4904565987
  - # 10
    frequency:    5.0932617167
  - # 11
    frequency:    7.4928727799
  - # 12
    frequency:    9.0571330100
  - # 13
    frequency:    9.1273487366
  - # 14
    frequency:    9.5152085452
  - # 15
    frequency:    9.7875125711
  - # 16
    frequency:   11.3377000418
  - # 17
    frequency:   14.4698390142
  - # 18
    frequency:   14.5435887544
  - # 19
    frequency:   16.0567608458
  - # 20
    frequency:   17.7820636768
  - # 21
    frequency:   59.9215527248

- q-position: [    0.1414141,    0.0000000,    0.0000000 ]
  distance:    0.0531208
  band:
  - # 1
    frequency:   -3.7883598051
  - # 2
    frequency:   -2.5872938051
  - # 3
    frequency:    1.1084219026
  - # 4
    frequency:    1.6731107303
  - # 5
    frequency:    1.9073963840
  - # 6
    frequency:    2.5498849842
  - # 7
    frequency:    2.8580520061
  - # 8
    frequency:    3.7931426786
  - # 9
    frequency:    4.5428012306
  - # 10
    frequency:    5.1649961744
  - # 11
    frequency:    7.4990264767
  - # 12
    frequency:    9.0683923092
  - # 13
    frequency:    9.1423746811
  - # 14
    frequency:    9.5466563719
  - # 15
    frequency:    9.8277979516
  - # 16
    frequency:   11.3500049645
  - # 17
    frequency:   14.4680338245
  - # 18
    frequency:   14.5424563116
  - # 19
    frequency:   16.0454421187
  - # 20
    frequency:   17.7687814591
  - # 21
    frequency:   59.9194644619

- q-position: [    0.1464646,    0.0000000,    0.0000000 ]
  distance:    0.0550180
  band:
  - # 1
    frequency:   -3.8840349787
  - # 2
    frequency:   -2.6558042593
  - # 3
    frequency:    1.1534102000
  - # 4
    frequency:    1.7580822903
  - # 5
    frequency:    1.9691358930
  - # 6
    frequency:    2.5616775743
  - # 7
    frequency:    2.8853720055
  - # 8
    frequency:    3.9188219542
  - # 9
    frequency:    4.5950982778
  - # 10
    frequency:    5.2349589700
  - # 11
    frequency:    7.5055096727
  - # 12
    frequency:    9.0794281525
  - # 13
    frequency:    9.1581362800
  - # 14
    frequency:    9.5789014358
  - # 15
    frequency:    9.8675154399
  - # 16
    frequency:   11.3621552790
  - # 17
    frequency:   14.4668044904
  - # 18
    frequency:   14.5412677740
  - # 19
    frequency:   16.0339615216
  - # 20
    frequency:   17.7553986380
  - # 21
    frequency:   59.9173604865

- q-position: [    0.1515152,    0.0000000,    0.0000000 ]
  distance:    0.0569152
  band:
  - # 1
    frequency:   -3.9752566067
  - # 2
    frequency:   -2.7211478505
  - # 3
    frequency:    1.1986354765
  - # 4
    frequency:    1.8429665937
  - # 5
    frequency:    2.0277151477
  - # 6
    frequency:    2.5767793672
  - # 7
    frequency:    2.9129931078
  - # 8
    frequency:    4.0434815733
  - # 9
    frequency:    4.6472789530
  - # 10
    frequency:    5.3029522476
  - # 11
    frequency:    7.5124092012
  - # 12
    frequency:    9.0902522954
  - # 13
    frequency:    9.1747380124
  - # 14
    frequency:    9.6118467556
  - # 15
    frequency:    9.9064861005
  - # 16
    frequency:   11.3741336873
  - # 17
    frequency:   14.4661997537
  - # 18
    frequency:   14.5400198869
  - # 19
    frequency:   16.0223285702
  - # 20
    frequency:   17.7419337626
  - # 21