nqpoint: 300    
npath: 3      
segment_nqpoint:
- 100
- 100
- 100
labels:
- [ 'G', 'M' ]
- [ 'M', 'K' ]
- [ 'K', 'G' ]
reciprocal_lattice:
- [   0.30761647,   0.17760245,   0.00000000 ] # a*
- [   0.00000000,   0.35520491,   0.00000000 ] # b*
- [   0.00000000,   0.00000000,   0.03722859 ] # c*
natom: 8      
lattice:
- [     3.250801209829823,     0.000000000000000,     0.000000000000000 ] # a
- [    -1.625400604914911,     2.815276430289567,     0.000000000000000 ] # b
- [     0.000000000000000,     0.000000000000000,    26.861074039938600 ] # c
points:
- symbol: C # 1
  coordinates: [  0.000000000000000,  0.000000000000000,  0.458094866378852 ]
  mass: 12.010700
- symbol: C # 2
  coordinates: [  0.333332985432215,  0.666666983183674,  0.620610165593948 ]
  mass: 12.010700
- symbol: H # 3
  coordinates: [  0.666666984744047,  0.333332985985145,  0.335057339353530 ]
  mass: 1.007940
- symbol: N # 4
  coordinates: [  0.333332985432215,  0.666666983183674,  0.664942660646470 ]
  mass: 14.006700
- symbol: O # 5
  coordinates: [  0.666666984744047,  0.333332985985145,  0.371713650653059 ]
  mass: 15.999400
- symbol: S # 6
  coordinates: [  0.333332985432215,  0.666666983183674,  0.558231889956428 ]
  mass: 32.065000
- symbol: Ti # 7
  coordinates: [  0.333332985432215,  0.666666983183674,  0.418252627289195 ]
  mass: 47.867000
- symbol: Ti # 8
  coordinates: [  0.666666984744047,  0.333332985985145,  0.499605422512971 ]
  mass: 47.867000

phonon:
- q-position: [    0.0000000,    0.0000000,    0.0000000 ]
  distance:    0.0000000
  band:
  - # 1
    frequency:   -0.0000612101
  - # 2
    frequency:   -0.0000005721
  - # 3
    frequency:    0.0000620502
  - # 4
    frequency:    1.4122842069
  - # 5
    frequency:    1.4122842076
  - # 6
    frequency:    4.8966694905
  - # 7
    frequency:    4.8966694908
  - # 8
    frequency:    6.2760466819
  - # 9
    frequency:    7.3447893389
  - # 10
    frequency:    7.3447893391
  - # 11
    frequency:    8.2812293487
  - # 12
    frequency:    8.2812293490
  - # 13
    frequency:   10.8541416496
  - # 14
    frequency:   11.1183219147
  - # 15
    frequency:   11.1183219150
  - # 16
    frequency:   13.7475051023
  - # 17
    frequency:   13.7475051027
  - # 18
    frequency:   14.5505807442
  - # 19
    frequency:   16.8971325238
  - # 20
    frequency:   17.9245470801
  - # 21
    frequency:   17.9245470806
  - # 22
    frequency:   20.4205507627
  - # 23
    frequency:   64.7568209363
  - # 24
    frequency:  114.0016355761

- q-position: [    0.0050505,    0.0000000,    0.0000000 ]
  distance:    0.0017940
  band:
  - # 1
    frequency:    0.0026174315
  - # 2
    frequency:    0.0792663616
  - # 3
    frequency:    0.1263543729
  - # 4
    frequency:    1.4128859176
  - # 5
    frequency:    1.4153629149
  - # 6
    frequency:    4.8972209616
  - # 7
    frequency:    4.8982000252
  - # 8
    frequency:    6.2754942161
  - # 9
    frequency:    7.3445274078
  - # 10
    frequency:    7.3453461048
  - # 11
    frequency:    8.2814763141
  - # 12
    frequency:    8.2819592367
  - # 13
    frequency:   10.8538280214
  - # 14
    frequency:   11.1184894229
  - # 15
    frequency:   11.1186867297
  - # 16
    frequency:   13.7429975384
  - # 17
    frequency:   13.7474292143
  - # 18
    frequency:   14.5554877102
  - # 19
    frequency:   16.8967901468
  - # 20
    frequency:   17.9245285616
  - # 21
    frequency:   17.9252880948
  - # 22
    frequency:   20.4204463608
  - # 23
    frequency:   64.7567341666
  - # 24
    frequency:  114.0015165105

- q-position: [    0.0101010,    0.0000000,    0.0000000 ]
  distance:    0.0035879
  band:
  - # 1
    frequency:    0.0104106683
  - # 2
    frequency:    0.1584368173
  - # 3
    frequency:    0.2524947340
  - # 4
    frequency:    1.4146969346
  - # 5
    frequency:    1.4245774474
  - # 6
    frequency:    4.8988731326
  - # 7
    frequency:    4.9027778631
  - # 8
    frequency:    6.2738473786
  - # 9
    frequency:    7.3437428133
  - # 10
    frequency:    7.3470128053
  - # 11
    frequency:    8.2822151402
  - # 12
    frequency:    8.2841431311
  - # 13
    frequency:   10.8528876428
  - # 14
    frequency:   11.1189914924
  - # 15
    frequency:   11.1197809338
  - # 16
    frequency:   13.7297895294
  - # 17
    frequency:   13.7472025971
  - # 18
    frequency:   14.5698930191
  - # 19
    frequency:   16.8957649979
  - # 20
    frequency:   17.9244739027
  - # 21
    frequency:   17.9275059082
  - # 22
    frequency:   20.4201334028
  - # 23
    frequency:   64.7564740038
  - # 24
    frequency:  114.0011596493

- q-position: [    0.0151515,    0.0000000,    0.0000000 ]
  distance:    0.0053819
  band:
  - # 1
    frequency:    0.0232865782
  - # 2
    frequency:    0.2374125594
  - # 3
    frequency:    0.3781925340
  - # 4
    frequency:    1.4177353278
  - # 5
    frequency:    1.4398693932
  - # 6
    frequency:    4.9016192969
  - # 7
    frequency:    4.9103618672
  - # 8
    frequency:    6.2711377249
  - # 9
    frequency:    7.3424391318
  - # 10
    frequency:    7.3497787569
  - # 11
    frequency:    8.2834396510
  - # 12
    frequency:    8.2877638452
  - # 13
    frequency:   10.8513220895
  - # 14
    frequency:   11.1198267616
  - # 15
    frequency:   11.1216037421
  - # 16
    frequency:   13.7087279030
  - # 17
    frequency:   13.7468283878
  - # 18
    frequency:   14.5929471276
  - # 19
    frequency:   16.8940629775
  - # 20
    frequency:   17.9243857895
  - # 21
    frequency:   17.9311849003
  - # 22
    frequency:   20.4196126304
  - # 23
    frequency:   64.7560408864
  - # 24
    frequency:  114.0005659981

- q-position: [    0.0202020,    0.0000000,    0.0000000 ]
  distance:    0.0071759
  band:
  - # 1
    frequency:    0.0410871498
  - # 2
    frequency:    0.3160886276
  - # 3
    frequency:    0.5031885188
  - # 4
    frequency:    1.4220326161
  - # 5
    frequency:    1.4611620170
  - # 6
    frequency:    4.9054483331
  - # 7
    frequency:    4.9208840002
  - # 8
    frequency:    6.2674174534
  - # 9
    frequency:    7.3406222538
  - # 10
    frequency:    7.3536265032
  - # 11
    frequency:    8.2851396570
  - # 12
    frequency:    8.2927931313
  - # 13
    frequency:   10.8491341673
  - # 14
    frequency:   11.1209929648
  - # 15
    frequency:   11.1241536438
  - # 16
    frequency:   13.6809623784
  - # 17
    frequency:   13.7463117926
  - # 18
    frequency:   14.6234958008
  - # 19
    frequency:   16.8916937724
  - # 20
    frequency:   17.9242686732
  - # 21
    frequency:   17.9362992716
  - # 22
    frequency:   20.4188852776
  - # 23
    frequency:   64.7554355439
  - # 24
    frequency:  113.9997372287

- q-position: [    0.0252525,    0.0000000,    0.0000000 ]
  distance:    0.0089698
  band:
  - # 1
    frequency:    0.0636109550
  - # 2
    frequency:    0.3943502497
  - # 3
    frequency:    0.6271730301
  - # 4
    frequency:    1.4276360000
  - # 5
    frequency:    1.4883894117
  - # 6
    frequency:    4.9103447904
  - # 7
    frequency:    4.9342500613
  - # 8
    frequency:    6.2627588699
  - # 9
    frequency:    7.3383002817
  - # 10
    frequency:    7.3585323091
  - # 11
    frequency:    8.2873011085
  - # 12
    frequency:    8.2991922556
  - # 13
    frequency:   10.8463281503
  - # 14
    frequency:   11.1224869391
  - # 15
    frequency:   11.1274281315
  - # 16
    frequency:   13.6477085109
  - # 17
    frequency:   13.7456600546
  - # 18
    frequency:   14.6603171837
  - # 19
    frequency:   16.8886706458
  - # 20
    frequency:   17.9241287338
  - # 21
    frequency:   17.9428133800
  - # 22
    frequency:   20.4179530661
  - # 23
    frequency:   64.7546589950
  - # 24
    frequency:  113.9986756732

- q-position: [    0.0303030,    0.0000000,    0.0000000 ]
  distance:    0.0107638
  band:
  - # 1
    frequency:    0.0906279149
  - # 2
    frequency:    0.4720683462
  - # 3
    frequency:    0.7497610840
  - # 4
    frequency:    1.4346117482
  - # 5
    frequency:    1.5215345154
  - # 6
    frequency:    4.9162890051
  - # 7
    frequency:    4.9503406225
  - # 8
    frequency:    6.2572537442
  - # 9
    frequency:    7.3354833948
  - # 10
    frequency:    7.3644667980
  - # 11
    frequency:    8.2899063016
  - # 12
    frequency:    8.3069127622
  - # 13
    frequency:   10.8429100570
  - # 14
    frequency:   11.1243046330
  - # 15
    frequency:   11.1314233792
  - # 16
    frequency:   13.6100862208
  - # 17
    frequency:   13.7448824088
  - # 18
    frequency:   14.7022832924
  - # 19
    frequency:   16.8850101684
  - # 20
    frequency:   17.9239738290
  - # 21
    frequency:   17.9506821897
  - # 22
    frequency:   20.4168182000
  - # 23
    frequency:   64.7537125448
  - # 24
    frequency:  113.9973843159

- q-position: [    0.0353535,    0.0000000,    0.0000000 ]
  distance:    0.0125577
  band:
  - # 1
    frequency:    0.1218930684
  - # 2
    frequency:    0.5490938751
  - # 3
    frequency:    0.8704611232
  - # 4
    frequency:    1.4430500103
  - # 5
    frequency:    1.5606739812
  - # 6
    frequency:    4.9232572487
  - # 7
    frequency:    4.9690120811
  - # 8
    frequency:    6.2510126473
  - # 9
    frequency:    7.3321836858
  - # 10
    frequency:    7.3713956854
  - # 11
    frequency:    8.2929341314
  - # 12
    frequency:    8.3158973922
  - # 13
    frequency:   10.8388879246
  - # 14
    frequency:   11.1264411187
  - # 15
    frequency:   11.1361339122
  - # 16
    frequency:   13.5690462001
  - # 17
    frequency:   13.7439900239
  - # 18
    frequency:   14.7484336325
  - # 19
    frequency:   16.8807319079
  - # 20
    frequency:   17.9238134286
  - # 21
    frequency:   17.9598518095
  - # 22
    frequency:   20.4154833582
  - # 23
    frequency:   64.7525977817
  - # 24
    frequency:  113.9958667823

- q-position: [    0.0404040,    0.0000000,    0.0000000 ]
  distance:    0.0143517
  band:
  - # 1
    frequency:    0.1571578309
  - # 2
    frequency:    0.6252506067
  - # 3
    frequency:    0.9886391270
  - # 4
    frequency:    1.4530714007
  - # 5
    frequency:    1.6060260797
  - # 6
    frequency:    4.9312219043
  - # 7
    frequency:    4.9900977310
  - # 8
    frequency:    6.2441643682
  - # 9
    frequency:    7.3284149765
  - # 10
    frequency:    7.3792805631
  - # 11
    frequency:    8.2963603831
  - # 12
    frequency:    8.3260811164
  - # 13
    frequency:   10.8342720411
  - # 14
    frequency:   11.1288906062
  - # 15
    frequency:   11.1415523061
  - # 16
    frequency:   13.5253576387
  - # 17
    frequency:   13.7429959327
  - # 18
    frequency:   14.7979875019
  - # 19
    frequency:   16.8758581013
  - # 20
    frequency:   17.9236585367
  - # 21
    frequency:   17.9702601004
  - # 22
    frequency:   20.4139516855
  - # 23
    frequency:   64.7513165729
  - # 24
    frequency:  113.9941273262

- q-position: [    0.0454545,    0.0000000,    0.0000000 ]
  distance:    0.0161457
  band:
  - # 1
    frequency:    0.1961781437
  - # 2
    frequency:    0.7003259127
  - # 3
    frequency:    1.1034875088
  - # 4
    frequency:    1.4648357189
  - # 5
    frequency:    1.6579911113
  - # 6
    frequency:    4.9401516701
  - # 7
    frequency:    5.0134087595
  - # 8
    frequency:    6.2368555021
  - # 9
    frequency:    7.3241926216
  - # 10
    frequency:    7.3880796908
  - # 11
    frequency:    8.3001580541
  - # 12
    frequency:    8.3373922400
  - # 13
    frequency:   10.8290751117
  - # 14
    frequency:   11.1316464614
  - # 15
    frequency:   11.1476689453
  - # 16
    frequency:   13.4796267134
  - # 17
    frequency:   13.7419149501
  - # 18
    frequency:   14.8503255312
  - # 19
    frequency:   16.8704133281
  - # 20
    frequency:   17.9235216001
  - # 21
    frequency:   17.9818373281
  - # 22
    frequency:   20.4122267813
  - # 23
    frequency:   64.7498710597
  - # 24
    frequency:  113.9921708146

- q-position: [    0.0505051,    0.0000000,    0.0000000 ]
  distance:    0.0179396
  band:
  - # 1
    frequency:    0.2387196339
  - # 2
    frequency:    0.7740592985
  - # 3
    frequency:    1.2140247482
  - # 4
    frequency:    1.4785530425
  - # 5
    frequency:    1.7171581482
  - # 6
    frequency:    4.9500117860
  - # 7
    frequency:    5.0387350795
  - # 8
    frequency:    6.2292502886
  - # 9
    frequency:    7.3195333050
  - # 10
    frequency:    7.3977487596
  - # 11
    frequency:    8.3042976963
  - # 12
    frequency:    8.3497535386
  - # 13
    frequency:   10.8233123409
  - # 14
    frequency:   11.1347012269
  - # 15
    frequency:   11.1544718554
  - # 16
    frequency:   13.4323253144
  - # 17
    frequency:   13.7407635808
  - # 18
    frequency:   14.9049609863
  - # 19
    frequency:   16.8644242067
  - # 20
    frequency:   17.9234164054
  - # 21
    frequency:   17.9945068427
  - # 22
    frequency:   20.4103126868
  - # 23
    frequency:   64.7482636522
  - # 24
    frequency:  113.9900027099

- q-position: [    0.0555556,    0.0000000,    0.0000000 ]
  distance:    0.0197336
  band:
  - # 1
    frequency:    0.2845603283
  - # 2
    frequency:    0.8461289172
  - # 3
    frequency:    1.3191747841
  - # 4
    frequency:    1.4944969241
  - # 5
    frequency:    1.7842293732
  - # 6
    frequency:    4.9607642826
  - # 7
    frequency:    5.0658459336
  - # 8
    frequency:    6.2215307524
  - # 9
    frequency:    7.3144548392
  - # 10
    frequency:    7.4082416030
  - # 11
    frequency:    8.3087477722
  - # 12
    frequency:    8.3630833887
  - # 13
    frequency:   10.8170014301
  - # 14
    frequency:   11.1380466463
  - # 15
    frequency:   11.1619466144
  - # 16
    frequency:   13.3838196351
  - # 17
    frequency:   13.7395599146
  - # 18
    frequency:   14.9615112043
  - # 19
    frequency:   16.8579191284
  - # 20
    frequency:   17.9233579652
  - # 21
    frequency:   18.0081857690
  - # 22
    frequency:   20.4082138699
  - # 23
    frequency:   64.7464970225
  - # 24
    frequency:  113.9876290512

- q-position: [    0.0606061,    0.0000000,    0.0000000 ]
  distance:    0.0215276
  band:
  - # 1
    frequency:    0.3334915980
  - # 2
    frequency:    0.9161376010
  - # 3
    frequency:    1.4179776586
  - # 4
    frequency:    1.5130181351
  - # 5
    frequency:    1.8598110664
  - # 6
    frequency:    4.9723682473
  - # 7
    frequency:    5.0944902385
  - # 8
    frequency:    6.2138971581
  - # 9
    frequency:    7.3089759706
  - # 10
    frequency:    7.4195108367
  - # 11
    frequency:    8.3134750163
  - # 12
    frequency:    8.3772968602
  - # 13
    frequency:   10.8101624963
  - # 14
    frequency:   11.1416736919
  - # 15
    frequency:   11.1700763376
  - # 16
    frequency:   13.3343946441
  - # 17
    frequency:   13.7383235136
  - # 18
    frequency:   15.0196731401
  - # 19
    frequency:   16.8509280434
  - # 20
    frequency:   17.9233623940
  - # 21
    frequency:   18.0227856935
  - # 22
    frequency:   20.4059352076
  - # 23
    frequency:   64.7445740985
  - # 24
    frequency:  113.9850564316

- q-position: [    0.0656566,    0.0000000,    0.0000000 ]
  distance:    0.0233215
  band:
  - # 1
    frequency:    0.3853179727
  - # 2
    frequency:    0.9836026434
  - # 3
    frequency:    1.5099068445
  - # 4
    frequency:    1.5345547057
  - # 5
    frequency:    1.9440963813
  - # 6
    frequency:    4.9847801057
  - # 7
    frequency:    5.1243966995
  - # 8
    frequency:    6.2065687327
  - # 9
    frequency:    7.3031161979
  - # 10
    frequency:    7.4315084231
  - # 11
    frequency:    8.3184447948
  - # 12
    frequency:    8.3923067461
  - # 13
    frequency:   10.8028179247
  - # 14
    frequency:   11.1455725956
  - # 15
    frequency:   11.1788417242
  - # 16
    frequency:   13.2842736229
  - # 17
    frequency:   13.7370752881
  - # 18
    frequency:   15.0792038340
  - # 19
    frequency:   16.8434823080
  - # 20
    frequency:   17.9234467749
  - # 21
    frequency:   18.0382133415
  - # 22
    frequency:   20.4034819667
  - # 23
    frequency:   64.7424980560
  - # 24
    frequency:  113.9822919759

- q-position: [    0.0707071,    0.0000000,    0.0000000 ]
  distance:    0.0251155
  band:
  - # 1
    frequency:    0.4398563293
  - # 2
    frequency:    1.0479581427
  - # 3
    frequency:    1.5596294362
  - # 4
    frequency:    1.5951184167
  - # 5
    frequency:    2.0366152528
  - # 6
    frequency:    4.9979539152
  - # 7
    frequency:    5.1552738057
  - # 8
    frequency:    6.1997845283
  - # 9
    frequency:    7.2968956062
  - # 10
    frequency:    7.4441861578
  - # 11
    frequency:    8.3236214584
  - # 12
    frequency:    8.4080245111
  - # 13
    frequency:   10.7949921711
  - # 14
    frequency:   11.1497328846
  - # 15
    frequency:   11.1882211502
  - # 16
    frequency:   13.2336332381
  - # 17
    frequency:   13.7358373658
  - # 18
    frequency:   15.1399053265
  - # 19
    frequency:   16.8356146020
  - # 20
    frequency:   17.9236290187
  - # 21
    frequency:   18.0543712382
  - # 22
    frequency:   20.4008597815
  - # 23
    frequency:   64.7402723104
  - # 24
    frequency:  113.9793433142

- q-position: [    0.0757576,    0.0000000,    0.0000000 ]
  distance:    0.0269095
  band:
  - # 1
    frequency:    0.4969348100
  - # 2
    frequency:    1.1085841432
  - # 3
    frequency:    1.5888206343
  - # 4
    frequency:    1.6744227945
  - # 5
    frequency:    2.1362611026
  - # 6
    frequency:    5.0118416655
  - # 7
    frequency:    5.1868099368
  - # 8
    frequency:    6.1938041793
  - # 9
    frequency:    7.2903347205
  - # 10
    frequency:    7.4574960835
  - # 11
    frequency:    8.3289686847
  - # 12
    frequency:    8.4243611451
  - # 13
    frequency:   10.7867115306
  - # 14
    frequency:   11.1541434193
  - # 15
    frequency:   11.1981907944
  - # 16
    frequency:   13.1826149802
  - # 17
    frequency:   13.7346329517
  - # 18
    frequency:   15.2016131782
  - # 19
    frequency:   16.8273589230
  - # 20
    frequency:   17.9239277166
  - # 21
    frequency:   18.0711583525
  - # 22
    frequency:   20.3980746290
  - # 23
    frequency:   64.7379005083
  - # 24
    frequency:  113.9762185553

- q-position: [    0.0808081,    0.0000000,    0.0000000 ]
  distance:    0.0287034
  band:
  - # 1
    frequency:    0.5563916917
  - # 2
    frequency:    1.1648778707
  - # 3
    frequency:    1.6226907727
  - # 4
    frequency:    1.7489893590
  - # 5
    frequency:    2.2415843147
  - # 6
    frequency:    5.0263935862
  - # 7
    frequency:    5.2186739766
  - # 8
    frequency:    6.1889081510
  - # 9
    frequency:    7.2834543790
  - # 10
    frequency:    7.4713908374
  - # 11
    frequency:    8.3344498042
  - # 12
    frequency:    8.4412279177
  - # 13
    frequency:   10.7780038853
  - # 14
    frequency:   11.1587924353
  - # 15
    frequency:   11.2087247824
  - # 16
    frequency:   13.1313337958
  - # 17
    frequency:   13.7334861822
  - # 18
    frequency:   15.2641877551
  - # 19
    frequency:   16.8187506677
  - # 20
    frequency:   17.9243619868
  - # 21
    frequency:   18.0884707230
  - # 22
    frequency:   20.3951328016
  - # 23
    frequency:   64.7353865183
  - # 24
    frequency:  113.9729262577

- q-position: [    0.0858586,    0.0000000,    0.0000000 ]
  distance:    0.0304974
  band:
  - # 1
    frequency:    0.6180743302
  - # 2
    frequency:    1.2163688302
  - # 3
    frequency:    1.6616712916
  - # 4
    frequency:    1.8200086156
  - # 5
    frequency:    2.3511279968
  - # 6
    frequency:    5.0415584544
  - # 7
    frequency:    5.2505170282
  - # 8
    frequency:    6.1853968813
  - # 9
    frequency:    7.2762756275
  - # 10
    frequency:    7.4858239416
  - # 11
    frequency:    8.3400281109
  - # 12
    frequency:    8.4585370302
  - # 13
    frequency:   10.7688984424
  - # 14
    frequency:   11.1636675898
  - # 15
    frequency:   11.2197953381
  - # 16
    frequency:   13.0798846026
  - # 17
    frequency:   13.7324219730
  - # 18
    frequency:   15.3275075737
  - # 19
    frequency:   16.8098268115
  - # 20
    frequency:   17.9249513171
  - # 21
    frequency:   18.1062020690
  - # 22
    frequency:   20.3920408763
  - # 23
    frequency:   64.7327344207
  - # 24
    frequency:  113.9694753994

- q-position: [    0.0909091,    0.0000000,    0.0000000 ]
  distance:    0.0322914
  band:
  - # 1
    frequency:    0.6818382306
  - # 2
    frequency:    1.2628463547
  - # 3
    frequency:    1.7059349557
  - # 4
    frequency:    1.8884874331
  - # 5
    frequency:    2.4636306092
  - # 6
    frequency:    5.0572839019
  - # 7
    frequency:    5.2819760501
  - # 8
    frequency:    6.1835879989
  - # 9
    frequency:    7.2688196342
  - # 10
    frequency:    7.5007500420
  - # 11
    frequency:    8.3456671531
  - # 12
    frequency:    8.4762021697
  - # 13
    frequency:   10.7594254731
  - # 14
    frequency:   11.1687560099
  - # 15
    frequency:   11.2313729343
  - # 16
    frequency:   13.0283472294
  - # 17
    frequency:   13.7314658627
  - # 18
    frequency:   15.3914641378
  - # 19
    frequency:   16.8006262059
  - # 20
    frequency:   17.9257154049
  - # 21
    frequency:   18.1242443871
  - # 22
    frequency:   20.3888056821
  - # 23
    frequency:   64.7299484977
  - # 24
    frequency:  113.9658753459

- q-position: [    0.0959596,    0.0000000,    0.0000000 ]
  distance:    0.0340853
  band:
  - # 1
    frequency:    0.7475462567
  - # 2
    frequency:    1.3044368130
  - # 3
    frequency:    1.7553185509
  - # 4
    frequency:    1.9551898207
  - # 5
    frequency:    2.5780830627
  - # 6
    frequency:    5.0735167188
  - # 7
    frequency:    5.3126804095
  - # 8
    frequency:    6.1838106322
  - # 9
    frequency:    7.2611076235
  - # 10
    frequency:    7.5161251047
  - # 11
    frequency:    8.3513310057
  - # 12
    frequency:    8.4941389690
  - # 13
    frequency:   10.7496160550
  - # 14
    frequency:   11.1740443449
  - # 15
    frequency:   11.2434264346
  - # 16
    frequency:   12.9767901867
  - # 17
    frequency:   13.7306438527
  - # 18
    frequency:   15.4559578270
  - # 19
    frequency:   16.7911900239
  - # 20
    frequency:   17.9266739953
  - # 21
    frequency:   18.1424885379
  - # 22
    frequency:   20.3854342632
  - # 23
    frequency:   64.7270332225
  - # 24
    frequency:  113.9621358169

- q-position: [    0.1010101,    0.0000000,    0.0000000 ]
  distance:    0.0358793
  band:
  - # 1
    frequency:    0.8150679674
  - # 2
    frequency:    1.3415806715
  - # 3
    frequency:    1.8093457244
  - # 4
    frequency:    2.0206590658
  - # 5
    frequency:    2.6937044872
  - # 6
    frequency:    5.0902031490
  - # 7
    frequency:    5.3422623630
  - # 8
    frequency:    6.1863958122
  - # 9
    frequency:    7.2531608278
  - # 10
    frequency:    7.5319065737
  - # 11
    frequency:    8.3569845218
  - # 12
    frequency:    8.5122653819
  - # 13
    frequency:   10.7395018243
  - # 14
    frequency:   11.1795188212
  - # 15
    frequency:   11.2559232215
  - # 16
    frequency:   12.9252735713
  - # 17
    frequency:   13.7299822442
  - # 18
    frequency:   15.5208944805
  - # 19
    frequency:   16.7815624019
  - # 20
    frequency:   17.9278467191
  - # 21
    frequency:   18.1608248225
  - # 22
    frequency:   20.3819338403
  - # 23
    frequency:   64.7239932481
  - # 24
    frequency:  113.9582668525

- q-position: [    0.1060606,    0.0000000,    0.0000000 ]
  distance:    0.0376732
  band:
  - # 1
    frequency:    0.8842790599
  - # 2
    frequency:    1.3749212554
  - # 3
    frequency:    1.8673381224
  - # 4
    frequency:    2.0852658383
  - # 5
    frequency:    2.8098920717
  - # 6
    frequency:    5.1072891780
  - # 7
    frequency:    5.3703721547
  - # 8
    frequency:    6.1916623029
  - # 9
    frequency:    7.2450004554
  - # 10
    frequency:    7.5480534944
  - # 11
    frequency:    8.3625935659
  - # 12
    frequency:    8.5305019818
  - # 13
    frequency:   10.7291147380
  - # 14
    frequency:   11.1851652997
  - # 15
    frequency:   11.2688293076
  - # 16
    frequency:   12.8738513284
  - # 17
    frequency:   13.7295074749
  - # 18
    frequency:   15.5861823769
  - # 19
    frequency:   16.7717913498
  - # 20
    frequency:   17.9292529317
  - # 21
    frequency:   18.1791435531
  - # 22
    frequency:   20.3783117683
  - # 23
    frequency:   64.7208333957
  - # 24
    frequency:  113.9542787775

- q-position: [    0.1111111,    0.0000000,    0.0000000 ]
  distance:    0.0394672
  band:
  - # 1
    frequency:    0.9550608953
  - # 2
    frequency:    1.4051678488
  - # 3
    frequency:    1.9285521828
  - # 4
    frequency:    2.1492551323
  - # 5
    frequency:    2.9261720888
  - # 6
    frequency:    5.1247208082
  - # 7
    frequency:    5.3966975943
  - # 8
    frequency:    6.1998980213
  - # 9
    frequency:    7.2366476710
  - # 10
    frequency:    7.5645266064
  - # 11
    frequency:    8.3681252266
  - # 12
    frequency:    8.5487721931
  - # 13
    frequency:   10.7184868468
  - # 14
    frequency:   11.1909693351
  - # 15
    frequency:   11.2821094219
  - # 16
    frequency:   12.8225730362
  - # 17
    frequency:   13.7292459551
  - # 18
    frequency:   15.6517293241
  - # 19
    frequency:   16.7619300494
  - # 20
    frequency:   17.9309115545
  - # 21
    frequency:   18.1973356157
  - # 22
    frequency:   20.3745754919
  - # 23
    frequency:   64.7175586431
  - # 24
    frequency:  113.9501821652

- q-position: [    0.1161616,    0.0000000,    0.0000000 ]
  distance:    0.0412612
  band:
  - # 1
    frequency:    1.0273000852
  - # 2
    frequency:    1.4329903485
  - # 3
    frequency:    1.9922843688
  - # 4
    frequency:    2.2127835668
  - # 5
    frequency:    3.0421605597
  - # 6
    frequency:    5.1424443227
  - # 7
    frequency:    5.4209866238
  - # 8
    frequency:    6.2113385709
  - # 9
    frequency:    7.2281235889
  - # 10
    frequency:    7.5812884055
  - # 11
    frequency:    8.3735480121
  - # 12
    frequency:    8.5670024665
  - # 13
    frequency:   10.7076500795
  - # 14
    frequency:   11.1969162367
  - # 15
    frequency:   11.2957270703
  - # 16
    frequency:   12.7714853382
  - # 17
    frequency:   13.7292239047
  - # 18
    frequency:   15.7174395537
  - # 19
    frequency:   16.7520387212
  - # 20
    frequency:   17.9328409197
  - # 21
    frequency:   18.2152930277
  - # 22
    frequency:   20.3707324986
  - # 23
    frequency:   64.7141741121
  - # 24
    frequency:  113.9459878002

- q-position: [    0.1212121,    0.0000000,    0.0000000 ]
  distance:    0.0430551
  band:
  - # 1
    frequency:    1.1008881211
  - # 2
    frequency:    1.4589643400
  - # 3
    frequency:    2.0579259752
  - # 4
    frequency:    2.2759466116
  - # 5
    frequency:    3.1575339577
  - # 6
    frequency:    5.1604065330
  - # 7
    frequency:    5.4430698055
  - # 8
    frequency:    6.2261459934
  - # 9
    frequency:    7.2194492744
  - # 10
    frequency:    7.5983031772
  - # 11
    frequency:    8.3788320258
  - # 12
    frequency:    8.5851224053
  - # 13
    frequency:   10.6966360367
  - # 14
    frequency:   11.2029911303
  - # 15
    frequency:   11.3096445593
  - # 16
    frequency:   12.7206331182
  - # 17
    frequency:   13.7294671934
  - # 18
    frequency:   15.7832100316
  - # 19
    frequency:   16.7421873584
  - # 20
    frequency:   17.9350586200
  - # 21
    frequency:   18.2329094881
  - # 22
    frequency:   20.3667902697
  - # 23
    frequency:   64.7106850564
  - # 24
    frequency:  113.9417066409

- q-position: [    0.1262626,    0.0000000,    0.0000000 ]
  distance:    0.0448491
  band:
  - # 1
    frequency:    1.1757210318
  - # 2
    frequency:    1.4835564041
  - # 3
    frequency:    2.1249776981
  - # 4
    frequency:    2.3387977223
  - # 5
    frequency:    3.2720079323
  - # 6
    frequency:    5.1785550135
  - # 7
    frequency:    5.4628785406
  - # 8
    frequency:    6.2443919666
  - # 9
    frequency:    7.2106457527
  - # 10
    frequency:    7.6155370023
  - # 11
    frequency:    8.3839491255
  - # 12
    frequency:    8.6030648539
  - # 13
    frequency:   10.6854757936
  - # 14
    frequency:   11.2091790207
  - # 15
    frequency:   11.3238229769
  - # 16
    frequency:   12.6700604907
  - # 17
    frequency:   13.7300011834
  - # 18
    frequency:   15.8489256361
  - # 19
    frequency:   16.7324598049
  - # 20
    frequency:   17.9375813644
  - # 21
    frequency:   18.2500809190
  - # 22
    frequency:   20.3627562301
  - # 23
    frequency:   64.7070968487
  - # 24
    frequency:  113.9373497813

- q-position: [    0.1313131,    0.0000000,    0.0000000 ]
  distance:    0.0466431
  band:
  - # 1
    frequency:    1.2516990579
  - # 2
    frequency:    1.5071317821
  - # 3
    frequency:    2.1930418420
  - # 4
    frequency:    2.4013615807
  - # 5
    frequency:    3.3853218107
  - # 6
    frequency:    5.1968383180
  - # 7
    frequency:    5.4804549697
  - # 8
    frequency:    6.2660495441
  - # 9
    frequency:    7.2017340226
  - # 10
    frequency:    7.6329577336
  - # 11
    frequency:    8.3888730649
  - # 12
    frequency:    8.6207659543
  - # 13
    frequency:   10.6741997101
  - # 14
    frequency:   11.2154648539
  - # 15
    frequency:   11.3382221172
  - # 16
    frequency:   12.6198116712
  - # 17
    frequency:   13.7308505776
  - # 18
    frequency:   15.9144523527
  - # 19
    frequency:   16.7229599806
  - # 20
    frequency:   17.9404248405
  - # 21
    frequency:   18.2667059980
  - # 22
    frequency:   20.3586376970
  - # 23
    frequency:   64.7034149679
  - # 24
    frequency:  113.9329284124

- q-position: [    0.1363636,    0.0000000,    0.0000000 ]
  distance:    0.0484370
  band:
  - # 1
    frequency:    1.3287263363
  - # 2
    frequency:    1.5299706758
  - # 3
    frequency:    2.2618058880
  - # 4
    frequency:    2.4636432174
  - # 5
    frequency:    3.4972270600
  - # 6
    frequency:    5.2152061822
  - # 7