nqpoint: 300    
npath: 3      
segment_nqpoint:
- 100
- 100
- 100
labels:
- [ 'G', 'M' ]
- [ 'M', 'K' ]
- [ 'K', 'G' ]
reciprocal_lattice:
- [   0.30257705,   0.17469294,   0.00000000 ] # a*
- [   0.00000000,   0.34938588,   0.00000000 ] # b*
- [   0.00000000,   0.00000000,   0.03723809 ] # c*
natom: 8      
lattice:
- [     3.304943299087174,     0.000000000000000,     0.000000000000000 ] # a
- [    -1.652471649543587,     2.862164855077305,     0.000000000000000 ] # b
- [     0.000000000000000,     0.000000000000000,    26.854225902595488 ] # c
points:
- symbol: C # 1
  coordinates: [  0.333332985432215,  0.666666983183674,  0.620164802549479 ]
  mass: 12.010700
- symbol: C # 2
  coordinates: [  0.666666984744048,  0.333332985985145,  0.379967170019605 ]
  mass: 12.010700
- symbol: N # 3
  coordinates: [  0.000000000000000,  0.000000000000000,  0.520565597956069 ]
  mass: 14.006700
- symbol: N # 4
  coordinates: [  0.333332985432215,  0.666666983183674,  0.664857217160367 ]
  mass: 14.006700
- symbol: N # 5
  coordinates: [  0.666666984744048,  0.333332985985145,  0.426369591816935 ]
  mass: 14.006700
- symbol: O # 6
  coordinates: [  0.666666984744048,  0.333332985985145,  0.335142782839633 ]
  mass: 15.999400
- symbol: Sc # 7
  coordinates: [  0.333332985432215,  0.666666983183674,  0.476254208149456 ]
  mass: 44.955912
- symbol: Sc # 8
  coordinates: [  0.666666984744048,  0.333332985985145,  0.566824534070913 ]
  mass: 44.955912

phonon:
- q-position: [    0.0000000,    0.0000000,    0.0000000 ]
  distance:    0.0000000
  band:
  - # 1
    frequency:   -1.8481446112
  - # 2
    frequency:   -1.8481446112
  - # 3
    frequency:   -1.0598417481
  - # 4
    frequency:   -1.0598417481
  - # 5
    frequency:   -0.0000012310
  - # 6
    frequency:   -0.0000002855
  - # 7
    frequency:    0.0000007963
  - # 8
    frequency:    4.8035541689
  - # 9
    frequency:    4.8035541689
  - # 10
    frequency:    5.9596268483
  - # 11
    frequency:    7.6455582791
  - # 12
    frequency:    7.6455582791
  - # 13
    frequency:    8.6877058587
  - # 14
    frequency:    8.6877058587
  - # 15
    frequency:    9.2775936586
  - # 16
    frequency:   11.5493771437
  - # 17
    frequency:   13.2337847992
  - # 18
    frequency:   13.2337847992
  - # 19
    frequency:   13.9530733941
  - # 20
    frequency:   17.5285247007
  - # 21
    frequency:   17.5285247007
  - # 22
    frequency:   38.7198193533
  - # 23
    frequency:   61.8250181986
  - # 24
    frequency:   69.5365921659

- q-position: [    0.0050505,    0.0000000,    0.0000000 ]
  distance:    0.0017646
  band:
  - # 1
    frequency:   -1.8479976380
  - # 2
    frequency:   -1.8475595390
  - # 3
    frequency:   -1.0590260721
  - # 4
    frequency:   -1.0570049174
  - # 5
    frequency:   -0.0050908906
  - # 6
    frequency:    0.0789735664
  - # 7
    frequency:    0.1397776847
  - # 8
    frequency:    4.8038426366
  - # 9
    frequency:    4.8051945698
  - # 10
    frequency:    5.9593531653
  - # 11
    frequency:    7.6457390997
  - # 12
    frequency:    7.6464144341
  - # 13
    frequency:    8.6876819813
  - # 14
    frequency:    8.6881721868
  - # 15
    frequency:    9.2773505656
  - # 16
    frequency:   11.5476959580
  - # 17
    frequency:   13.2338283558
  - # 18
    frequency:   13.2344686406
  - # 19
    frequency:   13.9526253027
  - # 20
    frequency:   17.5285662970
  - # 21
    frequency:   17.5288679925
  - # 22
    frequency:   38.7197787556
  - # 23
    frequency:   61.8249187740
  - # 24
    frequency:   69.5350502023

- q-position: [    0.0101010,    0.0000000,    0.0000000 ]
  distance:    0.0035292
  band:
  - # 1
    frequency:   -1.8475609006
  - # 2
    frequency:   -1.8458438246
  - # 3
    frequency:   -1.0565967610
  - # 4
    frequency:   -1.0486299523
  - # 5
    frequency:    0.0341550520
  - # 6
    frequency:    0.1581222788
  - # 7
    frequency:    0.2781657959
  - # 8
    frequency:    4.8047095250
  - # 9
    frequency:    4.8101008315
  - # 10
    frequency:    5.9585347629
  - # 11
    frequency:    7.6462801125
  - # 12
    frequency:    7.6489773252
  - # 13
    frequency:    8.6876096633
  - # 14
    frequency:    8.6895694258
  - # 15
    frequency:    9.2766240715
  - # 16
    frequency:   11.5426624302
  - # 17
    frequency:   13.2339574699
  - # 18
    frequency:   13.2365078788
  - # 19
    frequency:   13.9512855778
  - # 20
    frequency:   17.5286909452
  - # 21
    frequency:   17.5298967604
  - # 22
    frequency:   38.7196571925
  - # 23
    frequency:   61.8246207993
  - # 24
    frequency:   69.5304288942

- q-position: [    0.0151515,    0.0000000,    0.0000000 ]
  distance:    0.0052937
  band:
  - # 1
    frequency:   -1.8468467318
  - # 2
    frequency:   -1.8431099101
  - # 3
    frequency:   -1.0526050907
  - # 4
    frequency:   -1.0350790903
  - # 5
    frequency:    0.0580984189
  - # 6
    frequency:    0.2376087505
  - # 7
    frequency:    0.4184062421
  - # 8
    frequency:    4.8061592620
  - # 9
    frequency:    4.8182284861
  - # 10
    frequency:    5.9571795700
  - # 11
    frequency:    7.6471769860
  - # 12
    frequency:    7.6532303042
  - # 13
    frequency:    8.6874868619
  - # 14
    frequency:    8.6918923448
  - # 15
    frequency:    9.2754225295
  - # 16
    frequency:   11.5343063462
  - # 17
    frequency:   13.2341674857
  - # 18
    frequency:   13.2398659933
  - # 19
    frequency:   13.9490678390
  - # 20
    frequency:   17.5288982237
  - # 21
    frequency:   17.5316076867
  - # 22
    frequency:   38.7194553530
  - # 23
    frequency:   61.8241251694
  - # 24
    frequency:   69.5227419668

- q-position: [    0.0202020,    0.0000000,    0.0000000 ]
  distance:    0.0070583
  band:
  - # 1
    frequency:   -1.8458749935
  - # 2
    frequency:   -1.8395267236
  - # 3
    frequency:   -1.0471305172
  - # 4
    frequency:   -1.0168251553
  - # 5
    frequency:    0.0831190890
  - # 6
    frequency:    0.3175719778
  - # 7
    frequency:    0.5604725685
  - # 8
    frequency:    4.8081991344
  - # 9
    frequency:    4.8295045843
  - # 10
    frequency:    5.9553007693
  - # 11
    frequency:    7.6484225509
  - # 12
    frequency:    7.6591458665
  - # 13
    frequency:    8.6873102181
  - # 14
    frequency:    8.6951322390
  - # 15
    frequency:    9.2737598585
  - # 16
    frequency:   11.5226763730
  - # 17
    frequency:   13.2344506797
  - # 18
    frequency:   13.2444832112
  - # 19
    frequency:   13.9459946926
  - # 20
    frequency:   17.5291874345
  - # 21
    frequency:   17.5339952588
  - # 22
    frequency:   38.7191743791
  - # 23
    frequency:   61.8234333711
  - # 24
    frequency:   69.5120122211

- q-position: [    0.0252525,    0.0000000,    0.0000000 ]
  distance:    0.0088229
  band:
  - # 1
    frequency:   -1.8446721074
  - # 2
    frequency:   -1.8352973587
  - # 3
    frequency:   -1.0402725162
  - # 4
    frequency:   -0.9943087277
  - # 5
    frequency:    0.1104235768
  - # 6
    frequency:    0.3981189794
  - # 7
    frequency:    0.7042989883
  - # 8
    frequency:    4.8108391495
  - # 9
    frequency:    4.8438293703
  - # 10
    frequency:    5.9529167563
  - # 11
    frequency:    7.6500068726
  - # 12
    frequency:    7.6666860070
  - # 13
    frequency:    8.6870751257
  - # 14
    frequency:    8.6992769462
  - # 15
    frequency:    9.2716555402
  - # 16
    frequency:   11.5078386941
  - # 17
    frequency:   13.2347963153
  - # 18
    frequency:   13.2502780513
  - # 19
    frequency:   13.9420975910
  - # 20
    frequency:   17.5295576090
  - # 21
    frequency:   17.5370517942
  - # 22
    frequency:   38.7188158580
  - # 23
    frequency:   61.8225474753
  - # 24
    frequency:   69.4982714221

- q-position: [    0.0303030,    0.0000000,    0.0000000 ]
  distance:    0.0105875
  band:
  - # 1
    frequency:   -1.8432698280
  - # 2
    frequency:   -1.8306363931
  - # 3
    frequency:   -1.0321407785
  - # 4
    frequency:   -0.9678209191
  - # 5
    frequency:    0.1405742576
  - # 6
    frequency:    0.4793200535
  - # 7
    frequency:    0.8496135943
  - # 8
    frequency:    4.8140918462
  - # 9
    frequency:    4.8610784941
  - # 10
    frequency:    5.9500510968
  - # 11
    frequency:    7.6519173517
  - # 12
    frequency:    7.6758027041
  - # 13
    frequency:    8.6867758244
  - # 14
    frequency:    8.7043108582
  - # 15
    frequency:    9.2691346192
  - # 16
    frequency:   11.4898752803
  - # 17
    frequency:   13.2351907193
  - # 18
    frequency:   13.2571493055
  - # 19
    frequency:   13.9374166322
  - # 20
    frequency:   17.5300075170
  - # 21
    frequency:   17.5407674763
  - # 22
    frequency:   38.7183818094
  - # 23
    frequency:   61.8214701259
  - # 24
    frequency:   69.4815601439

- q-position: [    0.0353535,    0.0000000,    0.0000000 ]
  distance:    0.0123520
  band:
  - # 1
    frequency:   -1.8417038653
  - # 2
    frequency:   -1.8257513749
  - # 3
    frequency:   -1.0228451544
  - # 4
    frequency:   -0.9374415120
  - # 5
    frequency:    0.1738862844
  - # 6
    frequency:    0.5612079806
  - # 7
    frequency:    0.9960046662
  - # 8
    frequency:    4.8179720565
  - # 9
    frequency:    4.8811056416
  - # 10
    frequency:    5.9467324978
  - # 11
    frequency:    7.6541388475
  - # 12
    frequency:    7.6864385189
  - # 13
    frequency:    8.6864055193
  - # 14
    frequency:    8.7102149194
  - # 15
    frequency:    9.2662277113
  - # 16
    frequency:   11.4688819425
  - # 17
    frequency:   13.2356173805
  - # 18
    frequency:   13.2649783141
  - # 19
    frequency:   13.9320002983
  - # 20
    frequency:   17.5305356779
  - # 21
    frequency:   17.5451303981
  - # 22
    frequency:   38.7178746707
  - # 23
    frequency:   61.8202045269
  - # 24
    frequency:   69.4619275716

- q-position: [    0.0404040,    0.0000000,    0.0000000 ]
  distance:    0.0141166
  band:
  - # 1
    frequency:   -1.8400124719
  - # 2
    frequency:   -1.8208307760
  - # 3
    frequency:   -1.0124867125
  - # 4
    frequency:   -0.9030262172
  - # 5
    frequency:    0.2105263707
  - # 6
    frequency:    0.6437808433
  - # 7
    frequency:    1.1430084144
  - # 8
    frequency:    4.8224966250
  - # 9
    frequency:    4.9037454521
  - # 10
    frequency:    5.9429948069
  - # 11
    frequency:    7.6566538237
  - # 12
    frequency:    7.6985272942
  - # 13
    frequency:    8.6859565212
  - # 14
    frequency:    8.7169666001
  - # 15
    frequency:    9.2629710253
  - # 16
    frequency:   11.4449663126
  - # 17
    frequency:   13.2360570701
  - # 18
    frequency:   13.2736313936
  - # 19
    frequency:   13.9259051259
  - # 20
    frequency:   17.5311403738
  - # 21
    frequency:   17.5501266175
  - # 22
    frequency:   38.7172972785
  - # 23
    frequency:   61.8187544257
  - # 24
    frequency:   69.4394312621

- q-position: [    0.0454545,    0.0000000,    0.0000000 ]
  distance:    0.0158812
  band:
  - # 1
    frequency:   -1.8382350972
  - # 2
    frequency:   -1.8160383728
  - # 3
    frequency:   -1.0011509543
  - # 4
    frequency:   -0.8642138896
  - # 5
    frequency:    0.2505565878
  - # 6
    frequency:    0.7270075514
  - # 7
    frequency:    1.2901724985
  - # 8
    frequency:    4.8276840878
  - # 9
    frequency:    4.9288165847
  - # 10
    frequency:    5.9388770604
  - # 11
    frequency:    7.6594425112
  - # 12
    frequency:    7.7119949383
  - # 13
    frequency:    8.6854204079
  - # 14
    frequency:    8.7245398279
  - # 15
    frequency:    9.2594064051
  - # 16
    frequency:   11.4182458823
  - # 17
    frequency:   13.2364879852
  - # 18
    frequency:   13.2829622922
  - # 19
    frequency:   13.9191953007
  - # 20
    frequency:   17.5318196649
  - # 21
    frequency:   17.5557402201
  - # 22
    frequency:   38.7166528475
  - # 23
    frequency:   61.8171240941
  - # 24
    frequency:   69.4141368643

- q-position: [    0.0505051,    0.0000000,    0.0000000 ]
  distance:    0.0176458
  band:
  - # 1
    frequency:   -1.8364111952
  - # 2
    frequency:   -1.8115124527
  - # 3
    frequency:   -0.9889036772
  - # 4
    frequency:   -0.8204219347
  - # 5
    frequency:    0.2939601972
  - # 6
    frequency:    0.8108348422
  - # 7
    frequency:    1.4370886156
  - # 8
    frequency:    4.8335543200
  - # 9
    frequency:    4.9561248049
  - # 10
    frequency:    5.9344236005
  - # 11
    frequency:    7.6624830860
  - # 12
    frequency:    7.7267602765
  - # 13
    frequency:    8.6847882038
  - # 14
    frequency:    8.7329048633
  - # 15
    frequency:    9.2555814031
  - # 16
    frequency:   11.3888462012
  - # 17
    frequency:   13.2368859136
  - # 18
    frequency:   13.2928145849
  - # 19
    frequency:   13.9119421650
  - # 20
    frequency:   17.5325714068
  - # 21
    frequency:   17.5619533914
  - # 22
    frequency:   38.7159449465
  - # 23
    frequency:   61.8153183069
  - # 24
    frequency:   69.3861178011

- q-position: [    0.0555556,    0.0000000,    0.0000000 ]
  distance:    0.0194103
  band:
  - # 1
    frequency:   -1.8345792426
  - # 2
    frequency:   -1.8073677253
  - # 3
    frequency:   -0.9757894042
  - # 4
    frequency:   -0.7708026119
  - # 5
    frequency:    0.3406584445
  - # 6
    frequency:    0.8951945248
  - # 7
    frequency:    1.5834023261
  - # 8
    frequency:    4.8401281545
  - # 9
    frequency:    4.9854659698
  - # 10
    frequency:    5.9296842840
  - # 11
    frequency:    7.6657518583
  - # 12
    frequency:    7.7427359563
  - # 13
    frequency:    8.6840505730
  - # 14
    frequency:    8.7420280972
  - # 15
    frequency:    9.2515493939
  - # 16
    frequency:   11.3568993005
  - # 17
    frequency:   13.2372244207
  - # 18
    frequency:   13.3030239546
  - # 19
    frequency:   13.9042236194
  - # 20
    frequency:   17.5333932696
  - # 21
    frequency:   17.5687464987
  - # 22
    frequency:   38.7151774717
  - # 23
    frequency:   61.8133423179
  - # 24
    frequency:   69.3554549149

- q-position: [    0.0606061,    0.0000000,    0.0000000 ]
  distance:    0.0211749
  band:
  - # 1
    frequency:   -1.8327759974
  - # 2
    frequency:   -1.8036980978
  - # 3
    frequency:   -0.9618318560
  - # 4
    frequency:   -0.7141273116
  - # 5
    frequency:    0.3905215434
  - # 6
    frequency:    0.9800100160
  - # 7
    frequency:    1.7288103552
  - # 8
    frequency:    4.8474269818
  - # 9
    frequency:    5.0166288073
  - # 10
    frequency:    5.9247148070
  - # 11
    frequency:    7.6692234684
  - # 12
    frequency:    7.7598293917
  - # 13
    frequency:    8.6831980255
  - # 14
    frequency:    8.7518717531
  - # 15
    frequency:    9.2473697431
  - # 16
    frequency:   11.3225423761
  - # 17
    frequency:   13.2374750588
  - # 18
    frequency:   13.3134203492
  - # 19
    frequency:   13.8961233958
  - # 20
    frequency:   17.5342827576
  - # 21
    frequency:   17.5760981797
  - # 22
    frequency:   38.7143546179
  - # 23
    frequency:   61.8112018338
  - # 24
    frequency:   69.3222360783

- q-position: [    0.0656566,    0.0000000,    0.0000000 ]
  distance:    0.0229395
  band:
  - # 1
    frequency:   -1.8310360008
  - # 2
    frequency:   -1.8005791321
  - # 3
    frequency:   -0.9470357402
  - # 4
    frequency:   -0.6485303801
  - # 5
    frequency:    0.4433755789
  - # 6
    frequency:    1.0652016070
  - # 7
    frequency:    1.8730527076
  - # 8
    frequency:    4.8554723344
  - # 9
    frequency:    5.0493974021
  - # 10
    frequency:    5.9195771771
  - # 11
    frequency:    7.6728710883
  - # 12
    frequency:    7.7779437338
  - # 13
    frequency:    8.6822211312
  - # 14
    frequency:    8.7623934704
  - # 15
    frequency:    9.2431080438
  - # 16
    frequency:   11.2859167367
  - # 17
    frequency:   13.2376075965
  - # 18
    frequency:   13.3238300403
  - # 19
    frequency:   13.8877301674
  - # 20
    frequency:   17.5352372318
  - # 21
    frequency:   17.5839854404
  - # 22
    frequency:   38.7134808482
  - # 23
    frequency:   61.8089029858
  - # 24
    frequency:   69.2865557729

- q-position: [    0.0707071,    0.0000000,    0.0000000 ]
  distance:    0.0247041
  band:
  - # 1
    frequency:   -1.8293913038
  - # 2
    frequency:   -1.7980696693
  - # 3
    frequency:   -0.9313891364
  - # 4
    frequency:   -0.5709229530
  - # 5
    frequency:    0.4990066077
  - # 6
    frequency:    1.1506902876
  - # 7
    frequency:    2.0159036429
  - # 8
    frequency:    4.8642854643
  - # 9
    frequency:    5.0835533128
  - # 10
    frequency:    5.9143403639
  - # 11
    frequency:    7.6766666238
  - # 12
    frequency:    7.7969788567
  - # 13
    frequency:    8.6811107386
  - # 14
    frequency:    8.7735457482
  - # 15
    frequency:    9.2388364368
  - # 16
    frequency:   11.2471669981
  - # 17
    frequency:   13.2375902686
  - # 18
    frequency:   13.3340776387
  - # 19
    frequency:   13.8791364564
  - # 20
    frequency:   17.5362539314
  - # 21
    frequency:   17.5923837607
  - # 22
    frequency:   38.7125608606
  - # 23
    frequency:   61.8064522998
  - # 24
    frequency:   69.2485146387

- q-position: [    0.0757576,    0.0000000,    0.0000000 ]
  distance:    0.0264686
  band:
  - # 1
    frequency:   -1.8278713855
  - # 2
    frequency:   -1.7962126179
  - # 3
    frequency:   -0.9148659006
  - # 4
    frequency:   -0.4754202784
  - # 5
    frequency:    0.5571632163
  - # 6
    frequency:    1.2364002229
  - # 7
    frequency:    2.1571633220
  - # 8
    frequency:    4.8738869203
  - # 9
    frequency:    5.1188772556
  - # 10
    frequency:    5.9090811740
  - # 11
    frequency:    7.6805809177
  - # 12
    frequency:    7.8168323494
  - # 13
    frequency:    8.6798581949
  - # 14
    frequency:    8.7852752314
  - # 15
    frequency:    9.2346340285
  - # 16
    frequency:   11.2064404941
  - # 17
    frequency:   13.2373900456
  - # 18
    frequency:   13.3439881451
  - # 19
    frequency:   13.8704372901
  - # 20
    frequency:   17.5373299977
  - # 21
    frequency:   17.6012672075
  - # 22
    frequency:   38.7115995542
  - # 23
    frequency:   61.8038566649
  - # 24
    frequency:   69.2082189960

- q-position: [    0.0808081,    0.0000000,    0.0000000 ]
  distance:    0.0282332
  band:
  - # 1
    frequency:   -1.8265032225
  - # 2
    frequency:   -1.7950351861
  - # 3
    frequency:   -0.8974276988
  - # 4
    frequency:   -0.3474728983
  - # 5
    frequency:    0.6175590441
  - # 6
    frequency:    1.3222601253
  - # 7
    frequency:    2.2966507242
  - # 8
    frequency:    4.8842961296
  - # 9
    frequency:    5.1551502920
  - # 10
    frequency:    5.9038854035
  - # 11
    frequency:    7.6845839503
  - # 12
    frequency:    7.8374005041
  - # 13
    frequency:    8.6784555628
  - # 14
    frequency:    8.7975218241
  - # 15
    frequency:    9.2305874156
  - # 16
    frequency:   11.1638868629
  - # 17
    frequency:   13.2369729205
  - # 18
    frequency:   13.3533891238
  - # 19
    frequency:   13.8617285554
  - # 20
    frequency:   17.5384624969
  - # 21
    frequency:   17.6106085552
  - # 22
    frequency:   38.7106019942
  - # 23
    frequency:   61.8011232999
  - # 24
    frequency:   69.1657803443

- q-position: [    0.0858586,    0.0000000,    0.0000000 ]
  distance:    0.0299978
  band:
  - # 1
    frequency:   -1.8253114680
  - # 2
    frequency:   -1.7945489467
  - # 3
    frequency:   -0.8790254457
  - # 4
    frequency:   -0.0998556614
  - # 5
    frequency:    0.6798771246
  - # 6
    frequency:    1.4082038080
  - # 7
    frequency:    2.4341978783
  - # 8
    frequency:    4.8955309929
  - # 9
    frequency:    5.1921544537
  - # 10
    frequency:    5.8988493405
  - # 11
    frequency:    7.6886450368
  - # 12
    frequency:    7.8585792931
  - # 13
    frequency:    8.6768958304
  - # 14
    frequency:    8.8102176312
  - # 15
    frequency:    9.2267913170
  - # 16
    frequency:   11.1196577692
  - # 17
    frequency:   13.2363042112
  - # 18
    frequency:   13.3621130824
  - # 19
    frequency:   13.8531050083
  - # 20
    frequency:   17.5396484441
  - # 21
    frequency:   17.6203794132
  - # 22
    frequency:   38.7095733752
  - # 23
    frequency:   61.7982597195
  - # 24
    frequency:   69.1213148392

- q-position: [    0.0909091,    0.0000000,    0.0000000 ]
  distance:    0.0317624
  band:
  - # 1
    frequency:   -1.8243187004
  - # 2
    frequency:   -1.7947500891
  - # 3
    frequency:   -0.8596000410
  - # 4
    frequency:    0.3262896077
  - # 5
    frequency:    0.7437779342
  - # 6
    frequency:    1.4941701818
  - # 7
    frequency:    2.5696452349
  - # 8
    frequency:    4.9076074954
  - # 9
    frequency:    5.2296727247
  - # 10
    frequency:    5.8940817084
  - # 11
    frequency:    7.6927330230
  - # 12
    frequency:    7.8802653262
  - # 13
    frequency:    8.6751731096
  - # 14
    frequency:    8.8232857474
  - # 15
    frequency:    9.2233492884
  - # 16
    frequency:   11.0739067216
  - # 17
    frequency:   13.2353488783
  - # 18
    frequency:   13.3700001136
  - # 19
    frequency:   13.8446579199
  - # 20
    frequency:   17.5408848264
  - # 21
    frequency:   17.6305503601
  - # 22
    frequency:   38.7085189845
  - # 23
    frequency:   61.7952736987
  - # 24
    frequency:   69.0749427518

- q-position: [    0.0959596,    0.0000000,    0.0000000 ]
  distance:    0.0335269
  band:
  - # 1
    frequency:   -1.8235457095
  - # 2
    frequency:   -1.7956201060
  - # 3
    frequency:   -0.8390823562
  - # 4
    frequency:    0.4783701404
  - # 5
    frequency:    0.8089123151
  - # 6
    frequency:    1.5801029090
  - # 7
    frequency:    2.7028379560
  - # 8
    frequency:    4.9205393425
  - # 9
    frequency:    5.2674882797
  - # 10
    frequency:    5.8897061668
  - # 11
    frequency:    7.6968164764
  - # 12
    frequency:    7.9023567812
  - # 13
    frequency:    8.6732828198
  - # 14
    frequency:    8.8366389568
  - # 15
    frequency:    9.2203744618
  - # 16
    frequency:   11.0267889508
  - # 17
    frequency:   13.2340718526
  - # 18
    frequency:   13.3769008088
  - # 19
    frequency:   13.8364723879
  - # 20
    frequency:   17.5421686251
  - # 21
    frequency:   17.6410910837
  - # 22
    frequency:   38.7074441653
  - # 23
    frequency:   61.7921732373
  - # 24
    frequency:   69.0267879145

- q-position: [    0.1010101,    0.0000000,    0.0000000 ]
  distance:    0.0352915
  band:
  - # 1
    frequency:   -1.8230117919
  - # 2
    frequency:   -1.7971270222
  - # 3
    frequency:   -0.8173924321
  - # 4
    frequency:    0.5978987794
  - # 5
    frequency:    0.8749387919
  - # 6
    frequency:    1.6659498694
  - # 7
    frequency:    2.8336229122
  - # 8
    frequency:    4.9343376220
  - # 9
    frequency:    5.3053828569
  - # 10
    frequency:    5.8858645073
  - # 11
    frequency:    7.7008638778
  - # 12
    frequency:    7.9247542975
  - # 13
    frequency:    8.6712218506
  - # 14
    frequency:    8.8501784668
  - # 15
    frequency:    9.2179901849
  - # 16
    frequency:   10.9784613197
  - # 17
    frequency:   13.2324383738
  - # 18
    frequency:   13.3826793669
  - # 19
    frequency:   13.8286244148
  - # 20
    frequency:   17.5434968380
  - # 21
    frequency:   17.6519705271
  - # 22
    frequency:   38.7063542790
  - # 23
    frequency:   61.7889665230
  - # 24
    frequency:   68.9769771541

- q-position: [    0.1060606,    0.0000000,    0.0000000 ]
  distance:    0.0370561
  band:
  - # 1
    frequency:   -1.8227350382
  - # 2
    frequency:   -1.7992271482
  - # 3
    frequency:   -0.7944378182
  - # 4
    frequency:    0.7019802309
  - # 5
    frequency:    0.9415428569
  - # 6
    frequency:    1.7516625478
  - # 7
    frequency:    2.9618462201
  - # 8
    frequency:    4.9490104998
  - # 9
    frequency:    5.3431341317
  - # 10
    frequency:    5.8827206865
  - # 11
    frequency:    7.7048438110
  - # 12
    frequency:    7.9473618260
  - # 13
    frequency:    8.6689887012
  - # 14
    frequency:    8.8637929007
  - # 15
    frequency:    9.2163303403
  - # 16
    frequency:   10.9290822449
  - # 17
    frequency:   13.2304143333
  - # 18
    frequency:   13.3872167270
  - # 19
    frequency:   13.8211779529
  - # 20
    frequency:   17.5448664997
  - # 21
    frequency:   17.6631570386
  - # 22
    frequency:   38.7052546688
  - # 23
    frequency:   61.7856618951
  - # 24
    frequency:   68.9256397183

- q-position: [    0.1111111,    0.0000000,    0.0000000 ]
  distance:    0.0388207
  band:
  - # 1
    frequency:   -1.8227325968
  - # 2
    frequency:   -1.8018672407
  - # 3
    frequency:   -0.7701109100
  - # 4
    frequency:    0.7969296949
  - # 5
    frequency:    1.0084547023
  - # 6
    frequency:    1.8371954100
  - # 7
    frequency:    3.0873511974
  - # 8
    frequency:    4.9645629511
  - # 9
    frequency:    5.3805119925
  - # 10
    frequency:    5.8804657969
  - # 11
    frequency:    7.7087251554
  - # 12
    frequency:    7.9700874223
  - # 13
    frequency:    8.6665835912
  - # 14
    frequency:    8.8773579076
  - # 15
    frequency:    9.2155389899
  - # 16
    frequency:   10.8788116141
  - # 17
    frequency:   13.2279666213
  - # 18
    frequency:   13.3904134402
  - # 19
    frequency:   13.8141822172
  - # 20
    frequency:   17.5462747009
  - # 21
    frequency:   17.6746185265
  - # 22
    frequency:   38.7041506234
  - # 23
    frequency:   61.7822678069
  - # 24
    frequency:   68.8729066979

- q-position: [    0.1161616,    0.0000000,    0.0000000 ]
  distance:    0.0405852
  band:
  - # 1
    frequency:   -1.8230209062
  - # 2
    frequency:   -1.8049869051
  - # 3
    frequency:   -0.7442850246
  - # 4
    frequency:    0.8858791426
  - # 5
    frequency:    1.0754624487
  - # 6
    frequency:    1.9225053104
  - # 7
    frequency:    3.2099766633
  - # 8
    frequency:    4.9809965304
  - # 9
    frequency:    5.4172737631
  - # 10
    frequency:    5.8793239165
  - # 11
    frequency:    7.7124772830
  - # 12
    frequency:    7.9928439744
  - # 13
    frequency:    8.6640085394
  - # 14
    frequency:    8.8907369055
  - # 15
    frequency:    9.2157688313
  - # 16
    frequency:   10.8278106943
  - # 17
    frequency:   13.2250634734
  - # 18
    frequency:   13.3921919184
  - # 19
    frequency:   13.8076696438
  - # 20
    frequency:   17.5477186058
  - # 21
    frequency:   17.6863226154
  - # 22
    frequency:   38.7030473411
  - # 23
    frequency:   61.7787927901
  - # 24
    frequency:   68.8189104476

- q-position: [    0.1212121,    0.0000000,    0.0000000 ]
  distance:    0.0423498
  band:
  - # 1
    frequency:   -1.8236158925
  - # 2
    frequency:   -1.8085210615
  - # 3
    frequency:   -0.7168087639
  - # 4
    frequency:    0.9706087726
  - # 5
    frequency:    1.1424197929
  - # 6
    frequency:    2.0075509543
  - # 7
    frequency:    3.3295555551
  - # 8
    frequency:    4.9983091836
  - # 9
    frequency:    5.4531587975
  - # 10
    frequency:    5.8795583775
  - # 11
    frequency:    7.7160702606
  - # 12
    frequency:    8.0155498497
  - # 13
    frequency:    8.6612674059
  - # 14
    frequency:    8.9037836138
  - # 15
    frequency:    9.2171778152
  - # 16
    frequency:   10.7762420309
  - # 17
    frequency:   13.2216748122
  - # 18
    frequency:   13.3924976779
  - # 19
    frequency:   13.8016548839
  - # 20
    frequency:   17.5491954679
  - # 21
    frequency:   17.6982368055
  - # 22
    frequency:   38.7019498964
  - # 23
    frequency:   61.7752454174
  - # 24
    frequency:   68.7637840105

- q-position: [    0.1262626,    0.0000000,    0.0000000 ]
  distance:    0.0441144
  band:
  - # 1
    frequency:   -1.8245331291
  - # 2
    frequency:   -1.8124023182
  - # 3
    frequency:   -0.6874979050
  - # 4
    frequency:    1.0521972932
  - # 5
    frequency:    1.2092489837
  - # 6
    frequency:    2.0922924262
  - # 7
    frequency:    3.4459138829
  - # 8
    frequency:    5.0164951035
  - # 9
    frequency:    5.4878836919
  - # 10
    frequency:    5.8814771471
  - # 11
    frequency:    7.7194750627
  - # 12
    frequency:    8.0381294478
  - # 13
    frequency:    8.6583658962
  - # 14
    frequency:    8.9163470399
  - # 15
    frequency:    9.2199232605
  - # 16
    frequency:   10.7242693483
  - # 17
    frequency:   13.2177725827
  - # 18
    frequency:   13.3912992796
  - # 19
    frequency:   13.7961351381
  - # 20
    frequency:   17.5507026436
  - # 21
    frequency:   17.7103286310
  - # 22
    frequency:   38.7008632063
  - # 23
    frequency:   61.7716342674
  - # 24
    frequency:   68.7076605478

- q-position: [    0.1313131,    0.0000000,    0.0000000 ]
  distance:    0.0458790
  band:
  - # 1
    frequency:   -1.8257879600
  - # 2
    frequency:   -1.8165631353
  - # 3
    frequency:   -0.6561235270
  - # 4
    frequency:    1.1313067886
  - # 5
    frequency:    1.2759410384
  - # 6
    frequency:    2.1766907896
  - # 7
    frequency:    3.5588700906
  - # 8
    frequency:    5.0355446287
  - # 9
    frequency:    5.5211408446
  - # 10
    frequency:    5.8854344934
  - # 11
    frequency:    7.7226637937
  - # 12
    frequency:    8.0605136420
  - # 13
    frequency:    8.6553115219
  - # 14
    frequency:    8.9282793308
  - # 15
    frequency:    9.2241530563
  - # 16
    frequency:   10.6720574709
  - # 17
    frequency:   13.2133310749
  - # 18
    frequency:   13.3885868445
  - # 19
    frequency:   13.7910919521
  - # 20
    frequency:   17.5522376036
  - # 21
    frequency:   17.7225658178
  - # 22
    frequency:   38.6997919998
  - # 23
    frequency:   61.7679678892
  - # 24
    frequency:   68.6506727796

- q-position: [    0.1363636,    0.0000000,    0.0000000 ]
  distance:    0.0476435
  band:
  - # 1
    frequency:   -1.8273955874
  - # 2
    frequency:   -1.8209377058
  - # 3
    frequency:   -0.6223941075
  - # 4
    frequency:    1.2083255179
  - # 5
    frequency:    1.3425547084
  - # 6
    frequency:    2.2607077574
  - # 7