nqpoint: 300    
npath: 3      
segment_nqpoint:
- 100
- 100
- 100
labels:
- [ 'G', 'M' ]
- [ 'M', 'K' ]
- [ 'K', 'G' ]
reciprocal_lattice:
- [   0.30788224,   0.17775590,   0.00000000 ] # a*
- [   0.00000000,   0.35551179,   0.00000000 ] # b*
- [   0.00000000,   0.00000000,   0.04059307 ] # c*
natom: 6      
lattice:
- [     3.247995036453981,     0.000000000000000,     0.000000000000000 ] # a
- [    -1.623997518226991,     2.812846212934906,     0.000000000000000 ] # b
- [     0.000000000000000,     0.000000000000000,    24.634744419601049 ] # c
points:
- symbol: Br # 1
  coordinates: [  0.666666984744047,  0.333332985985145,  0.365337664832398 ]
  mass: 79.904000
- symbol: C # 2
  coordinates: [  0.000000000000000,  0.000000000000000,  0.484159657360283 ]
  mass: 12.010700
- symbol: C # 3
  coordinates: [  0.333332985432215,  0.666666983183674,  0.585811619518172 ]
  mass: 12.010700
- symbol: N # 4
  coordinates: [  0.333332985432215,  0.666666983183674,  0.634662335167602 ]
  mass: 14.006700
- symbol: Ti # 5
  coordinates: [  0.333332985432215,  0.666666983183674,  0.440187978153191 ]
  mass: 47.867000
- symbol: Ti # 6
  coordinates: [  0.666666984744047,  0.333332985985145,  0.529633661590960 ]
  mass: 47.867000

phonon:
- q-position: [    0.0000000,    0.0000000,    0.0000000 ]
  distance:    0.0000000
  band:
  - # 1
    frequency:   -1.9615379984
  - # 2
    frequency:   -1.9615379984
  - # 3
    frequency:   -0.0000005096
  - # 4
    frequency:   -0.0000002398
  - # 5
    frequency:    0.0000006050
  - # 6
    frequency:    3.5887362635
  - # 7
    frequency:    3.5887362635
  - # 8
    frequency:    5.2581170361
  - # 9
    frequency:    6.9069035852
  - # 10
    frequency:    6.9069035852
  - # 11
    frequency:    7.7165914419
  - # 12
    frequency:    7.7165914419
  - # 13
    frequency:    9.1345919788
  - # 14
    frequency:   11.5076455586
  - # 15
    frequency:   16.9829967062
  - # 16
    frequency:   17.5304876850
  - # 17
    frequency:   17.5304876850
  - # 18
    frequency:   61.0327078901

- q-position: [    0.0050505,    0.0000000,    0.0000000 ]
  distance:    0.0017955
  band:
  - # 1
    frequency:   -1.9614829245
  - # 2
    frequency:   -1.9607032641
  - # 3
    frequency:    0.0025215974
  - # 4
    frequency:    0.0702063541
  - # 5
    frequency:    0.1196619172
  - # 6
    frequency:    3.5892333947
  - # 7
    frequency:    3.5907410679
  - # 8
    frequency:    5.2574118964
  - # 9
    frequency:    6.9066808261
  - # 10
    frequency:    6.9076467296
  - # 11
    frequency:    7.7167468466
  - # 12
    frequency:    7.7173998741
  - # 13
    frequency:    9.1345377572
  - # 14
    frequency:   11.5069550608
  - # 15
    frequency:   16.9825484726
  - # 16
    frequency:   17.5300742121
  - # 17
    frequency:   17.5304587616
  - # 18
    frequency:   61.0326604638

- q-position: [    0.0101010,    0.0000000,    0.0000000 ]
  distance:    0.0035910
  band:
  - # 1
    frequency:   -1.9613192291
  - # 2
    frequency:   -1.9582043786
  - # 3
    frequency:    0.0100691278
  - # 4
    frequency:    0.1404271157
  - # 5
    frequency:    0.2393076700
  - # 6
    frequency:    3.5907243619
  - # 7
    frequency:    3.5967389126
  - # 8
    frequency:    5.2553062318
  - # 9
    frequency:    6.9060136993
  - # 10
    frequency:    6.9098690354
  - # 11
    frequency:    7.7172120722
  - # 12
    frequency:    7.7198192190
  - # 13
    frequency:    9.1343770008
  - # 14
    frequency:   11.5048847034
  - # 15
    frequency:   16.9812051186
  - # 16
    frequency:   17.5288352011
  - # 17
    frequency:   17.5303708656
  - # 18
    frequency:   61.0325183003

- q-position: [    0.0151515,    0.0000000,    0.0000000 ]
  distance:    0.0053865
  band:
  - # 1
    frequency:   -1.9610514590
  - # 2
    frequency:   -1.9540571142
  - # 3
    frequency:    0.0225915767
  - # 4
    frequency:    0.2106761936
  - # 5
    frequency:    0.3589194549
  - # 6
    frequency:    3.5932078943
  - # 7
    frequency:    3.6066807018
  - # 8
    frequency:    5.2518290226
  - # 9
    frequency:    6.9049056396
  - # 10
    frequency:    6.9135494034
  - # 11
    frequency:    7.7179841667
  - # 12
    frequency:    7.7238316530
  - # 13
    frequency:    9.1341154325
  - # 14
    frequency:   11.5014378931
  - # 15
    frequency:   16.9789706747
  - # 16
    frequency:   17.5267748715
  - # 17
    frequency:   17.5302206343
  - # 18
    frequency:   61.0322817445

- q-position: [    0.0202020,    0.0000000,    0.0000000 ]
  distance:    0.0071821
  band:
  - # 1
    frequency:   -1.9606870861
  - # 2
    frequency:   -1.9482871848
  - # 3
    frequency:    0.0400056603
  - # 4
    frequency:    0.2809665127
  - # 5
    frequency:    0.4784763240
  - # 6
    frequency:    3.5966819019
  - # 7
    frequency:    3.6204865846
  - # 8
    frequency:    5.2470276479
  - # 9
    frequency:    6.9033623177
  - # 10
    frequency:    6.9186535895
  - # 11
    frequency:    7.7190582557
  - # 12
    frequency:    7.7294075789
  - # 13
    frequency:    9.1337625822
  - # 14
    frequency:   11.4966203019
  - # 15
    frequency:   16.9758518238
  - # 16
    frequency:   17.5239002433
  - # 17
    frequency:   17.5300025137
  - # 18
    frequency:   61.0319513706

- q-position: [    0.0252525,    0.0000000,    0.0000000 ]
  distance:    0.0089776
  band:
  - # 1
    frequency:   -1.9602363546
  - # 2
    frequency:   -1.9409294604
  - # 3
    frequency:    0.0621983352
  - # 4
    frequency:    0.3513095556
  - # 5
    frequency:    0.5979529235
  - # 6
    frequency:    3.6011435168
  - # 7
    frequency:    3.6380487408
  - # 8
    frequency:    5.2409665807
  - # 9
    frequency:    6.9013915611
  - # 10
    frequency:    6.9251355063
  - # 11
    frequency:    7.7204276105
  - # 12
    frequency:    7.7365057958
  - # 13
    frequency:    9.1333317717
  - # 14
    frequency:   11.4904398593
  - # 15
    frequency:   16.9718578505
  - # 16
    frequency:   17.5202211182
  - # 17
    frequency:   17.5297088319
  - # 18
    frequency:   61.0315279792

- q-position: [    0.0303030,    0.0000000,    0.0000000 ]
  distance:    0.0107731
  band:
  - # 1
    frequency:   -1.9597120773
  - # 2
    frequency:   -1.9320270011
  - # 3
    frequency:    0.0890299514
  - # 4
    frequency:    0.4217149408
  - # 5
    frequency:    0.7173185439
  - # 6
    frequency:    3.6065891504
  - # 7
    frequency:    3.6592349496
  - # 8
    frequency:    5.2337257056
  - # 9
    frequency:    6.8990032471
  - # 10
    frequency:    6.9329388956
  - # 11
    frequency:    7.7220837379
  - # 12
    frequency:    7.7450737501
  - # 13
    frequency:    9.1328400912
  - # 14
    frequency:   11.4829067406
  - # 15
    frequency:   16.9670005721
  - # 16
    frequency:   17.5157500538
  - # 17
    frequency:   17.5293299005
  - # 18
    frequency:   61.0310125953

- q-position: [    0.0353535,    0.0000000,    0.0000000 ]
  distance:    0.0125686
  band:
  - # 1
    frequency:   -1.9591293898
  - # 2
    frequency:   -1.9216299966
  - # 3
    frequency:    0.1203378024
  - # 4
    frequency:    0.4921900479
  - # 5
    frequency:    0.8365364991
  - # 6
    frequency:    3.6130145655
  - # 7
    frequency:    3.6838926671
  - # 8
    frequency:    5.2253983815
  - # 9
    frequency:    6.8962091714
  - # 10
    frequency:    6.9419992465
  - # 11
    frequency:    7.7240164915
  - # 12
    frequency:    7.7550478779
  - # 13
    frequency:    9.1323083616
  - # 14
    frequency:   11.4740333523
  - # 15
    frequency:   16.9612942529
  - # 16
    frequency:   17.5105023294
  - # 17
    frequency:   17.5288541412
  - # 18
    frequency:   61.0304064647

- q-position: [    0.0404040,    0.0000000,    0.0000000 ]
  distance:    0.0143641
  band:
  - # 1
    frequency:   -1.9585054762
  - # 2
    frequency:   -1.9097946844
  - # 3
    frequency:    0.1559397965
  - # 4
    frequency:    0.5627396933
  - # 5
    frequency:    0.9555638091
  - # 6
    frequency:    3.6204149625
  - # 7
    frequency:    3.7118533245
  - # 8
    frequency:    5.2160893827
  - # 9
    frequency:    6.8930228963
  - # 10
    frequency:    6.9522458251
  - # 11
    frequency:    7.7262142001
  - # 12
    frequency:    7.7663540514
  - # 13
    frequency:    9.1317610790
  - # 14
    frequency:   11.4638343150
  - # 15
    frequency:   16.9547555036
  - # 16
    frequency:   17.5044959048
  - # 17
    frequency:   17.5282682346
  - # 18
    frequency:   61.0297110496

- q-position: [    0.0454545,    0.0000000,    0.0000000 ]
  distance:    0.0161596
  band:
  - # 1
    frequency:   -1.9578592743
  - # 2
    frequency:   -1.8965822798
  - # 3
    frequency:    0.1956380048
  - # 4
    frequency:    0.6333658628
  - # 5
    frequency:    1.0743511236
  - # 6
    frequency:    3.6287850783
  - # 7
    frequency:    3.7429365746
  - # 8
    frequency:    5.2059128495
  - # 9
    frequency:    6.8894595822
  - # 10
    frequency:    6.9636036918
  - # 11
    frequency:    7.7286638075
  - # 12
    frequency:    7.7789081384
  - # 13
    frequency:    9.1312263343
  - # 14
    frequency:   11.4523264420
  - # 15
    frequency:   16.9474031686
  - # 16
    frequency:   17.4977513709
  - # 17
    frequency:   17.5275572890
  - # 18
    frequency:   61.0289280239

- q-position: [    0.0505051,    0.0000000,    0.0000000 ]
  distance:    0.0179551
  band:
  - # 1
    frequency:   -1.9572111746
  - # 2
    frequency:   -1.8820579142
  - # 3
    frequency:    0.2392218934
  - # 4
    frequency:    0.7040674970
  - # 5
    frequency:    1.1928428117
  - # 6
    frequency:    3.6381192972
  - # 7
    frequency:    3.7769542543
  - # 8
    frequency:    5.1949903672
  - # 9
    frequency:    6.8855358086
  - # 10
    frequency:    6.9759955966
  - # 11
    frequency:    7.7313510228
  - # 12
    frequency:    7.7926166841
  - # 13
    frequency:    9.1307357010
  - # 14
    frequency:   11.4395287165
  - # 15
    frequency:   16.9392582026
  - # 16
    frequency:   17.4902918924
  - # 17
    frequency:   17.5267050274
  - # 18
    frequency:   61.0280592675

- q-position: [    0.0555556,    0.0000000,    0.0000000 ]
  distance:    0.0197507
  band:
  - # 1
    frequency:   -1.9565827211
  - # 2
    frequency:   -1.8662895451
  - # 3
    frequency:    0.2864711251
  - # 4
    frequency:    0.7748403307
  - # 5
    frequency:    1.3109771377
  - # 6
    frequency:    3.6484117708
  - # 7
    frequency:    3.8137138786
  - # 8
    frequency:    5.1834492765
  - # 9
    frequency:    6.8812693870
  - # 10
    frequency:    6.9893436700
  - # 11
    frequency:    7.7342604741
  - # 12
    frequency:    7.8073777216
  - # 13
    frequency:    9.1303240805
  - # 14
    frequency:   11.4254622651
  - # 15
    frequency:   16.9303435389
  - # 16
    frequency:   17.4821431433
  - # 17
    frequency:   17.5256939875
  - # 18
    frequency:   61.0271068599

- q-position: [    0.0606061,    0.0000000,    0.0000000 ]
  distance:    0.0215462
  band:
  - # 1
    frequency:   -1.9559963245
  - # 2
    frequency:   -1.8493467788
  - # 3
    frequency:    0.3371578901
  - # 4
    frequency:    0.8456767792
  - # 5
    frequency:    1.4286864580
  - # 6
    frequency:    3.6596565475
  - # 7
    frequency:    3.8530215322
  - # 8
    frequency:    5.1714213033
  - # 9
    frequency:    6.8766791716
  - # 10
    frequency:    7.0035708554
  - # 11
    frequency:    7.7373758653
  - # 12
    frequency:    7.8230817124
  - # 13
    frequency:    9.1300294966
  - # 14
    frequency:   11.4101503288
  - # 15
    frequency:   16.9206839513
  - # 16
    frequency:   17.4733332331
  - # 17
    frequency:   17.5245057348
  - # 18
    frequency:   61.0260730735

- q-position: [    0.0656566,    0.0000000,    0.0000000 ]
  distance:    0.0233417
  band:
  - # 1
    frequency:   -1.9554749928
  - # 2
    frequency:   -1.8312995489
  - # 3
    frequency:    0.3910488039
  - # 4
    frequency:    0.9165658661
  - # 5
    frequency:    1.5458973890
  - # 6
    frequency:    3.6718477079
  - # 7
    frequency:    3.8946840703
  - # 8
    frequency:    5.1590415789
  - # 9
    frequency:    6.8717848703
  - # 10
    frequency:    7.0186020546
  - # 11
    frequency:    7.7406801293
  - # 12
    frequency:    7.8396126190
  - # 13
    frequency:    9.1298928258
  - # 14
    frequency:   11.3936182313
  - # 15
    frequency:   16.9103059108
  - # 16
    frequency:   17.4638926262
  - # 17
    frequency:   17.5231210839
  - # 18
    frequency:   61.0249603658

- q-position: [    0.0707071,    0.0000000,    0.0000000 ]
  distance:    0.0251372
  band:
  - # 1
    frequency:   -1.9550420858
  - # 2
    frequency:   -1.8122166107
  - # 3
    frequency:    0.4479064722
  - # 4
    frequency:    0.9874931859
  - # 5
    frequency:    1.6625309172
  - # 6
    frequency:    3.6849795053
  - # 7
    frequency:    3.9385105688
  - # 8
    frequency:    5.1464481177
  - # 9
    frequency:    6.8666068603
  - # 10
    frequency:    7.0343649836
  - # 11
    frequency:    7.7441555783
  - # 12
    frequency:    7.8568491047
  - # 13
    frequency:    9.1299574508
  - # 14
    frequency:   11.3758933451
  - # 15
    frequency:   16.8992374396
  - # 16
    frequency:   17.4538540518
  - # 17
    frequency:   17.5215203279
  - # 18
    frequency:   61.0237713713

- q-position: [    0.0757576,    0.0000000,    0.0000000 ]
  distance:    0.0269327
  band:
  - # 1
    frequency:   -1.9547210944
  - # 2
    frequency:   -1.7921638514
  - # 3
    frequency:    0.5074908655
  - # 4
    frequency:    1.0584408935
  - # 5
    frequency:    1.7785024393
  - # 6
    frequency:    3.6990465087
  - # 7
    frequency:    3.9843129791
  - # 8
    frequency:    5.1337818216
  - # 9
    frequency:    6.8611660104
  - # 10
    frequency:    7.0507907525
  - # 11
    frequency:    7.7477840469
  - # 12
    frequency:    7.8746658588
  - # 13
    frequency:    9.1302688259
  - # 14
    frequency:   11.3570050543
  - # 15
    frequency:   16.8875079626
  - # 16
    frequency:   17.4432524067
  - # 17
    frequency:   17.5196834719
  - # 18
    frequency:   61.0225088926

- q-position: [    0.0808081,    0.0000000,    0.0000000 ]
  distance:    0.0287282
  band:
  - # 1
    frequency:   -1.9545354471
  - # 2
    frequency:   -1.7712024652
  - # 3
    frequency:    0.5695606627
  - # 4
    frequency:    1.1293877140
  - # 5
    frequency:    1.8937217358
  - # 6
    frequency:    3.7140437469
  - # 7
    frequency:    4.0319059337
  - # 8
    frequency:    5.1211870966
  - # 9
    frequency:    6.8554835126
  - # 10
    frequency:    7.0678141995
  - # 11
    frequency:    7.7515470276
  - # 12
    frequency:    7.8929350393
  - # 13
    frequency:    9.1308739395
  - # 14
    frequency:   11.3369847158
  - # 15
    frequency:   16.8751481575
  - # 16
    frequency:   17.4321246491
  - # 17
    frequency:   17.5175904691
  - # 18
    frequency:   61.0211758913

- q-position: [    0.0858586,    0.0000000,    0.0000000 ]
  distance:    0.0305237
  band:
  - # 1
    frequency:   -1.9545083409
  - # 2
    frequency:   -1.7493870953
  - # 3
    frequency:    0.6338747064
  - # 4
    frequency:    1.2003089676
  - # 5
    frequency:    2.0080928878
  - # 6
    frequency:    3.7299668505
  - # 7
    frequency:    4.0811056197
  - # 8
    frequency:    5.1088132061
  - # 9
    frequency:    6.8495807239
  - # 10
    frequency:    7.0853740116
  - # 11
    frequency:    7.7554257969
  - # 12
    frequency:    7.9115278288
  - # 13
    frequency:    9.1318206649
  - # 14
    frequency:   11.3158656172
  - # 15
    frequency:   16.8621898052
  - # 16
    frequency:   17.4205096841
  - # 17
    frequency:   17.5152214593
  - # 18
    frequency:   61.0197754779

- q-position: [    0.0909091,    0.0000000,    0.0000000 ]
  distance:    0.0323193
  band:
  - # 1
    frequency:   -1.9546625965
  - # 2
    frequency:   -1.7267640901
  - # 3
    frequency:    0.7001936756
  - # 4
    frequency:    1.2711766033
  - # 5
    frequency:    2.1215141571
  - # 6
    frequency:    3.7468121904
  - # 7
    frequency:    4.1317275725
  - # 8
    frequency:    5.0968165429
  - # 9
    frequency:    6.8434790203
  - # 10
    frequency:    7.1034126732
  - # 11
    frequency:    7.7594015324
  - # 12
    frequency:    7.9303160925
  - # 13
    frequency:    9.1331569905
  - # 14
    frequency:   11.2936829328
  - # 15
    frequency:   16.8486656406
  - # 16
    frequency:   17.4084482419
  - # 17
    frequency:   17.5125570048
  - # 18
    frequency:   61.0183109017

- q-position: [    0.0959596,    0.0000000,    0.0000000 ]
  distance:    0.0341148
  band:
  - # 1
    frequency:   -1.9550205324
  - # 2
    frequency:   -1.7033700418
  - # 3
    frequency:    0.7682820106
  - # 4
    frequency:    1.3419592401
  - # 5
    frequency:    2.2338778466
  - # 6
    frequency:    3.7645770086
  - # 7
    frequency:    4.1835831446
  - # 8
    frequency:    5.0853641027
  - # 9
    frequency:    6.8371996637
  - # 10
    frequency:    7.1218762766
  - # 11
    frequency:    7.7634554202
  - # 12
    frequency:    7.9491741302
  - # 13
    frequency:    9.1349301273
  - # 14
    frequency:   11.2704736775
  - # 15
    frequency:   16.8346092044
  - # 16
    frequency:   17.3959827464
  - # 17
    frequency:   17.5095783256
  - # 18
    frequency:   61.0167855403

- q-position: [    0.1010101,    0.0000000,    0.0000000 ]
  distance:    0.0359103
  band:
  - # 1
    frequency:   -1.9556038572
  - # 2
    frequency:   -1.6792307739
  - # 3
    frequency:    0.8379100543
  - # 4
    frequency:    1.4126222122
  - # 5
    frequency:    2.3450701612
  - # 6
    frequency:    3.7832595406
  - # 7
    frequency:    4.2364742484
  - # 8
    frequency:    5.0746385919
  - # 9
    frequency:    6.8307636809
  - # 10
    frequency:    7.1407142301
  - # 11
    frequency:    7.7675687521
  - # 12
    frequency:    7.9679805049
  - # 13
    frequency:    9.1371854979
  - # 14
    frequency:   11.2462766586
  - # 15
    frequency:   16.8200546969
  - # 16
    frequency:   17.3831571774
  - # 17
    frequency:   17.5062675293
  - # 18
    frequency:   61.0152028878

- q-position: [    0.1060606,    0.0000000,    0.0000000 ]
  distance:    0.0377058
  band:
  - # 1
    frequency:   -1.9564335741
  - # 2
    frequency:   -1.6543609047
  - # 3
    frequency:    0.9088563016
  - # 4
    frequency:    1.4831276195
  - # 5
    frequency:    2.4549710868
  - # 6
    frequency:    3.8028591241
  - # 7
    frequency:    4.2901857383
  - # 8
    frequency:    5.0648458305
  - # 9
    frequency:    6.8241917557
  - # 10
    frequency:    7.1598788901
  - # 11
    frequency:    7.7717230149
  - # 12
    frequency:    7.9866199285
  - # 13
    frequency:    9.1399656205
  - # 14
    frequency:   11.2211324257
  - # 15
    frequency:   16.8050368337
  - # 16
    frequency:   17.3700169239
  - # 17
    frequency:   17.5026078365
  - # 18
    frequency:   61.0135665441

- q-position: [    0.1111111,    0.0000000,    0.0000000 ]
  distance:    0.0395013
  band:
  - # 1
    frequency:   -1.9575298960
  - # 2
    frequency:   -1.6287640514
  - # 3
    frequency:    0.9809095977
  - # 4
    frequency:    1.5534343843
  - # 5
    frequency:    2.5634543010
  - # 6
    frequency:    3.8233762915
  - # 7
    frequency:    4.3444744648
  - # 8
    frequency:    5.0562254412
  - # 9
    frequency:    6.8175041345
  - # 10
    frequency:    7.1793251400
  - # 11
    frequency:    7.7758999703
  - # 12
    frequency:    8.0049851763
  - # 13
    frequency:    9.1433089120
  - # 14
    frequency:   11.1950832192
  - # 15
    frequency:   16.7895907048
  - # 16
    frequency:   17.3566086306
  - # 17
    frequency:   17.4985837982
  - # 18
    frequency:   61.0118802027

- q-position: [    0.1161616,    0.0000000,    0.0000000 ]
  distance:    0.0412968
  band:
  - # 1
    frequency:   -1.9589121676
  - # 2
    frequency:   -1.6024336645
  - # 3
    frequency:    1.0538711090
  - # 4
    frequency:    1.6234983163
  - # 5
    frequency:    2.6703871254
  - # 6
    frequency:    3.8448128419
  - # 7
    frequency:    4.3990535820
  - # 8
    frequency:    5.0490662654
  - # 9
    frequency:    6.8107205428
  - # 10
    frequency:    7.1990099317
  - # 11
    frequency:    7.7800817274
  - # 12
    frequency:    8.0229789908
  - # 13
    frequency:    9.1472484455
  - # 14
    frequency:   11.1681729186
  - # 15
    frequency:   16.7737516358
  - # 16
    frequency:   17.3429800366
  - # 17
    frequency:   17.4941815051
  - # 18
    frequency:   61.0101476390

- q-position: [    0.1212121,    0.0000000,    0.0000000 ]
  distance:    0.0430923
  band:
  - # 1
    frequency:   -1.9605987916
  - # 2
    frequency:   -1.5753544042
  - # 3
    frequency:    1.1275559015
  - # 4
    frequency:    1.6932721920
  - # 5
    frequency:    2.7756305267
  - # 6
    frequency:    3.8671718891
  - # 7
    frequency:    4.4535701988
  - # 8
    frequency:    5.0437284337
  - # 9
    frequency:    6.8038601149
  - # 10
    frequency:    7.2188918002
  - # 11
    frequency:    7.7842508074
  - # 12
    frequency:    8.0405159290
  - # 13
    frequency:    9.1518107106
  - # 14
    frequency:   11.1404469900
  - # 15
    frequency:   16.7575550540
  - # 16
    frequency:   17.3291798083
  - # 17
    frequency:   17.4893887861
  - # 18
    frequency:   61.0083726976

- q-position: [    0.1262626,    0.0000000,    0.0000000 ]
  distance:    0.0448879
  band:
  - # 1
    frequency:   -1.9626071591
  - # 2
    frequency:   -1.5475039154
  - # 3
    frequency:    1.2017940042
  - # 4
    frequency:    1.7627058507
  - # 5
    frequency:    2.8790391660
  - # 6
    frequency:    3.8904578793
  - # 7
    frequency:    4.5075742906
  - # 8
    frequency:    5.0406741937
  - # 9
    frequency:    6.7969413339
  - # 10
    frequency:    7.2389303572
  - # 11
    frequency:    7.7883902025
  - # 12
    frequency:    8.0575240969
  - # 13
    frequency:    9.1570144331
  - # 14
    frequency:   11.1119524350
  - # 15
    frequency:   16.7410363569
  - # 16
    frequency:   17.3152573651
  - # 17
    frequency:   17.4841953959
  - # 18
    frequency:   61.0065592804

- q-position: [    0.1313131,    0.0000000,    0.0000000 ]
  distance:    0.0466834
  band:
  - # 1
    frequency:   -1.9649535800
  - # 2
    frequency:   -1.5188548229
  - # 3
    frequency:    1.2764308970
  - # 4
    frequency:    1.8317463160
  - # 5
    frequency:    2.9804614946
  - # 6
    frequency:    3.9146765744
  - # 7
    frequency:    4.5604781494
  - # 8
    frequency:    5.0405082360
  - # 9
    frequency:    6.7899819830
  - # 10
    frequency:    7.2590857667
  - # 11
    frequency:    7.7924834286
  - # 12
    frequency:    8.0739467083
  - # 13
    frequency:    9.1628695168
  - # 14
    frequency:   11.0827377409
  - # 15
    frequency:   16.7242307856
  - # 16
    frequency:   17.3012626999
  - # 17
    frequency:   17.4785931886
  - # 18
    frequency:   61.0047113338

- q-position: [    0.1363636,    0.0000000,    0.0000000 ]
  distance:    0.0484789
  band:
  - # 1
    frequency:   -1.9676532156
  - # 2
    frequency:   -1.4893767662
  - # 3
    frequency:    1.3513274193
  - # 4
    frequency:    1.9003379475
  - # 5
    frequency:    3.0797398899
  - # 6
    frequency:    3.9398349950
  - # 7
    frequency:    4.6115117397
  - # 8
    frequency:    5.0440221705
  - # 9
    frequency:    6.7829991063
  - # 10
    frequency:    7.2793182017
  - # 11
    frequency:    7.7965145724
  - # 12
    frequency:    8.0897434046
  - # 13
    frequency:    9.1693761738
  - # 14
    frequency:   11.0528528347
  - # 15
    frequency:   16.7071733026
  - # 16
    frequency:   17.2872461941
  - # 17
    frequency:   17.4725762769
  - # 18
    frequency:   61.0028328361

- q-position: [    0.1414141,    0.0000000,    0.0000000 ]
  distance:    0.0502744
  band:
  - # 1
    frequency:   -1.9707200120
  - # 2
    frequency:   -1.4590383113
  - # 3
    frequency:    1.4263591543
  - # 4
    frequency:    1.9684226306
  - # 5
    frequency:    3.1767108285
  - # 6
    frequency:    3.9659413173
  - # 7
    frequency:    4.6596964712
  - # 8
    frequency:    5.0522206569
  - # 9
    frequency:    6.7760089798
  - # 10
    frequency:    7.2995872828
  - # 11
    frequency:    7.8004683337
  - # 12
    frequency:    8.1048912755
  - # 13
    frequency:    9.1765243014
  - # 14
    frequency:   11.0223490412
  - # 15
    frequency:   16.6898984735
  - # 16
    frequency:   17.2732584290
  - # 17
    frequency:   17.4661411754
  - # 18
    frequency:   61.0009277852

- q-position: [    0.1464646,    0.0000000,    0.0000000 ]
  distance:    0.0520699
  band:
  - # 1
    frequency:   -1.9741666340
  - # 2
    frequency:   -1.4278086125
  - # 3
    frequency:    1.5014153784
  - # 4
    frequency:    2.0359400123
  - # 5
    frequency:    3.2712050975
  - # 6
    frequency:    3.9930047169
  - # 7
    frequency:    4.7038930215
  - # 8
    frequency:    5.0662735608
  - # 9
    frequency:    6.7690270903
  - # 10
    frequency:    7.3198514983
  - # 11
    frequency:    7.8043300633
  - # 12
    frequency:    8.1193855270
  - # 13
    frequency:    9.1842931539
  - # 14
    frequency:   10.9912790482
  - # 15
    frequency:   16.6724403530
  - # 16
    frequency:   17.2593499921
  - # 17
    frequency:   17.4592869266
  - # 18
    frequency:   60.9990001855

- q-position: [    0.1515152,    0.0000000,    0.0000000 ]
  distance:    0.0538654
  band:
  - # 1
    frequency:   -1.9780044019
  - # 2
    frequency:   -1.3956587382
  - # 3
    frequency:    1.5763976848
  - # 4
    frequency:    2.1028277889
  - # 5
    frequency:    3.3630480701
  - # 6
    frequency:    4.0210351553
  - # 7
    frequency:    4.7430059515
  - # 8
    frequency:    5.0873113795
  - # 9
    frequency:    6.7620681233
  - # 10
    frequency:    7.3400676083
  - # 11
    frequency:    7.8080857964
  - # 12
    frequency:    8.1332397621
  - # 13
    frequency:    9.1926513383
  - # 14
    frequency:   10.9596968794
  - # 15
    frequency:   16.6548323757
  - # 16
    frequency:   17.2455712821
  - # 17
    frequency:   17.4520152077
  - # 18
    frequency:   60.9970540358

- q-position: [    0.1565657,    0.0000000,    0.0000000 ]
  distance:    0.0556609
  band:
  - # 1
    frequency:   -1.9822432299
  - # 2
    frequency:   -1.3625626142
  - # 3
    frequency:    1.6512183947
  - # 4
    frequency:    2.1690220528
  - # 5
    frequency:    3.4520601028
  - # 6
    frequency:    4.0500431030
  - # 7
    frequency:    4.7763629526
  - # 8
    frequency:    5.1160460442
  - # 9
    frequency:    6.7551459583
  - # 10
    frequency:    7.3601900413
  - # 11
    frequency:    7.8117222819
  - # 12
    frequency:    8.1464858493
  - # 13
    frequency:    9.2015571421
  - # 14
    frequency:   10.9276578789
  - # 15
    frequency:   16.6371072507
  - # 16
    frequency:   17.2319723106
  - # 17
    frequency:   17.4443304187
  - # 18
    frequency:   60.9950933169

- q-position: [    0.1616162,    0.0000000,    0.0000000 ]
  distance:    0.0574565
  band:
  - # 1
    frequency:   -1.9868915692
  - # 2
    frequency:   -1.3284975696
  - # 3
    frequency:    1.7257988583
  - # 4
    frequency:    2.2344577043
  - # 5
    frequency:    3.5380571765
  - # 6
    frequency:    4.0800391939
  - # 7
    frequency:    4.8040728895
  - # 8
    frequency:    5.1524128199
  - # 9
    frequency:    6.7482736712
  - # 10
    frequency:    7.3801702949
  - # 11
    frequency:    7.8152270080
  - # 12
    frequency:    8.1591733777
  - # 13
    frequency:    9.2109591765
  - # 14
    frequency:   10.8952187069
  - # 15
    frequency:   16.6192968600
  - # 16
    frequency:   17.2186025035
  - # 17
    frequency:   17.4362397489
  - # 18
    frequency:   60.9931219789

- q-position: [    0.1666667,    0.0000000,    0.0000000 ]
  distance:    0.0592520
  band:
  - # 1
    frequency:   -1.9919563551
  - # 2
    frequency:   -1.2934444936
  - # 3
    frequency:    1.8000677330
  - # 4
    frequency:    2.2990689312
  - # 5
    frequency:    3.6208519925
  - # 6
    frequency:    4.1110338102
  - # 7
    frequency:    4.8270485699
  - # 8
    frequency:    5.1955471648
  - # 9
    frequency:    6.7414635436
  - # 10
    frequency:    7.3999563651
  - # 11
    frequency:    7.8185882234
  - # 12
    frequency:    8.1713687056
  - # 13
    frequency:    9.2207972955
  - # 14
    frequency:   10.8624373523
  - # 15
    frequency:   16.6014321609
  - # 16
    frequency:   17.2055105021
  - # 17
    frequency:   17.4277532220
  - # 18
    frequency:   60.9911439297

- q-position: [    0.1717172,    0.0000000,    0.0000000 ]
  distance:    0.0610475
  band:
  - # 1
    frequency:   -1.9974429608
  - # 2
    frequency:   -1.2573876234
  - # 3
    frequency:    1.8739593040
  - # 4
    frequency:    2.3627897580
  - # 5
    frequency:    3.7002558575
  - # 6
    frequency:    4.1430365965
  - # 7
    frequency:    4.8466620227
  - # 8
    frequency:    5.2441284369
  - # 9
    frequency:    6.7347270777
  - # 10
    frequency:    7.4194922345
  - # 11
    frequency:    7.8217949550
  - # 12
    frequency:    8.1831536231
  - # 13
    frequency:    9.2310037356
  - # 14
    frequency:   10.8293731609
  - # 15
    frequency:   16.5835430911
  - # 16
    frequency:   17.1927439644
  - # 17
    frequency:   17.4188837193
  - # 18
    frequency:   60.9891630231

- q-position: [    0.1767677,    0.0000000,    0.0000000 ]
  distance:    0.0628430
  band:
  - # 1
    frequency:   -2.0033551579
  - # 2
    frequency:   -1.2203139855
  - # 3
    frequency:    1.9474118955
  - # 4
    frequency:    2.4255546627
  - # 5
    frequency:    3.7760818272
  - # 6
    frequency:    4.1760559052
  - # 7
    frequency:    4.8643347662
  - # 8
    frequency:    5.2967874963
  - # 9
    frequency:    6.7280750174
  - # 10
    frequency:    7.4387174651
  - # 11
    frequency:    7.8248370213
  - # 12
    frequency:    8.1946236463
  - # 13
    frequency:    9.2415044059
  - # 14