nqpoint: 300    
npath: 3      
segment_nqpoint:
- 100
- 100
- 100
labels:
- [ 'G', 'M' ]
- [ 'M', 'K' ]
- [ 'K', 'G' ]
reciprocal_lattice:
- [   0.30788224,   0.17775590,   0.00000000 ] # a*
- [   0.00000000,   0.35551179,   0.00000000 ] # b*
- [   0.00000000,   0.00000000,   0.04059307 ] # c*
natom: 6      
lattice:
- [     3.247995036453981,     0.000000000000000,     0.000000000000000 ] # a
- [    -1.623997518226991,     2.812846212934906,     0.000000000000000 ] # b
- [     0.000000000000000,     0.000000000000000,    24.634744419601049 ] # c
points:
- symbol: Br # 1
  coordinates: [  0.666666984744047,  0.333332985985145,  0.365337664832398 ]
  mass: 79.904000
- symbol: C # 2
  coordinates: [  0.000000000000000,  0.000000000000000,  0.484159657360283 ]
  mass: 12.010700
- symbol: C # 3
  coordinates: [  0.333332985432215,  0.666666983183674,  0.585811619518172 ]
  mass: 12.010700
- symbol: N # 4
  coordinates: [  0.333332985432215,  0.666666983183674,  0.634662335167602 ]
  mass: 14.006700
- symbol: Ti # 5
  coordinates: [  0.333332985432215,  0.666666983183674,  0.440187978153191 ]
  mass: 47.867000
- symbol: Ti # 6
  coordinates: [  0.666666984744047,  0.333332985985145,  0.529633661590960 ]
  mass: 47.867000

phonon:
- q-position: [    0.0000000,    0.0000000,    0.0000000 ]
  distance:    0.0000000
  band:
  - # 1
    frequency:   -2.0705430121
  - # 2
    frequency:   -2.0705430121
  - # 3
    frequency:   -0.0000004855
  - # 4
    frequency:    0.0000001973
  - # 5
    frequency:    0.0000002217
  - # 6
    frequency:    3.5975007781
  - # 7
    frequency:    3.5975007781
  - # 8
    frequency:    5.1934524806
  - # 9
    frequency:    6.7836684744
  - # 10
    frequency:    6.7836684744
  - # 11
    frequency:    7.5989761075
  - # 12
    frequency:    7.5989761075
  - # 13
    frequency:    9.1037666419
  - # 14
    frequency:   11.3163149412
  - # 15
    frequency:   16.8758777464
  - # 16
    frequency:   17.0575558460
  - # 17
    frequency:   17.0575558460
  - # 18
    frequency:   61.0286995980

- q-position: [    0.0050505,    0.0000000,    0.0000000 ]
  distance:    0.0017955
  band:
  - # 1
    frequency:   -2.0701174534
  - # 2
    frequency:   -2.0693672109
  - # 3
    frequency:   -0.1239182744
  - # 4
    frequency:    0.0844122833
  - # 5
    frequency:    0.1721460183
  - # 6
    frequency:    3.5982473355
  - # 7
    frequency:    3.5995485803
  - # 8
    frequency:    5.1930769031
  - # 9
    frequency:    6.7836334350
  - # 10
    frequency:    6.7845708492
  - # 11
    frequency:    7.5995505339
  - # 12
    frequency:    7.6000576084
  - # 13
    frequency:    9.1037993391
  - # 14
    frequency:   11.3160595736
  - # 15
    frequency:   16.8756407379
  - # 16
    frequency:   17.0583453564
  - # 17
    frequency:   17.0586103313
  - # 18
    frequency:   61.0286630080

- q-position: [    0.0101010,    0.0000000,    0.0000000 ]
  distance:    0.0035910
  band:
  - # 1
    frequency:   -2.0688461810
  - # 2
    frequency:   -2.0658471963
  - # 3
    frequency:   -0.1532641100
  - # 4
    frequency:    0.1687788619
  - # 5
    frequency:    0.2840588830
  - # 6
    frequency:    3.6004845880
  - # 7
    frequency:    3.6056717725
  - # 8
    frequency:    5.1919565881
  - # 9
    frequency:    6.7835288127
  - # 10
    frequency:    6.7872708691
  - # 11
    frequency:    7.6012688382
  - # 12
    frequency:    7.6032936006
  - # 13
    frequency:    9.1038988175
  - # 14
    frequency:   11.3152918575
  - # 15
    frequency:   16.8749322539
  - # 16
    frequency:   17.0607065588
  - # 17
    frequency:   17.0617621685
  - # 18
    frequency:   61.0285532769

- q-position: [    0.0151515,    0.0000000,    0.0000000 ]
  distance:    0.0053865
  band:
  - # 1
    frequency:   -2.0667452535
  - # 2
    frequency:   -2.0600048925
  - # 3
    frequency:   -0.1690831942
  - # 4
    frequency:    0.2530532363
  - # 5
    frequency:    0.3969932593
  - # 6
    frequency:    3.6042053028
  - # 7
    frequency:    3.6158105561
  - # 8
    frequency:    5.1901105844
  - # 9
    frequency:    6.7833560551
  - # 10
    frequency:    6.7917474439
  - # 11
    frequency:    7.6041161773
  - # 12
    frequency:    7.6086586303
  - # 13
    frequency:    9.1040692362
  - # 14
    frequency:   11.3140069681
  - # 15
    frequency:   16.8737593280
  - # 16
    frequency:   17.0646175394
  - # 17
    frequency:   17.0669771842
  - # 18
    frequency:   61.0283705216

- q-position: [    0.0202020,    0.0000000,    0.0000000 ]
  distance:    0.0071821
  band:
  - # 1
    frequency:   -2.0638409380
  - # 2
    frequency:   -2.0518760610
  - # 3
    frequency:   -0.1795797787
  - # 4
    frequency:    0.3371873838
  - # 5
    frequency:    0.5122250988
  - # 6
    frequency:    3.6093975132
  - # 7
    frequency:    3.6298679973
  - # 8
    frequency:    5.1875699778
  - # 9
    frequency:    6.7831174439
  - # 10
    frequency:    6.7979661505
  - # 11
    frequency:    7.6080680821
  - # 12
    frequency:    7.6161105327
  - # 13
    frequency:    9.1043175242
  - # 14
    frequency:   11.3121969169
  - # 15
    frequency:   16.8721319419
  - # 16
    frequency:   17.0700420177
  - # 17
    frequency:   17.0742004651
  - # 18
    frequency:   61.0281149373

- q-position: [    0.0252525,    0.0000000,    0.0000000 ]
  distance:    0.0089776
  band:
  - # 1
    frequency:   -2.0601689980
  - # 2
    frequency:   -2.0415092287
  - # 3
    frequency:   -0.1863130409
  - # 4
    frequency:    0.4211311554
  - # 5
    frequency:    0.6291066985
  - # 6
    frequency:    3.6160446494
  - # 7
    frequency:    3.6477138549
  - # 8
    frequency:    5.1843769571
  - # 9
    frequency:    6.7828159101
  - # 10
    frequency:    6.8058802635
  - # 11
    frequency:    7.6130908495
  - # 12
    frequency:    7.6255908223
  - # 13
    frequency:    9.1046533754
  - # 14
    frequency:   11.3098506318
  - # 15
    frequency:   16.8700610836
  - # 16
    frequency:   17.0769297068
  - # 17
    frequency:   17.0833587485
  - # 18
    frequency:   61.0277867988

- q-position: [    0.0303030,    0.0000000,    0.0000000 ]
  distance:    0.0107731
  band:
  - # 1
    frequency:   -2.0557737653
  - # 2
    frequency:   -2.0289643644
  - # 3
    frequency:   -0.1886881843
  - # 4
    frequency:    0.5048318484
  - # 5
    frequency:    0.7470316032
  - # 6
    frequency:    3.6241257172
  - # 7
    frequency:    3.6691894401
  - # 8
    frequency:    5.1805836156
  - # 9
    frequency:    6.7824547947
  - # 10
    frequency:    6.8154320860
  - # 11
    frequency:    7.6191420667
  - # 12
    frequency:    7.6370252420
  - # 13
    frequency:    9.1050892359
  - # 14
    frequency:   11.3069540682
  - # 15
    frequency:   16.8675569866
  - # 16
    frequency:   17.0852168118
  - # 17
    frequency:   17.0943628024
  - # 18
    frequency:   61.0273864613

- q-position: [    0.0353535,    0.0000000,    0.0000000 ]
  distance:    0.0125686
  band:
  - # 1
    frequency:   -2.0507070514
  - # 2
    frequency:   -2.0143114400
  - # 3
    frequency:   -0.1850365499
  - # 4
    frequency:    0.5882339850
  - # 5
    frequency:    0.8655785414
  - # 6
    frequency:    3.6336155230
  - # 7
    frequency:    3.6941131080
  - # 8
    frequency:    5.1762505844
  - # 9
    frequency:    6.7820375730
  - # 10
    frequency:    6.8265544873
  - # 11
    frequency:    7.6261712492
  - # 12
    frequency:    7.6503244722
  - # 13
    frequency:    9.1056402825
  - # 14
    frequency:   11.3034903532
  - # 15
    frequency:   16.8646279125
  - # 16
    frequency:   17.0948266600
  - # 17
    frequency:   17.1071094242
  - # 18
    frequency:   61.0269143625

- q-position: [    0.0404040,    0.0000000,    0.0000000 ]
  distance:    0.0143641
  band:
  - # 1
    frequency:   -2.0450269659
  - # 2
    frequency:   -1.9976290079
  - # 3
    frequency:   -0.1725342208
  - # 4
    frequency:    0.6712793139
  - # 5
    frequency:    0.9844563295
  - # 6
    frequency:    3.6444849401
  - # 7
    frequency:    3.7222859652
  - # 8
    frequency:    5.1714456008
  - # 9
    frequency:    6.7815675617
  - # 10
    frequency:    6.8391725465
  - # 11
    frequency:    7.6341205675
  - # 12
    frequency:    7.6653850011
  - # 13
    frequency:    9.1063243854
  - # 14
    frequency:   11.2994399611
  - # 15
    frequency:   16.8612795650
  - # 16
    frequency:   17.1056704556
  - # 17
    frequency:   17.1214829612
  - # 18
    frequency:   61.0263710239

- q-position: [    0.0454545,    0.0000000,    0.0000000 ]
  distance:    0.0161596
  band:
  - # 1
    frequency:   -2.0387967069
  - # 2
    frequency:   -1.9790028952
  - # 3
    frequency:   -0.1457539170
  - # 4
    frequency:    0.7539070287
  - # 5
    frequency:    1.1034515592
  - # 6
    frequency:    3.6567012123
  - # 7
    frequency:    3.7534974196
  - # 8
    frequency:    5.1662421146
  - # 9
    frequency:    6.7810476276
  - # 10
    frequency:    6.8532052065
  - # 11
    frequency:    7.6429256385
  - # 12
    frequency:    7.6820901523
  - # 13
    frequency:    9.1071620488
  - # 14
    frequency:   11.2947809217
  - # 15
    frequency:   16.8575150212
  - # 16
    frequency:   17.1176481493
  - # 17
    frequency:   17.1373564532
  - # 18
    frequency:   61.0257570536

- q-position: [    0.0505051,    0.0000000,    0.0000000 ]
  distance:    0.0179551
  band:
  - # 1
    frequency:   -2.0320833824
  - # 2
    frequency:   -1.9585250660
  - # 3
    frequency:   -0.0875568167
  - # 4
    frequency:    0.8360541846
  - # 5
    frequency:    1.2223957283
  - # 6
    frequency:    3.6702282890
  - # 7
    frequency:    3.7875302640
  - # 8
    frequency:    5.1607180312
  - # 9
    frequency:    6.7804799164
  - # 10
    frequency:    6.8685668576
  - # 11
    frequency:    7.6525163610
  - # 12
    frequency:    7.7003112655
  - # 13
    frequency:    9.1081763223
  - # 14
    frequency:   11.2894890593
  - # 15
    frequency:   16.8533349970
  - # 16
    frequency:   17.1306494138
  - # 17
    frequency:   17.1545925692
  - # 18
    frequency:   61.0250731482

- q-position: [    0.0555556,    0.0000000,    0.0000000 ]
  distance:    0.0197507
  band:
  - # 1
    frequency:   -2.0249569145
  - # 2
    frequency:   -1.9362926519
  - # 3
    frequency:    0.1094890203
  - # 4
    frequency:    0.9176562768
  - # 5
    frequency:    1.3411460645
  - # 6
    frequency:    3.6850271874
  - # 7
    frequency:    3.8241650689
  - # 8
    frequency:    5.1549546747
  - # 9
    frequency:    6.7798656143
  - # 10
    frequency:    6.8851687858
  - # 11
    frequency:    7.6628177703
  - # 12
    frequency:    7.7199090218
  - # 13
    frequency:    9.1093926725
  - # 14
    frequency:   11.2835382625
  - # 15
    frequency:   16.8487382702
  - # 16
    frequency:   17.1445547123
  - # 17
    frequency:   17.1730444972
  - # 18
    frequency:   61.0243200958

- q-position: [    0.0606061,    0.0000000,    0.0000000 ]
  distance:    0.0215462
  band:
  - # 1
    frequency:   -2.0174890609
  - # 2
    frequency:   -1.9124070920
  - # 3
    frequency:    0.1968130084
  - # 4
    frequency:    0.9986479378
  - # 5
    frequency:    1.4595744504
  - # 6
    frequency:    3.7010563756
  - # 7
    frequency:    3.8631837417
  - # 8
    frequency:    5.1490360453
  - # 9
    frequency:    6.7792047553
  - # 10
    frequency:    6.9029204438
  - # 11
    frequency:    7.6737508990
  - # 12
    frequency:    7.7407349027
  - # 13
    frequency:    9.1108388053
  - # 14
    frequency:   11.2769007824
  - # 15
    frequency:   16.8437221403
  - # 16
    frequency:   17.1592364497
  - # 17
    frequency:   17.1925568961
  - # 18
    frequency:   61.0234987789

- q-position: [    0.0656566,    0.0000000,    0.0000000 ]
  distance:    0.0233417
  band:
  - # 1
    frequency:   -2.0097525775
  - # 2
    frequency:   -1.8869732812
  - # 3
    frequency:    0.2712339542
  - # 4
    frequency:    1.0789637065
  - # 5
    frequency:    1.5775609649
  - # 6
    frequency:    3.7182721708
  - # 7
    frequency:    3.9043721761
  - # 8
    frequency:    5.1430484324
  - # 9
    frequency:    6.7784960819
  - # 10
    frequency:    6.9217305225
  - # 11
    frequency:    7.6852336246
  - # 12
    frequency:    7.7626327726
  - # 13
    frequency:    9.1125444254
  - # 14
    frequency:   11.2695475594
  - # 15
    frequency:   16.8382828554
  - # 16
    frequency:   17.1745601920
  - # 17
    frequency:   17.2129669601
  - # 18
    frequency:   61.0226101772

- q-position: [    0.0707071,    0.0000000,    0.0000000 ]
  distance:    0.0251372
  band:
  - # 1
    frequency:   -2.0018205280
  - # 2
    frequency:   -1.8600986024
  - # 3
    frequency:    0.3426838432
  - # 4
    frequency:    1.1585388198
  - # 5
    frequency:    1.6949900406
  - # 6
    frequency:    3.7366291484
  - # 7
    frequency:    3.9475219682
  - # 8
    frequency:    5.1370804400
  - # 9
    frequency:    6.7777369613
  - # 10
    frequency:    6.9415078187
  - # 11
    frequency:    7.6971814967
  - # 12
    frequency:    7.7854405706
  - # 13
    frequency:    9.1145409225
  - # 14
    frequency:   11.2614485731
  - # 15
    frequency:   16.8324159781
  - # 16
    frequency:   17.1903859424
  - # 17
    frequency:   17.2341056101
  - # 18
    frequency:   61.0216553709

- q-position: [    0.0757576,    0.0000000,    0.0000000 ]
  distance:    0.0269327
  band:
  - # 1
    frequency:   -1.9937657362
  - # 2
    frequency:   -1.8318917158
  - # 3
    frequency:    0.4137801371
  - # 4
    frequency:    1.2373099866
  - # 5
    frequency:    1.8117480982
  - # 6
    frequency:    3.7560805543
  - # 7
    frequency:    3.9924312030
  - # 8
    frequency:    5.1312234788
  - # 9
    frequency:    6.7769233594
  - # 10
    frequency:    6.9621619078
  - # 11
    frequency:    7.7095085325
  - # 12
    frequency:    7.8089921011
  - # 13
    frequency:    9.1168609692
  - # 14
    frequency:   11.2525732152
  - # 15
    frequency:   16.8261166860
  - # 16
    frequency:   17.2065694596
  - # 17
    frequency:   17.2557987996
  - # 18
    frequency:   61.0206355441

- q-position: [    0.0808081,    0.0000000,    0.0000000 ]
  distance:    0.0287282
  band:
  - # 1
    frequency:   -1.9856603655
  - # 2
    frequency:   -1.8024610119
  - # 3
    frequency:    0.4855124825
  - # 4
    frequency:    1.3152161059
  - # 5
    frequency:    1.9277220125
  - # 6
    frequency:    3.7765787182
  - # 7
    frequency:    4.0389043173
  - # 8
    frequency:    5.1255727900
  - # 9
    frequency:    6.7760498700
  - # 10
    frequency:    6.9836036425
  - # 11
    frequency:    7.7221279776
  - # 12
    frequency:    7.8331189108
  - # 13
    frequency:    9.1195380190
  - # 14
    frequency:   11.2428906802
  - # 15
    frequency:   16.8193800141
  - # 16
    frequency:   17.2229636052
  - # 17
    frequency:   17.2778689097
  - # 18
    frequency:   61.0195519873

- q-position: [    0.0858586,    0.0000000,    0.0000000 ]
  distance:    0.0305237
  band:
  - # 1
    frequency:   -1.9775756049
  - # 2
    frequency:   -1.7719126930
  - # 3
    frequency:    0.5582798726
  - # 4
    frequency:    1.3921989059
  - # 5
    frequency:    2.0427980385
  - # 6
    frequency:    3.7980754609
  - # 7
    frequency:    4.0867510342
  - # 8
    frequency:    5.1202290817
  - # 9
    frequency:    6.7751097945
  - # 10
    frequency:    7.0057455004
  - # 11
    frequency:    7.7349530261
  - # 12
    frequency:    7.8576522419
  - # 13
    frequency:    9.1226056951
  - # 14
    frequency:   11.2323703715
  - # 15
    frequency:   16.8122010537
  - # 16
    frequency:   17.2394197064
  - # 17
    frequency:   17.3001362082
  - # 18
    frequency:   61.0184061017

- q-position: [    0.0909091,    0.0000000,    0.0000000 ]
  distance:    0.0323193
  band:
  - # 1
    frequency:   -1.9695814365
  - # 2
    frequency:   -1.7403485345
  - # 3
    frequency:    0.6322128921
  - # 4
    frequency:    1.4682034836
  - # 5
    frequency:    2.1568609939
  - # 6
    frequency:    3.8205224926
  - # 7
    frequency:    4.1357843249
  - # 8
    frequency:    5.1153008937
  - # 9
    frequency:    6.7740952675
  - # 10
    frequency:    7.0285018081
  - # 11
    frequency:    7.7478974998
  - # 12
    frequency:    7.8824250502
  - # 13
    frequency:    9.1260970621
  - # 14
    frequency:   11.2209823171
  - # 15
    frequency:   16.8045751167
  - # 16
    frequency:   17.2557889221
  - # 17
    frequency:   17.3224203423
  - # 18
    frequency:   61.0171994010

- q-position: [    0.0959596,    0.0000000,    0.0000000 ]
  distance:    0.0341148
  band:
  - # 1
    frequency:   -1.9617464599
  - # 2
    frequency:   -1.7078634683
  - # 3
    frequency:    0.7073029943
  - # 4
    frequency:    1.5431787397
  - # 5
    frequency:    2.2697935831
  - # 6
    frequency:    3.8438717979
  - # 7
    frequency:    4.1858173020
  - # 8
    frequency:    5.1109078464
  - # 9
    frequency:    6.7729974215
  - # 10
    frequency:    7.0517888681
  - # 11
    frequency:    7.7608764842
  - # 12
    frequency:    7.9072740752
  - # 13
    frequency:    9.1300437796
  - # 14
    frequency:   11.2086975919
  - # 15
    frequency:   16.7964978790
  - # 16
    frequency:   17.2719235981
  - # 17
    frequency:   17.3445418431
  - # 18
    frequency:   61.0159335153

- q-position: [    0.1010101,    0.0000000,    0.0000000 ]
  distance:    0.0359103
  band:
  - # 1
    frequency:   -1.9541377488
  - # 2
    frequency:   -1.6745432179
  - # 3
    frequency:    0.7834636971
  - # 4
    frequency:    1.6170777043
  - # 5
    frequency:    2.3814758093
  - # 6
    frequency:    3.8680760042
  - # 7
    frequency:    4.2366588743
  - # 8
    frequency:    5.1071849953
  - # 9
    frequency:    6.7718065830
  - # 10
    frequency:    7.0755250106
  - # 11
    frequency:    7.7738069222
  - # 12
    frequency:    7.9320419459
  - # 13
    frequency:    9.1344751448
  - # 14
    frequency:   11.1954887419
  - # 15
    frequency:   16.7879655092
  - # 16
    frequency:   17.2876786007
  - # 17
    frequency:   17.3663236171
  - # 18
    frequency:   61.0146101930

- q-position: [    0.1060606,    0.0000000,    0.0000000 ]
  distance:    0.0377058
  band:
  - # 1
    frequency:   -1.9468207216
  - # 2
    frequency:   -1.6404622640
  - # 3
    frequency:    0.8605635189
  - # 4
    frequency:    1.6898577612
  - # 5
    frequency:    2.4917844483
  - # 6
    frequency:    3.8930887307
  - # 7
    frequency:    4.2881079091
  - # 8
    frequency:    5.1042885832
  - # 9
    frequency:    6.7705124946
  - # 10
    frequency:    7.0996305903
  - # 11
    frequency:    7.7866081635
  - # 12
    frequency:    7.9565792996
  - # 13
    frequency:    9.1394170392
  - # 14
    frequency:   11.1813302051
  - # 15
    frequency:   16.7789747890
  - # 16
    frequency:   17.3029126164
  - # 17
    frequency:   17.3875924102
  - # 18
    frequency:   61.0132313038

- q-position: [    0.1111111,    0.0000000,    0.0000000 ]
  distance:    0.0395013
  band:
  - # 1
    frequency:   -1.9398590074
  - # 2
    frequency:   -1.6056824176
  - # 3
    frequency:    0.9384457815
  - # 4
    frequency:    1.7614807764
  - # 5
    frequency:    2.6005925807
  - # 6
    frequency:    3.9188649153
  - # 7
    frequency:    4.3399455623
  - # 8
    frequency:    5.1024035588
  - # 9
    frequency:    6.7691045548
  - # 10
    frequency:    7.1240279447
  - # 11
    frequency:    7.7992024725
  - # 12
    frequency:    7.9807468805
  - # 13
    frequency:    9.1448908087
  - # 14
    frequency:   11.1661987252
  - # 15
    frequency:   16.7695232288
  - # 16
    frequency:   17.3174894070
  - # 17
    frequency:   17.4081802236
  - # 18
    frequency:   61.0117988398

- q-position: [    0.1161616,    0.0000000,    0.0000000 ]
  distance:    0.0412968
  band:
  - # 1
    frequency:   -1.9333142978
  - # 2
    frequency:   -1.5702522169
  - # 3
    frequency:    1.0169416816
  - # 4
    frequency:    1.8319131434
  - # 5
    frequency:    2.7077691864
  - # 6
    frequency:    3.9453611166
  - # 7
    frequency:    4.3919253866
  - # 8
    frequency:    5.1017532700
  - # 9
    frequency:    6.7675720702
  - # 10
    frequency:    7.1486413239
  - # 11
    frequency:    7.8115154916
  - # 12
    frequency:    8.0044175806
  - # 13
    frequency:    9.1509121147
  - # 14
    frequency:   11.1500737547
  - # 15
    frequency:   16.7596091816
  - # 16
    frequency:   17.3312790105
  - # 17
    frequency:   17.4279256731
  - # 18
    frequency:   61.0103149178

- q-position: [    0.1212121,    0.0000000,    0.0000000 ]
  distance:    0.0430923
  band:
  - # 1
    frequency:   -1.9272461741
  - # 2
    frequency:   -1.5342072531
  - # 3
    frequency:    1.0958795011
  - # 4
    frequency:    1.9011257568
  - # 5
    frequency:    2.8131788089
  - # 6
    frequency:    3.9725357911
  - # 7
    frequency:    4.4437609098
  - # 8
    frequency:    5.1026116522
  - # 9
    frequency:    6.7659045143
  - # 10
    frequency:    7.1733968008
  - # 11
    frequency:    7.8234766633
  - # 12
    frequency:    8.0274783678
  - # 13
    frequency:    9.1574898107
  - # 14
    frequency:   11.1329378423
  - # 15
    frequency:   16.7492319546
  - # 16
    frequency:   17.3441588784
  - # 17
    frequency:   17.4466752770
  - # 18
    frequency:   61.0087817797

- q-position: [    0.1262626,    0.0000000,    0.0000000 ]
  distance:    0.0448879
  band:
  - # 1
    frequency:   -1.9217119078
  - # 2
    frequency:   -1.4975713945
  - # 3
    frequency:    1.1750912707
  - # 4
    frequency:    1.9690939265
  - # 5
    frequency:    2.9166812992
  - # 6
    frequency:    4.0003495410
  - # 7
    frequency:    4.4951107922
  - # 8
    frequency:    5.1053178093
  - # 9
    frequency:    6.7640917864
  - # 10
    frequency:    7.1982221674
  - # 11
    frequency:    7.8350196086
  - # 12
    frequency:    8.0498320438
  - # 13
    frequency:    9.1646249042
  - # 14
    frequency:   11.1147770022
  - # 15
    frequency:   16.7383919204
  - # 16
    frequency:   17.3560149405
  - # 17
    frequency:   17.4642846648
  - # 18
    frequency:   61.0072017930

- q-position: [    0.1313131,    0.0000000,    0.0000000 ]
  distance:    0.0466834
  band:
  - # 1
    frequency:   -1.9167662316
  - # 2
    frequency:   -1.4603587547
  - # 3
    frequency:    1.2544175058
  - # 4
    frequency:    2.0357972440
  - # 5
    frequency:    3.0181316480
  - # 6
    frequency:    4.0287653346
  - # 7
    frequency:    4.5455628366
  - # 8
    frequency:    5.1102917200
  - # 9
    frequency:    6.7621244672
  - # 10
    frequency:    7.2230468191
  - # 11
    frequency:    7.8460824623
  - # 12
    frequency:    8.0713987644
  - # 13
    frequency:    9.1723096729
  - # 14
    frequency:   11.0955810629
  - # 15
    frequency:   16.7270906264
  - # 16
    frequency:   17.3667425907
  - # 17
    frequency:   17.4806196971
  - # 18
    frequency:   61.0055774507

- q-position: [    0.1363636,    0.0000000,    0.0000000 ]
  distance:    0.0484789
  band:
  - # 1
    frequency:   -1.9124610847
  - # 2
    frequency:   -1.4225761601
  - # 3
    frequency:    1.3337103410
  - # 4
    frequency:    2.1012194109
  - # 5
    frequency:    3.1173799115
  - # 6
    frequency:    4.0577486953
  - # 7
    frequency:    4.5946207105
  - # 8
    frequency:    5.1180472097
  - # 9
    frequency:    6.7599940662
  - # 10
    frequency:    7.2478016296
  - # 11
    frequency:    7.8566081664
  - # 12
    frequency:    8.0921172574
  - # 13
    frequency:    9.1805270019
  - # 14
    frequency:   11.0753439922
  - # 15
    frequency:   16.7153309016
  - # 16
    frequency:   17.3762475859
  - # 17
    frequency:   17.4955574923
  - # 18
    frequency:   61.0039113697

- q-position: [    0.1414141,    0.0000000,    0.0000000 ]
  distance:    0.0502744
  band:
  - # 1
    frequency:   -1.9088453335
  - # 2
    frequency:   -1.3842258369
  - # 3
    frequency:    1.4128352983
  - # 4
    frequency:    2.1653480400
  - # 5
    frequency:    3.2142712368
  - # 6
    frequency:    4.0872678598
  - # 7
    frequency:    4.6417019338
  - # 8
    frequency:    5.1291936371
  - # 9
    frequency:    6.7576932568
  - # 10
    frequency:    7.2724188177
  - # 11
    frequency:    7.8665447194
  - # 12
    frequency:    8.1119456784
  - # 13
    frequency:    9.1892500015
  - # 14
    frequency:   11.0540641978
  - # 15
    frequency:   16.7031169595
  - # 16
    frequency:   17.3844468535
  - # 17
    frequency:   17.5089873502
  - # 18
    frequency:   61.0022062896

- q-position: [    0.1464646,    0.0000000,    0.0000000 ]
  distance:    0.0520699
  band:
  - # 1
    frequency:   -1.9059644763
  - # 2
    frequency:   -1.3453080505
  - # 3
    frequency:    1.4916719091
  - # 4
    frequency:    2.2281744360
  - # 5
    frequency:    3.3086459946
  - # 6
    frequency:    4.1172939046
  - # 7
    frequency:    4.6861619664
  - # 8
    frequency:    5.1444114564
  - # 9
    frequency:    6.7552160966
  - # 10
    frequency:    7.2968318058
  - # 11
    frequency:    7.8758453838
  - # 12
    frequency:    8.1308620561
  - # 13
    frequency:    9.1984419535
  - # 14
    frequency:   11.0317448029
  - # 15
    frequency:   16.6904544953
  - # 16
    frequency:   17.3912692010
  - # 17
    frequency:   17.5208115714
  - # 18
    frequency:   61.0004650698

- q-position: [    0.1515152,    0.0000000,    0.0000000 ]
  distance:    0.0538654
  band:
  - # 1
    frequency:   -1.9038603355
  - # 2
    frequency:   -1.3058234812
  - # 3
    frequency:    1.5701134254
  - # 4
    frequency:    2.2896933627
  - # 5
    frequency:    3.4003400361
  - # 6
    frequency:    4.1478008383
  - # 7
    frequency:    4.7273624140
  - # 8
    frequency:    5.1643836230
  - # 9
    frequency:    6.7525582294
  - # 10
    frequency:    7.3209750749
  - # 11
    frequency:    7.8844688499
  - # 12
    frequency:    8.1488643009
  - # 13
    frequency:    9.2080566076
  - # 14
    frequency:   11.0083938960
  - # 15
    frequency:   16.6773507767
  - # 16
    frequency:   17.3966559240
  - # 17
    frequency:   17.5309461657
  - # 18
    frequency:   60.9986906856

- q-position: [    0.1565657,    0.0000000,    0.0000000 ]
  distance:    0.0556609
  band:
  - # 1
    frequency:   -1.9025707479
  - # 2
    frequency:   -1.2657751913
  - # 3
    frequency:    1.6480658570
  - # 4
    frequency:    2.3499028024
  - # 5
    frequency:    3.4891851104
  - # 6
    frequency:    4.1787656615
  - # 7
    frequency:    4.7647904262
  - # 8
    frequency:    5.1896757328
  - # 9
    frequency:    6.7497170664
  - # 10
    frequency:    7.3447840164
  - # 11
    frequency:    7.8923793583
  - # 12
    frequency:    8.1659697684
  - # 13
    frequency:    9.2180388296
  - # 14
    frequency:   10.9840247559
  - # 15
    frequency:   16.6638147259
  - # 16
    frequency:   17.4005613092
  - # 17
    frequency:   17.5393214460
  - # 18
    frequency:   60.9968862241

- q-position: [    0.1616162,    0.0000000,    0.0000000 ]
  distance:    0.0574565
  band:
  - # 1
    frequency:   -1.9021292580
  - # 2
    frequency:   -1.2251701054
  - # 3
    frequency:    1.7254465579
  - # 4
    frequency:    2.4088037117
  - # 5
    frequency:    3.5750095188
  - # 6
    frequency:    4.2101683911
  - # 7
    frequency:    4.7982023274
  - # 8
    frequency:    5.2205917833
  - # 9
    frequency:    6.7466919445
  - # 10
    frequency:    7.3681947907
  - # 11
    frequency:    7.8995467796
  - # 12
    frequency:    8.1822143966
  - # 13
    frequency:    9.2283255728
  - # 14
    frequency:   10.9586560527
  - # 15
    frequency:   16.6498569904
  - # 16
    frequency:   17.4029530291
  - # 17
    frequency:   17.5458825061
  - # 18
    frequency:   60.9950548785

- q-position: [    0.1666667,    0.0000000,    0.0000000 ]
  distance:    0.0592520
  band:
  - # 1
    frequency:   -1.9025648248
  - # 2
    frequency:   -1.1840199852
  - # 3
    frequency:    1.8021825567
  - # 4
    frequency:    2.4663997775
  - # 5
    frequency:    3.6576391414
  - # 6
    frequency:    4.2419920500
  - # 7
    frequency:    4.8277251044
  - # 8
    frequency:    5.2570717946
  - # 9
    frequency:    6.7434842594
  - # 10
    frequency:    7.3911441982
  - # 11
    frequency:    7.9059466540
  - # 12
    frequency:    8.1976514507
  - # 13
    frequency:    9.2388471222
  - # 14
    frequency:   10.9323120278
  - # 15
    frequency:   16.6354900034
  - # 16
    frequency:   17.4038124258
  - # 17
    frequency:   17.5505895785
  - # 18
    frequency:   60.9931999418

- q-position: [    0.1717172,    0.0000000,    0.0000000 ]
  distance:    0.0610475
  band:
  - # 1
    frequency:   -1.9039015485
  - # 2
    frequency:   -1.1423419235
  - # 3
    frequency:    1.8782087871
  - # 4
    frequency:    2.5226971754
  - # 5
    frequency:    3.7368990647
  - # 6
    frequency:    4.2742226210
  - # 7
    frequency:    4.8538529553
  - # 8
    frequency:    5.2986938649
  - # 9
    frequency:    6.7400975729
  - # 10
    frequency:    7.4135695781
  - # 11
    frequency:    7.9115601904
  - # 12
    frequency:    8.2123499288
  - # 13
    frequency:    9.2495285411
  - # 14
    frequency:   10.9050226532
  - # 15
    frequency:   16.6207280288
  - # 16
    frequency:   17.4031346832
  - # 17
    frequency:   17.5534182706
  - # 18
    frequency:   60.9913247991

- q-position: [    0.1767677,    0.0000000,    0.0000000 ]
  distance:    0.0628430
  band:
  - # 1
    frequency:   -1.9061584255
  - # 2
    frequency:   -1.1001583983
  - # 3
    frequency:    1.9534663304
  - # 4
    frequency:    2.5777043332
  - # 5
    frequency:    3.8126161495
  - # 6
    frequency:    4.3068489636
  - # 7
    frequency:    4.8773395810
  - # 8
    frequency:    5.3447796380
  - # 9
    frequency:    6.7365376915
  - # 10
    frequency:    7.4354087492
  - # 11
    frequency:    7.9163742269
  - # 12
    frequency:    8.2263926823
  - # 13
    frequency:    9.2602912389
  - # 14