nqpoint: 300    
npath: 3      
segment_nqpoint:
- 100
- 100
- 100
labels:
- [ 'G', 'M' ]
- [ 'M', 'K' ]
- [ 'K', 'G' ]
reciprocal_lattice:
- [   0.27854790,   0.16081970,   0.00000000 ] # a*
- [   0.00000000,   0.32163940,   0.00000000 ] # b*
- [   0.00000000,   0.00000000,   0.03631256 ] # c*
natom: 8      
lattice:
- [     3.590046873184434,     0.000000000000000,     0.000000000000000 ] # a
- [    -1.795023436592217,     3.109071792950028,     0.000000000000000 ] # b
- [     0.000000000000000,     0.000000000000000,    27.538677409979147 ] # c
points:
- symbol: C # 1
  coordinates: [  0.333332985432215,  0.666666983183674,  0.629595992512268 ]
  mass: 12.010700
- symbol: C # 2
  coordinates: [  0.666666984744047,  0.333332985985145,  0.383364194095140 ]
  mass: 12.010700
- symbol: N # 3
  coordinates: [  0.000000000000000,  0.000000000000000,  0.526404267618132 ]
  mass: 14.006700
- symbol: N # 4
  coordinates: [  0.333332985432215,  0.666666983183674,  0.673186919400178 ]
  mass: 14.006700
- symbol: N # 5
  coordinates: [  0.666666984744047,  0.333332985985145,  0.428736888092248 ]
  mass: 14.006700
- symbol: S # 6
  coordinates: [  0.666666984744047,  0.333332985985145,  0.326813080599822 ]
  mass: 32.065000
- symbol: Y # 7
  coordinates: [  0.333332985432215,  0.666666983183674,  0.478685482811873 ]
  mass: 88.905850
- symbol: Y # 8
  coordinates: [  0.666666984744047,  0.333332985985145,  0.575156426610999 ]
  mass: 88.905850

phonon:
- q-position: [    0.0000000,    0.0000000,    0.0000000 ]
  distance:    0.0000000
  band:
  - # 1
    frequency:   -2.8094893441
  - # 2
    frequency:   -2.8094893441
  - # 3
    frequency:   -0.3056266200
  - # 4
    frequency:   -0.3056266199
  - # 5
    frequency:   -0.0000099833
  - # 6
    frequency:   -0.0000005994
  - # 7
    frequency:    0.0000086218
  - # 8
    frequency:    3.5139176306
  - # 9
    frequency:    3.5139176306
  - # 10
    frequency:    4.4922956935
  - # 11
    frequency:    6.5604852255
  - # 12
    frequency:    6.5604852255
  - # 13
    frequency:    6.7391757936
  - # 14
    frequency:    7.4541636083
  - # 15
    frequency:    7.4541636083
  - # 16
    frequency:    7.9408547583
  - # 17
    frequency:   11.0289620237
  - # 18
    frequency:   11.0578833217
  - # 19
    frequency:   11.0578833217
  - # 20
    frequency:   14.2393089210
  - # 21
    frequency:   14.2393089211
  - # 22
    frequency:   26.8932261038
  - # 23
    frequency:   58.3457537141
  - # 24
    frequency:   61.8567372940

- q-position: [    0.0050505,    0.0000000,    0.0000000 ]
  distance:    0.0016244
  band:
  - # 1
    frequency:   -2.8094753108
  - # 2
    frequency:   -2.8092872205
  - # 3
    frequency:   -0.3030179398
  - # 4
    frequency:   -0.2978404593
  - # 5
    frequency:    0.0019333271
  - # 6
    frequency:    0.0692304951
  - # 7
    frequency:    0.0834390910
  - # 8
    frequency:    3.5139228667
  - # 9
    frequency:    3.5144081784
  - # 10
    frequency:    4.4922258452
  - # 11
    frequency:    6.5604797191
  - # 12
    frequency:    6.5605354862
  - # 13
    frequency:    6.7390889770
  - # 14
    frequency:    7.4541042710
  - # 15
    frequency:    7.4544109505
  - # 16
    frequency:    7.9404289999
  - # 17
    frequency:   11.0289034063
  - # 18
    frequency:   11.0577805245
  - # 19
    frequency:   11.0578803848
  - # 20
    frequency:   14.2393502704
  - # 21
    frequency:   14.2395039597
  - # 22
    frequency:   26.8931574504
  - # 23
    frequency:   58.3448031672
  - # 24
    frequency:   61.8566468705

- q-position: [    0.0101010,    0.0000000,    0.0000000 ]
  distance:    0.0032489
  band:
  - # 1
    frequency:   -2.8094336869
  - # 2
    frequency:   -2.8086849952
  - # 3
    frequency:   -0.2952990860
  - # 4
    frequency:   -0.2733733883
  - # 5
    frequency:    0.0080736695
  - # 6
    frequency:    0.1389274482
  - # 7
    frequency:    0.1671134092
  - # 8
    frequency:    3.5139404513
  - # 9
    frequency:    3.5158775581
  - # 10
    frequency:    4.4920175326
  - # 11
    frequency:    6.5604557047
  - # 12
    frequency:    6.5606856542
  - # 13
    frequency:    6.7388346662
  - # 14
    frequency:    7.4539261824
  - # 15
    frequency:    7.4551533786
  - # 16
    frequency:    7.9391542590
  - # 17
    frequency:   11.0286844350
  - # 18
    frequency:   11.0574720785
  - # 19
    frequency:   11.0579143318
  - # 20
    frequency:   14.2394742342
  - # 21
    frequency:   14.2400888104
  - # 22
    frequency:   26.8929516313
  - # 23
    frequency:   58.3419533368
  - # 24
    frequency:   61.8563758046

- q-position: [    0.0151515,    0.0000000,    0.0000000 ]
  distance:    0.0048733
  band:
  - # 1
    frequency:   -2.8093658960
  - # 2
    frequency:   -2.8076950181
  - # 3
    frequency:   -0.2826143562
  - # 4
    frequency:   -0.2277255697
  - # 5
    frequency:    0.0201550389
  - # 6
    frequency:    0.2092737934
  - # 7
    frequency:    0.2511512090
  - # 8
    frequency:    3.5139759981
  - # 9
    frequency:    3.5183190105
  - # 10
    frequency:    4.4916744558
  - # 11
    frequency:    6.5603907038
  - # 12
    frequency:    6.5609338944
  - # 13
    frequency:    6.7384313049
  - # 14
    frequency:    7.4536291125
  - # 15
    frequency:    7.4563920575
  - # 16
    frequency:    7.9370381280
  - # 17
    frequency:   11.0281806731
  - # 18
    frequency:   11.0569578184
  - # 19
    frequency:   11.0581085304
  - # 20
    frequency:   14.2396805599
  - # 21
    frequency:   14.2410626756
  - # 22
    frequency:   26.8926090690
  - # 23
    frequency:   58.3372096482
  - # 24
    frequency:   61.8559247090

- q-position: [    0.0202020,    0.0000000,    0.0000000 ]
  distance:    0.0064978
  band:
  - # 1
    frequency:   -2.8092742950
  - # 2
    frequency:   -2.8063375844
  - # 3
    frequency:   -0.2647860880
  - # 4
    frequency:   -0.1468388569
  - # 5
    frequency:    0.0486409849
  - # 6
    frequency:    0.2801487797
  - # 7
    frequency:    0.3355413887
  - # 8
    frequency:    3.5140388119
  - # 9
    frequency:    3.5217213722
  - # 10
    frequency:    4.4912027894
  - # 11
    frequency:    6.5602473125
  - # 12
    frequency:    6.5612771717
  - # 13
    frequency:    6.7379096893
  - # 14
    frequency:    7.4532126814
  - # 15
    frequency:    7.4581287957
  - # 16
    frequency:    7.9340932254
  - # 17
    frequency:   11.0272073749
  - # 18
    frequency:   11.0562374615
  - # 19
    frequency:   11.0586459927
  - # 20
    frequency:   14.2399688278
  - # 21
    frequency:   14.2424242230
  - # 22
    frequency:   26.8921304667
  - # 23
    frequency:   58.3305811277
  - # 24
    frequency:   61.8552946031

- q-position: [    0.0252525,    0.0000000,    0.0000000 ]
  distance:    0.0081222
  band:
  - # 1
    frequency:   -2.8091621511
  - # 2
    frequency:   -2.8046405115
  - # 3
    frequency:   -0.2409926642
  - # 4
    frequency:   -0.0552823809
  - # 5
    frequency:    0.1584984170
  - # 6
    frequency:    0.3512976345
  - # 7
    frequency:    0.4201776193
  - # 8
    frequency:    3.5141418122
  - # 9
    frequency:    3.5260692238
  - # 10
    frequency:    4.4906111960
  - # 11
    frequency:    6.5599734162
  - # 12
    frequency:    6.5617112854
  - # 13
    frequency:    6.7373129238
  - # 14
    frequency:    7.4526763633
  - # 15
    frequency:    7.4603658481
  - # 16
    frequency:    7.9303371466
  - # 17
    frequency:   11.0255655361
  - # 18
    frequency:   11.0553105966
  - # 19
    frequency:   11.0597233963
  - # 20
    frequency:   14.2403384526
  - # 21
    frequency:   14.2441715804
  - # 22
    frequency:   26.8915168064
  - # 23
    frequency:   58.3220803774
  - # 24
    frequency:   61.8544869095

- q-position: [    0.0303030,    0.0000000,    0.0000000 ]
  distance:    0.0097466
  band:
  - # 1
    frequency:   -2.8090336083
  - # 2
    frequency:   -2.8026385659
  - # 3
    frequency:   -0.2093262836
  - # 4
    frequency:   -0.0236505283
  - # 5
    frequency:    0.2701156856
  - # 6
    frequency:    0.4224775115
  - # 7
    frequency:    0.5049230924
  - # 8
    frequency:    3.5143014258
  - # 9
    frequency:    3.5313430860
  - # 10
    frequency:    4.4899108443
  - # 11
    frequency:    6.5595027408
  - # 12
    frequency:    6.5622309176
  - # 13
    frequency:    6.7366961045
  - # 14
    frequency:    7.4520194928
  - # 15
    frequency:    7.4631056400
  - # 16
    frequency:    7.9257924045
  - # 17
    frequency:   11.0231008853
  - # 18
    frequency:   11.0541766692
  - # 19
    frequency:   11.0614921885
  - # 20
    frequency:   14.2407886858
  - # 21
    frequency:   14.2463023291
  - # 22
    frequency:   26.8907693463
  - # 23
    frequency:   58.3117235415
  - # 24
    frequency:   61.8535034500

- q-position: [    0.0353535,    0.0000000,    0.0000000 ]
  distance:    0.0113711
  band:
  - # 1
    frequency:   -2.8088936460
  - # 2
    frequency:   -2.8003727575
  - # 3
    frequency:   -0.1653272411
  - # 4
    frequency:    0.0369119456
  - # 5
    frequency:    0.3613976780
  - # 6
    frequency:    0.4935075264
  - # 7
    frequency:    0.5896516689
  - # 8
    frequency:    3.5145374497
  - # 9
    frequency:    3.5375196543
  - # 10
    frequency:    4.4891154333
  - # 11
    frequency:    6.5587559810
  - # 12
    frequency:    6.5628296944
  - # 13
    frequency:    6.7361254819
  - # 14
    frequency:    7.4512412717
  - # 15
    frequency:    7.4663504147
  - # 16
    frequency:    7.9204863661
  - # 17
    frequency:   11.0197393099
  - # 18
    frequency:   11.0528349632
  - # 19
    frequency:   11.0640232784
  - # 20
    frequency:   14.2413186186
  - # 21
    frequency:   14.2488134956
  - # 22
    frequency:   26.8898896174
  - # 23
    frequency:   58.2995302620
  - # 24
    frequency:   61.8523464394

- q-position: [    0.0404040,    0.0000000,    0.0000000 ]
  distance:    0.0129955
  band:
  - # 1
    frequency:   -2.8087480272
  - # 2
    frequency:   -2.7978895225
  - # 3
    frequency:   -0.0928162730
  - # 4
    frequency:    0.0634020604
  - # 5
    frequency:    0.4437934846
  - # 6
    frequency:    0.5642632788
  - # 7
    frequency:    0.6742604874
  - # 8
    frequency:    3.5148728836
  - # 9
    frequency:    3.5445720617
  - # 10
    frequency:    4.4882412237
  - # 11
    frequency:    6.5576427783
  - # 12
    frequency:    6.5635002585
  - # 13
    frequency:    6.7356768244
  - # 14
    frequency:    7.4503407774
  - # 15
    frequency:    7.4701018029
  - # 16
    frequency:    7.9144512008
  - # 17
    frequency:   11.0154789722
  - # 18
    frequency:   11.0512845802
  - # 19
    frequency:   11.0673150566
  - # 20
    frequency:   14.2419271855
  - # 21
    frequency:   14.2517015433
  - # 22
    frequency:   26.8888794198
  - # 23
    frequency:   58.2855236261
  - # 24
    frequency:   61.8510184795

- q-position: [    0.0454545,    0.0000000,    0.0000000 ]
  distance:    0.0146200
  band:
  - # 1
    frequency:   -2.8086032385
  - # 2
    frequency:   -2.7952398206
  - # 3
    frequency:    0.0886129776
  - # 4
    frequency:    0.1110921963
  - # 5
    frequency:    0.5213326345
  - # 6
    frequency:    0.6346582085
  - # 7
    frequency:    0.7586672798
  - # 8
    frequency:    3.5153337332
  - # 9
    frequency:    3.5524701547
  - # 10
    frequency:    4.4873070748
  - # 11
    frequency:    6.5560647860
  - # 12
    frequency:    6.5642343547
  - # 13
    frequency:    6.7354327388
  - # 14
    frequency:    7.4493169717
  - # 15
    frequency:    7.4743603106
  - # 16
    frequency:    7.9077238522
  - # 17
    frequency:   11.0103590490
  - # 18
    frequency:   11.0495244159
  - # 19
    frequency:   11.0713248046
  - # 20
    frequency:   14.2426131686
  - # 21
    frequency:   14.2549623620
  - # 22
    frequency:   26.8877408178
  - # 23
    frequency:   58.2697301026
  - # 24
    frequency:   61.8495225505

- q-position: [    0.0505051,    0.0000000,    0.0000000 ]
  distance:    0.0162444
  band:
  - # 1
    frequency:   -2.8084664210
  - # 2
    frequency:   -2.7924781713
  - # 3
    frequency:    0.1149705182
  - # 4
    frequency:    0.1884954325
  - # 5
    frequency:    0.5958200453
  - # 6
    frequency:    0.7046282195
  - # 7
    frequency:    0.8428035330
  - # 8
    frequency:    3.5159487848
  - # 9
    frequency:    3.5611807720
  - # 10
    frequency:    4.4863344901
  - # 11
    frequency:    6.5539199214
  - # 12
    frequency:    6.5650229253
  - # 13
    frequency:    6.7354788383
  - # 14
    frequency:    7.4481687103
  - # 15
    frequency:    7.4791247173
  - # 16
    frequency:    7.9003460579
  - # 17
    frequency:   11.0044325076
  - # 18
    frequency:   11.0475531355
  - # 19
    frequency:   11.0759960782
  - # 20
    frequency:   14.2433752029
  - # 21
    frequency:   14.2585912584
  - # 22
    frequency:   26.8864761347
  - # 23
    frequency:   58.2521794710
  - # 24
    frequency:   61.8478620020

- q-position: [    0.0555556,    0.0000000,    0.0000000 ]
  distance:    0.0178689
  band:
  - # 1
    frequency:   -2.8083452933
  - # 2
    frequency:   -2.7896616596
  - # 3
    frequency:    0.1430775712
  - # 4
    frequency:    0.2468547071
  - # 5
    frequency:    0.6682022620
  - # 6
    frequency:    0.7741219650
  - # 7
    frequency:    0.9266083814
  - # 8
    frequency:    3.5167493512
  - # 9
    frequency:    3.5706680123
  - # 10
    frequency:    4.4853476676
  - # 11
    frequency:    6.5511076459
  - # 12
    frequency:    6.5658562144
  - # 13
    frequency:    6.7358989097
  - # 14
    frequency:    7.4468947515
  - # 15
    frequency:    7.4843913701
  - # 16
    frequency:    7.8923644433
  - # 17
    frequency:   10.9977518973
  - # 18
    frequency:   11.0453691485
  - # 19
    frequency:   11.0812730787
  - # 20
    frequency:   14.2442117814
  - # 21
    frequency:   14.2625829460
  - # 22
    frequency:   26.8850879466
  - # 23
    frequency:   58.2329047399
  - # 24
    frequency:   61.8460405430

- q-position: [    0.0606061,    0.0000000,    0.0000000 ]
  distance:    0.0194933
  band:
  - # 1
    frequency:   -2.8082480671
  - # 2
    frequency:   -2.7868489361
  - # 3
    frequency:    0.1731246525
  - # 4
    frequency:    0.2975536777
  - # 5
    frequency:    0.7390268525
  - # 6
    frequency:    0.8430953292
  - # 7
    frequency:    1.0100243794
  - # 8
    frequency:    3.5177689917
  - # 9
    frequency:    3.5808934805
  - # 10
    frequency:    4.4843735585
  - # 11
    frequency:    6.5475347815
  - # 12
    frequency:    6.5667238821
  - # 13
    frequency:    6.7367695641
  - # 14
    frequency:    7.4454937659
  - # 15
    frequency:    7.4901533492
  - # 16
    frequency:    7.8838307276
  - # 17
    frequency:   10.9903646261
  - # 18
    frequency:   11.0429705835
  - # 19
    frequency:   11.0871055402
  - # 20
    frequency:   14.2451212619
  - # 21
    frequency:   14.2669315369
  - # 22
    frequency:   26.8835790753
  - # 23
    frequency:   58.2119420584
  - # 24
    frequency:   61.8440622301

- q-position: [    0.0656566,    0.0000000,    0.0000000 ]
  distance:    0.0211177
  band:
  - # 1
    frequency:   -2.8081833563
  - # 2
    frequency:   -2.7840992383
  - # 3
    frequency:    0.2051581318
  - # 4
    frequency:    0.3439519280
  - # 5
    frequency:    0.8086319402
  - # 6
    frequency:    0.9115084528
  - # 7
    frequency:    1.0929949363
  - # 8
    frequency:    3.5190432051
  - # 9
    frequency:    3.5918165031
  - # 10
    frequency:    4.4834419295
  - # 11
    frequency:    6.5431210723
  - # 12
    frequency:    6.5676151242
  - # 13
    frequency:    6.7381551535
  - # 14
    frequency:    7.4439643443
  - # 15
    frequency:    7.4963994642
  - # 16
    frequency:    7.8748020932
  - # 17
    frequency:   10.9823126669
  - # 18
    frequency:   11.0403552646
  - # 19
    frequency:   11.0934491830
  - # 20
    frequency:   14.2461018736
  - # 21
    frequency:   14.2716305334
  - # 22
    frequency:   26.8819525815
  - # 23
    frequency:   58.1893306174
  - # 24
    frequency:   61.8419314550

- q-position: [    0.0707071,    0.0000000,    0.0000000 ]
  distance:    0.0227422
  band:
  - # 1
    frequency:   -2.8081600808
  - # 2
    frequency:   -2.7814714569
  - # 3
    frequency:    0.2391609457
  - # 4
    frequency:    0.3875502825
  - # 5
    frequency:    0.8772359262
  - # 6
    frequency:    0.9793241816
  - # 7
    frequency:    1.1754629293
  - # 8
    frequency:    3.5206090990
  - # 9
    frequency:    3.6033943058
  - # 10
    frequency:    4.4825854286
  - # 11
    frequency:    6.5378035902
  - # 12
    frequency:    6.5685187983
  - # 13
    frequency:    6.7401038464
  - # 14
    frequency:    7.4423050064
  - # 15
    frequency:    7.5031130207
  - # 16
    frequency:    7.8653417917
  - # 17
    frequency:   10.9736337147
  - # 18
    frequency:   11.0375206892
  - # 19
    frequency:   11.1002647081
  - # 20
    frequency:   14.2471517246
  - # 21
    frequency:   14.2766728224
  - # 22
    frequency:   26.8802117559
  - # 23
    frequency:   58.1651125438
  - # 24
    frequency:   61.8396529315

- q-position: [    0.0757576,    0.0000000,    0.0000000 ]
  distance:    0.0243666
  band:
  - # 1
    frequency:   -2.8081873659
  - # 2
    frequency:   -2.7790232689
  - # 3
    frequency:    0.2750834400
  - # 4
    frequency:    0.4291549432
  - # 5
    frequency:    0.9449843192
  - # 6
    frequency:    1.0465072867
  - # 7
    frequency:    1.2573700755
  - # 8
    frequency:    3.5225050369
  - # 9
    frequency:    3.6155821490
  - # 10
    frequency:    4.4818396499
  - # 11
    frequency:    6.5315392687
  - # 12
    frequency:    6.5694235535
  - # 13
    frequency:    6.7426455728
  - # 14
    frequency:    7.4405142079
  - # 15
    frequency:    7.5102702658
  - # 16
    frequency:    7.8555200868
  - # 17
    frequency:   10.9643625382
  - # 18
    frequency:   11.0344640098
  - # 19
    frequency:   11.1075165880
  - # 20
    frequency:   14.2482688104
  - # 21
    frequency:   14.2820506716
  - # 22
    frequency:   26.8783601106
  - # 23
    frequency:   58.1393327866
  - # 24
    frequency:   61.8372316806

- q-position: [    0.0808081,    0.0000000,    0.0000000 ]
  distance:    0.0259911
  band:
  - # 1
    frequency:   -2.8082744391
  - # 2
    frequency:   -2.7768103525
  - # 3
    frequency:    0.3128572242
  - # 4
    frequency:    0.4692482482
  - # 5
    frequency:    1.0119760266
  - # 6
    frequency:    1.1130240954
  - # 7
    frequency:    1.3386567764
  - # 8
    frequency:    3.5247702644
  - # 9
    frequency:    3.6283334222
  - # 10
    frequency:    4.4812431937
  - # 11
    frequency:    6.5243052774
  - # 12
    frequency:    6.5703179627
  - # 13
    frequency:    6.7457921161
  - # 14
    frequency:    7.4385903472
  - # 15
    frequency:    7.5178383735
  - # 16
    frequency:    7.8454156812
  - # 17
    frequency:   10.9545321230
  - # 18
    frequency:   11.0311820183
  - # 19
    frequency:   11.1151720507
  - # 20
    frequency:   14.2494510222
  - # 21
    frequency:   14.2877557285
  - # 22
    frequency:   26.8764013699
  - # 23
    frequency:   58.1120389952
  - # 24
    frequency:   61.8346730149

- q-position: [    0.0858586,    0.0000000,    0.0000000 ]
  distance:    0.0276155
  band:
  - # 1
    frequency:   -2.8084305262
  - # 2
    frequency:   -2.7748857004
  - # 3
    frequency:    0.3524022411
  - # 4
    frequency:    0.5081400145
  - # 5
    frequency:    1.0782789801
  - # 6
    frequency:    1.1788423387
  - # 7
    frequency:    1.4192622419
  - # 8
    frequency:    3.5274445182
  - # 9
    frequency:    3.6415996984
  - # 10
    frequency:    4.4808377144
  - # 11
    frequency:    6.5160974645
  - # 12
    frequency:    6.5711906553
  - # 13
    frequency:    6.7495391211
  - # 14
    frequency:    7.4365317719
  - # 15
    frequency:    7.5257727714
  - # 16
    frequency:    7.8351178342
  - # 17
    frequency:   10.9441745397
  - # 18
    frequency:   11.0276711366
  - # 19
    frequency:   11.1232003256
  - # 20
    frequency:   14.2506961564
  - # 21
    frequency:   14.2937790224
  - # 22
    frequency:   26.8743394597
  - # 23
    frequency:   58.0832813911
  - # 24
    frequency:   61.8319825227

- q-position: [    0.0909091,    0.0000000,    0.0000000 ]
  distance:    0.0292399
  band:
  - # 1
    frequency:   -2.8086647473
  - # 2
    frequency:   -2.7732990383
  - # 3
    frequency:    0.3936308022
  - # 4
    frequency:    0.5460394881
  - # 5
    frequency:    1.1439398581
  - # 6
    frequency:    1.2439311122
  - # 7
    frequency:    1.4991247758
  - # 8
    frequency:    3.5305676200
  - # 9
    frequency:    3.6553307580
  - # 10
    frequency:    4.4806679464
  - # 11
    frequency:    6.5069274674
  - # 12
    frequency:    6.5720304485
  - # 13
    frequency:    6.7538694088
  - # 14
    frequency:    7.4343367847
  - # 15
    frequency:    7.5340135213
  - # 16
    frequency:    7.8247294616
  - # 17
    frequency:   10.9333215711
  - # 18
    frequency:   11.0239274109
  - # 19
    frequency:   11.1315721127
  - # 20
    frequency:   14.2520019242
  - # 21
    frequency:   14.3001109694
  - # 22
    frequency:   26.8721784972
  - # 23
    frequency:   58.0531126316
  - # 24
    frequency:   61.8291660505

- q-position: [    0.0959596,    0.0000000,    0.0000000 ]
  distance:    0.0308644
  band:
  - # 1
    frequency:   -2.8089860156
  - # 2
    frequency:   -2.7720963572
  - # 3
    frequency:    0.4364501457
  - # 4
    frequency:    0.5830933306
  - # 5
    frequency:    1.2089903682
  - # 6
    frequency:    1.3082608941
  - # 7
    frequency:    1.5781821462
  - # 8
    frequency:    3.5341790591
  - # 9
    frequency:    3.6694745931
  - # 10
    frequency:    4.4807816982
  - # 11
    frequency:    6.4968192249
  - # 12
    frequency:    6.5728264761
  - # 13
    frequency:    6.7587568584
  - # 14
    frequency:    7.4320036498
  - # 15
    frequency:    7.5424803593
  - # 16
    frequency:    7.8143716190
  - # 17
    frequency:   10.9220051568
  - # 18
    frequency:   11.0199465132
  - # 19
    frequency:   11.1402592174
  - # 20
    frequency:   14.2533659616
  - # 21
    frequency:   14.3067413816
  - # 22
    frequency:   26.8699227791
  - # 23
    frequency:   58.0215876691
  - # 24
    frequency:   61.8262296850

- q-position: [    0.1010101,    0.0000000,    0.0000000 ]
  distance:    0.0324888
  band:
  - # 1
    frequency:   -2.8094029395
  - # 2
    frequency:   -2.7713195588
  - # 3
    frequency:    0.4807642215
  - # 4
    frequency:    0.6194072821
  - # 5
    frequency:    1.2734514403
  - # 6
    frequency:    1.3718035918
  - # 7
    frequency:    1.6563719905
  - # 8
    frequency:    3.5383175667
  - # 9
    frequency:    3.6839774094
  - # 10
    frequency:    4.4812297975
  - # 11
    frequency:    6.4858055267
  - # 12
    frequency:    6.5735683121
  - # 13
    frequency:    6.7641702151
  - # 14
    frequency:    7.4295305994
  - # 15
    frequency:    7.5510658968
  - # 16
    frequency:    7.8041898679
  - # 17
    frequency:   10.9102577030
  - # 18
    frequency:   11.0157237492
  - # 19
    frequency:   11.1492343035
  - # 20
    frequency:   14.2547858402
  - # 21
    frequency:   14.3136594799
  - # 22
    frequency:   26.8675767702
  - # 23
    frequency:   57.9887636025
  - # 24
    frequency:   61.8231797347

- q-position: [    0.1060606,    0.0000000,    0.0000000 ]
  distance:    0.0341133
  band:
  - # 1
    frequency:   -2.8099237307
  - # 2
    frequency:   -2.7710062137
  - # 3
    frequency:    0.5264750452
  - # 4
    frequency:    0.6550592691
  - # 5
    frequency:    1.3373361034
  - # 6
    frequency:    1.4345326009
  - # 7
    frequency:    1.7336322262
  - # 8
    frequency:    3.5430206863
  - # 9
    frequency:    3.6987836478
  - # 10
    frequency:    4.4820659700
  - # 11
    frequency:    6.4739250161
  - # 12
    frequency:    6.5742460878
  - # 13
    frequency:    6.7700763988
  - # 14
    frequency:    7.4269158410
  - # 15
    frequency:    7.5596264676
  - # 16
    frequency:    7.7943630468
  - # 17
    frequency:   10.8981122955
  - # 18
    frequency:   11.0112540729
  - # 19
    frequency:   11.1584707246
  - # 20
    frequency:   14.2562590778
  - # 21
    frequency:   14.3208539105
  - # 22
    frequency:   26.8651450904
  - # 23
    frequency:   57.9546995241
  - # 24
    frequency:   61.8200227101

- q-position: [    0.1111111,    0.0000000,    0.0000000 ]
  distance:    0.0357377
  band:
  - # 1
    frequency:   -2.8105561194
  - # 2
    frequency:   -2.7711894272
  - # 3
    frequency:    0.5734837915
  - # 4
    frequency:    0.6901077185
  - # 5
    frequency:    1.4006515069
  - # 6
    frequency:    1.4964228687
  - # 7
    frequency:    1.8099014454
  - # 8
    frequency:    3.5483243448
  - # 9
    frequency:    3.7138360516
  - # 10
    frequency:    4.4833466298
  - # 11
    frequency:    6.4612198364
  - # 12
    frequency:    6.5748506013
  - # 13
    frequency:    6.7764431197
  - # 14
    frequency:    7.4241575672
  - # 15
    frequency:    7.5679704148
  - # 16
    frequency:    7.7851146501
  - # 17
    frequency:   10.8856028426
  - # 18
    frequency:   11.0065321089
  - # 19
    frequency:   11.1679424108
  - # 20
    frequency:   14.2577831491
  - # 21
    frequency:   14.3283127663
  - # 22
    frequency:   26.8626325023
  - # 23
    frequency:   57.9194563617
  - # 24
    frequency:   61.8167653040

- q-position: [    0.1161616,    0.0000000,    0.0000000 ]
  distance:    0.0373622
  band:
  - # 1
    frequency:   -2.8113072778
  - # 2
    frequency:   -2.7718978027
  - # 3
    frequency:    0.6216917152
  - # 4
    frequency:    0.7245970387
  - # 5
    frequency:    1.4634003721
  - # 6
    frequency:    1.5574509576
  - # 7
    frequency:    1.8851192839
  - # 8
    frequency:    3.5542624283
  - # 9
    frequency:    3.7290758112
  - # 10
    frequency:    4.4851305552
  - # 11
    frequency:    6.4477339361
  - # 12
    frequency:    6.5753734166
  - # 13
    frequency:    6.7832407753
  - # 14
    frequency:    7.4212539657
  - # 15
    frequency:    7.5758448129
  - # 16
    frequency:    7.7767258259
  - # 17
    frequency:   10.8727641663
  - # 18
    frequency:   11.0015521821
  - # 19
    frequency:   11.1776237902
  - # 20
    frequency:   14.2593554971
  - # 21
    frequency:   14.3360236110
  - # 22
    frequency:   26.8600438976
  - # 23
    frequency:   57.8830967154
  - # 24
    frequency:   61.8134143711

- q-position: [    0.1212121,    0.0000000,    0.0000000 ]
  distance:    0.0389866
  band:
  - # 1
    frequency:   -2.8121837528
  - # 2
    frequency:   -2.7731554933
  - # 3
    frequency:    0.6710009444
  - # 4
    frequency:    0.7585613485
  - # 5
    frequency:    1.5255820534
  - # 6
    frequency:    1.6175951060
  - # 7
    frequency:    1.9592267566
  - # 8
    frequency:    3.5608663671
  - # 9
    frequency:    3.7444428200
  - # 10
    frequency:    4.4874784240
  - # 11
    frequency:    6.4335119517
  - # 12
    frequency:    6.5758069524
  - # 13
    frequency:    6.7904437065
  - # 14
    frequency:    7.4182032337
  - # 15
    frequency:    7.5829247241
  - # 16
    frequency:    7.7695458930
  - # 17
    frequency:   10.8596320538
  - # 18
    frequency:   10.9963083552
  - # 19
    frequency:   11.1874897362
  - # 20
    frequency:   14.2609735441
  - # 21
    frequency:   14.3439735085
  - # 22
    frequency:   26.8573842832
  - # 23
    frequency:   57.8456846910
  - # 24
    frequency:   61.8099769065

- q-position: [    0.1262626,    0.0000000,    0.0000000 ]
  distance:    0.0406110
  band:
  - # 1
    frequency:   -2.8131914099
  - # 2
    frequency:   -2.7749823250
  - # 3
    frequency:    0.7213151662
  - # 4
    frequency:    0.7920270831
  - # 5
    frequency:    1.5871933293
  - # 6
    frequency:    1.6768352861
  - # 7
    frequency:    2.0321665569
  - # 8
    frequency:    3.5681647363
  - # 9
    frequency:    3.7598760769
  - # 10
    frequency:    4.4904521786
  - # 11
    frequency:    6.4185985451
  - # 12
    frequency:    6.5761445584
  - # 13
    frequency:    6.7980309278
  - # 14
    frequency:    7.4150035936
  - # 15
    frequency:    7.5888150814
  - # 16
    frequency:    7.7639902843
  - # 17
    frequency:   10.8462432776
  - # 18
    frequency:   10.9907944733
  - # 19
    frequency:   11.1975155327
  - # 20
    frequency:   14.2626347025
  - # 21
    frequency:   14.3521490553
  - # 22
    frequency:   26.8546587671
  - # 23
    frequency:   57.8072857299
  - # 24
    frequency:   61.8064600251

- q-position: [    0.1313131,    0.0000000,    0.0000000 ]
  distance:    0.0422355
  band:
  - # 1
    frequency:   -2.8143353880
  - # 2
    frequency:   -2.7773939772
  - # 3
    frequency:    0.7725402133
  - # 4
    frequency:    0.8250148575
  - # 5
    frequency:    1.6482289989
  - # 6
    frequency:    1.7351532567
  - # 7
    frequency:    2.1038833190
  - # 8
    frequency:    3.5761828750
  - # 9
    frequency:    3.7753142702
  - # 10
    frequency:    4.4941141966
  - # 11
    frequency:    6.4030380737
  - # 12
    frequency:    6.5763805790
  - # 13
    frequency:    6.8059864488
  - # 14
    frequency:    7.4116533129
  - # 15
    frequency:    7.5930823050
  - # 16
    frequency:    7.7605088132
  - # 17
    frequency:   10.8326355908
  - # 18
    frequency:   10.9850042161
  - # 19
    frequency:   11.2076768536
  - # 20
    frequency:   14.2643363856
  - # 21
    frequency:   14.3605364169
  - # 22
    frequency:   26.8518725439
  - # 23
    frequency:   57.7679664356
  - # 24
    frequency:   61.8028709394

- q-position: [    0.1363636,    0.0000000,    0.0000000 ]
  distance:    0.0438599
  band:
  - # 1
    frequency:   -2.8156200656
  - # 2
    frequency:   -2.7804022037
  - # 3
    frequency:    0.8245845557
  - # 4
    frequency:    0.8575408238
  - # 5
    frequency:    1.7086823401
  - # 6
    frequency:    1.7925326116
  - # 7