nqpoint: 300    
npath: 3      
segment_nqpoint:
- 100
- 100
- 100
labels:
- [ 'G', 'M' ]
- [ 'M', 'K' ]
- [ 'K', 'G' ]
reciprocal_lattice:
- [   0.29209827,   0.16864301,   0.00000000 ] # a*
- [   0.00000000,   0.33728603,   0.00000000 ] # b*
- [   0.00000000,   0.00000000,   0.04009652 ] # c*
natom: 6      
lattice:
- [     3.423505394723026,     0.000000000000000,     0.000000000000000 ] # a
- [    -1.711752697361513,     2.964842641821103,     0.000000000000000 ] # b
- [     0.000000000000000,     0.000000000000000,    24.939821755929398 ] # c
points:
- symbol: C # 1
  coordinates: [  0.000000000000000,  0.000000000000000,  0.481477387784063 ]
  mass: 12.010700
- symbol: C # 2
  coordinates: [  0.333332985432215,  0.666666983183674,  0.590838276095450 ]
  mass: 12.010700
- symbol: Cl # 3
  coordinates: [  0.666666984744048,  0.333332985985145,  0.360868657686387 ]
  mass: 35.453000
- symbol: N # 4
  coordinates: [  0.333332985432215,  0.666666983183674,  0.639131342313613 ]
  mass: 14.006700
- symbol: Zr # 5
  coordinates: [  0.333332985432215,  0.666666983183674,  0.432985230263073 ]
  mass: 91.224000
- symbol: Zr # 6
  coordinates: [  0.666666984744048,  0.333332985985145,  0.531504703222357 ]
  mass: 91.224000

phonon:
- q-position: [    0.0000000,    0.0000000,    0.0000000 ]
  distance:    0.0000000
  band:
  - # 1
    frequency:   -2.5127129764
  - # 2
    frequency:   -2.5127129764
  - # 3
    frequency:   -0.0000011773
  - # 4
    frequency:    0.0000002268
  - # 5
    frequency:    0.0000011623
  - # 6
    frequency:    4.2054984165
  - # 7
    frequency:    4.2054984165
  - # 8
    frequency:    5.6447381126
  - # 9
    frequency:    5.6447381126
  - # 10
    frequency:    5.9234681713
  - # 11
    frequency:    6.8659594157
  - # 12
    frequency:    6.8659594157
  - # 13
    frequency:    8.4930851664
  - # 14
    frequency:    9.2991384595
  - # 15
    frequency:   15.5591609333
  - # 16
    frequency:   16.1386570153
  - # 17
    frequency:   16.1386570153
  - # 18
    frequency:   60.8471405362

- q-position: [    0.0050505,    0.0000000,    0.0000000 ]
  distance:    0.0017035
  band:
  - # 1
    frequency:   -2.5116477649
  - # 2
    frequency:   -2.5109219555
  - # 3
    frequency:   -0.2455147287
  - # 4
    frequency:    0.0729889285
  - # 5
    frequency:    0.2681284883
  - # 6
    frequency:    4.2058496582
  - # 7
    frequency:    4.2065659193
  - # 8
    frequency:    5.6445722263
  - # 9
    frequency:    5.6449216520
  - # 10
    frequency:    5.9242403354
  - # 11
    frequency:    6.8667808276
  - # 12
    frequency:    6.8675586730
  - # 13
    frequency:    8.4930360554
  - # 14
    frequency:    9.2988850995
  - # 15
    frequency:   15.5590690342
  - # 16
    frequency:   16.1400793574
  - # 17
    frequency:   16.1400978395
  - # 18
    frequency:   60.8471070511

- q-position: [    0.0101010,    0.0000000,    0.0000000 ]
  distance:    0.0034069
  band:
  - # 1
    frequency:   -2.5084600315
  - # 2
    frequency:   -2.5055588107
  - # 3
    frequency:   -0.3322642509
  - # 4
    frequency:    0.1459472026
  - # 5
    frequency:    0.3961161739
  - # 6
    frequency:    4.2069016989
  - # 7
    frequency:    4.2097614296
  - # 8
    frequency:    5.6440743511
  - # 9
    frequency:    5.6454711871
  - # 10
    frequency:    5.9265524378
  - # 11
    frequency:    6.8692392969
  - # 12
    frequency:    6.8723464843
  - # 13
    frequency:    8.4928878053
  - # 14
    frequency:    9.2981246001
  - # 15
    frequency:   15.5587935200
  - # 16
    frequency:   16.1443340001
  - # 17
    frequency:   16.1444078027
  - # 18
    frequency:   60.8470065835

- q-position: [    0.0151515,    0.0000000,    0.0000000 ]
  distance:    0.0051104
  band:
  - # 1
    frequency:   -2.5031733818
  - # 2
    frequency:   -2.4966531756
  - # 3
    frequency:   -0.3894904297
  - # 4
    frequency:    0.2188441451
  - # 5
    frequency:    0.5064788805
  - # 6
    frequency:    4.2086495024
  - # 7
    frequency:    4.2150641448
  - # 8
    frequency:    5.6432439607
  - # 9
    frequency:    5.6463834842
  - # 10
    frequency:    5.9303913628
  - # 11
    frequency:    6.8733175697
  - # 12
    frequency:    6.8802929839
  - # 13
    frequency:    8.4926376923
  - # 14
    frequency:    9.2968556980
  - # 15
    frequency:   15.5583348582
  - # 16
    frequency:   16.1513839186
  - # 17
    frequency:   16.1515495667
  - # 18
    frequency:   60.8468390964

- q-position: [    0.0202020,    0.0000000,    0.0000000 ]
  distance:    0.0068139
  band:
  - # 1
    frequency:   -2.4958268312
  - # 2
    frequency:   -2.4842540382
  - # 3
    frequency:   -0.4305087537
  - # 4
    frequency:    0.2916490326
  - # 5
    frequency:    0.6100059378
  - # 6
    frequency:    4.2110847359
  - # 7
    frequency:    4.2224400204
  - # 8
    frequency:    5.6420805634
  - # 9
    frequency:    5.6476532044
  - # 10
    frequency:    5.9357354374
  - # 11
    frequency:    6.8789870366
  - # 12
    frequency:    6.8913484555
  - # 13
    frequency:    8.4922812646
  - # 14
    frequency:    9.2950762723
  - # 15
    frequency:   15.5576935735
  - # 16
    frequency:   16.1611678187
  - # 17
    frequency:   16.1614615159
  - # 18
    frequency:   60.8466045304

- q-position: [    0.0252525,    0.0000000,    0.0000000 ]
  distance:    0.0085173
  band:
  - # 1
    frequency:   -2.4864743239
  - # 2
    frequency:   -2.4684291423
  - # 3
    frequency:   -0.4606818137
  - # 4
    frequency:    0.3643310743
  - # 5
    frequency:    0.7105586109
  - # 6
    frequency:    4.2141958592
  - # 7
    frequency:    4.2318426681
  - # 8
    frequency:    5.6405841971
  - # 9
    frequency:    5.6492729779
  - # 10
    frequency:    5.9425547448
  - # 11
    frequency:    6.8862079551
  - # 12
    frequency:    6.9054434570
  - # 13
    frequency:    8.4918124736
  - # 14
    frequency:    9.2927833219
  - # 15
    frequency:   15.5568699121
  - # 16
    frequency:   16.1736007536
  - # 17
    frequency:   16.1740586294
  - # 18
    frequency:   60.8463028061

- q-position: [    0.0303030,    0.0000000,    0.0000000 ]
  distance:    0.0102208
  band:
  - # 1
    frequency:   -2.4751840735
  - # 2
    frequency:   -2.4492641555
  - # 3
    frequency:   -0.4827538569
  - # 4
    frequency:    0.4368593906
  - # 5
    frequency:    0.8098935272
  - # 6
    frequency:    4.2179682468
  - # 7
    frequency:    4.2432145338
  - # 8
    frequency:    5.6387559834
  - # 9
    frequency:    5.6512335052
  - # 10
    frequency:    5.9508116086
  - # 11
    frequency:    6.8949297605
  - # 12
    frequency:    6.9224890578
  - # 13
    frequency:    8.4912238535
  - # 14
    frequency:    9.2899729360
  - # 15
    frequency:   15.5558634547
  - # 16
    frequency:   16.1885749748
  - # 17
    frequency:   16.1892336125
  - # 18
    frequency:   60.8459338290

- q-position: [    0.0353535,    0.0000000,    0.0000000 ]
  distance:    0.0119243
  band:
  - # 1
    frequency:   -2.4620377431
  - # 2
    frequency:   -2.4268616140
  - # 3
    frequency:   -0.4982432456
  - # 4
    frequency:    0.5092029964
  - # 5
    frequency:    0.9088827426
  - # 6
    frequency:    4.2223843408
  - # 7
    frequency:    4.2564882857
  - # 8
    frequency:    5.6365986509
  - # 9
    frequency:    5.6535236807
  - # 10
    frequency:    5.9604612588
  - # 11
    frequency:    6.9050914667
  - # 12
    frequency:    6.9423772387
  - # 13
    frequency:    8.4905067475
  - # 14
    frequency:    9.2866402592
  - # 15
    frequency:   15.5546727348
  - # 16
    frequency:   16.2059610074
  - # 17
    frequency:   16.2068582240
  - # 18
    frequency:   60.8454974937

- q-position: [    0.0404040,    0.0000000,    0.0000000 ]
  distance:    0.0136277
  band:
  - # 1
    frequency:   -2.4471294823
  - # 2
    frequency:   -2.4013396596
  - # 3
    frequency:   -0.5079657502
  - # 4
    frequency:    0.5813307878
  - # 5
    frequency:    1.0079616679
  - # 6
    frequency:    4.2274238313
  - # 7
    frequency:    4.2715883376
  - # 8
    frequency:    5.6341169608
  - # 9
    frequency:    5.6561307367
  - # 10
    frequency:    5.9714526615
  - # 11
    frequency:    6.9166221563
  - # 12
    frequency:    6.9649815031
  - # 13
    frequency:    8.4896515750
  - # 14
    frequency:    9.2827794532
  - # 15
    frequency:   15.5532949101
  - # 16
    frequency:   16.2256089351
  - # 17
    frequency:   16.2267847434
  - # 18
    frequency:   60.8449936908

- q-position: [    0.0454545,    0.0000000,    0.0000000 ]
  distance:    0.0153312
  band:
  - # 1
    frequency:   -2.4305648438
  - # 2
    frequency:   -2.3728305907
  - # 3
    frequency:   -0.5122724290
  - # 4
    frequency:    0.6532115369
  - # 5
    frequency:    1.1073303063
  - # 6
    frequency:    4.2330638603
  - # 7
    frequency:    4.2884324304
  - # 8
    frequency:    5.6313179982
  - # 9
    frequency:    5.6590404034
  - # 10
    frequency:    5.9837294684
  - # 11
    frequency:    6.9294415579
  - # 12
    frequency:    6.9901577382
  - # 13
    frequency:    8.4886481369
  - # 14
    frequency:    9.2783836589
  - # 15
    frequency:   15.5517255179
  - # 16
    frequency:   16.2473498803
  - # 17
    frequency:   16.2488475339
  - # 18
    frequency:   60.8444223137

- q-position: [    0.0505051,    0.0000000,    0.0000000 ]
  distance:    0.0170346
  band:
  - # 1
    frequency:   -2.4124596023
  - # 2
    frequency:   -2.3414792600
  - # 3
    frequency:   -0.5111653207
  - # 4
    frequency:    0.7248138964
  - # 5
    frequency:    1.2070552695
  - # 6
    frequency:    4.2392792462
  - # 7
    frequency:    4.3069332018
  - # 8
    frequency:    5.6282113260
  - # 9
    frequency:    5.6622370809
  - # 10
    frequency:    5.9972310190
  - # 11
    frequency:    6.9434607084
  - # 12
    frequency:    7.0177453505
  - # 13
    frequency:    8.4874859518
  - # 14
    frequency:    9.2734449602
  - # 15
    frequency:   15.5499583301
  - # 16
    frequency:   16.2709976581
  - # 17
    frequency:   16.2728646781
  - # 18
    frequency:   60.8437832668

- q-position: [    0.0555556,    0.0000000,    0.0000000 ]
  distance:    0.0187381
  band:
  - # 1
    frequency:   -2.3929385033
  - # 2
    frequency:   -2.3074413619
  - # 3
    frequency:   -0.5043445558
  - # 4
    frequency:    0.7961064184
  - # 5
    frequency:    1.3071253575
  - # 6
    frequency:    4.2460427240
  - # 7
    frequency:    4.3269996823
  - # 8
    frequency:    5.6248090195
  - # 9
    frequency:    5.6657040209
  - # 10
    frequency:    6.0118933280
  - # 11
    frequency:    6.9585826959
  - # 12
    frequency:    7.0475686794
  - # 13
    frequency:    8.4861546173
  - # 14
    frequency:    9.2679543549
  - # 15
    frequency:   15.5479853051
  - # 16
    frequency:   16.2963505862
  - # 17
    frequency:   16.2986396705
  - # 18
    frequency:   60.8430764746

- q-position: [    0.0606061,    0.0000000,    0.0000000 ]
  distance:    0.0204416
  band:
  - # 1
    frequency:   -2.3721339664
  - # 2
    frequency:   -2.2708816586
  - # 3
    frequency:   -0.4912006656
  - # 4
    frequency:    0.8670575897
  - # 5
    frequency:    1.4074831232
  - # 6
    frequency:    4.2533251991
  - # 7
    frequency:    4.3485386737
  - # 8
    frequency:    5.6211256122
  - # 9
    frequency:    5.6694235128
  - # 10
    frequency:    6.0276499918
  - # 11
    frequency:    6.9747034763
  - # 12
    frequency:    7.0794386722
  - # 13
    frequency:    8.4846441901
  - # 14
    frequency:    9.2619017342
  - # 15
    frequency:   15.5457966250
  - # 16
    frequency:   16.3231934275
  - # 17
    frequency:   16.3259631648
  - # 18
    frequency:   60.8423018906

- q-position: [    0.0656566,    0.0000000,    0.0000000 ]
  distance:    0.0221450
  band:
  - # 1
    frequency:   -2.3501847709
  - # 2
    frequency:   -2.2319722024
  - # 3
    frequency:   -0.4707406687
  - # 4
    frequency:    0.9376358880
  - # 5
    frequency:    1.5080432202
  - # 6
    frequency:    4.2610960087
  - # 7
    frequency:    4.3714559737
  - # 8
    frequency:    5.6171779884
  - # 9
    frequency:    5.6733770745
  - # 10
    frequency:    6.0444329697
  - # 11
    frequency:    6.9917127568
  - # 12
    frequency:    7.1131547864
  - # 13
    frequency:    8.4829455767
  - # 14
    frequency:    9.2552758764
  - # 15
    frequency:   15.5433808022
  - # 16
    frequency:   16.3512994431
  - # 17
    frequency:   16.3546147759
  - # 18
    frequency:   60.8414595082

- q-position: [    0.0707071,    0.0000000,    0.0000000 ]
  distance:    0.0238485
  band:
  - # 1
    frequency:   -2.3272347483
  - # 2
    frequency:   -2.1908906100
  - # 3
    frequency:   -0.4413995450
  - # 4
    frequency:    1.0078098604
  - # 5
    frequency:    1.6087032182
  - # 6
    frequency:    4.2693231895
  - # 7
    frequency:    4.3956574293
  - # 8
    frequency:    5.6129852525
  - # 9
    frequency:    5.6775456424
  - # 10
    frequency:    6.0621732129
  - # 11
    frequency:    7.0094949355
  - # 12
    frequency:    7.1485070687
  - # 13
    frequency:    8.4810509275
  - # 14
    frequency:    9.2480644576
  - # 15
    frequency:   15.5407248361
  - # 16
    frequency:   16.3804325318
  - # 17
    frequency:   16.3843649353
  - # 18
    frequency:   60.8405493710

- q-position: [    0.0757576,    0.0000000,    0.0000000 ]
  distance:    0.0255520
  band:
  - # 1
    frequency:   -2.3034315059
  - # 2
    frequency:   -2.1478184343
  - # 3
    frequency:   -0.4005915406
  - # 4
    frequency:    1.0775482273
  - # 5
    frequency:    1.7093500571
  - # 6
    frequency:    4.2779737482
  - # 7
    frequency:    4.4210498110
  - # 8
    frequency:    5.6085686030
  - # 9
    frequency:    5.6819097613
  - # 10
    frequency:    6.0808011338
  - # 11
    frequency:    7.0279300871
  - # 12
    frequency:    7.1852783523
  - # 13
    frequency:    8.4789540259
  - # 14
    frequency:    9.2402540833
  - # 15
    frequency:   15.5378144029
  - # 16
    frequency:   16.4103494323
  - # 17
    frequency:   16.4149767995
  - # 18
    frequency:   60.8395715839

- q-position: [    0.0808081,    0.0000000,    0.0000000 ]
  distance:    0.0272554
  band:
  - # 1
    frequency:   -2.2789252031
  - # 2
    frequency:   -2.1029396649
  - # 3
    frequency:   -0.3434966247
  - # 4
    frequency:    1.1468200100
  - # 5
    frequency:    1.8098639679
  - # 6
    frequency:    4.2870139310
  - # 7
    frequency:    4.4475415112
  - # 8
    frequency:    5.6039512286
  - # 9
    frequency:    5.6864497708
  - # 10
    frequency:    6.1002469286
  - # 11
    frequency:    7.0468949815
  - # 12
    frequency:    7.2232465082
  - # 13
    frequency:    8.4766506644
  - # 14
    frequency:    9.2318303451
  - # 15
    frequency:   15.5346340662
  - # 16
    frequency:   16.4408019647
  - # 17
    frequency:   16.4462082035
  - # 18
    frequency:   60.8385263242

- q-position: [    0.0858586,    0.0000000,    0.0000000 ]
  distance:    0.0289589
  band:
  - # 1
    frequency:   -2.2538673980
  - # 2
    frequency:   -2.0564393587
  - # 3
    frequency:   -0.2585694587
  - # 4
    frequency:    1.2155946831
  - # 5
    frequency:    1.9101209272
  - # 6
    frequency:    4.2964094921
  - # 7
    frequency:    4.4750430759
  - # 8
    frequency:    5.5991582406
  - # 9
    frequency:    5.6911459886
  - # 10
    frequency:    6.1204407704
  - # 11
    frequency:    7.0662641238
  - # 12
    frequency:    7.2621866894
  - # 13
    frequency:    8.4741389993
  - # 14
    frequency:    9.2227779046
  - # 15
    frequency:   15.5311674969
  - # 16
    frequency:   16.4715392876
  - # 17
    frequency:   16.4778136493
  - # 18
    frequency:   60.8374138534

- q-position: [    0.0909091,    0.0000000,    0.0000000 ]
  distance:    0.0306624
  band:
  - # 1
    frequency:   -2.2284099785
  - # 2
    frequency:   -2.0085023703
  - # 3
    frequency:   -0.0810504145
  - # 4
    frequency:    1.2838423464
  - # 5
    frequency:    2.0099942611
  - # 6
    frequency:    4.3061259576
  - # 7
    frequency:    4.5034675848
  - # 8
    frequency:    5.5942166494
  - # 9
    frequency:    5.6959788869
  - # 10
    frequency:    6.1413129037
  - # 11
    frequency:    7.0859108006
  - # 12
    frequency:    7.3018735105
  - # 13
    frequency:    8.4714198755
  - # 14
    frequency:    9.2130806092
  - # 15
    frequency:   15.5273976952
  - # 16
    frequency:   16.5023101491
  - # 17
    frequency:   16.5095463161
  - # 18
    frequency:   60.8362345284

- q-position: [    0.0959596,    0.0000000,    0.0000000 ]
  distance:    0.0323658
  band:
  - # 1
    frequency:   -2.2027041871
  - # 2
    frequency:   -1.9593121192
  - # 3
    frequency:    0.2517123365
  - # 4
    frequency:    1.3515339136
  - # 5
    frequency:    2.1093557476
  - # 6
    frequency:    4.3161288852
  - # 7
    frequency:    4.5327308992
  - # 8
    frequency:    5.5891553911
  - # 9
    frequency:    5.7009292643
  - # 10
    frequency:    6.1627936667
  - # 11
    frequency:    7.1057081221
  - # 12
    frequency:    7.3420831158
  - # 13
    frequency:    8.4684971132
  - # 14
    frequency:    9.2027216419
  - # 15
    frequency:   15.5233072118
  - # 16
    frequency:   16.5328651089
  - # 17
    frequency:   16.5411600757
  - # 18
    frequency:   60.8349888125

- q-position: [    0.1010101,    0.0000000,    0.0000000 ]
  distance:    0.0340693
  band:
  - # 1
    frequency:   -2.1768997441
  - # 2
    frequency:   -1.9090493073
  - # 3
    frequency:    0.3786429811
  - # 4
    frequency:    1.4186413112
  - # 5
    frequency:    2.2080764044
  - # 6
    frequency:    4.3263841180
  - # 7
    frequency:    4.5627517936
  - # 8
    frequency:    5.5840054058
  - # 9
    frequency:    5.7059784079
  - # 10
    frequency:    6.1848134704
  - # 11
    frequency:    7.1255300450
  - # 12
    frequency:    7.3825950979
  - # 13
    frequency:    8.4653777475
  - # 14
    frequency:    9.1916837060
  - # 15
    frequency:   15.5188783639
  - # 16
    frequency:   16.5629587140
  - # 17
    frequency:   16.5724114948
  - # 18
    frequency:   60.8336772865

- q-position: [    0.1060606,    0.0000000,    0.0000000 ]
  distance:    0.0357728
  band:
  - # 1
    frequency:   -2.1511440688
  - # 2
    frequency:   -1.8578904951
  - # 3
    frequency:    0.4835906928
  - # 4
    frequency:    1.4851376799
  - # 5
    frequency:    2.3060270550
  - # 6
    frequency:    4.3368580319
  - # 7
    frequency:    4.5934519924
  - # 8
    frequency:    5.5787997691
  - # 9
    frequency:    5.7111082471
  - # 10
    frequency:    6.2073027587
  - # 11
    frequency:    7.1452523665
  - # 12
    frequency:    7.4231942413
  - # 13
    frequency:    8.4620722122
  - # 14
    frequency:    9.1799492496
  - # 15
    frequency:   15.5140934456
  - # 16
    frequency:   16.5923516065
  - # 17
    frequency:   16.6030618060
  - # 18
    frequency:   60.8323006595

- q-position: [    0.1111111,    0.0000000,    0.0000000 ]
  distance:    0.0374762
  band:
  - # 1
    frequency:   -2.1255815927
  - # 2
    frequency:   -1.8060064689
  - # 3
    frequency:    0.5789326066
  - # 4
    frequency:    1.5509975738
  - # 5
    frequency:    2.4030787168
  - # 6
    frequency:    4.3475177770
  - # 7
    frequency:    4.6247561275
  - # 8
    frequency:    5.5735738764
  - # 9
    frequency:    5.7163014959
  - # 10
    frequency:    6.2301919699
  - # 11
    frequency:    7.1647536780
  - # 12
    frequency:    7.4636720767
  - # 13
    frequency:    8.4585944577
  - # 14
    frequency:    9.1675007289
  - # 15
    frequency:   15.5089349323
  - # 16
    frequency:   16.6208125491
  - # 17
    frequency:   16.6328788279
  - # 18
    frequency:   60.8308597783

- q-position: [    0.1161616,    0.0000000,    0.0000000 ]
  distance:    0.0391797
  band:
  - # 1
    frequency:   -2.1003531561
  - # 2
    frequency:   -1.7535603895
  - # 3
    frequency:    0.6689886597
  - # 4
    frequency:    1.6161971477
  - # 5
    frequency:    2.4991028277
  - # 6
    frequency:    4.3583315125
  - # 7
    frequency:    4.6565916325
  - # 8
    frequency:    5.5683656799
  - # 9
    frequency:    5.7215417825
  - # 10
    frequency:    6.2534115156
  - # 11
    frequency:    7.1839162700
  - # 12
    frequency:    7.5038282404
  - # 13
    frequency:    8.4549619934
  - # 14
    frequency:    9.1543209132
  - # 15
    frequency:   15.5033856793
  - # 16
    frequency:   16.6481203516
  - # 17
    frequency:   16.6616388162
  - # 18
    frequency:   60.8293556370

- q-position: [    0.1212121,    0.0000000,    0.0000000 ]
  distance:    0.0408832
  band:
  - # 1
    frequency:   -2.0755954735
  - # 2
    frequency:   -1.7007058018
  - # 3
    frequency:    0.7557758327
  - # 4
    frequency:    1.6807143278
  - # 5
    frequency:    2.5939713214
  - # 6
    frequency:    4.3692686354
  - # 7
    frequency:    4.6888885889
  - # 8
    frequency:    5.5632159742
  - # 9
    frequency:    5.7268137637
  - # 10
    frequency:    6.2768917883
  - # 11
    frequency:    7.2026269805
  - # 12
    frequency:    7.5434716469
  - # 13
    frequency:    8.4511958408
  - # 14
    frequency:    9.1403932328
  - # 15
    frequency:   15.4974291139
  - # 16
    frequency:   16.6740656859
  - # 17
    frequency:   16.6891282295
  - # 18
    frequency:   60.8277893854

- q-position: [    0.1262626,    0.0000000,    0.0000000 ]
  distance:    0.0425866
  band:
  - # 1
    frequency:   -2.0514406534
  - # 2
    frequency:   -1.6475846837
  - # 3
    frequency:    0.8403697009
  - # 4
    frequency:    1.7445289606
  - # 5
    frequency:    2.6875565603
  - # 6
    frequency:    4.3803000015
  - # 7
    frequency:    4.7215795331
  - # 8
    frequency:    5.5581687295
  - # 9
    frequency:    5.7321032225
  - # 10
    frequency:    6.3005632069
  - # 11
    frequency:    7.2207779797
  - # 12
    frequency:    7.5824214862
  - # 13
    frequency:    8.4473203834
  - # 14
    frequency:    9.1257021722
  - # 15
    frequency:   15.4910494221
  - # 16
    frequency:   16.6984527764
  - # 17
    frequency:   16.7151453915
  - # 18
    frequency:   60.8261623366

- q-position: [    0.1313131,    0.0000000,    0.0000000 ]
  distance:    0.0442901
  band:
  - # 1
    frequency:   -2.0280157535
  - # 2
    frequency:   -1.5943258044
  - # 3
    frequency:    0.9233824793
  - # 4
    frequency:    1.8076229362
  - # 5
    frequency:    2.7797311413
  - # 6
    frequency:    4.3913981406
  - # 7
    frequency:    4.7545992376
  - # 8
    frequency:    5.5532714667
  - # 9
    frequency:    5.7373971466
  - # 10
    frequency:    6.3243563045
  - # 11
    frequency:    7.2382674889
  - # 12
    frequency:    7.6205080683
  - # 13
    frequency:    8.4433630962
  - # 14
    frequency:    9.1102337107
  - # 15
    frequency:   15.4842317300
  - # 16
    frequency:   16.7211009578
  - # 17
    frequency:   16.7395020373
  - # 18
    frequency:   60.8244759730

- q-position: [    0.1363636,    0.0000000,    0.0000000 ]
  distance:    0.0459935
  band:
  - # 1
    frequency:   -2.0054423564
  - # 2
    frequency:   -1.5410437016
  - # 3
    frequency:    1.0051712370
  - # 4
    frequency:    1.8699802843
  - # 5
    frequency:    2.8703675946
  - # 6
    frequency:    4.4025374636
  - # 7
    frequency:    4.7878844705
  - # 8
    frequency:    5.5485756668
  - # 9
    frequency:    5.7426837861
  - # 10
    frequency:    6.3482018617
  - # 11
    frequency:    7.2550004274
  - # 12
    frequency:    7.6575735412
  - # 13
    frequency:    8.4393541315
  - # 14
    frequency:    9.0939758144
  - # 15
    frequency:   15.4769622783
  - # 16
    frequency:   16.7418460893
  - # 17
    frequency:   16.7620247290
  - # 18
    frequency:   60.8227319524

- q-position: [    0.1414141,    0.0000000,    0.0000000 ]
  distance:    0.0476970
  band:
  - # 1
    frequency:   -1.9838361466
  - # 2
    frequency:   -1.4878385608
  - # 3
    frequency:    1.0859427157
  - # 4
    frequency:    1.9315872431
  - # 5
    frequency:    2.9593380031
  - # 6
    frequency:    4.4136944602
  - # 7
    frequency:    4.8213737422
  - # 8
    frequency:    5.5441372062
  - # 9
    frequency:    5.7479526882
  - # 10
    frequency:    6.3720310877
  - # 11
    frequency:    7.2708889868
  - # 12
    frequency:    7.6934725164
  - # 13
    frequency:    8.4353257369
  - # 14
    frequency:    9.0769189857
  - # 15
    frequency:   15.4692285921
  - # 16
    frequency:   16.7605418200
  - # 17
    frequency:   16.7825561300
  - # 18
    frequency:   60.8209321111

- q-position: [    0.1464646,    0.0000000,    0.0000000 ]
  distance:    0.0494005
  band:
  - # 1
    frequency:   -1.9633064781
  - # 2
    frequency:   -1.4347971781
  - # 3
    frequency:    1.1658120512
  - # 4
    frequency:    1.9924323027
  - # 5
    frequency:    3.0465135768
  - # 6
    frequency:    4.4248478870
  - # 7
    frequency:    4.8550070418
  - # 8
    frequency:    5.5400168025
  - # 9
    frequency:    5.7531947084
  - # 10
    frequency:    6.3957758478
  - # 11
    frequency:    7.2858531321
  - # 12
    frequency:    7.7280726349
  - # 13
    frequency:    8.4313114718
  - # 14
    frequency:    9.0590568778
  - # 15
    frequency:   15.4610196434
  - # 16
    frequency:   16.7770606993
  - # 17
    frequency:   16.8009561284
  - # 18
    frequency:   60.8190784674

- q-position: [    0.1515152,    0.0000000,    0.0000000 ]
  distance:    0.0511039
  band:
  - # 1
    frequency:   -1.9439559192
  - # 2
    frequency:   -1.3819950337
  - # 3
    frequency:    1.2448383729
  - # 4
    frequency:    2.0525062255
  - # 5
    frequency:    3.1317642227
  - # 6
    frequency:    4.4359789426
  - # 7
    frequency:    4.8887255674
  - # 8
    frequency:    5.5362804518
  - # 9
    frequency:    5.7584019961
  - # 10
    frequency:    6.4193689374
  - # 11
    frequency:    7.2998210282
  - # 12
    frequency:    7.7612551142
  - # 13
    frequency:    8.4273451892
  - # 14
    frequency:    9.0403869865
  - # 15
    frequency:   15.4523260067
  - # 16
    frequency:   16.7912951265
  - # 17
    frequency:   16.8171027997
  - # 18
    frequency:   60.8171732227

- q-position: [    0.1565657,    0.0000000,    0.0000000 ]
  distance:    0.0528074
  band:
  - # 1
    frequency:   -1.9258797709
  - # 2
    frequency:   -1.3294993386
  - # 3
    frequency:    1.3230475432
  - # 4
    frequency:    2.1118020475
  - # 5
    frequency:    3.2149581557
  - # 6
    frequency:    4.4470714277
  - # 7
    frequency:    4.9224714495
  - # 8
    frequency:    5.5329998312
  - # 9
    frequency:    5.7635679556
  - # 10
    frequency:    6.4427444013
  - # 11
    frequency:    7.3127293925
  - # 12
    frequency:    7.7929153091
  - # 13
    frequency:    8.4234597414
  - # 14
    frequency:    9.0209114348
  - # 15
    frequency:   15.4431400071
  - # 16
    frequency:   16.8031581384
  - # 17
    frequency:   16.8308932048
  - # 18
    frequency:   60.8152187611

- q-position: [    0.1616162,    0.0000000,    0.0000000 ]
  distance:    0.0545109
  band:
  - # 1
    frequency:   -1.9091655557
  - # 2
    frequency:   -1.2773727839
  - # 3
    frequency:    1.4004470395
  - # 4
    frequency:    2.1703150648
  - # 5
    frequency:    3.2959616076
  - # 6
    frequency:    4.4581118864
  - # 7
    frequency:    4.9561874693
  - # 8
    frequency:    5.5302526316
  - # 9
    frequency:    5.7686871820
  - # 10
    frequency:    6.4658378949
  - # 11
    frequency:    7.3245237754
  - # 12
    frequency:    7.8229633184
  - # 13
    frequency:    8.4196853702
  - # 14
    frequency:    9.0006378740
  - # 15
    frequency:   15.4334558592
  - # 16
    frequency:   16.8125840302
  - # 17
    frequency:   16.8422440152
  - # 18
    frequency:   60.8132176483

- q-position: [    0.1666667,    0.0000000,    0.0000000 ]
  distance:    0.0562143
  band:
  - # 1
    frequency:   -1.8938924805
  - # 2
    frequency:   -1.2256776582
  - # 3
    frequency:    1.4770356561
  - # 4
    frequency:    2.2280428103
  - # 5
    frequency:    3.3746386954
  - # 6
    frequency:    4.4690897253
  - # 7
    frequency:    4.9898167703
  - # 8
    frequency:    5.5281227743
  - # 9
    frequency:    5.7737553732
  - # 10
    frequency:    6.4885870853
  - # 11
    frequency:    7.3351587687
  - # 12
    frequency:    7.8513246533
  - # 13
    frequency:    8.4160477467
  - # 14
    frequency:    8.9795805302
  - # 15
    frequency:   15.4232697964
  - # 16
    frequency:   16.8195288094
  - # 17
    frequency:   16.8510919644
  - # 18
    frequency:   60.8111726278

- q-position: [    0.1717172,    0.0000000,    0.0000000 ]
  distance:    0.0579178
  band:
  - # 1
    frequency:   -1.8801308837
  - # 2
    frequency:   -1.1744800006
  - # 3
    frequency:    1.5528096232
  - # 4
    frequency:    2.2849850241
  - # 5
    frequency:    3.4508515218
  - # 6
    frequency:    4.4799973060
  - # 7
    frequency:    5.0233025615
  - # 8
    frequency:    5.5267004529
  - # 9
    frequency:    5.7787692199
  - # 10
    frequency:    6.5109320894
  - # 11
    frequency:    7.3445981446
  - # 12
    frequency:    7.8779409630
  - # 13
    frequency:    8.4125656325
  - # 14
    frequency:    8.9577614392
  - # 15
    frequency:   15.4125801895
  - # 16
    frequency:   16.8239704809
  - # 17
    frequency:   16.8573941206
  - # 18
    frequency:   60.8090866168

- q-position: [    0.1767677,    0.0000000,    0.0000000 ]
  distance:    0.0596213
  band:
  - # 1
    frequency:   -1.8679416776
  - # 2
    frequency:   -1.1238535227
  - # 3
    frequency:    1.6277662085
  - # 4
    frequency:    2.3411436220
  - # 5
    frequency:    3.5244605913
  - # 6
    frequency:    4.4908300063
  - # 7
    frequency:    5.0565878135
  - # 8
    frequency:    5.5260819290
  - # 9
    frequency:    5.7837262755
  - # 10
    frequency:    6.5328159428
  - # 11
    frequency:    7.3528149257
  - # 12
    frequency:    7.9027707810
  - # 13
    frequency:    8.4092481562
  - # 14