nqpoint: 300    
npath: 3      
segment_nqpoint:
- 100
- 100
- 100
labels:
- [ 'G', 'M' ]
- [ 'M', 'K' ]
- [ 'K', 'G' ]
reciprocal_lattice:
- [   0.25275221,   0.14592656,  -0.00000000 ] # a*
- [  -0.00000000,   0.29185311,  -0.00000000 ] # b*
- [  -0.00000000,  -0.00000000,   0.04490777 ] # c*
natom: 5      
lattice:
- [     3.956444114751651,     0.000000000000000,     0.000000000000000 ] # a
- [    -1.978222057375825,     3.426381112035163,     0.000000000000000 ] # b
- [     0.000000000000004,     0.000000000000006,    22.267863839282441 ] # c
points:
- symbol: C # 1
  coordinates: [  0.000000000000000,  0.000000000000000,  0.485231276030755 ]
  mass: 12.010700
- symbol: Cl # 2
  coordinates: [  0.333332985432215,  0.666666983183674,  0.632703167713985 ]
  mass: 35.453000
- symbol: H # 3
  coordinates: [  0.666666984744048,  0.333332985985145,  0.374424649112510 ]
  mass: 1.007940
- symbol: La # 4
  coordinates: [  0.333332985432215,  0.666666983183674,  0.417901360057150 ]
  mass: 138.905470
- symbol: La # 5
  coordinates: [  0.666666984744048,  0.333332985985145,  0.550621187055371 ]
  mass: 138.905470

phonon:
- q-position: [    0.0000000,    0.0000000,    0.0000000 ]
  distance:    0.0000000
  band:
  - # 1
    frequency:   -0.0000078200
  - # 2
    frequency:   -0.0000000442
  - # 3
    frequency:    0.0000084525
  - # 4
    frequency:    1.9631406045
  - # 5
    frequency:    1.9631406045
  - # 6
    frequency:    2.5577223046
  - # 7
    frequency:    2.5577223047
  - # 8
    frequency:    4.1721656932
  - # 9
    frequency:    4.1721656932
  - # 10
    frequency:    4.2559434374
  - # 11
    frequency:    6.8207618989
  - # 12
    frequency:   13.4875366710
  - # 13
    frequency:   19.1604084498
  - # 14
    frequency:   23.9026156424
  - # 15
    frequency:   23.9026156424

- q-position: [    0.0050505,    0.0000000,    0.0000000 ]
  distance:    0.0014740
  band:
  - # 1
    frequency:    0.0003001618
  - # 2
    frequency:    0.0178032082
  - # 3
    frequency:    0.0694647300
  - # 4
    frequency:    1.9613255860
  - # 5
    frequency:    1.9719522744
  - # 6
    frequency:    2.5577604240
  - # 7
    frequency:    2.5739538388
  - # 8
    frequency:    4.1719216828
  - # 9
    frequency:    4.1720796769
  - # 10
    frequency:    4.2565107556
  - # 11
    frequency:    6.8204577330
  - # 12
    frequency:   13.4854104002
  - # 13
    frequency:   19.1589421836
  - # 14
    frequency:   23.9027055157
  - # 15
    frequency:   23.9042089981

- q-position: [    0.0101010,    0.0000000,    0.0000000 ]
  distance:    0.0029480
  band:
  - # 1
    frequency:    0.0038953978
  - # 2
    frequency:    0.0351144881
  - # 3
    frequency:    0.1393391883
  - # 4
    frequency:    1.9558802470
  - # 5
    frequency:    1.9952978460
  - # 6
    frequency:    2.5578805064
  - # 7
    frequency:    2.6240210008
  - # 8
    frequency:    4.1712601922
  - # 9
    frequency:    4.1718223033
  - # 10
    frequency:    4.2581858351
  - # 11
    frequency:    6.8195489902
  - # 12
    frequency:   13.4790366601
  - # 13
    frequency:   19.1545471735
  - # 14
    frequency:   23.9029747457
  - # 15
    frequency:   23.9089836654

- q-position: [    0.0151515,    0.0000000,    0.0000000 ]
  distance:    0.0044220
  band:
  - # 1
    frequency:    0.0063455422
  - # 2
    frequency:    0.0514023285
  - # 3
    frequency:    0.2099822840
  - # 4
    frequency:    1.9468047177
  - # 5
    frequency:    2.0258538421
  - # 6
    frequency:    2.5580992704
  - # 7
    frequency:    2.7105721171
  - # 8
    frequency:    4.1703938755
  - # 9
    frequency:    4.1713955897
  - # 10
    frequency:    4.2609005560
  - # 11
    frequency:    6.8180471852
  - # 12
    frequency:   13.4684306506
  - # 13
    frequency:   19.1472347384
  - # 14
    frequency:   23.9034221643
  - # 15
    frequency:   23.9169235074

- q-position: [    0.0202020,    0.0000000,    0.0000000 ]
  distance:    0.0058960
  band:
  - # 1
    frequency:    0.0095679314
  - # 2
    frequency:    0.0660466213
  - # 3
    frequency:    0.2814248562
  - # 4
    frequency:    1.9341024706
  - # 5
    frequency:    2.0564360424
  - # 6
    frequency:    2.5584431385
  - # 7
    frequency:    2.8342699818
  - # 8
    frequency:    4.1696932226
  - # 9
    frequency:    4.1708028716
  - # 10
    frequency:    4.2645785559
  - # 11
    frequency:    6.8159723815
  - # 12
    frequency:   13.4536176492
  - # 13
    frequency:   19.1370235879
  - # 14
    frequency:   23.9040458311
  - # 15
    frequency:   23.9280018370

- q-position: [    0.0252525,    0.0000000,    0.0000000 ]
  distance:    0.0073700
  band:
  - # 1
    frequency:    0.0144721284
  - # 2
    frequency:    0.0782653856
  - # 3
    frequency:    0.3535261300
  - # 4
    frequency:    1.9177851785
  - # 5
    frequency:    2.0831458243
  - # 6
    frequency:    2.5589463035
  - # 7
    frequency:    2.9917474970
  - # 8
    frequency:    4.1697546868
  - # 9
    frequency:    4.1700487632
  - # 10
    frequency:    4.2691835711
  - # 11
    frequency:    6.8133546435
  - # 12
    frequency:   13.4346329313
  - # 13
    frequency:   19.1239395977
  - # 14
    frequency:   23.9048430434
  - # 15
    frequency:   23.9421817191

- q-position: [    0.0303030,    0.0000000,    0.0000000 ]
  distance:    0.0088440
  band:
  - # 1
    frequency:    0.0214403356
  - # 2
    frequency:    0.0869853981
  - # 3
    frequency:    0.4260678299
  - # 4
    frequency:    1.8978795338
  - # 5
    frequency:    2.1052616802
  - # 6
    frequency:    2.5596484285
  - # 7
    frequency:    3.1762922345
  - # 8
    frequency:    4.1691391049
  - # 9
    frequency:    4.1715997480
  - # 10
    frequency:    4.2747988895
  - # 11
    frequency:    6.8102363976
  - # 12
    frequency:   13.4115216648
  - # 13
    frequency:   19.1080155084
  - # 14
    frequency:   23.9058103494
  - # 15
    frequency:   23.9594163755

- q-position: [    0.0353535,    0.0000000,    0.0000000 ]
  distance:    0.0103180
  band:
  - # 1
    frequency:    0.0304933853
  - # 2
    frequency:    0.0905699869
  - # 3
    frequency:    0.4988265872
  - # 4
    frequency:    1.8744361972
  - # 5
    frequency:    2.1235840412
  - # 6
    frequency:    2.5605922788
  - # 7
    frequency:    3.3791888920
  - # 8
    frequency:    4.1680808997
  - # 9
    frequency:    4.1772007855
  - # 10
    frequency:    4.2818294915
  - # 11
    frequency:    6.8066761317
  - # 12
    frequency:   13.3843387854
  - # 13
    frequency:   19.0892905603
  - # 14
    frequency:   23.9069435658
  - # 15
    frequency:   23.9796496783

- q-position: [    0.0404040,    0.0000000,    0.0000000 ]
  distance:    0.0117920
  band:
  - # 1
    frequency:    0.0415313470
  - # 2
    frequency:    0.0860918035
  - # 3
    frequency:    0.5716072268
  - # 4
    frequency:    1.8475412494
  - # 5
    frequency:    2.1392185636
  - # 6
    frequency:    2.5618215524
  - # 7
    frequency:    3.5889019224
  - # 8
    frequency:    4.1668822408
  - # 9
    frequency:    4.1908190663
  - # 10
    frequency:    4.2917946868
  - # 11
    frequency:    6.8027541833
  - # 12
    frequency:   13.3531488614
  - # 13
    frequency:   19.0678100796
  - # 14
    frequency:   23.9082377984
  - # 15
    frequency:   24.0028167107

- q-position: [    0.0454545,    0.0000000,    0.0000000 ]
  distance:    0.0132661
  band:
  - # 1
    frequency:    0.0544347912
  - # 2
    frequency:    0.0663156503
  - # 3
    frequency:    0.6442493371
  - # 4
    frequency:    1.8173307740
  - # 5
    frequency:    2.1531074341
  - # 6
    frequency:    2.5633790967
  - # 7
    frequency:    3.7851195713
  - # 8
    frequency:    4.1655522332
  - # 9
    frequency:    4.2206032271
  - # 10
    frequency:    4.3120795230
  - # 11
    frequency:    6.7985819355
  - # 12
    frequency:   13.3180259578
  - # 13
    frequency:   19.0436250308
  - # 14
    frequency:   23.9096874670
  - # 15
    frequency:   24.0288443766

- q-position: [    0.0505051,    0.0000000,    0.0000000 ]
  distance:    0.0147401
  band:
  - # 1
    frequency:   -0.0429630184
  - # 2
    frequency:    0.0690915373
  - # 3
    frequency:    0.7166216505
  - # 4
    frequency:    1.7840094043
  - # 5
    frequency:    2.1659478380
  - # 6
    frequency:    2.5653056120
  - # 7
    frequency:    3.9300886687
  - # 8
    frequency:    4.1641009126
  - # 9
    frequency:    4.2601293867
  - # 10
    frequency:    4.3829973266
  - # 11
    frequency:    6.7943168278
  - # 12
    frequency:   13.2790535120
  - # 13
    frequency:   19.0167915507
  - # 14
    frequency:   23.9112863331
  - # 15
    frequency:   24.0576520380

- q-position: [    0.0555556,    0.0000000,    0.0000000 ]
  distance:    0.0162141
  band:
  - # 1
    frequency:   -0.1121742624
  - # 2
    frequency:    0.0854007691
  - # 3
    frequency:    0.7886130486
  - # 4
    frequency:    1.7478736531
  - # 5
    frequency:    2.1782323196
  - # 6
    frequency:    2.5676388476
  - # 7
    frequency:    4.0024560451
  - # 8
    frequency:    4.1625391629
  - # 9
    frequency:    4.2806371209
  - # 10
    frequency:    4.5515096972
  - # 11
    frequency:    6.7901877448
  - # 12
    frequency:   13.2363242350
  - # 13
    frequency:   18.9873704791
  - # 14
    frequency:   23.9130275314
  - # 15
    frequency:   24.0891521603

- q-position: [    0.0606061,    0.0000000,    0.0000000 ]
  distance:    0.0176881
  band:
  - # 1
    frequency:   -0.1714218212
  - # 2
    frequency:    0.1032715933
  - # 3
    frequency:    0.8601240172
  - # 4
    frequency:    1.7093402799
  - # 5
    frequency:    2.1903069251
  - # 6
    frequency:    2.5704132347
  - # 7
    frequency:    4.0311591399
  - # 8
    frequency:    4.1608786359
  - # 9
    frequency:    4.2916240191
  - # 10
    frequency:    4.7765172029
  - # 11
    frequency:    6.7865398648
  - # 12
    frequency:   13.1899400552
  - # 13
    frequency:   18.9554268991
  - # 14
    frequency:   23.9149036038
  - # 15
    frequency:   24.1232509481

- q-position: [    0.0656566,    0.0000000,    0.0000000 ]
  distance:    0.0191621
  band:
  - # 1
    frequency:   -0.2327592396
  - # 2
    frequency:    0.1226207067
  - # 3
    frequency:    0.9310596550
  - # 4
    frequency:    1.6689783082
  - # 5
    frequency:    2.2024191057
  - # 6
    frequency:    2.5736598573
  - # 7
    frequency:    4.0420425752
  - # 8
    frequency:    4.1591316752
  - # 9
    frequency:    4.2999439796
  - # 10
    frequency:    5.0229143820
  - # 11
    frequency:    6.7839180812
  - # 12
    frequency:   13.1400121250
  - # 13
    frequency:   18.9210296976
  - # 14
    frequency:   23.9169065369
  - # 15
    frequency:   24.1598489555

- q-position: [    0.0707071,    0.0000000,    0.0000000 ]
  distance:    0.0206361
  band:
  - # 1
    frequency:   -0.2987583138
  - # 2
    frequency:    0.1433703462
  - # 3
    frequency:    1.0013242121
  - # 4
    frequency:    1.6275398522
  - # 5
    frequency:    2.2147522727
  - # 6
    frequency:    2.5774066538
  - # 7
    frequency:    4.0452945440
  - # 8
    frequency:    4.1573112445
  - # 9
    frequency:    4.3072879796
  - # 10
    frequency:    5.2763960847
  - # 11
    frequency:    6.7832316954
  - # 12
    frequency:   13.0866609138
  - # 13
    frequency:   18.8842511555
  - # 14
    frequency:   23.9190278021
  - # 15
    frequency:   24.1988416587

- q-position: [    0.0757576,    0.0000000,    0.0000000 ]
  distance:    0.0221101
  band:
  - # 1
    frequency:   -0.3705002541
  - # 2
    frequency:    0.1654467369
  - # 3
    frequency:    1.0708167945
  - # 4
    frequency:    1.5859792206
  - # 5
    frequency:    2.2274498490
  - # 6
    frequency:    2.5816787449
  - # 7
    frequency:    4.0447825091
  - # 8
    frequency:    4.1554308637
  - # 9
    frequency:    4.3141889999
  - # 10
    frequency:    5.5296865405
  - # 11
    frequency:    6.7861016134
  - # 12
    frequency:   13.0300164172
  - # 13
    frequency:   18.8451665732
  - # 14
    frequency:   23.9212583981
  - # 15
    frequency:   24.2401199819

- q-position: [    0.0808081,    0.0000000,    0.0000000 ]
  distance:    0.0235841
  band:
  - # 1
    frequency:   -0.4484339848
  - # 2
    frequency:    0.1887789899
  - # 3
    frequency:    1.1394278521
  - # 4
    frequency:    1.5454429323
  - # 5
    frequency:    2.2406320839
  - # 6
    frequency:    2.5864988069
  - # 7
    frequency:    4.0421814382
  - # 8
    frequency:    4.1535045510
  - # 9
    frequency:    4.3208577698
  - # 10
    frequency:    5.7767351097
  - # 11
    frequency:    6.7956391650
  - # 12
    frequency:   12.9702185175
  - # 13
    frequency:   18.8038539344
  - # 14
    frequency:   23.9235888958
  - # 15
    frequency:   24.2835707695

- q-position: [    0.0858586,    0.0000000,    0.0000000 ]
  distance:    0.0250581
  band:
  - # 1
    frequency:   -0.5325277895
  - # 2
    frequency:    0.2132983506
  - # 3
    frequency:    1.2070361611
  - # 4
    frequency:    1.5072099897
  - # 5
    frequency:    2.2544081048
  - # 6
    frequency:    2.5918874282
  - # 7
    frequency:    4.0383175089
  - # 8
    frequency:    4.1515467737
  - # 9
    frequency:    4.3273911837
  - # 10
    frequency:    6.0093347866
  - # 11
    frequency:    6.8182298315
  - # 12
    frequency:   12.9074175446
  - # 13
    frequency:   18.7603936118
  - # 14
    frequency:   23.9260094855
  - # 15
    frequency:   24.3290772028

- q-position: [    0.0909091,    0.0000000,    0.0000000 ]
  distance:    0.0265321
  band:
  - # 1
    frequency:   -0.6222834705
  - # 2
    frequency:    0.2389377010
  - # 3
    frequency:    1.2735061258
  - # 4
    frequency:    1.4725705851
  - # 5
    frequency:    2.2688848558
  - # 6
    frequency:    2.5978634117
  - # 7
    frequency:    4.0336439436
  - # 8
    frequency:    4.1495724065
  - # 9
    frequency:    4.3338388161
  - # 10
    frequency:    6.2131191180
  - # 11
    frequency:    6.8669596960
  - # 12
    frequency:   12.8417750941
  - # 13
    frequency:   18.7148681118
  - # 14
    frequency:   23.9285100253
  - # 15
    frequency:   24.3765191615

- q-position: [    0.0959596,    0.0000000,    0.0000000 ]
  distance:    0.0280061
  band:
  - # 1
    frequency:   -0.7167658208
  - # 2
    frequency:    0.2656312395
  - # 3
    frequency:    1.3386853524
  - # 4
    frequency:    1.4426582400
  - # 5
    frequency:    2.2841739290
  - # 6
    frequency:    2.6044440020
  - # 7
    frequency:    4.0284317940
  - # 8
    frequency:    4.1475966965
  - # 9
    frequency:    4.3402283012
  - # 10
    frequency:    6.3664380523
  - # 11
    frequency:    6.9624972405
  - # 12
    frequency:   12.7734651852
  - # 13
    frequency:   18.6673618579
  - # 14
    frequency:   23.9310800921
  - # 15
    frequency:   24.4257735309

- q-position: [    0.1010101,    0.0000000,    0.0000000 ]
  distance:    0.0294801
  band:
  - # 1
    frequency:   -0.8147069627
  - # 2
    frequency:    0.2933142832
  - # 3
    frequency:    1.4024025891
  - # 4
    frequency:    1.4182849334
  - # 5
    frequency:    2.3003968117
  - # 6
    frequency:    2.6116450297
  - # 7
    frequency:    4.0228552948
  - # 8
    frequency:    4.1456352360
  - # 9
    frequency:    4.3465763482
  - # 10
    frequency:    6.4576414346
  - # 11
    frequency:    7.1156929911
  - # 12
    frequency:   12.7026758618
  - # 13
    frequency:   18.6179610092
  - # 14
    frequency:   23.9337090326
  - # 15
    frequency:   24.4767144614

- q-position: [    0.1060606,    0.0000000,    0.0000000 ]
  distance:    0.0309541
  band:
  - # 1
    frequency:   -0.9146808849
  - # 2
    frequency:    0.3219231497
  - # 3
    frequency:    1.3998422102
  - # 4
    frequency:    1.4644662992
  - # 5
    frequency:    2.3176886806
  - # 6
    frequency:    2.6194809764
  - # 7
    frequency:    4.0170336454
  - # 8
    frequency:    4.1437039410
  - # 9
    frequency:    4.3528939975
  - # 10
    frequency:    6.5018043374
  - # 11
    frequency:    7.3107905685
  - # 12
    frequency:   12.6296113840
  - # 13
    frequency:   18.5667533084
  - # 14
    frequency:   23.9363860169
  - # 15
    frequency:   24.5292135870

- q-position: [    0.1111111,    0.0000000,    0.0000000 ]
  distance:    0.0324281
  band:
  - # 1
    frequency:   -1.0152945092
  - # 2
    frequency:    0.3513950928
  - # 3
    frequency:    1.3873034122
  - # 4
    frequency:    1.5246643412
  - # 5
    frequency:    2.3362005281
  - # 6
    frequency:    2.6279649656
  - # 7
    frequency:    4.0110530191
  - # 8
    frequency:    4.1418190348
  - # 9
    frequency:    4.3591893131
  - # 10
    frequency:    6.5200851102
  - # 11
    frequency:    7.5260298882
  - # 12
    frequency:   12.5544952071
  - # 13
    frequency:   18.5138279568
  - # 14
    frequency:   23.9391000909
  - # 15
    frequency:   24.5831402083

- q-position: [    0.1161616,    0.0000000,    0.0000000 ]
  distance:    0.0339021
  band:
  - # 1
    frequency:   -1.1153340125
  - # 2
    frequency:    0.3816682706
  - # 3
    frequency:    1.3803115901
  - # 4
    frequency:    1.5827654631
  - # 5
    frequency:    2.3560990825
  - # 6
    frequency:    2.6371086910
  - # 7
    frequency:    4.0049788775
  - # 8
    frequency:    4.1399970369
  - # 9
    frequency:    4.3654688320
  - # 10
    frequency:    6.5249866675
  - # 11
    frequency:    7.7483594640
  - # 12
    frequency:   12.4775740254
  - # 13
    frequency:   18.4592755088
  - # 14
    frequency:   23.9418402311
  - # 15
    frequency:   24.6383614517

- q-position: [    0.1212121,    0.0000000,    0.0000000 ]
  distance:    0.0353761
  band:
  - # 1
    frequency:   -1.2138366010
  - # 2
    frequency:    0.4126817337
  - # 3
    frequency:    1.3783047626
  - # 4
    frequency:    1.6385235324
  - # 5
    frequency:    2.3775637146
  - # 6
    frequency:    2.6469222927
  - # 7
    frequency:    3.9988632144
  - # 8
    frequency:    4.1382547552
  - # 9
    frequency:    4.3717383701
  - # 10
    frequency:    6.5225222305
  - # 11
    frequency:    7.9712503661
  - # 12
    frequency:   12.3991232696
  - # 13
    frequency:   18.4031877818
  - # 14
    frequency:   23.9445953984
  - # 15
    frequency:   24.6947424126

- q-position: [    0.1262626,    0.0000000,    0.0000000 ]
  distance:    0.0368501
  band:
  - # 1
    frequency:   -1.3100957580
  - # 2
    frequency:    0.4443754271
  - # 3
    frequency:    1.3806325568
  - # 4
    frequency:    1.6916854877
  - # 5
    frequency:    2.4007794165
  - # 6
    frequency:    2.6574141939
  - # 7
    frequency:    3.9927490060
  - # 8
    frequency:    4.1366092808
  - # 9
    frequency:    4.3780034709
  - # 10
    frequency:    6.5156324513
  - # 11
    frequency:    8.1912613402
  - # 12
    frequency:   12.3194546024
  - # 13
    frequency:   18.3456577761
  - # 14
    frequency:   23.9473545917
  - # 15
    frequency:   24.7521462915

- q-position: [    0.1313131,    0.0000000,    0.0000000 ]
  distance:    0.0383241
  band:
  - # 1
    frequency:   -1.4036266691
  - # 2
    frequency:    0.4766901980
  - # 3
    frequency:    1.3866406963
  - # 4
    frequency:    1.7420037529
  - # 5
    frequency:    2.4259251616
  - # 6
    frequency:    2.6685909069
  - # 7
    frequency:    3.9866730505
  - # 8
    frequency:    4.1350779855
  - # 9
    frequency:    4.3842696485
  - # 10
    frequency:    6.5058649035
  - # 11
    frequency:    8.4063416606
  - # 12
    frequency:   12.2389261901
  - # 13
    frequency:   18.2867795979
  - # 14
    frequency:   23.9501069020
  - # 15
    frequency:   24.8104345336

- q-position: [    0.1363636,    0.0000000,    0.0000000 ]
  distance:    0.0397982
  band:
  - # 1
    frequency:   -1.4941173325
  - # 2
    frequency:    0.5095678093
  - # 3
    frequency:    1.3957207177
  - # 4
    frequency:    1.7892530844
  - # 5
    frequency:    2.4531577043
  - # 6
    frequency:    2.6804568211
  - # 7
    frequency:    3.9806678512
  - # 8
    frequency:    4.1336785202
  - # 9
    frequency:    4.3905425022
  - # 10
    frequency:    6.4941005626
  - # 11
    frequency:    8.6150850215
  - # 12
    frequency:   12.1579568410
  - # 13
    frequency:   18.2266483828
  - # 14
    frequency:   23.9528415644
  - # 15
    frequency:   24.8694669801

- q-position: [    0.1414141,    0.0000000,    0.0000000 ]
  distance:    0.0412722
  band:
  - # 1
    frequency:   -1.5813812580
  - # 2
    frequency:    0.5429509573
  - # 3
    frequency:    1.4073327785
  - # 4
    frequency:    1.8332504708
  - # 5
    frequency:    2.4825922180
  - # 6
    frequency:    2.6930139797
  - # 7
    frequency:    3.9747629155
  - # 8
    frequency:    4.1324288142
  - # 9
    frequency:    4.3968277485
  - # 10
    frequency:    6.4808782946
  - # 11
    frequency:    8.8163813142
  - # 12
    frequency:   12.0770455380
  - # 13
    frequency:   18.1653602126
  - # 14
    frequency:   23.9555480105
  - # 15
    frequency:   24.9291020387

- q-position: [    0.1464646,    0.0000000,    0.0000000 ]
  distance:    0.0427462
  band:
  - # 1
    frequency:   -1.6653185990
  - # 2
    frequency:    0.5767832930
  - # 3
    frequency:    1.4210113639
  - # 4
    frequency:    1.8738750635
  - # 5
    frequency:    2.5142828037
  - # 6
    frequency:    2.7062618562
  - # 7
    frequency:    3.9689856978
  - # 8
    frequency:    4.1313470742
  - # 9
    frequency:    4.4031311979
  - # 10
    frequency:    6.4665494976
  - # 11
    frequency:    9.0092316849
  - # 12
    frequency:   11.9967984414
  - # 13
    frequency:   18.1030120219
  - # 14
    frequency:   23.9582159186
  - # 15
    frequency:   24.9891968813

- q-position: [    0.1515152,    0.0000000,    0.0000000 ]
  distance:    0.0442202
  band:
  - # 1
    frequency:   -1.7458870104
  - # 2
    frequency:    0.6110094495
  - # 3
    frequency:    1.4363617482
  - # 4
    frequency:    1.9110839109
  - # 5
    frequency:    2.5482070949
  - # 6
    frequency:    2.7201971367
  - # 7
    frequency:    3.9633623267
  - # 8
    frequency:    4.1304517827
  - # 9
    frequency:    4.4094586909
  - # 10
    frequency:    6.4513568291
  - # 11
    frequency:    9.1926300233
  - # 12
    frequency:   11.9179660141
  - # 13
    frequency:   18.0397014893
  - # 14
    frequency:   23.9608352622
  - # 15
    frequency:   25.0496076752

- q-position: [    0.1565657,    0.0000000,    0.0000000 ]
  distance:    0.0456942
  band:
  - # 1
    frequency:   -1.8230810192
  - # 2
    frequency:    0.6455750771
  - # 3
    frequency:    1.4530523422
  - # 4
    frequency:    1.9449194128
  - # 5
    frequency:    2.5842590429
  - # 6
    frequency:    2.7348135163
  - # 7
    frequency:    3.9579182089
  - # 8
    frequency:    4.1297616954
  - # 9
    frequency:    4.4158160052
  - # 10
    frequency:    6.4354767383
  - # 11
    frequency:    9.3654680448
  - # 12
    frequency:   11.8414932119
  - # 13
    frequency:   17.9755269103
  - # 14
    frequency:   23.9633963574
  - # 15
    frequency:   25.1101898508

- q-position: [    0.1616162,    0.0000000,    0.0000000 ]
  distance:    0.0471682
  band:
  - # 1
    frequency:   -1.8969179857
  - # 2
    frequency:    0.6804268867
  - # 3
    frequency:    1.4708058594
  - # 4
    frequency:    1.9755062870
  - # 5
    frequency:    2.6222520815
  - # 6
    frequency:    2.7501015154
  - # 7
    frequency:    3.9526785757
  - # 8
    frequency:    4.1292958357
  - # 9
    frequency:    4.4222087415
  - # 10
    frequency:    6.4190436586
  - # 11
    frequency:    9.5264439810
  - # 12
    frequency:   11.7685847431
  - # 13
    frequency:   17.9105870465
  - # 14
    frequency:   23.9658899071
  - # 15
    frequency:   25.1707984121

- q-position: [    0.1666667,    0.0000000,    0.0000000 ]
  distance:    0.0486422
  band:
  - # 1
    frequency:   -1.9674288337
  - # 2
    frequency:    0.7155127058
  - # 3
    frequency:    1.4893907798
  - # 4
    frequency:    2.0030388026
  - # 5
    frequency:    2.6619319100
  - # 6
    frequency:    2.7660483219
  - # 7
    frequency:    3.9476690147
  - # 8
    frequency:    4.1290734876
  - # 9
    frequency:    4.4286421920
  - # 10
    frequency:    6.4021643868
  - # 11
    frequency:    9.6739687000
  - # 12
    frequency:   11.7007829592
  - # 13
    frequency:   17.8449809490
  - # 14
    frequency:   23.9683070442
  - # 15
    frequency:   25.2312882893

- q-position: [    0.1717172,    0.0000000,    0.0000000 ]
  distance:    0.0501162
  band:
  - # 1
    frequency:   -2.0346520943
  - # 2
    frequency:    0.7507815481
  - # 3
    frequency:    1.5086137444
  - # 4
    frequency:    2.0277616648
  - # 5
    frequency:    2.7029954976
  - # 6
    frequency:    2.7826376650
  - # 7
    frequency:    3.9429160202
  - # 8
    frequency:    4.1291141843
  - # 9
    frequency:    4.4351211974
  - # 10
    frequency:    6.3849269559
  - # 11
    frequency:    9.8060800022
  - # 12
    frequency:   11.6400432610
  - # 13
    frequency:   17.7788077519
  - # 14
    frequency:   23.9706393706
  - # 15
    frequency:   25.2915147355

- q-position: [    0.1767677,    0.0000000,    0.0000000 ]
  distance:    0.0515902
  band:
  - # 1
    frequency:   -2.0986301897
  - # 2
    frequency:    0.7861837005
  - # 3
    frequency:    1.5283130634
  - # 4
    frequency:    2.0499490375
  - # 5
    frequency:    2.7451118150
  - # 6
    frequency:    2.7998497237
  - # 7
    frequency:    3.9384475869
  - # 8
    frequency:    4.1294376922
  - # 9
    frequency:    4.4416499963
  - # 10
    frequency:    6.3674062847
  - # 11
    frequency:    9.9204059763
  - # 12
    frequency:   11.5887638040
  - # 13
    frequency:   17.7121664344
  - # 14
    frequency:   23.9728789945
  - # 15
    frequency:   25.3513337676

- q-position: [    0.1818182,    0.0000000,    0.0000000 ]
  distance:    0.0530642
  band:
  - # 1
    frequency:   -2.1594072052
  - # 2
    frequency:    0.8216708279
  - # 3
    frequency:    1.5483533018
  - # 4
    frequency:    2.0698855732
  - # 5
    frequency:    2.7879404141
  - # 6
    frequency:    2.8176610743
  - # 7
    frequency:    3.9342938614
  - # 8
    frequency:    4.1300639903
  - # 9
    frequency:    4.4482320699
  - # 10
    frequency:    6.3496678711
  - # 11
    frequency:   10.0142652968
  - # 12
    frequency:   11.5496803238
  - # 13
    frequency:   17.6451555494
  - # 14
    frequency:   23.9750185641
  - # 15
    frequency:   25.4106026460

- q-position: [    0.1868687,    0.0000000,    0.0000000 ]
  distance:    0.0545382
  band:
  - # 1
    frequency:   -2.2170276326
  - # 2
    frequency:    0.8571960992
  - # 3
    frequency:    1.5686208203
  - # 4
    frequency:    2.0878517080
  - # 5
    frequency:    2.8311455942
  - # 6
    frequency:    2.8360446795
  - # 7
    frequency:    3.9304878603
  - # 8
    frequency:    4.1310132417
  - # 9
    frequency:    4.4548699862
  - # 10
    frequency:    6.3317702564
  - # 11
    frequency:   10.0850283636
  - # 12
    frequency:   11.5255014261
  - # 13
    frequency:   17.5778729168
  - # 14
    frequency:   23.9770512982
  - # 15
    frequency:   25.4691803936

- q-position: [    0.1919192,    0.0000000,    0.0000000 ]
  distance:    0.0560122
  band:
  - # 1
    frequency:   -2.2715357398
  - # 2
    frequency:    0.8927143351
  - # 3
    frequency:    1.5890201200
  - # 4
    frequency:    2.1041138185
  - # 5
    frequency:    2.8549699203
  - # 6
    frequency:    2.8744055602
  - # 7
    frequency:    3.9270662540
  - # 8
    frequency:    4.1323057581
  - # 9
    frequency:    4.4615652477
  - # 10
    frequency:    6.3137666973
  - # 11
    frequency:   10.1307949571
  - # 12
    frequency:   11.5182282172
  - # 13
    frequency:   17.5104152833
  - # 14
    frequency:   23.9789710133
  - # 15
    frequency:   25.5269283462

- q-position: [    0.1969697,    0.0000000,    0.0000000 ]
  distance:    0.0574862
  band:
  - # 1
    frequency:   -2.3229753349
  - # 2
    frequency:    0.9281821791
  - # 3
    frequency:    1.6094708498
  - # 4
    frequency:    2.1189186916
  - # 5
    frequency:    2.8744026722
  - # 6
    frequency:    2.9174171350
  - # 7
    frequency:    3.9240702024
  - # 8
    frequency:    4.1339619543
  - # 9
    frequency:    4.4683181452
  - # 10
    frequency:    6.2957063106
  - # 11
    frequency:   10.1511794633
  - # 12
    frequency:   11.5283669404
  - # 13
    frequency:   17.4428779488
  - # 14
    frequency:   23.9807721473
  - # 15
    frequency:   25.5837107302

- q-position: [    0.2020202,    0.0000000,    0.0000000 ]
  distance:    0.0589602
  band:
  - # 1
    frequency:   -2.3713897750
  - # 2
    frequency:    0.9635582909
  - # 3
    frequency:    1.6299053479
  - # 4
    frequency:    2.1324912457
  - # 5
    frequency:    2.8943054251
  - # 6
    frequency:    2.9598971178
  - # 7
    frequency:    3.9215462125
  - # 8
    frequency:    4.1360022909
  - # 9
    frequency:    4.4751276222
  - # 10
    frequency:    6.2776348614
  - # 11
    frequency:   10.1477083604
  - # 12
    frequency:   11.5545297491
  - # 13
    frequency:   17.3753543623
  - # 14
    frequency:   23.9824497790
  - # 15
    frequency:   25.6393952605

- q-position: [    0.2070707,    0.0000000,    0.0000000 ]
  distance:    0.0604342
  band:
  - # 1
    frequency:   -2.4168221183
  - # 2
    frequency:    0.9988035603
  - # 3
    frequency:    1.6502666138
  - # 4
    frequency:    2.1450343903
  - # 5
    frequency:    2.9146374470
  - # 6
    frequency:    3.0015814521
  - # 7
    frequency:    3.9195469641
  - # 8
    frequency:    4.1384472045
  - # 9
    frequency:    4.4819911544
  - # 10
    frequency:    6.2595953014
  - # 11
    frequency:   10.1234821850
  - # 12
    frequency:   11.5937712838
  - # 13
    frequency:   17.3079356932
  - # 14
    frequency:   23.9839996445
  - # 15
    frequency:   25.6938537512

- q-position: [    0.2121212,    0.0000000,    0.0000000 ]
  distance:    0.0619082
  band:
  - # 1
    frequency:   -2.4593153561