nqpoint: 300    
npath: 3      
segment_nqpoint:
- 100
- 100
- 100
labels:
- [ 'G', 'M' ]
- [ 'M', 'K' ]
- [ 'K', 'G' ]
reciprocal_lattice:
- [   0.32094430,   0.18529728,   0.00000000 ] # a*
- [   0.00000000,   0.37059455,   0.00000000 ] # b*
- [   0.00000000,   0.00000000,   0.03944644 ] # c*
natom: 7      
lattice:
- [     3.115805471782807,     0.000000000000000,     0.000000000000000 ] # a
- [    -1.557902735891403,     2.698366691821287,     0.000000000000000 ] # b
- [     0.000000000000000,     0.000000000000000,    25.350829035300485 ] # c
points:
- symbol: C # 1
  coordinates: [  0.333332985432215,  0.666666983183674,  0.583960627135004 ]
  mass: 12.010700
- symbol: N # 2
  coordinates: [  0.000000000000000,  0.000000000000000,  0.439124383755585 ]
  mass: 14.006700
- symbol: N # 3
  coordinates: [  0.333332985432215,  0.666666983183674,  0.534127759486205 ]
  mass: 14.006700
- symbol: O # 4
  coordinates: [  0.666666984744047,  0.333332985985144,  0.355017975446393 ]
  mass: 15.999400
- symbol: S # 5
  coordinates: [  0.333332985432215,  0.666666983183674,  0.644982024553608 ]
  mass: 32.065000
- symbol: Ti # 6
  coordinates: [  0.333332985432215,  0.666666983183674,  0.390193423127499 ]
  mass: 47.867000
- symbol: Ti # 7
  coordinates: [  0.666666984744047,  0.333332985985144,  0.485162379125154 ]
  mass: 47.867000

phonon:
- q-position: [    0.0000000,    0.0000000,    0.0000000 ]
  distance:    0.0000000
  band:
  - # 1
    frequency:   -0.0000154483
  - # 2
    frequency:    0.0000005805
  - # 3
    frequency:    0.0000205774
  - # 4
    frequency:    1.6905925729
  - # 5
    frequency:    1.6905925730
  - # 6
    frequency:    2.6685557317
  - # 7
    frequency:    2.6685557318
  - # 8
    frequency:    6.2578338213
  - # 9
    frequency:    7.9566339440
  - # 10
    frequency:    7.9566339440
  - # 11
    frequency:    9.5497243509
  - # 12
    frequency:    9.5497243509
  - # 13
    frequency:    9.6615259303
  - # 14
    frequency:   13.4677745232
  - # 15
    frequency:   13.4677745232
  - # 16
    frequency:   14.1646169867
  - # 17
    frequency:   14.1646169868
  - # 18
    frequency:   16.0460321572
  - # 19
    frequency:   17.5305795935
  - # 20
    frequency:   26.8859731939
  - # 21
    frequency:   55.1382882119

- q-position: [    0.0050505,    0.0000000,    0.0000000 ]
  distance:    0.0018717
  band:
  - # 1
    frequency:    0.0033979275
  - # 2
    frequency:    0.0440870547
  - # 3
    frequency:    0.1173179597
  - # 4
    frequency:    1.6913753090
  - # 5
    frequency:    1.6949322028
  - # 6
    frequency:    2.6710034422
  - # 7
    frequency:    2.6723690434
  - # 8
    frequency:    6.2578615392
  - # 9
    frequency:    7.9569511277
  - # 10
    frequency:    7.9573164849
  - # 11
    frequency:    9.5432407985
  - # 12
    frequency:    9.5495782535
  - # 13
    frequency:    9.6684952759
  - # 14
    frequency:   13.4677062780
  - # 15
    frequency:   13.4680159732
  - # 16
    frequency:   14.1639331581
  - # 17
    frequency:   14.1640209200
  - # 18
    frequency:   16.0454533338
  - # 19
    frequency:   17.5301859725
  - # 20
    frequency:   26.8858390580
  - # 21
    frequency:   55.1378896270

- q-position: [    0.0101010,    0.0000000,    0.0000000 ]
  distance:    0.0037434
  band:
  - # 1
    frequency:    0.0135142286
  - # 2
    frequency:    0.0885174073
  - # 3
    frequency:    0.2347152098
  - # 4
    frequency:    1.6937318618
  - # 5
    frequency:    1.7078486518
  - # 6
    frequency:    2.6783118499
  - # 7
    frequency:    2.6837613948
  - # 8
    frequency:    6.2579482013
  - # 9
    frequency:    7.9578936266
  - # 10
    frequency:    7.9593616849
  - # 11
    frequency:    9.5271781841
  - # 12
    frequency:    9.5491422576
  - # 13
    frequency:    9.6860166059
  - # 14
    frequency:   13.4675017752
  - # 15
    frequency:   13.4687396390
  - # 16
    frequency:   14.1618835364
  - # 17
    frequency:   14.1622340006
  - # 18
    frequency:   16.0437183894
  - # 19
    frequency:   17.5290066887
  - # 20
    frequency:   26.8854370734
  - # 21
    frequency:   55.1366940007

- q-position: [    0.0151515,    0.0000000,    0.0000000 ]
  distance:    0.0056151
  band:
  - # 1
    frequency:    0.0301263588
  - # 2
    frequency:    0.1336215469
  - # 3
    frequency:    0.3522672302
  - # 4
    frequency:    1.6976859507
  - # 5
    frequency:    1.7290465446
  - # 6
    frequency:    2.6903789225
  - # 7
    frequency:    2.7025923085
  - # 8
    frequency:    6.2581043196
  - # 9
    frequency:    7.9594344319
  - # 10
    frequency:    7.9627622693
  - # 11
    frequency:    9.5065191674
  - # 12
    frequency:    9.5484232519
  - # 13
    frequency:    9.7091112187
  - # 14
    frequency:   13.4671617082
  - # 15
    frequency:   13.4699434714
  - # 16
    frequency:   14.1584737267
  - # 17
    frequency:   14.1592600717
  - # 18
    frequency:   16.0408319060
  - # 19
    frequency:   17.5270464652
  - # 20
    frequency:   26.8847685073
  - # 21
    frequency:   55.1347017188

- q-position: [    0.0202020,    0.0000000,    0.0000000 ]
  distance:    0.0074868
  band:
  - # 1
    frequency:    0.0528949263
  - # 2
    frequency:    0.1797055289
  - # 3
    frequency:    0.4700421198
  - # 4
    frequency:    1.7032729869
  - # 5
    frequency:    1.7580701923
  - # 6
    frequency:    2.7070414224
  - # 7
    frequency:    2.7286349670
  - # 8
    frequency:    6.2583473706
  - # 9
    frequency:    7.9615290279
  - # 10
    frequency:    7.9675060924
  - # 11
    frequency:    9.4840267872
  - # 12
    frequency:    9.5474327169
  - # 13
    frequency:    9.7350224999
  - # 14
    frequency:   13.4666872193
  - # 15
    frequency:   13.4716240641
  - # 16
    frequency:   14.1537131141
  - # 17
    frequency:   14.1551055406
  - # 18
    frequency:   16.0368015351
  - # 19
    frequency:   17.5243131230
  - # 20
    frequency:   26.8838354664
  - # 21
    frequency:   55.1319134276

- q-position: [    0.0252525,    0.0000000,    0.0000000 ]
  distance:    0.0093584
  band:
  - # 1
    frequency:    0.0814017490
  - # 2
    frequency:    0.2270414930
  - # 3
    frequency:    0.5880974978
  - # 4
    frequency:    1.7105347323
  - # 5
    frequency:    1.7943487282
  - # 6
    frequency:    2.7280841070
  - # 7
    frequency:    2.7615863076
  - # 8
    frequency:    6.2587017324
  - # 9
    frequency:    7.9641161458
  - # 10
    frequency:    7.9735761078
  - # 11
    frequency:    9.4609723045
  - # 12
    frequency:    9.5461867230
  - # 13
    frequency:    9.7624878087
  - # 14
    frequency:   13.4660798776
  - # 15
    frequency:   13.4737766663
  - # 16
    frequency:   14.1476149278
  - # 17
    frequency:   14.1497793831
  - # 18
    frequency:   16.0316380171
  - # 19
    frequency:   17.5208175068
  - # 20
    frequency:   26.8826408881
  - # 21
    frequency:   55.1283300390

- q-position: [    0.0303030,    0.0000000,    0.0000000 ]
  distance:    0.0112301
  band:
  - # 1
    frequency:    0.1151892505
  - # 2
    frequency:    0.2758609570
  - # 3
    frequency:    0.7064780164
  - # 4
    frequency:    1.7195132504
  - # 5
    frequency:    1.8372441074
  - # 6
    frequency:    2.7532508330
  - # 7
    frequency:    2.8010795903
  - # 8
    frequency:    6.2591986005
  - # 9
    frequency:    7.9671188341
  - # 10
    frequency:    7.9809503297
  - # 11
    frequency:    9.4379814520
  - # 12
    frequency:    9.5447059271
  - # 13
    frequency:    9.7908918226
  - # 14
    frequency:   13.4653416497
  - # 15
    frequency:   13.4763951993
  - # 16
    frequency:   14.1401963328
  - # 17
    frequency:   14.1432931496
  - # 18
    frequency:   16.0253552064
  - # 19
    frequency:   17.5165733828
  - # 20
    frequency:   26.8811885287
  - # 21
    frequency:   55.1239527370

- q-position: [    0.0353535,    0.0000000,    0.0000000 ]
  distance:    0.0131018
  band:
  - # 1
    frequency:    0.1537942293
  - # 2
    frequency:    0.3263510983
  - # 3
    frequency:    0.8252135586
  - # 4
    frequency:    1.7302450970
  - # 5
    frequency:    1.8860941163
  - # 6
    frequency:    2.7822563072
  - # 7
    frequency:    2.8466982447
  - # 8
    frequency:    6.2598758864
  - # 9
    frequency:    7.9704458544
  - # 10
    frequency:    7.9896017895
  - # 11
    frequency:    9.4154041809
  - # 12
    frequency:    9.5430155641
  - # 13
    frequency:    9.8198962292
  - # 14
    frequency:   13.4644748600
  - # 15
    frequency:   13.4794722728
  - # 16
    frequency:   14.1314785491
  - # 17
    frequency:   14.1356609748
  - # 18
    frequency:   16.0179700958
  - # 19
    frequency:   17.5115973105
  - # 20
    frequency:   26.8794829485
  - # 21
    frequency:   55.1187829868

- q-position: [    0.0404040,    0.0000000,    0.0000000 ]
  distance:    0.0149735
  band:
  - # 1
    frequency:    0.1967724246
  - # 2
    frequency:    0.3786538568
  - # 3
    frequency:    0.9443181217
  - # 4
    frequency:    1.7427564975
  - # 5
    frequency:    1.9402459692
  - # 6
    frequency:    2.8147973962
  - # 7
    frequency:    2.8979898577
  - # 8
    frequency:    6.2607781022
  - # 9
    frequency:    7.9739934182
  - # 10
    frequency:    7.9994984912
  - # 11
    frequency:    9.3934632461
  - # 12
    frequency:    9.5411454340
  - # 13
    frequency:    9.8492903957
  - # 14
    frequency:   13.4634821415
  - # 15
    frequency:   13.4829992007
  - # 16
    frequency:   14.1214870003
  - # 17
    frequency:   14.1268995920
  - # 18
    frequency:   16.0095028387
  - # 19
    frequency:   17.5059084912
  - # 20
    frequency:   26.8775294936
  - # 21
    frequency:   55.1128225452

- q-position: [    0.0454545,    0.0000000,    0.0000000 ]
  distance:    0.0168452
  band:
  - # 1
    frequency:    0.2437134109
  - # 2
    frequency:    0.4328674112
  - # 3
    frequency:    1.0637893178
  - # 4
    frequency:    1.7570599473
  - # 5
    frequency:    1.9990793622
  - # 6
    frequency:    2.8505632140
  - # 7
    frequency:    2.9544793613
  - # 8
    frequency:    6.2619562386
  - # 9
    frequency:    7.9776472714
  - # 10
    frequency:    8.0106033711
  - # 11
    frequency:    9.3723171432
  - # 12
    frequency:    9.5391298790
  - # 13
    frequency:    9.8789274792
  - # 14
    frequency:   13.4623663760
  - # 15
    frequency:   13.4869660083
  - # 16
    frequency:   14.1102514948
  - # 17
    frequency:   14.1170283532
  - # 18
    frequency:   15.9999767611
  - # 19
    frequency:   17.4995285958
  - # 20
    frequency:   26.8753342744
  - # 21
    frequency:   55.1060734730

- q-position: [    0.0505051,    0.0000000,    0.0000000 ]
  distance:    0.0187169
  band:
  - # 1
    frequency:    0.2942473142
  - # 2
    frequency:    0.4890494211
  - # 3
    frequency:    1.1836083890
  - # 4
    frequency:    1.7731523645
  - # 5
    frequency:    2.0620200616
  - # 6
    frequency:    2.8892435451
  - # 7
    frequency:    3.0156807495
  - # 8
    frequency:    6.2634676392
  - # 9
    frequency:    7.9812851328
  - # 10
    frequency:    8.0228742681
  - # 11
    frequency:    9.3520885535
  - # 12
    frequency:    9.5370077503
  - # 13
    frequency:    9.9086948013
  - # 14
    frequency:   13.4611306221
  - # 15
    frequency:   13.4913614280
  - # 16
    frequency:   14.0978064433
  - # 17
    frequency:   14.1060692575
  - # 18
    frequency:   15.9894183605
  - # 19
    frequency:   17.4924815757
  - # 20
    frequency:   26.8729041419
  - # 21
    frequency:   55.0985381492

- q-position: [    0.0555556,    0.0000000,    0.0000000 ]
  distance:    0.0205886
  band:
  - # 1
    frequency:    0.3480456108
  - # 2
    frequency:    0.5472213924
  - # 3
    frequency:    1.3037406117
  - # 4
    frequency:    1.7910146728
  - # 5
    frequency:    2.1285461055
  - # 6
    frequency:    2.9305354600
  - # 7
    frequency:    3.0811069290
  - # 8
    frequency:    6.2653758776
  - # 9
    frequency:    7.9847794782
  - # 10
    frequency:    8.0362639103
  - # 11
    frequency:    9.3328777280
  - # 12
    frequency:    9.5348223573
  - # 13
    frequency:    9.9384990460
  - # 14
    frequency:   13.4597780299
  - # 15
    frequency:   13.4961728715
  - # 16
    frequency:   14.0841911199
  - # 17
    frequency:   14.0940469895
  - # 18
    frequency:   15.9778572830
  - # 19
    frequency:   17.4847934593
  - # 20
    frequency:   26.8702466609
  - # 21
    frequency:   55.0902192865

- q-position: [    0.0606061,    0.0000000,    0.0000000 ]
  distance:    0.0224603
  band:
  - # 1
    frequency:    0.4048182203
  - # 2
    frequency:    0.6073735762
  - # 3
    frequency:    1.4241359656
  - # 4
    frequency:    1.8106125466
  - # 5
    frequency:    2.1981888387
  - # 6
    frequency:    2.9741481981
  - # 7
    frequency:    3.1502775532
  - # 8
    frequency:    6.2677506416
  - # 9
    frequency:    7.9880006475
  - # 10
    frequency:    8.0507199265
  - # 11
    frequency:    9.3147687097
  - # 12
    frequency:    9.5326213976
  - # 13
    frequency:    9.9682583915
  - # 14
    frequency:   13.4583117405
  - # 15
    frequency:   13.5013863668
  - # 16
    frequency:   14.0694499752
  - # 17
    frequency:   14.0809889704
  - # 18
    frequency:   15.9653262741
  - # 19
    frequency:   17.4764921385
  - # 20
    frequency:   26.8673700801
  - # 21
    frequency:   55.0811199484

- q-position: [    0.0656566,    0.0000000,    0.0000000 ]
  distance:    0.0243320
  band:
  - # 1
    frequency:    0.4643086618
  - # 2
    frequency:    0.6694699226
  - # 3
    frequency:    1.5447299577
  - # 4
    frequency:    1.8318979874
  - # 5
    frequency:    2.2705306866
  - # 6
    frequency:    3.0198065219
  - # 7
    frequency:    3.2227248748
  - # 8
    frequency:    6.2706676270
  - # 9
    frequency:    7.9908202258
  - # 10
    frequency:    8.0661848899
  - # 11
    frequency:    9.2978318729
  - # 12
    frequency:    9.5304568589
  - # 13
    frequency:    9.9978981281
  - # 14
    frequency:   13.4567347672
  - # 15
    frequency:   13.5069864409
  - # 16
    frequency:   14.0536330184
  - # 17
    frequency:   14.0669254264
  - # 18
    frequency:   15.9518610964
  - # 19
    frequency:   17.4676071473
  - # 20
    frequency:   26.8642833007
  - # 21
    frequency:   55.0712435684

- q-position: [    0.0707071,    0.0000000,    0.0000000 ]
  distance:    0.0262037
  band:
  - # 1
    frequency:    0.5262885094
  - # 2
    frequency:    0.7334527400
  - # 3
    frequency:    1.6654445107
  - # 4
    frequency:    1.8548114095
  - # 5
    frequency:    2.3452011179
  - # 6
    frequency:    3.0672528086
  - # 7
    frequency:    3.2979977792
  - # 8
    frequency:    6.2742084437
  - # 9
    frequency:    7.9931146244
  - # 10
    frequency:    8.0825964034
  - # 11
    frequency:    9.2821244523
  - # 12
    frequency:    9.5283848890
  - # 13
    frequency:   10.0273481516
  - # 14
    frequency:   13.4550498557
  - # 15
    frequency:   13.5129559219
  - # 16
    frequency:   14.0367962886
  - # 17
    frequency:   14.0518894771
  - # 18
    frequency:   15.9375004083
  - # 19
    frequency:   17.4581694382
  - # 20
    frequency:   26.8609958420
  - # 21
    frequency:   55.0605939692

- q-position: [    0.0757576,    0.0000000,    0.0000000 ]
  distance:    0.0280753
  band:
  - # 1
    frequency:    0.5905519214
  - # 2
    frequency:    0.7992468389
  - # 3
    frequency:    1.7861888480
  - # 4
    frequency:    1.8792839628
  - # 5
    frequency:    2.4218717987
  - # 6
    frequency:    3.1162481474
  - # 7
    frequency:    3.3756642330
  - # 8
    frequency:    6.2784605323
  - # 9
    frequency:    7.9947687543
  - # 10
    frequency:    8.0998872361
  - # 11
    frequency:    9.2676899566
  - # 12
    frequency:    9.5264656235
  - # 13
    frequency:   10.0565415328
  - # 14
    frequency:   13.4532593180
  - # 15
    frequency:   13.5192756197
  - # 16
    frequency:   14.0190024523
  - # 17
    frequency:   14.0359172497
  - # 18
    frequency:   15.9222855982
  - # 19
    frequency:   17.4482111572
  - # 20
    frequency:   26.8575178057
  - # 21
    frequency:   55.0491753845

- q-position: [    0.0808081,    0.0000000,    0.0000000 ]
  distance:    0.0299470
  band:
  - # 1
    frequency:    0.6569106660
  - # 2
    frequency:    0.8667630436
  - # 3
    frequency:    1.9052398860
  - # 4
    frequency:    1.9068603289
  - # 5
    frequency:    2.5002515920
  - # 6
    frequency:    3.1665726932
  - # 7
    frequency:    3.4553124136
  - # 8
    frequency:    6.2835170853
  - # 9
    frequency:    7.9956796545
  - # 10
    frequency:    8.1179855195
  - # 11
    frequency:    9.2545570101
  - # 12
    frequency:    9.5247629643
  - # 13
    frequency:   10.0854137464
  - # 14
    frequency:   13.4513648357
  - # 15
    frequency:   13.5259238272
  - # 16
    frequency:   14.0003215776
  - # 17
    frequency:   14.0190480255
  - # 18
    frequency:   15.9062605711
  - # 19
    frequency:   17.4377654214
  - # 20
    frequency:   26.8538598376
  - # 21
    frequency:   55.0369924808

- q-position: [    0.0858586,    0.0000000,    0.0000000 ]
  distance:    0.0318187
  band:
  - # 1
    frequency:    0.7251898340
  - # 2
    frequency:    0.9359010383
  - # 3
    frequency:    1.9325987514
  - # 4
    frequency:    2.0273452002
  - # 5
    frequency:    2.5800817911
  - # 6
    frequency:    3.2180254830
  - # 7
    frequency:    3.5365507891
  - # 8
    frequency:    6.2894769639
  - # 9
    frequency:    7.9957599135
  - # 10
    frequency:    8.1368150170
  - # 11
    frequency:    9.2427380033
  - # 12
    frequency:    9.5233442977
  - # 13
    frequency:   10.1139023301
  - # 14
    frequency:   13.4493672239
  - # 15
    frequency:   13.5328755534
  - # 16
    frequency:   13.9808321704
  - # 17
    frequency:   14.0013244260
  - # 18
    frequency:   15.8894714831
  - # 19
    frequency:   17.4268661019
  - # 20
    frequency:   26.8500330885
  - # 21
    frequency:   55.0240503809

- q-position: [    0.0909091,    0.0000000,    0.0000000 ]
  distance:    0.0336904
  band:
  - # 1
    frequency:    0.7952242838
  - # 2
    frequency:    1.0065515681
  - # 3
    frequency:    1.9612775213
  - # 4
    frequency:    2.1475192401
  - # 5
    frequency:    2.6611318061
  - # 6
    frequency:    3.2704238871
  - # 7
    frequency:    3.6190074050
  - # 8
    frequency:    6.2964445916
  - # 9
    frequency:    7.9949407117
  - # 10
    frequency:    8.1562954737
  - # 11
    frequency:    9.2322278473
  - # 12
    frequency:    9.5222801420
  - # 13
    frequency:   10.1419468458
  - # 14
    frequency:   13.4472661471
  - # 15
    frequency:   13.5401013478
  - # 16
    frequency:   13.9606226027
  - # 17
    frequency:   13.9827926490
  - # 18
    frequency:   15.8719664242
  - # 19
    frequency:   17.4155476129
  - # 20
    frequency:   26.8460491726
  - # 21
    frequency:   55.0103546873

- q-position: [    0.0959596,    0.0000000,    0.0000000 ]
  distance:    0.0355621
  band:
  - # 1
    frequency:    0.8668557837
  - # 2
    frequency:    1.0785980487
  - # 3
    frequency:    1.9911923826
  - # 4
    frequency:    2.2672482702
  - # 5
    frequency:    2.7431954130
  - # 6
    frequency:    3.3236028206
  - # 7
    frequency:    3.7023286140
  - # 8
    frequency:    6.3045297988
  - # 9
    frequency:    7.9931743156
  - # 10
    frequency:    8.1763430600
  - # 11
    frequency:    9.2230030693
  - # 12
    frequency:    9.5216437134
  - # 13
    frequency:   10.1694890624
  - # 14
    frequency:   13.4450597762
  - # 15
    frequency:   13.5475654983
  - # 16
    frequency:   13.9397931447
  - # 17
    frequency:   13.9635027659
  - # 18
    frequency:   15.8537950479
  - # 19
    frequency:   17.4038447086
  - # 20
    frequency:   26.8419201258
  - # 21
    frequency:   54.9959115074

- q-position: [    0.1010101,    0.0000000,    0.0000000 ]
  distance:    0.0374338
  band:
  - # 1
    frequency:    0.9399307758
  - # 2
    frequency:    1.1519176520
  - # 3
    frequency:    2.0222603608
  - # 4
    frequency:    2.3863885025
  - # 5
    frequency:    2.8260876186
  - # 6
    frequency:    3.3774138140
  - # 7
    frequency:    3.7861774660
  - # 8
    frequency:    6.3138475813
  - # 9
    frequency:    7.9904358849
  - # 10
    frequency:    8.1968709182
  - # 11
    frequency:    9.2150214347
  - # 12
    frequency:    9.5215103980
  - # 13
    frequency:   10.1964733138
  - # 14
    frequency:   13.4427443691
  - # 15
    frequency:   13.5552232458
  - # 16
    frequency:   13.9184589502
  - # 17
    frequency:   13.9435090964
  - # 18
    frequency:   15.8350081519
  - # 19
    frequency:   17.3917922890
  - # 20
    frequency:   26.8376583623
  - # 21
    frequency:   54.9807274783

- q-position: [    0.1060606,    0.0000000,    0.0000000 ]
  distance:    0.0393055
  band:
  - # 1
    frequency:    1.0142986723
  - # 2
    frequency:    1.2263819376
  - # 3
    frequency:    2.0544007400
  - # 4
    frequency:    2.5047866668
  - # 5
    frequency:    2.9096421742
  - # 6
    frequency:    3.4317240096
  - # 7
    frequency:    3.8702319604
  - # 8
    frequency:    6.3245177200
  - # 9
    frequency:    7.9867244939
  - # 10
    frequency:    8.2177898205
  - # 11
    frequency:    9.2082222152
  - # 12
    frequency:    9.5219571206
  - # 13
    frequency:   10.2228469960
  - # 14
    frequency:   13.4403137578
  - # 15
    frequency:   13.5630164240
  - # 16
    frequency:   13.8967545749
  - # 17
    frequency:   13.9228706797
  - # 18
    frequency:   15.8156572130
  - # 19
    frequency:   17.3794252145
  - # 20
    frequency:   26.8332766306
  - # 21
    frequency:   54.9648097923

- q-position: [    0.1111111,    0.0000000,    0.0000000 ]
  distance:    0.0411772
  band:
  - # 1
    frequency:    1.0898105956
  - # 2
    frequency:    1.3018570915
  - # 3
    frequency:    2.0875363330
  - # 4
    frequency:    2.6222798318
  - # 5
    frequency:    2.9937097805
  - # 6
    frequency:    3.4864151325
  - # 7
    frequency:    3.9541833527
  - # 8
    frequency:    6.3366641961
  - # 9
    frequency:    7.9820633323
  - # 10
    frequency:    8.2390089452
  - # 11
    frequency:    9.2025271590
  - # 12
    frequency:    9.5230616009
  - # 13
    frequency:   10.2485611784
  - # 14
    frequency:   13.4377587163
  - # 15
    frequency:   13.5708665300
  - # 16
    frequency:   13.8748410164
  - # 17
    frequency:   13.9016518647
  - # 18
    frequency:   15.7957938850
  - # 19
    frequency:   17.3667781280
  - # 20
    frequency:   26.8287879687
  - # 21
    frequency:   54.9481662224

- q-position: [    0.1161616,    0.0000000,    0.0000000 ]
  distance:    0.0430489
  band:
  - # 1
    frequency:    1.1663184790
  - # 2
    frequency:    1.3782038171
  - # 3
    frequency:    2.1215946580
  - # 4
    frequency:    2.7386947798
  - # 5
    frequency:    3.0781570671
  - # 6
    frequency:    3.5413824666
  - # 7
    frequency:    4.0377347086
  - # 8
    frequency:    6.3504143155
  - # 9
    frequency:    7.9764991128
  - # 10
    frequency:    8.2604367746
  - # 11
    frequency:    9.1978421475
  - # 12
    frequency:    9.5249014912
  - # 13
    frequency:   10.2735713060
  - # 14
    frequency:   13.4350661807
  - # 15
    frequency:   13.5786635290
  - # 16
    frequency:   13.8529169611
  - # 17
    frequency:   13.8799230506
  - # 18
    frequency:   15.7754694658
  - # 19
    frequency:   17.3538852844
  - # 20
    frequency:   26.8242056590
  - # 21
    frequency:   54.9308051480

- q-position: [    0.1212121,    0.0000000,    0.0000000 ]
  distance:    0.0449206
  band:
  - # 1
    frequency:    1.2436744565
  - # 2
    frequency:    1.4552769070
  - # 3
    frequency:    2.1565090929
  - # 4
    frequency:    2.8538467233
  - # 5
    frequency:    3.1628664903
  - # 6
    frequency:    3.5965338565
  - # 7
    frequency:    4.1205999023
  - # 8
    frequency:    6.3658974433
  - # 9
    frequency:    7.9701007713
  - # 10
    frequency:    8.2819821105
  - # 11
    frequency:    9.1940594581
  - # 12
    frequency:    9.5275533962
  - # 13
    frequency:   10.2978379695
  - # 14
    frequency:   13.4322182846
  - # 15
    frequency:   13.5862475407
  - # 16
    frequency:   13.8312370825
  - # 17
    frequency:   13.8577616112
  - # 18
    frequency:   15.7547343481
  - # 19
    frequency:   17.3407803869
  - # 20
    frequency:   26.8195431826
  - # 21
    frequency:   54.9127355807

- q-position: [    0.1262626,    0.0000000,    0.0000000 ]
  distance:    0.0467922
  band:
  - # 1
    frequency:    1.3217304813
  - # 2
    frequency:    1.5329244951
  - # 3
    frequency:    2.1922200898
  - # 4
    frequency:    2.9675370510
  - # 5
    frequency:    3.2477373867
  - # 6
    frequency:    3.6517887473
  - # 7
    frequency:    4.2025032632
  - # 8
    frequency:    6.3832432299
  - # 9
    frequency:    7.9629575945
  - # 10
    frequency:    8.3035552013
  - # 11
    frequency:    9.1910605083
  - # 12
    frequency:    9.5310917791
  - # 13
    frequency:   10.3213277221
  - # 14
    frequency:   13.4291911694
  - # 15
    frequency:   13.5933788924
  - # 16
    frequency:   13.8101418969
  - # 17
    frequency:   13.8352530434
  - # 18
    frequency:   15.7336374641
  - # 19
    frequency:   17.3274964260
  - # 20
    frequency:   26.8148141740
  - # 21
    frequency:   54.8939671891

- q-position: [    0.1313131,    0.0000000,    0.0000000 ]
  distance:    0.0486639
  band:
  - # 1
    frequency:    1.4003381222
  - # 2
    frequency:    1.6109869630
  - # 3
    frequency:    2.2286765496
  - # 4
    frequency:    3.0795496820
  - # 5
    frequency:    3.3326885276
  - # 6
    frequency:    3.7070772662
  - # 7
    frequency:    4.2831800823
  - # 8
    frequency:    6.4025792093
  - # 9
    frequency:    7.9551769303
  - # 10
    frequency:    8.3250689595
  - # 11
    frequency:    9.1887189252
  - # 12
    frequency:    9.5355877714
  - # 13
    frequency:   10.3440139158
  - # 14
    frequency:   13.4259535271
  - # 15
    frequency:   13.5996907857
  - # 16
    frequency:   13.7901049243
  - # 17
    frequency:   13.8124923815
  - # 18
    frequency:   15.7122257397
  - # 19
    frequency:   17.3140655226
  - # 20
    frequency:   26.8100323755
  - # 21
    frequency:   54.8745103238

- q-position: [    0.1363636,    0.0000000,    0.0000000 ]
  distance:    0.0505356
  band:
  - # 1
    frequency:    1.4793484961
  - # 2
    frequency:    1.6892954344
  - # 3
    frequency:    2.2658374860
  - # 4
    frequency:    3.1896455281
  - # 5
    frequency:    3.4176625892
  - # 6
    frequency:    3.7623393499
  - # 7
    frequency:    4.3623781818
  - # 8
    frequency:    6.4240276532
  - # 9
    frequency:    7.9468816429
  - # 10
    frequency:    8.3464402444
  - # 11
    frequency:    9.1869037815
  - # 12
    frequency:    9.5411079077
  - # 13
    frequency:   10.3658775319
  - # 14
    frequency:   13.4224648394
  - # 15
    frequency:   13.6046232148
  - # 16
    frequency:   13.7717985050
  - # 17
    frequency:   13.7895859100
  - # 18
    frequency:   15.6905435726
  - # 19
    frequency:   17.3005187710
  - # 20
    frequency:   26.8052115912
  - # 21
    frequency:   54.8543760415

- q-position: [    0.1414141,    0.0000000,    0.0000000 ]
  distance:    0.0524073
  band:
  - # 1
    frequency:    1.5586123035
  - # 2
    frequency:    1.7676697505
  - # 3
    frequency:    2.3036741358
  - # 4
    frequency:    3.2975546780
  - # 5
    frequency:    3.5026328439
  - # 6
    frequency:    3.8175239143
  - # 7
    frequency:    4.4398607277
  - # 8
    frequency:    6.4477015952
  - # 9
    frequency:    7.9382074554
  - # 10
    frequency:    8.3675911705
  - # 11
    frequency:    9.1854828490
  - # 12
    frequency:    9.5477128242
  - # 13
    frequency:   10.3869079756
  - # 14
    frequency:   13.4186733042
  - # 15
    frequency:   13.6073646532
  - # 16
    frequency:   13.7561517568
  - # 17
    frequency:   13.7666531853
  - # 18
    frequency:   15.6686323508
  - # 19
    frequency:   17.2868860826
  - # 20
    frequency:   26.8003656423
  - # 21
    frequency:   54.8335761283

- q-position: [    0.1464646,    0.0000000,    0.0000000 ]
  distance:    0.0542790
  band:
  - # 1
    frequency:    1.6379799383
  - # 2
    frequency:    1.8459157614
  - # 3
    frequency:    2.3421727211
  - # 4
    frequency:    3.4029665932
  - # 5
    frequency:    3.5876117015
  - # 6
    frequency:    3.8725880640
  - # 7
    frequency:    4.5154104059
  - # 8
    frequency:    6.4736999943
  - # 9
    frequency:    7.9293002906
  - # 10
    frequency:    8.3884503934
  - # 11
    frequency:    9.1843257507
  - # 12
    frequency:    9.5554559654
  - # 13
    frequency:   10.4071038065
  - # 14
    frequency:   13.4145134997
  - # 15
    frequency:   13.6069089447
  - # 16
    frequency:   13.7438293103
  - # 17
    frequency:   13.7442932273
  - # 18
    frequency:   15.6465300252
  - # 19
    frequency:   17.2731960274
  - # 20
    frequency:   26.7955083220
  - # 21
    frequency:   54.8121231220

- q-position: [    0.1515152,    0.0000000,    0.0000000 ]
  distance:    0.0561507
  band:
  - # 1
    frequency:    1.7173016493
  - # 2
    frequency:    1.9238217181
  - # 3
    frequency:    2.3813381159
  - # 4
    frequency:    3.5055206317
  - # 5
    frequency:    3.6726587252
  - # 6
    frequency:    3.9274963361
  - # 7
    frequency:    4.5888349876
  - # 8
    frequency:    6.5021020983
  - # 9
    frequency:    7.9203136830
  - # 10
    frequency:    8.4089543148
  - # 11
    frequency:    9.1833069236
  - # 12
    frequency:    9.5643823560
  - # 13
    frequency:   10.4264733729
  - # 14
    frequency:   13.4099039636
  - # 15
    frequency:   13.6024071812
  - # 16
    frequency:   13.7212672850
  - # 17
    frequency:   13.7371984611
  - # 18
    frequency:   15.6242707515
  - # 19
    frequency:   17.2594756746
  - # 20
    frequency:   26.7906533511
  - # 21
    frequency:   54.7900303335