nqpoint: 300    
npath: 3      
segment_nqpoint:
- 100
- 100
- 100
labels:
- [ 'G', 'M' ]
- [ 'M', 'K' ]
- [ 'K', 'G' ]
reciprocal_lattice:
- [   0.32094430,   0.18529728,   0.00000000 ] # a*
- [   0.00000000,   0.37059455,   0.00000000 ] # b*
- [   0.00000000,   0.00000000,   0.03944644 ] # c*
natom: 7      
lattice:
- [     3.115805471782807,     0.000000000000000,     0.000000000000000 ] # a
- [    -1.557902735891403,     2.698366691821287,     0.000000000000000 ] # b
- [     0.000000000000000,     0.000000000000000,    25.350829035300485 ] # c
points:
- symbol: C # 1
  coordinates: [  0.333332985432215,  0.666666983183674,  0.583960627135004 ]
  mass: 12.010700
- symbol: N # 2
  coordinates: [  0.000000000000000,  0.000000000000000,  0.439124383755585 ]
  mass: 14.006700
- symbol: N # 3
  coordinates: [  0.333332985432215,  0.666666983183674,  0.534127759486205 ]
  mass: 14.006700
- symbol: O # 4
  coordinates: [  0.666666984744047,  0.333332985985144,  0.355017975446393 ]
  mass: 15.999400
- symbol: S # 5
  coordinates: [  0.333332985432215,  0.666666983183674,  0.644982024553608 ]
  mass: 32.065000
- symbol: Ti # 6
  coordinates: [  0.333332985432215,  0.666666983183674,  0.390193423127499 ]
  mass: 47.867000
- symbol: Ti # 7
  coordinates: [  0.666666984744047,  0.333332985985144,  0.485162379125154 ]
  mass: 47.867000

phonon:
- q-position: [    0.0000000,    0.0000000,    0.0000000 ]
  distance:    0.0000000
  band:
  - # 1
    frequency:   -0.0000018904
  - # 2
    frequency:   -0.0000000868
  - # 3
    frequency:    0.0000017890
  - # 4
    frequency:    1.0351593206
  - # 5
    frequency:    1.0351593206
  - # 6
    frequency:    1.5969741083
  - # 7
    frequency:    1.5969741083
  - # 8
    frequency:    6.2011964732
  - # 9
    frequency:    7.3697127870
  - # 10
    frequency:    7.3697127870
  - # 11
    frequency:    9.4338390787
  - # 12
    frequency:    9.5318275896
  - # 13
    frequency:    9.5318275896
  - # 14
    frequency:   13.1890676802
  - # 15
    frequency:   13.1890676802
  - # 16
    frequency:   13.6546367281
  - # 17
    frequency:   13.6546367281
  - # 18
    frequency:   16.0517009717
  - # 19
    frequency:   17.4256290963
  - # 20
    frequency:   26.8809746999
  - # 21
    frequency:   55.2133970031

- q-position: [    0.0050505,    0.0000000,    0.0000000 ]
  distance:    0.0018717
  band:
  - # 1
    frequency:   -0.2435535444
  - # 2
    frequency:   -0.1076022233
  - # 3
    frequency:    0.2453694461
  - # 4
    frequency:    1.0570381728
  - # 5
    frequency:    1.0601644036
  - # 6
    frequency:    1.5989051321
  - # 7
    frequency:    1.6016585079
  - # 8
    frequency:    6.2012650022
  - # 9
    frequency:    7.3713096086
  - # 10
    frequency:    7.3719721500
  - # 11
    frequency:    9.4287376266
  - # 12
    frequency:    9.5319893441
  - # 13
    frequency:    9.5382247485
  - # 14
    frequency:   13.1893506845
  - # 15
    frequency:   13.1894962544
  - # 16
    frequency:   13.6550829587
  - # 17
    frequency:   13.6553293713
  - # 18
    frequency:   16.0510871005
  - # 19
    frequency:   17.4254275463
  - # 20
    frequency:   26.8808782437
  - # 21
    frequency:   55.2128251727

- q-position: [    0.0101010,    0.0000000,    0.0000000 ]
  distance:    0.0037434
  band:
  - # 1
    frequency:   -0.3343626910
  - # 2
    frequency:   -0.1974351794
  - # 3
    frequency:    0.3485726856
  - # 4
    frequency:    1.1165516657
  - # 5
    frequency:    1.1288964925
  - # 6
    frequency:    1.6047967749
  - # 7
    frequency:    1.6157277576
  - # 8
    frequency:    6.2014759123
  - # 9
    frequency:    7.3760798967
  - # 10
    frequency:    7.3787396199
  - # 11
    frequency:    9.4162714755
  - # 12
    frequency:    9.5324744291
  - # 13
    frequency:    9.5545760299
  - # 14
    frequency:   13.1901972929
  - # 15
    frequency:   13.1907796721
  - # 16
    frequency:   13.6564159571
  - # 17
    frequency:   13.6573990161
  - # 18
    frequency:   16.0492474348
  - # 19
    frequency:   17.4248233273
  - # 20
    frequency:   26.8805890134
  - # 21
    frequency:   55.2111110077

- q-position: [    0.0151515,    0.0000000,    0.0000000 ]
  distance:    0.0056151
  band:
  - # 1
    frequency:   -0.3882912029
  - # 2
    frequency:   -0.2601213174
  - # 3
    frequency:    0.4363408497
  - # 4
    frequency:    1.2012307358
  - # 5
    frequency:    1.2279465787
  - # 6
    frequency:    1.6150125141
  - # 7
    frequency:    1.6392893741
  - # 8
    frequency:    6.2018450808
  - # 9
    frequency:    7.3839634063
  - # 10
    frequency:    7.3899832783
  - # 11
    frequency:    9.4006595444
  - # 12
    frequency:    9.5332823247
  - # 13
    frequency:    9.5766565129
  - # 14
    frequency:   13.1916003435
  - # 15
    frequency:   13.1929110590
  - # 16
    frequency:   13.6586187064
  - # 17
    frequency:   13.6608208758
  - # 18
    frequency:   16.0461878230
  - # 19
    frequency:   17.4238177239
  - # 20
    frequency:   26.8801074229
  - # 21
    frequency:   55.2082584779

- q-position: [    0.0202020,    0.0000000,    0.0000000 ]
  distance:    0.0074868
  band:
  - # 1
    frequency:   -0.4159154301
  - # 2
    frequency:   -0.2927736402
  - # 3
    frequency:    0.5251015514
  - # 4
    frequency:    1.2998624453
  - # 5
    frequency:    1.3446686780
  - # 6
    frequency:    1.6304642152
  - # 7
    frequency:    1.6727761756
  - # 8
    frequency:    6.2023986699
  - # 9
    frequency:    7.3948606756
  - # 10
    frequency:    7.4056497315
  - # 11
    frequency:    9.3842682587
  - # 12
    frequency:    9.5344122179
  - # 13
    frequency:    9.6020896604
  - # 14
    frequency:   13.1935480697
  - # 15
    frequency:   13.1958790925
  - # 16
    frequency:   13.6616630557
  - # 17
    frequency:   13.6655538678
  - # 18
    frequency:   16.0419180265
  - # 19
    frequency:   17.4224128489
  - # 20
    frequency:   26.8794341621
  - # 21
    frequency:   55.2042741714

- q-position: [    0.0252525,    0.0000000,    0.0000000 ]
  distance:    0.0093584
  band:
  - # 1
    frequency:   -0.4229437807
  - # 2
    frequency:   -0.2934967355
  - # 3
    frequency:    0.6213069715
  - # 4
    frequency:    1.4034634876
  - # 5
    frequency:    1.4692111161
  - # 6
    frequency:    1.6534833557
  - # 7
    frequency:    1.7176031343
  - # 8
    frequency:    6.2031726891
  - # 9
    frequency:    7.4086344355
  - # 10
    frequency:    7.4256638370
  - # 11
    frequency:    9.3681859608
  - # 12
    frequency:    9.5358630844
  - # 13
    frequency:    9.6297727256
  - # 14
    frequency:   13.1960243437
  - # 15
    frequency:   13.1996681971
  - # 16
    frequency:   13.6655100380
  - # 17
    frequency:   13.6715409604
  - # 18
    frequency:   16.0364517388
  - # 19
    frequency:   17.4206116027
  - # 20
    frequency:   26.8785701960
  - # 21
    frequency:   55.1991672523

- q-position: [    0.0303030,    0.0000000,    0.0000000 ]
  distance:    0.0112301
  band:
  - # 1
    frequency:   -0.4134726076
  - # 2
    frequency:   -0.2559331533
  - # 3
    frequency:    0.7269185126
  - # 4
    frequency:    1.5018004802
  - # 5
    frequency:    1.5920690694
  - # 6
    frequency:    1.6902788943
  - # 7
    frequency:    1.7778802327
  - # 8
    frequency:    6.2042124096
  - # 9
    frequency:    7.4251115669
  - # 10
    frequency:    7.4499283653
  - # 11
    frequency:    9.3529380355
  - # 12
    frequency:    9.5376338035
  - # 13
    frequency:    9.6591613339
  - # 14
    frequency:   13.1990089928
  - # 15
    frequency:   13.2042588062
  - # 16
    frequency:   13.6701103144
  - # 17
    frequency:   13.6787096682
  - # 18
    frequency:   16.0298066054
  - # 19
    frequency:   17.4184176188
  - # 20
    frequency:   26.8775167645
  - # 21
    frequency:   55.1929494023

- q-position: [    0.0353535,    0.0000000,    0.0000000 ]
  distance:    0.0131018
  band:
  - # 1
    frequency:   -0.3899502857
  - # 2
    frequency:   -0.1499242129
  - # 3
    frequency:    0.8415350953
  - # 4
    frequency:    1.5800556285
  - # 5
    frequency:    1.7010819932
  - # 6
    frequency:    1.7531653581
  - # 7
    frequency:    1.8622341304
  - # 8
    frequency:    6.2055716518
  - # 9
    frequency:    7.4440855920
  - # 10
    frequency:    7.4783236373
  - # 11
    frequency:    9.3388056065
  - # 12
    frequency:    9.5397233098
  - # 13
    frequency:    9.6899503484
  - # 14
    frequency:   13.2024781724
  - # 15
    frequency:   13.2096276792
  - # 16
    frequency:   13.6754047471
  - # 17
    frequency:   13.6869727004
  - # 18
    frequency:   16.0220042413
  - # 19
    frequency:   17.4158351994
  - # 20
    frequency:   26.8762753818
  - # 21
    frequency:   55.1856347456

- q-position: [    0.0404040,    0.0000000,    0.0000000 ]
  distance:    0.0149735
  band:
  - # 1
    frequency:   -0.3525703807
  - # 2
    frequency:    0.2075075234
  - # 3
    frequency:    0.9636292903
  - # 4
    frequency:    1.6324214698
  - # 5
    frequency:    1.7896705383
  - # 6
    frequency:    1.8462914430
  - # 7
    frequency:    1.9747786178
  - # 8
    frequency:    6.2073119711
  - # 9
    frequency:    7.4653196901
  - # 10
    frequency:    7.5107071872
  - # 11
    frequency:    9.3259549885
  - # 12
    frequency:    9.5421307819
  - # 13
    frequency:    9.7219437951
  - # 14
    frequency:   13.2064047719
  - # 15
    frequency:   13.2157482629
  - # 16
    frequency:   13.6813250992
  - # 17
    frequency:   13.6962287658
  - # 18
    frequency:   16.0130702369
  - # 19
    frequency:   17.4128692424
  - # 20
    frequency:   26.8748478363
  - # 21
    frequency:   55.1772397601

- q-position: [    0.0454545,    0.0000000,    0.0000000 ]
  distance:    0.0168452
  band:
  - # 1
    frequency:   -0.2979850635
  - # 2
    frequency:    0.3613117684
  - # 3
    frequency:    1.0913461574
  - # 4
    frequency:    1.6707318358
  - # 5
    frequency:    1.8664018858
  - # 6
    frequency:    1.9566440014
  - # 7
    frequency:    2.1051078821
  - # 8
    frequency:    6.2095017675
  - # 9
    frequency:    7.4885502294
  - # 10
    frequency:    7.5469135061
  - # 11
    frequency:    9.3144929094
  - # 12
    frequency:    9.5448558714
  - # 13
    frequency:    9.7549987889
  - # 14
    frequency:   13.2107588376
  - # 15
    frequency:   13.2225910833
  - # 16
    frequency:   13.6877948581
  - # 17
    frequency:   13.7063635356
  - # 18
    frequency:   16.0030341481
  - # 19
    frequency:   17.4095251651
  - # 20
    frequency:   26.8732361907
  - # 21
    frequency:   55.1677831724

- q-position: [    0.0505051,    0.0000000,    0.0000000 ]
  distance:    0.0187169
  band:
  - # 1
    frequency:   -0.2139568428
  - # 2
    frequency:    0.4888905386
  - # 3
    frequency:    1.2229453360
  - # 4
    frequency:    1.7045738032
  - # 5
    frequency:    1.9402869763
  - # 6
    frequency:    2.0737431697
  - # 7
    frequency:    2.2427641982
  - # 8
    frequency:    6.2122153429
  - # 9
    frequency:    7.5134908089
  - # 10
    frequency:    7.5867539260
  - # 11
    frequency:    9.3044916283
  - # 12
    frequency:    9.5478989724
  - # 13
    frequency:    9.7889992965
  - # 14
    frequency:   13.2155079927
  - # 15
    frequency:   13.2301241567
  - # 16
    frequency:   13.6947301787
  - # 17
    frequency:   13.7172507576
  - # 18
    frequency:   15.9919294592
  - # 19
    frequency:   17.4058088269
  - # 20
    frequency:   26.8714427825
  - # 21
    frequency:   55.1572858402

- q-position: [    0.0555556,    0.0000000,    0.0000000 ]
  distance:    0.0205886
  band:
  - # 1
    frequency:    0.0711279328
  - # 2
    frequency:    0.6060065497
  - # 3
    frequency:    1.3569698962
  - # 4
    frequency:    1.7377620603
  - # 5
    frequency:    2.0150919768
  - # 6
    frequency:    2.1930647519
  - # 7
    frequency:    2.3828004449
  - # 8
    frequency:    6.2155319302
  - # 9
    frequency:    7.5398368016
  - # 10
    frequency:    7.6300166988
  - # 11
    frequency:    9.2960008447
  - # 12
    frequency:    9.5512615346
  - # 13
    frequency:    9.8238428098
  - # 14
    frequency:   13.2206178439
  - # 15
    frequency:   13.2383134077
  - # 16
    frequency:   13.7020409395
  - # 17
    frequency:   13.7287535141
  - # 18
    frequency:   15.9797935127
  - # 19
    frequency:   17.4017264539
  - # 20
    frequency:   26.8694702258
  - # 21
    frequency:   55.1457706223

- q-position: [    0.0606061,    0.0000000,    0.0000000 ]
  distance:    0.0224603
  band:
  - # 1
    frequency:    0.2536568225
  - # 2
    frequency:    0.7168394322
  - # 3
    frequency:    1.4922592663
  - # 4
    frequency:    1.7717385401
  - # 5
    frequency:    2.0920733225
  - # 6
    frequency:    2.3125839903
  - # 7
    frequency:    2.5229755854
  - # 8
    frequency:    6.2195347120
  - # 9
    frequency:    7.5672703819
  - # 10
    frequency:    7.6764673255
  - # 11
    frequency:    9.2890532936
  - # 12
    frequency:    9.5549464208
  - # 13
    frequency:    9.8594330186
  - # 14
    frequency:   13.2260523640
  - # 15
    frequency:   13.2471230848
  - # 16
    frequency:   13.7096319018
  - # 17
    frequency:   13.7407256073
  - # 18
    frequency:   15.9666673972
  - # 19
    frequency:   17.3972845701
  - # 20
    frequency:   26.8673214132
  - # 21
    frequency:   55.1332622363

- q-position: [    0.0656566,    0.0000000,    0.0000000 ]
  distance:    0.0243320
  band:
  - # 1
    frequency:    0.3644819449
  - # 2
    frequency:    0.8230286289
  - # 3
    frequency:    1.6278992006
  - # 4
    frequency:    1.8070935687
  - # 5
    frequency:    2.1715828179
  - # 6
    frequency:    2.4312224067
  - # 7
    frequency:    2.6621098044
  - # 8
    frequency:    6.2243098500
  - # 9
    frequency:    7.5954660017
  - # 10
    frequency:    7.7258491765
  - # 11
    frequency:    9.2836670643
  - # 12
    frequency:    9.5589583081
  - # 13
    frequency:    9.8956754611
  - # 14
    frequency:   13.2317742462
  - # 15
    frequency:   13.2565161644
  - # 16
    frequency:   13.7174039602
  - # 17
    frequency:   13.7530130540
  - # 18
    frequency:   15.9525957851
  - # 19
    frequency:   17.3924899352
  - # 20
    frequency:   26.8649995196
  - # 21
    frequency:   55.1197871067

- q-position: [    0.0707071,    0.0000000,    0.0000000 ]
  distance:    0.0262037
  band:
  - # 1
    frequency:    0.4597857712
  - # 2
    frequency:    0.9253331747
  - # 3
    frequency:    1.7631588112
  - # 4
    frequency:    1.8440817630
  - # 5
    frequency:    2.2536448973
  - # 6
    frequency:    2.5483129503
  - # 7
    frequency:    2.7994835596
  - # 8
    frequency:    6.2299455389
  - # 9
    frequency:    7.6240962546
  - # 10
    frequency:    7.7778844351
  - # 11
    frequency:    9.2798460967
  - # 12
    frequency:    9.5633041316
  - # 13
    frequency:    9.9324747396
  - # 14
    frequency:   13.2377452288
  - # 15
    frequency:   13.2664547362
  - # 16
    frequency:   13.7252554724
  - # 17
    frequency:   13.7654556685
  - # 18
    frequency:   15.9376267136
  - # 19
    frequency:   17.3873494932
  - # 20
    frequency:   26.8625080071
  - # 21
    frequency:   55.1053732039

- q-position: [    0.0757576,    0.0000000,    0.0000000 ]
  distance:    0.0280753
  band:
  - # 1
    frequency:    0.5484799064
  - # 2
    frequency:    1.0241336079
  - # 3
    frequency:    1.8828105143
  - # 4
    frequency:    1.8974343632
  - # 5
    frequency:    2.3381698396
  - # 6
    frequency:    2.6633994070
  - # 7
    frequency:    2.9346096093
  - # 8
    frequency:    6.2365310989
  - # 9
    frequency:    7.6528380237
  - # 10
    frequency:    7.8322753814
  - # 11
    frequency:    9.2775796307
  - # 12
    frequency:    9.5679935683
  - # 13
    frequency:    9.9697326193
  - # 14
    frequency:   13.2439263894
  - # 15
    frequency:   13.2769003637
  - # 16
    frequency:   13.7330836530
  - # 17
    frequency:   13.7778887101
  - # 18
    frequency:   15.9218113031
  - # 19
    frequency:   17.3818703298
  - # 20
    frequency:   26.8598506307
  - # 21
    frequency:   55.0900498759

- q-position: [    0.0808081,    0.0000000,    0.0000000 ]
  distance:    0.0299470
  band:
  - # 1
    frequency:    0.6339619910
  - # 2
    frequency:    1.1196253496
  - # 3
    frequency:    1.9233167100
  - # 4
    frequency:    2.0302049274
  - # 5
    frequency:    2.4250406476
  - # 6
    frequency:    2.7761509460
  - # 7
    frequency:    3.0671361762
  - # 8
    frequency:    6.2441561213
  - # 9
    frequency:    7.6813787711
  - # 10
    frequency:    7.8887060179
  - # 11
    frequency:    9.2768410849
  - # 12
    frequency:    9.5730395523
  - # 13
    frequency:   10.0073466714
  - # 14
    frequency:   13.2502784134
  - # 15
    frequency:   13.2878144128
  - # 16
    frequency:   13.7407860161
  - # 17
    frequency:   13.7901445704
  - # 18
    frequency:   15.9052034100
  - # 19
    frequency:   17.3760596414
  - # 20
    frequency:   26.8570314467
  - # 21
    frequency:   55.0738476730

- q-position: [    0.0858586,    0.0000000,    0.0000000 ]
  distance:    0.0318187
  band:
  - # 1
    frequency:    0.7178793581
  - # 2
    frequency:    1.2119060484
  - # 3
    frequency:    1.9656004595
  - # 4
    frequency:    2.1610000643
  - # 5
    frequency:    2.5141508215
  - # 6
    frequency:    2.8863210332
  - # 7
    frequency:    3.1968009145
  - # 8
    frequency:    6.2529096752
  - # 9
    frequency:    7.7094227696
  - # 10
    frequency:    7.9468440216
  - # 11
    frequency:    9.2775867113
  - # 12
    frequency:    9.5784588130
  - # 13
    frequency:   10.0452092994
  - # 14
    frequency:   13.2567618371
  - # 15
    frequency:   13.2991583449
  - # 16
    frequency:   13.7482618517
  - # 17
    frequency:   13.8020544793
  - # 18
    frequency:   15.8878592096
  - # 19
    frequency:   17.3699247127
  - # 20
    frequency:   26.8540548220
  - # 21
    frequency:   55.0567981692

- q-position: [    0.0909091,    0.0000000,    0.0000000 ]
  distance:    0.0336904
  band:
  - # 1
    frequency:    0.8011211955
  - # 2
    frequency:    1.3010205345
  - # 3
    frequency:    2.0096400334
  - # 4
    frequency:    2.2893795357
  - # 5
    frequency:    2.6054186192
  - # 6
    frequency:    2.9937253209
  - # 7
    frequency:    3.3234066363
  - # 8
    frequency:    6.2628795884
  - # 9
    frequency:    7.7366970436
  - # 10
    frequency:    8.0063430006
  - # 11
    frequency:    9.2797543158
  - # 12
    frequency:    9.5842724164
  - # 13
    frequency:   10.0832070871
  - # 14
    frequency:   13.2633372717
  - # 15
    frequency:   13.3108939653
  - # 16
    frequency:   13.7554137223
  - # 17
    frequency:   13.8134502063
  - # 18
    frequency:   15.8698367115
  - # 19
    frequency:   17.3634729025
  - # 20
    frequency:   26.8509254453
  - # 21
    frequency:   55.0389337794

- q-position: [    0.0959596,    0.0000000,    0.0000000 ]
  distance:    0.0355621
  band:
  - # 1
    frequency:    0.8841873004
  - # 2
    frequency:    1.3869871557
  - # 3
    frequency:    2.0553974928
  - # 4
    frequency:    2.4149269763
  - # 5
    frequency:    2.6987846275
  - # 6
    frequency:    3.0982283967
  - # 7
    frequency:    3.4468071525
  - # 8
    frequency:    6.2741518073
  - # 9
    frequency:    7.7629567519
  - # 10
    frequency:    8.0668450173
  - # 11
    frequency:    9.2832623052
  - # 12
    frequency:    9.5905062865
  - # 13
    frequency:   10.1212204580
  - # 14
    frequency:   13.2699656102
  - # 15
    frequency:   13.3229836220
  - # 16
    frequency:   13.7621489649
  - # 17
    frequency:   13.8241657391
  - # 18
    frequency:   15.8511952087
  - # 19
    frequency:   17.3567116346
  - # 20
    frequency:   26.8476483400
  - # 21
    frequency:   55.0202875758

- q-position: [    0.1010101,    0.0000000,    0.0000000 ]
  distance:    0.0374338
  band:
  - # 1
    frequency:    0.9673545418
  - # 2
    frequency:    1.4698153993
  - # 3
    frequency:    2.1028191872
  - # 4
    frequency:    2.5372616976
  - # 5
    frequency:    2.7941914649
  - # 6
    frequency:    3.1997349812
  - # 7
    frequency:    3.5668980879
  - # 8
    frequency:    6.2868098434
  - # 9
    frequency:    7.7879897443
  - # 10
    frequency:    8.1279833490
  - # 11
    frequency:    9.2880092886
  - # 12
    frequency:    9.5971916708
  - # 13
    frequency:   10.1591236675
  - # 14
    frequency:   13.2766082193
  - # 15
    frequency:   13.3353903445
  - # 16
    frequency:   13.7683811878
  - # 17
    frequency:   13.8340389211
  - # 18
    frequency:   15.8319946669
  - # 19
    frequency:   17.3496483911
  - # 20
    frequency:   26.8442288788
  - # 21
    frequency:   55.0008931041

- q-position: [    0.1060606,    0.0000000,    0.0000000 ]
  distance:    0.0393055
  band:
  - # 1
    frequency:    1.0507622993
  - # 2
    frequency:    1.5495190852
  - # 3
    frequency:    2.1518333466
  - # 4
    frequency:    2.6560724414
  - # 5
    frequency:    2.8915427413
  - # 6
    frequency:    3.2981835195
  - # 7
    frequency:    3.6836102099
  - # 8
    frequency:    6.3009343075
  - # 9
    frequency:    7.8116200525
  - # 10
    frequency:    8.1893854530
  - # 11
    frequency:    9.2938744163
  - # 12
    frequency:    9.6043654981
  - # 13
    frequency:   10.1967851592
  - # 14
    frequency:   13.2832271210
  - # 15
    frequency:   13.3480779126
  - # 16
    frequency:   13.7740317529
  - # 17
    frequency:   13.8429130341
  - # 18
    frequency:   15.8122950625
  - # 19
    frequency:   17.3422907049
  - # 20
    frequency:   26.8406727995
  - # 21
    frequency:   54.9807842010

- q-position: [    0.1111111,    0.0000000,    0.0000000 ]
  distance:    0.0411772
  band:
  - # 1
    frequency:    1.1344605321
  - # 2
    frequency:    1.6261267821
  - # 3
    frequency:    2.2023463349
  - # 4
    frequency:    2.7711695703
  - # 5
    frequency:    2.9906450090
  - # 6
    frequency:    3.3935411596
  - # 7
    frequency:    3.7969040116
  - # 8
    frequency:    6.3166025281
  - # 9
    frequency:    7.8337101317
  - # 10
    frequency:    8.2506761253
  - # 11
    frequency:    9.3007185705
  - # 12
    frequency:    9.6120705642
  - # 13
    frequency:   10.2340683209
  - # 14
    frequency:   13.2897851634
  - # 15
    frequency:   13.3610108435
  - # 16
    frequency:   13.7790312352
  - # 17
    frequency:   13.8506383144
  - # 18
    frequency:   15.7921556816
  - # 19
    frequency:   17.3346461480
  - # 20
    frequency:   26.8369862225
  - # 21
    frequency:   54.9599948161

- q-position: [    0.1161616,    0.0000000,    0.0000000 ]
  distance:    0.0430489
  band:
  - # 1
    frequency:    1.2184387587
  - # 2
    frequency:    1.6996897379
  - # 3
    frequency:    2.2542389668
  - # 4
    frequency:    2.8825366702
  - # 5
    frequency:    3.0911516985
  - # 6
    frequency:    3.4857996086
  - # 7
    frequency:    3.9067648746
  - # 8
    frequency:    6.3338882417
  - # 9
    frequency:    7.8541617610
  - # 10
    frequency:    8.3114808574
  - # 11
    frequency:    9.3083864385
  - # 12
    frequency:    9.6203554589
  - # 13
    frequency:   10.2708326621
  - # 14
    frequency:   13.2962461826
  - # 15
    frequency:   13.3741542824
  - # 16
    frequency:   13.7833208563
  - # 17
    frequency:   13.8570733915
  - # 18
    frequency:   15.7716343939
  - # 19
    frequency:   17.3267223121
  - # 20
    frequency:   26.8331756684
  - # 21
    frequency:   54.9385588370

- q-position: [    0.1212121,    0.0000000,    0.0000000 ]
  distance:    0.0449206
  band:
  - # 1
    frequency:    1.3026444915
  - # 2
    frequency:    1.7702869432
  - # 3
    frequency:    2.3073641966
  - # 4
    frequency:    2.9903500513
  - # 5
    frequency:    3.1925404503
  - # 6
    frequency:    3.5749716034
  - # 7
    frequency:    4.0131984496
  - # 8
    frequency:    6.3528613333
  - # 9
    frequency:    7.8729156093
  - # 10
    frequency:    8.3714294260
  - # 11
    frequency:    9.3167094073
  - # 12
    frequency:    9.6292741268
  - # 13
    frequency:   10.3069354202
  - # 14
    frequency:   13.3025751569
  - # 15
    frequency:   13.3874737810
  - # 16
    frequency:   13.7868538917
  - # 17
    frequency:   13.8620866442
  - # 18
    frequency:   15.7507869215
  - # 19
    frequency:   17.3185267777
  - # 20
    frequency:   26.8292480769
  - # 21
    frequency:   54.9165099216

- q-position: [    0.1262626,    0.0000000,    0.0000000 ]
  distance:    0.0467922
  band:
  - # 1
    frequency:    1.3869954810
  - # 2
    frequency:    1.8380268151
  - # 3
    frequency:    2.3615472278
  - # 4
    frequency:    3.0949449681
  - # 5
    frequency:    3.2941448960
  - # 6
    frequency:    3.6610878608
  - # 7
    frequency:    4.1162260868
  - # 8
    frequency:    6.3735875890
  - # 9
    frequency:    7.8899495773
  - # 10
    frequency:    8.4301597732
  - # 11
    frequency:    9.3255091328
  - # 12
    frequency:    9.6388849399
  - # 13
    frequency:   10.3422335781
  - # 14
    frequency:   13.3087383510
  - # 15
    frequency:   13.4009349452
  - # 16
    frequency:   13.7895970544
  - # 17
    frequency:   13.8655574669
  - # 18
    frequency:   15.7296661218
  - # 19
    frequency:   17.3100670716
  - # 20
    frequency:   26.8252108251
  - # 21
    frequency:   54.8938813380

- q-position: [    0.1313131,    0.0000000,    0.0000000 ]
  distance:    0.0486639
  band:
  - # 1
    frequency:    1.4713881401
  - # 2
    frequency:    1.9030452952
  - # 3
    frequency:    2.4165885705
  - # 4
    frequency:    3.1967403848
  - # 5
    frequency:    3.3952289289
  - # 6
    frequency:    3.7441944307
  - # 7
    frequency:    4.2158802796
  - # 8
    frequency:    6.3961284060
  - # 9
    frequency:    7.9052761129
  - # 10
    frequency:    8.4873222576
  - # 11
    frequency:    9.3346015708
  - # 12
    frequency:    9.6492491493
  - # 13
    frequency:   10.3765862519
  - # 14
    frequency:   13.3147034513
  - # 15
    frequency:   13.4145029301
  - # 16
    frequency:   13.7915318641
  - # 17
    frequency:   13.8673774442
  - # 18
    frequency:   15.7083213068
  - # 19
    frequency:   17.3013506078
  - # 20
    frequency:   26.8210717458
  - # 21
    frequency:   54.8707058131

- q-position: [    0.1363636,    0.0000000,    0.0000000 ]
  distance:    0.0505356
  band:
  - # 1
    frequency:    1.5557035146
  - # 2
    frequency:    1.9655007322
  - # 3
    frequency:    2.4722698724
  - # 4
    frequency:    3.2961584676
  - # 5
    frequency:    3.4950671213
  - # 6
    frequency:    3.8243504092
  - # 7
    frequency:    4.3122002065
  - # 8
    frequency:    6.4205403854
  - # 9
    frequency:    7.9189387490
  - # 10
    frequency:    8.5425843553
  - # 11
    frequency:    9.3438012239
  - # 12
    frequency:    9.6604285937
  - # 13
    frequency:   10.4098573790
  - # 14
    frequency:   13.3204396879
  - # 15
    frequency:   13.4281417592
  - # 16
    frequency:   13.7926560188
  - # 17
    frequency:   13.8674514320
  - # 18
    frequency:   15.6867976233
  - # 19
    frequency:   17.2923846139
  - # 20
    frequency:   26.8168391438
  - # 21
    frequency:   54.8470153918

- q-position: [    0.1414141,    0.0000000,    0.0000000 ]
  distance:    0.0524073
  band:
  - # 1
    frequency:    1.6398116249
  - # 2
    frequency:    2.0255665083
  - # 3
    frequency:    2.5283616958
  - # 4
    frequency:    3.3935684961
  - # 5
    frequency:    3.5930013994
  - # 6
    frequency:    3.9016259795
  - # 7
    frequency:    4.4052275592
  - # 8
    frequency:    6.4468747136
  - # 9
    frequency:    7.9310081376
  - # 10
    frequency:    8.5956358666
  - # 11
    frequency:    9.3529253553
  - # 12
    frequency:    9.6724825844
  - # 13
    frequency:   10.4419186150
  - # 14
    frequency:   13.3259179410
  - # 15
    frequency:   13.4418134357
  - # 16
    frequency:   13.7929847910
  - # 17
    frequency:   13.8656985462
  - # 18
    frequency:   15.6651355169
  - # 19
    frequency:   17.2831760418
  - # 20
    frequency:   26.8125218113
  - # 21
    frequency:   54.8228413073

- q-position: [    0.1464646,    0.0000000,    0.0000000 ]
  distance:    0.0542790
  band:
  - # 1
    frequency:    1.7235746930
  - # 2
    frequency:    2.0834227165
  - # 3
    frequency:    2.5846320200
  - # 4
    frequency:    3.4892620353
  - # 5
    frequency:    3.6884668948
  - # 6
    frequency:    3.9761007529
  - # 7
    frequency:    4.4950029432
  - # 8
    frequency:    6.4751762238
  - # 9
    frequency:    7.9415778365
  - # 10
    frequency:    8.6461946094
  - # 11
    frequency:    9.3617979545
  - # 12
    frequency:    9.6854639671
  - # 13
    frequency:   10.4726523319
  - # 14
    frequency:   13.3311108251
  - # 15
    frequency:   13.4554768136
  - # 16
    frequency:   13.7925524821
  - # 17
    frequency:   13.8620530611
  - # 18
    frequency:   15.6433703016
  - # 19
    frequency:   17.2737314657
  - # 20
    frequency:   26.8081290398
  - # 21
    frequency:   54.7982138647

- q-position: [    0.1515152,    0.0000000,    0.0000000 ]
  distance:    0.0561507
  band:
  - # 1
    frequency:    1.8068495907
  - # 2
    frequency:    2.1392481799
  - # 3
    frequency:    2.6408542410
  - # 4
    frequency:    3.5834504166
  - # 5
    frequency:    3.7809956338
  - # 6
    frequency:    4.0478623789
  - # 7
    frequency:    4.5815632157
  - # 8
    frequency:    6.5054820222
  - # 9
    frequency:    7.9507600625
  - # 10
    frequency:    8.6940124642
  - # 11
    frequency:    9.3702532890
  - # 12
    frequency:    9.6994144892
  - # 13
    frequency:   10.5019545933
  - # 14
    frequency:   13.3359927443
  - # 15
    frequency:   13.4690861857
  - # 16
    frequency:   13.7914139775
  - # 17
    frequency:   13.8564652236
  - # 18
    frequency:   15.6215318541
  - # 19
    frequency:   17.2640569685
  - # 20
    frequency:   26.8036706293
  - # 21
    frequency:   54.7731623371