nqpoint: 300    
npath: 3      
segment_nqpoint:
- 100
- 100
- 100
labels:
- [ 'G', 'M' ]
- [ 'M', 'K' ]
- [ 'K', 'G' ]
reciprocal_lattice:
- [   0.30284792,   0.17484933,   0.00000000 ] # a*
- [   0.00000000,   0.34969866,   0.00000000 ] # b*
- [   0.00000000,   0.00000000,   0.03889020 ] # c*
natom: 7      
lattice:
- [     3.301987299211004,     0.000000000000000,     0.000000000000000 ] # a
- [    -1.650993649605502,     2.859604884086695,     0.000000000000000 ] # b
- [     0.000000000000000,     0.000000000000000,    25.713417568765411 ] # c
points:
- symbol: C # 1
  coordinates: [  0.000000000000000,  0.000000000000000,  0.440242149920909 ]
  mass: 12.010700
- symbol: C # 2
  coordinates: [  0.333332985432215,  0.666666983183674,  0.589790536048478 ]
  mass: 12.010700
- symbol: Hf # 3
  coordinates: [  0.333332985432215,  0.666666983183674,  0.386392191786154 ]
  mass: 178.490000
- symbol: Hf # 4
  coordinates: [  0.666666984744048,  0.333332985985145,  0.489237520139607 ]
  mass: 178.490000
- symbol: N # 5
  coordinates: [  0.333332985432215,  0.666666983183674,  0.540387611331312 ]
  mass: 14.006700
- symbol: O # 6
  coordinates: [  0.666666984744048,  0.333332985985145,  0.350011816824088 ]
  mass: 15.999400
- symbol: S # 7
  coordinates: [  0.333332985432215,  0.666666983183674,  0.649988183175912 ]
  mass: 32.065000

phonon:
- q-position: [    0.0000000,    0.0000000,    0.0000000 ]
  distance:    0.0000000
  band:
  - # 1
    frequency:   -1.3019969637
  - # 2
    frequency:   -1.3019969637
  - # 3
    frequency:   -0.0000091893
  - # 4
    frequency:    0.0000001031
  - # 5
    frequency:    0.0000088789
  - # 6
    frequency:    2.8345040049
  - # 7
    frequency:    2.8345040050
  - # 8
    frequency:    4.8629141194
  - # 9
    frequency:    6.8603983611
  - # 10
    frequency:    7.5334585355
  - # 11
    frequency:    7.5334585355
  - # 12
    frequency:    9.9084206940
  - # 13
    frequency:    9.9084206941
  - # 14
    frequency:   12.6587403146
  - # 15
    frequency:   12.6587403146
  - # 16
    frequency:   14.9741368703
  - # 17
    frequency:   16.1313433161
  - # 18
    frequency:   16.1313433161
  - # 19
    frequency:   19.5883038362
  - # 20
    frequency:   26.5816237996
  - # 21
    frequency:   54.5991437656

- q-position: [    0.0050505,    0.0000000,    0.0000000 ]
  distance:    0.0017662
  band:
  - # 1
    frequency:   -1.2999369505
  - # 2
    frequency:   -1.2983854579
  - # 3
    frequency:    0.0022502855
  - # 4
    frequency:    0.0505599875
  - # 5
    frequency:    0.0739473123
  - # 6
    frequency:    2.8345662079
  - # 7
    frequency:    2.8353028045
  - # 8
    frequency:    4.8628138715
  - # 9
    frequency:    6.8597954134
  - # 10
    frequency:    7.5335611139
  - # 11
    frequency:    7.5339087379
  - # 12
    frequency:    9.9087948687
  - # 13
    frequency:    9.9092907548
  - # 14
    frequency:   12.6590883515
  - # 15
    frequency:   12.6593958526
  - # 16
    frequency:   14.9730928172
  - # 17
    frequency:   16.1308991393
  - # 18
    frequency:   16.1312293037
  - # 19
    frequency:   19.5870061280
  - # 20
    frequency:   26.5815263685
  - # 21
    frequency:   54.5985650138

- q-position: [    0.0101010,    0.0000000,    0.0000000 ]
  distance:    0.0035323
  band:
  - # 1
    frequency:   -1.2937447810
  - # 2
    frequency:   -1.2875107070
  - # 3
    frequency:    0.0090329982
  - # 4
    frequency:    0.1011522393
  - # 5
    frequency:    0.1478531354
  - # 6
    frequency:    2.8347548709
  - # 7
    frequency:    2.8376945957
  - # 8
    frequency:    4.8625128271
  - # 9
    frequency:    6.8579912438
  - # 10
    frequency:    7.5338683407
  - # 11
    frequency:    7.5352565118
  - # 12
    frequency:    9.9099090283
  - # 13
    frequency:    9.9118966434
  - # 14
    frequency:   12.6601312581
  - # 15
    frequency:   12.6613594548
  - # 16
    frequency:   14.9699634756
  - # 17
    frequency:   16.1295689885
  - # 18
    frequency:   16.1308892074
  - # 19
    frequency:   19.5831191350
  - # 20
    frequency:   26.5812340247
  - # 21
    frequency:   54.5968298014

- q-position: [    0.0151515,    0.0000000,    0.0000000 ]
  distance:    0.0052985
  band:
  - # 1
    frequency:   -1.2833834645
  - # 2
    frequency:   -1.2692507018
  - # 3
    frequency:    0.0204487064
  - # 4
    frequency:    0.1518089816
  - # 5
    frequency:    0.2216771006
  - # 6
    frequency:    2.8350761259
  - # 7
    frequency:    2.8416656597
  - # 8
    frequency:    4.8620100755
  - # 9
    frequency:    6.8549996775
  - # 10
    frequency:    7.5343786924
  - # 11
    frequency:    7.5374935173
  - # 12
    frequency:    9.9117381618
  - # 13
    frequency:    9.9162255237
  - # 14
    frequency:   12.6618654254
  - # 15
    frequency:   12.6646220969
  - # 16
    frequency:   14.9647573137
  - # 17
    frequency:   16.1273599885
  - # 18
    frequency:   16.1303288285
  - # 19
    frequency:   19.5766612309
  - # 20
    frequency:   26.5807466196
  - # 21
    frequency:   54.5939412534

- q-position: [    0.0202020,    0.0000000,    0.0000000 ]
  distance:    0.0070646
  band:
  - # 1
    frequency:   -1.2687892841
  - # 2
    frequency:   -1.2433980271
  - # 3
    frequency:    0.0366822429
  - # 4
    frequency:    0.2025623616
  - # 5
    frequency:    0.2953811631
  - # 6
    frequency:    2.8355400880
  - # 7
    frequency:    2.8471934734
  - # 8
    frequency:    4.8613040688
  - # 9
    frequency:    6.8508431261
  - # 10
    frequency:    7.5350896353
  - # 11
    frequency:    7.5406063716
  - # 12
    frequency:    9.9142408554
  - # 13
    frequency:    9.9222561502
  - # 14
    frequency:   12.6642848475
  - # 15
    frequency:   12.6691687720
  - # 16
    frequency:   14.9574884916
  - # 17
    frequency:   16.1242839678
  - # 18
    frequency:   16.1295577658
  - # 19
    frequency:   19.5676629669
  - # 20
    frequency:   26.5800639111
  - # 21
    frequency:   54.5899045686

- q-position: [    0.0252525,    0.0000000,    0.0000000 ]
  distance:    0.0088308
  band:
  - # 1
    frequency:   -1.2498684674
  - # 2
    frequency:   -1.2096551309
  - # 3
    frequency:    0.0580324667
  - # 4
    frequency:    0.2534444088
  - # 5
    frequency:    0.3689309833
  - # 6
    frequency:    2.8361607021
  - # 7
    frequency:    2.8542472023
  - # 8
    frequency:    4.8603925776
  - # 9
    frequency:    6.8455517005
  - # 10
    frequency:    7.5359976343
  - # 11
    frequency:    7.5445773678
  - # 12
    frequency:    9.9173596997
  - # 13
    frequency:    9.9299590879
  - # 14
    frequency:   12.6673811354
  - # 15
    frequency:   12.6749785420
  - # 16
    frequency:   14.9481769262
  - # 17
    frequency:   16.1203573907
  - # 18
    frequency:   16.1285893124
  - # 19
    frequency:   19.5561669639
  - # 20
    frequency:   26.5791855726
  - # 21
    frequency:   54.5847270033

- q-position: [    0.0303030,    0.0000000,    0.0000000 ]
  distance:    0.0105969
  band:
  - # 1
    frequency:   -1.2264920125
  - # 2
    frequency:   -1.1676319105
  - # 3
    frequency:    0.0849628102
  - # 4
    frequency:    0.3044869964
  - # 5
    frequency:    0.4422976358
  - # 6
    frequency:    2.8369555283
  - # 7
    frequency:    2.8627883558
  - # 8
    frequency:    4.8592726298
  - # 9
    frequency:    6.8391620792
  - # 10
    frequency:    7.5370981663
  - # 11
    frequency:    7.5493853765
  - # 12
    frequency:    9.9210218597
  - # 13
    frequency:    9.9392970137
  - # 14
    frequency:   12.6711435375
  - # 15
    frequency:   12.6820246077
  - # 16
    frequency:   14.9368483756
  - # 17
    frequency:   16.1156012609
  - # 18
    frequency:   16.1274403142
  - # 19
    frequency:   19.5422277602
  - # 20
    frequency:   26.5781112052
  - # 21
    frequency:   54.5784178506

- q-position: [    0.0353535,    0.0000000,    0.0000000 ]
  distance:    0.0123631
  band:
  - # 1
    frequency:   -1.1984880347
  - # 2
    frequency:   -1.1168546294
  - # 3
    frequency:    0.1181842160
  - # 4
    frequency:    0.3557218007
  - # 5
    frequency:    0.5154598785
  - # 6
    frequency:    2.8379454743
  - # 7
    frequency:    2.8727715726
  - # 8
    frequency:    4.8579404334
  - # 9
    frequency:    6.8317162210
  - # 10
    frequency:    7.5383857397
  - # 11
    frequency:    7.5550068489
  - # 12
    frequency:    9.9251398063
  - # 13
    frequency:    9.9502250955
  - # 14
    frequency:   12.6755589646
  - # 15
    frequency:   12.6902743974
  - # 16
    frequency:   14.9235345330
  - # 17
    frequency:   16.1100410002
  - # 18
    frequency:   16.1261309940
  - # 19
    frequency:   19.5259116121
  - # 20
    frequency:   26.5768403533
  - # 21
    frequency:   54.5709884126

- q-position: [    0.0404040,    0.0000000,    0.0000000 ]
  distance:    0.0141292
  band:
  - # 1
    frequency:   -1.1656305871
  - # 2
    frequency:   -1.0568094312
  - # 3
    frequency:    0.1587884217
  - # 4
    frequency:    0.4071802577
  - # 5
    frequency:    0.5884073733
  - # 6
    frequency:    2.8391544742
  - # 7
    frequency:    2.8841455010
  - # 8
    frequency:    4.8563912848
  - # 9
    frequency:    6.8232600097
  - # 10
    frequency:    7.5398539200
  - # 11
    frequency:    7.5614168368
  - # 12
    frequency:    9.9296122113
  - # 13
    frequency:    9.9626914407
  - # 14
    frequency:   12.6806120223
  - # 15
    frequency:   12.6996896739
  - # 16
    frequency:   14.9082731227
  - # 17
    frequency:   16.1037063007
  - # 18
    frequency:   16.1246847443
  - # 19
    frequency:   19.5072962476
  - # 20
    frequency:   26.5753725232
  - # 21
    frequency:   54.5624519676

- q-position: [    0.0454545,    0.0000000,    0.0000000 ]
  distance:    0.0158954
  band:
  - # 1
    frequency:   -1.1276232204
  - # 2
    frequency:   -0.9870791184
  - # 3
    frequency:    0.2084516081
  - # 4
    frequency:    0.4588935115
  - # 5
    frequency:    0.6611455320
  - # 6
    frequency:    2.8406091218
  - # 7
    frequency:    2.8968537363
  - # 8
    frequency:    4.8546194639
  - # 9
    frequency:    6.8138419150
  - # 10
    frequency:    7.5414953645
  - # 11
    frequency:    7.5685899572
  - # 12
    frequency:    9.9343250040
  - # 13
    frequency:    9.9766376080
  - # 14
    frequency:   12.6862850494
  - # 15
    frequency:   12.7102266575
  - # 16
    frequency:   14.8911079865
  - # 17
    frequency:   16.0966309522
  - # 18
    frequency:   16.1231278929
  - # 19
    frequency:   19.4864705695
  - # 20
    frequency:   26.5737072042
  - # 21
    frequency:   54.5528237308

- q-position: [    0.0505051,    0.0000000,    0.0000000 ]
  distance:    0.0176615
  band:
  - # 1
    frequency:   -1.0840743270
  - # 2
    frequency:   -0.9077118959
  - # 3
    frequency:    0.2696945108
  - # 4
    frequency:    0.5108923486
  - # 5
    frequency:    0.7337031923
  - # 6
    frequency:    2.8423382630
  - # 7
    frequency:    2.9108357787
  - # 8
    frequency:    4.8526181191
  - # 9
    frequency:    6.8035117331
  - # 10
    frequency:    7.5433018650
  - # 11
    frequency:    7.5765012454
  - # 12
    frequency:    9.9391525925
  - # 13
    frequency:    9.9919991737
  - # 14
    frequency:   12.6925581632
  - # 15
    frequency:   12.7218361645
  - # 16
    frequency:   14.8720891498
  - # 17
    frequency:   16.0888526460
  - # 18
    frequency:   16.1214894437
  - # 19
    frequency:   19.4635343059
  - # 20
    frequency:   26.5718438935
  - # 21
    frequency:   54.5421208100

- q-position: [    0.0555556,    0.0000000,    0.0000000 ]
  distance:    0.0194277
  band:
  - # 1
    frequency:   -1.0344590127
  - # 2
    frequency:   -0.8200834438
  - # 3
    frequency:    0.3459932725
  - # 4
    frequency:    0.5632071042
  - # 5
    frequency:    0.8061453315
  - # 6
    frequency:    2.8443725536
  - # 7
    frequency:    2.9260279787
  - # 8
    frequency:    4.8503791432
  - # 9
    frequency:    6.7923194560
  - # 10
    frequency:    7.5452644015
  - # 11
    frequency:    7.5851268595
  - # 12
    frequency:    9.9439592485
  - # 13
    frequency:   10.0087063426
  - # 14
    frequency:   12.6994093120
  - # 15
    frequency:   12.7344637602
  - # 16
    frequency:   14.8512728537
  - # 17
    frequency:   16.0804127560
  - # 18
    frequency:   16.1198007979
  - # 19
    frequency:   19.4385976061
  - # 20
    frequency:   26.5697821225
  - # 21
    frequency:   54.5303621558

- q-position: [    0.0606061,    0.0000000,    0.0000000 ]
  distance:    0.0211939
  band:
  - # 1
    frequency:   -0.9780576375
  - # 2
    frequency:   -0.7283727357
  - # 3
    frequency:    0.4409328918
  - # 4
    frequency:    0.6158675221
  - # 5
    frequency:    0.8785949718
  - # 6
    frequency:    2.8467439908
  - # 7
    frequency:    2.9423644397
  - # 8
    frequency:    4.8478930456
  - # 9
    frequency:    6.7803142999
  - # 10
    frequency:    7.5473732061
  - # 11
    frequency:    7.5944446160
  - # 12
    frequency:    9.9486006583
  - # 13
    frequency:   10.0266845960
  - # 14
    frequency:   12.7068143345
  - # 15
    frequency:   12.7480499254
  - # 16
    frequency:   14.8287215414
  - # 17
    frequency:   16.0713560987
  - # 18
    frequency:   16.1180954568
  - # 19
    frequency:   19.4117805801
  - # 20
    frequency:   26.5675214862
  - # 21
    frequency:   54.5175685063

- q-position: [    0.0656566,    0.0000000,    0.0000000 ]
  distance:    0.0229600
  band:
  - # 1
    frequency:   -0.9138512068
  - # 2
    frequency:   -0.6402127745
  - # 3
    frequency:    0.5551188310
  - # 4
    frequency:    0.6689025370
  - # 5
    frequency:    0.9512721923
  - # 6
    frequency:    2.8494854255
  - # 7
    frequency:    2.9597778541
  - # 8
    frequency:    4.8451488232
  - # 9
    frequency:    6.7675439060
  - # 10
    frequency:    7.5496178383
  - # 11
    frequency:    7.6044343568
  - # 12
    frequency:    9.9529256396
  - # 13
    frequency:   10.0458553653
  - # 14
    frequency:   12.7147470275
  - # 15
    frequency:   12.7625302358
  - # 16
    frequency:   14.8045037870
  - # 17
    frequency:   16.0617306736
  - # 18
    frequency:   16.1164087092
  - # 19
    frequency:   19.3832127773
  - # 20
    frequency:   26.5650616734
  - # 21
    frequency:   54.5037623272

- q-position: [    0.0707071,    0.0000000,    0.0000000 ]
  distance:    0.0247262
  band:
  - # 1
    frequency:   -0.8403300967
  - # 2
    frequency:   -0.5630290501
  - # 3
    frequency:    0.6827547042
  - # 4
    frequency:    0.7223399319
  - # 5
    frequency:    1.0245649667
  - # 6
    frequency:    2.8526300650
  - # 7
    frequency:    2.9782002524
  - # 8
    frequency:    4.8421338356
  - # 9
    frequency:    6.7540537173
  - # 10
    frequency:    7.5519872712
  - # 11
    frequency:    7.6150781541
  - # 12
    frequency:    9.9567780239
  - # 13
    frequency:   10.0661367237
  - # 14
    frequency:   12.7231792205
  - # 15
    frequency:   12.7778355532
  - # 16
    frequency:   14.7786941525
  - # 17
    frequency:   16.0515873857
  - # 18
    frequency:   16.1147773042
  - # 19
    frequency:   19.3530326050
  - # 20
    frequency:   26.5624025003
  - # 21
    frequency:   54.4889677472

- q-position: [    0.0757576,    0.0000000,    0.0000000 ]
  distance:    0.0264923
  band:
  - # 1
    frequency:   -0.7551086215
  - # 2
    frequency:   -0.4983369100
  - # 3
    frequency:    0.7762058033
  - # 4
    frequency:    0.8140752834
  - # 5
    frequency:    1.0991555213
  - # 6
    frequency:    2.8562109741
  - # 7
    frequency:    2.9975636514
  - # 8
    frequency:    4.8388336907
  - # 9
    frequency:    6.7398865259
  - # 10
    frequency:    7.5544699879
  - # 11
    frequency:    7.6263603723
  - # 12
    frequency:    9.9599987034
  - # 13
    frequency:   10.0874440856
  - # 14
    frequency:   12.7320808591
  - # 15
    frequency:   12.7938922307
  - # 16
    frequency:   14.7513729651
  - # 17
    frequency:   16.0409797530
  - # 18
    frequency:   16.1132391112
  - # 19
    frequency:   19.3213866836
  - # 20
    frequency:   26.5595439438
  - # 21
    frequency:   54.4732104883

- q-position: [    0.0808081,    0.0000000,    0.0000000 ]
  distance:    0.0282585
  band:
  - # 1
    frequency:   -0.6540323812
  - # 2
    frequency:   -0.4419900630
  - # 3
    frequency:    0.8305237387
  - # 4
    frequency:    0.9410476134
  - # 5
    frequency:    1.1762180865
  - # 6
    frequency:    2.8602605845
  - # 7
    frequency:    3.0178005924
  - # 8
    frequency:    4.8352321472
  - # 9
    frequency:    6.7250821806
  - # 10
    frequency:    7.5570540884
  - # 11
    frequency:    7.6382676091
  - # 12
    frequency:    9.9624278368
  - # 13
    frequency:   10.1096909056
  - # 14
    frequency:   12.7414200958
  - # 15
    frequency:   12.8106223304
  - # 16
    frequency:   14.7226260036
  - # 17
    frequency:   16.0299635999
  - # 18
    frequency:   16.1118327664
  - # 19
    frequency:   19.2884291372
  - # 20
    frequency:   26.5564861765
  - # 21
    frequency:   54.4565177928

- q-position: [    0.0858586,    0.0000000,    0.0000000 ]
  distance:    0.0300246
  band:
  - # 1
    frequency:   -0.5286033595
  - # 2
    frequency:   -0.3879538339
  - # 3
    frequency:    0.8853135801
  - # 4
    frequency:    1.0587541354
  - # 5
    frequency:    1.2575813655
  - # 6
    frequency:    2.8648102211
  - # 7
    frequency:    3.0388445621
  - # 8
    frequency:    4.8313110433
  - # 9
    frequency:    6.7096774416
  - # 10
    frequency:    7.5597274045
  - # 11
    frequency:    7.6507885385
  - # 12
    frequency:    9.9639072068
  - # 13
    frequency:   10.1327893680
  - # 14
    frequency:   12.7511633891
  - # 15
    frequency:   12.8279438568
  - # 16
    frequency:   14.6925440870
  - # 17
    frequency:   16.0185967398
  - # 18
    frequency:   16.1105973065
  - # 19
    frequency:   19.2543208204
  - # 20
    frequency:   26.5532296025
  - # 21
    frequency:   54.4389183459

- q-position: [    0.0909091,    0.0000000,    0.0000000 ]
  distance:    0.0317908
  band:
  - # 1
    frequency:   -0.3546264249
  - # 2
    frequency:   -0.3297212940
  - # 3
    frequency:    0.9405896242
  - # 4
    frequency:    1.1642902185
  - # 5
    frequency:    1.3453262783
  - # 6
    frequency:    2.8698896546
  - # 7
    frequency:    3.0606302965
  - # 8
    frequency:    4.8270502611
  - # 9
    frequency:    6.6937059690
  - # 10
    frequency:    7.5624776219
  - # 11
    frequency:    7.6639136798
  - # 12
    frequency:    9.9642827149
  - # 13
    frequency:   10.1566510601
  - # 14
    frequency:   12.7612756104
  - # 15
    frequency:   12.8457710079
  - # 16
    frequency:   14.6612225623
  - # 17
    frequency:   16.0069386496
  - # 18
    frequency:   16.1095717899
  - # 19
    frequency:   19.2192284807
  - # 20
    frequency:   26.5497748932
  - # 21
    frequency:   54.4204421943

- q-position: [    0.0959596,    0.0000000,    0.0000000 ]
  distance:    0.0335569
  band:
  - # 1
    frequency:   -0.2583733603
  - # 2
    frequency:    0.1806382572
  - # 3
    frequency:    0.9963581014
  - # 4
    frequency:    1.2569762259
  - # 5
    frequency:    1.4402236388
  - # 6
    frequency:    2.8755266872
  - # 7
    frequency:    3.0830939667
  - # 8
    frequency:    4.8224277393
  - # 9
    frequency:    6.6771984323
  - # 10
    frequency:    7.5652924075
  - # 11
    frequency:    7.6776351145
  - # 12
    frequency:    9.9634069952
  - # 13
    frequency:   10.1811876210
  - # 14
    frequency:   12.7717201584
  - # 15
    frequency:   12.8640144460
  - # 16
    frequency:   14.6287606902
  - # 17
    frequency:   15.9950501388
  - # 18
    frequency:   16.1087949052
  - # 19
    frequency:   19.1833238571
  - # 20
    frequency:   26.5461230227
  - # 21
    frequency:   54.4011206626

- q-position: [    0.1010101,    0.0000000,    0.0000000 ]
  distance:    0.0353231
  band:
  - # 1
    frequency:   -0.1501271633
  - # 2
    frequency:    0.4417562815
  - # 3
    frequency:    1.0526138213
  - # 4
    frequency:    1.3388449483
  - # 5
    frequency:    1.5406024170
  - # 6
    frequency:    2.8817467817
  - # 7
    frequency:    3.1061732526
  - # 8
    frequency:    4.8174195479
  - # 9
    frequency:    6.6601827275
  - # 10
    frequency:    7.5681595397
  - # 11
    frequency:    7.6919461684
  - # 12
    frequency:    9.9611421189
  - # 13
    frequency:   10.2063113610
  - # 14
    frequency:   12.7824590817
  - # 15
    frequency:   12.8825815929
  - # 16
    frequency:   14.5952609307
  - # 17
    frequency:   15.9829930150
  - # 18
    frequency:   16.1083045687
  - # 19
    frequency:   19.1467827188
  - # 20
    frequency:   26.5422753032
  - # 21
    frequency:   54.3809862657

- q-position: [    0.1060606,    0.0000000,    0.0000000 ]
  distance:    0.0370893
  band:
  - # 1
    frequency:    0.1592890030
  - # 2
    frequency:    0.6010046862
  - # 3
    frequency:    1.1093360007
  - # 4
    frequency:    1.4130500106
  - # 5
    frequency:    1.6436956149
  - # 6
    frequency:    2.8885727364
  - # 7
    frequency:    3.1298073098
  - # 8
    frequency:    4.8120000417
  - # 9
    frequency:    6.6426842910
  - # 10
    frequency:    7.5710670401
  - # 11
    frequency:    7.7068410764
  - # 12
    frequency:    9.9573623562
  - # 13
    frequency:   10.2319358433
  - # 14
    frequency:   12.7934532069
  - # 15
    frequency:   12.9013769531
  - # 16
    frequency:   14.5608281404
  - # 17
    frequency:   15.9708297510
  - # 18
    frequency:   16.1081375126
  - # 19
    frequency:   19.1097838456
  - # 20
    frequency:   26.5382334186
  - # 21
    frequency:   54.3600726188

- q-position: [    0.1111111,    0.0000000,    0.0000000 ]
  distance:    0.0388554
  band:
  - # 1
    frequency:    0.2793173269
  - # 2
    frequency:    0.7281800914
  - # 3
    frequency:    1.1664835353
  - # 4
    frequency:    1.4820950745
  - # 5
    frequency:    1.7473309774
  - # 6
    frequency:    2.8960244146
  - # 7
    frequency:    3.1539366415
  - # 8
    frequency:    4.8061421128
  - # 9
    frequency:    6.6247264984
  - # 10
    frequency:    7.5740033038
  - # 11
    frequency:    7.7223146415
  - # 12
    frequency:    9.9519569483
  - # 13
    frequency:   10.2579764263
  - # 14
    frequency:   12.8046622747
  - # 15
    frequency:   12.9203024685
  - # 16
    frequency:   14.5255686902
  - # 17
    frequency:   15.9586231544
  - # 18
    frequency:   16.1083288676
  - # 19
    frequency:   19.0725079550
  - # 20
    frequency:   26.5339994567
  - # 21
    frequency:   54.3384143459

- q-position: [    0.1161616,    0.0000000,    0.0000000 ]
  distance:    0.0406216
  band:
  - # 1
    frequency:    0.3690462818
  - # 2
    frequency:    0.8377128637
  - # 3
    frequency:    1.2239903457
  - # 4
    frequency:    1.5474951133
  - # 5
    frequency:    1.8502511877
  - # 6
    frequency:    2.9041185294
  - # 7
    frequency:    3.1785028871
  - # 8
    frequency:    4.7998175624
  - # 9
    frequency:    6.6063311388
  - # 10
    frequency:    7.5769572257
  - # 11
    frequency:    7.7383618961
  - # 12
    frequency:    9.9448328386
  - # 13
    frequency:   10.2843507595
  - # 14
    frequency:   12.8160450804
  - # 15
    frequency:   12.9392579090
  - # 16
    frequency:   14.4895895259
  - # 17
    frequency:   15.9464360441
  - # 18
    frequency:   16.1089117452
  - # 19
    frequency:   19.0351365805
  - # 20
    frequency:   26.5295759397
  - # 21
    frequency:   54.3160469856

- q-position: [    0.1212121,    0.0000000,    0.0000000 ]
  distance:    0.0423877
  band:
  - # 1
    frequency:    0.4478180428
  - # 2
    frequency:    0.9355898687
  - # 3
    frequency:    1.2817618175
  - # 4
    frequency:    1.6100779559
  - # 5
    frequency:    1.9518148074
  - # 6
    frequency:    2.9128684876
  - # 7
    frequency:    3.2034485455
  - # 8
    frequency:    4.7929976178
  - # 9
    frequency:    6.5875189529
  - # 10
    frequency:    7.5799183223
  - # 11
    frequency:    7.7549777731
  - # 12
    frequency:    9.9359172972
  - # 13
    frequency:   10.3109792304
  - # 14
    frequency:   12.8275596210
  - # 15
    frequency:   12.9581413020
  - # 16
    frequency:   14.4529971926
  - # 17
    frequency:   15.9343309355
  - # 18
    frequency:   16.1099168262
  - # 19
    frequency:   18.9978509088
  - # 20
    frequency:   26.5249658515
  - # 21
    frequency:   54.2930068950

- q-position: [    0.1262626,    0.0000000,    0.0000000 ]
  distance:    0.0441539
  band:
  - # 1
    frequency:    0.5211328186
  - # 2
    frequency:    1.0249931709
  - # 3
    frequency:    1.3396735913
  - # 4
    frequency:    1.6702755996
  - # 5
    frequency:    2.0517134619
  - # 6
    frequency:    2.9222842908
  - # 7
    frequency:    3.2287166566
  - # 8
    frequency:    4.7856536218
  - # 9
    frequency:    6.5683102250
  - # 10
    frequency:    7.5828768440
  - # 11
    frequency:    7.7721567877
  - # 12
    frequency:    9.9251603690
  - # 13
    frequency:   10.3377853610
  - # 14
    frequency:   12.8391632451
  - # 15
    frequency:   12.9768494026
  - # 16
    frequency:   14.4158968527
  - # 17
    frequency:   15.9223697387
  - # 18
    frequency:   16.1113719650
  - # 19
    frequency:   18.9608305814
  - # 20
    frequency:   26.5201726618
  - # 21
    frequency:   54.2693311540

- q-position: [    0.1313131,    0.0000000,    0.0000000 ]
  distance:    0.0459200
  band:
  - # 1
    frequency:    0.5913950551
  - # 2
    frequency:    1.1078743455
  - # 3
    frequency:    1.3975737840
  - # 4
    frequency:    1.7282983330
  - # 5
    frequency:    2.1498069438
  - # 6
    frequency:    2.9323724944
  - # 7
    frequency:    3.2542504721
  - # 8
    frequency:    4.7777579199
  - # 9
    frequency:    6.5487254165
  - # 10
    frequency:    7.5858238795
  - # 11
    frequency:    7.7898927298
  - # 12
    frequency:    9.9125370681
  - # 13
    frequency:   10.3646961500
  - # 14
    frequency:   12.8508128073
  - # 15
    frequency:   12.9952782052
  - # 16
    frequency:   14.3783913278
  - # 17
    frequency:   15.9106134707
  - # 18
    frequency:   16.1133018205
  - # 19
    frequency:   18.9242524708
  - # 20
    frequency:   26.5152003464
  - # 21
    frequency:   54.2450574670

- q-position: [    0.1363636,    0.0000000,    0.0000000 ]
  distance:    0.0476862
  band:
  - # 1
    frequency:    0.6598592320
  - # 2
    frequency:    1.1855512670
  - # 3
    frequency:    1.4552890251
  - # 4
    frequency:    1.7842285762
  - # 5
    frequency:    2.2460376721
  - # 6
    frequency:    2.9431362185
  - # 7
    frequency:    3.2799931557
  - # 8
    frequency:    4.7692849763
  - # 9
    frequency:    6.5287858290
  - # 10
    frequency:    7.5887514467
  - # 11
    frequency:    7.8081783642
  - # 12
    frequency:    9.8980492365
  - # 13
    frequency:   10.3916423608
  - # 14
    frequency:   12.8624648247
  - # 15
    frequency:   13.0133234945
  - # 16
    frequency:   14.3405801988
  - # 17
    frequency:   15.8991219847
  - # 18
    frequency:   16.1157275257
  - # 19
    frequency:   18.8882894389
  - # 20
    frequency:   26.5100534031
  - # 21
    frequency:   54.2202240651

- q-position: [    0.1414141,    0.0000000,    0.0000000 ]
  distance:    0.0494523
  band:
  - # 1
    frequency:    0.7272428311
  - # 2
    frequency:    1.2589749839
  - # 3
    frequency:    1.5126336435
  - # 4
    frequency:    1.8380713603
  - # 5
    frequency:    2.3403872539
  - # 6
    frequency:    2.9545752075
  - # 7
    frequency:    3.3058875697
  - # 8
    frequency:    4.7602127394
  - # 9
    frequency:    6.5085142803
  - # 10
    frequency:    7.5916525721
  - # 11
    frequency:    7.8270051325
  - # 12
    frequency:    9.8817269857
  - # 13
    frequency:   10.4185587550
  - # 14
    frequency:   12.8740756353
  - # 15
    frequency:   13.0308814333
  - # 16
    frequency:   14.3025589969
  - # 17
    frequency:   15.8879537188
  - # 18
    frequency:   16.1186664113
  - # 19
    frequency:   18.8531090891
  - # 20
    frequency:   26.5047368627
  - # 21
    frequency:   54.1948696085

- q-position: [    0.1464646,    0.0000000,    0.0000000 ]
  distance:    0.0512185
  band:
  - # 1
    frequency:    0.7939750292
  - # 2
    frequency:    1.3288615805
  - # 3
    frequency:    1.5694204026
  - # 4
    frequency:    1.8897825272
  - # 5
    frequency:    2.4328541885
  - # 6
    frequency:    2.9666859305
  - # 7
    frequency:    3.3318762254
  - # 8
    frequency:    4.7505242768
  - # 9
    frequency:    6.4879357790
  - # 10
    frequency:    7.5945213545
  - # 11
    frequency:    7.8463628512
  - # 12
    frequency:    9.8636296450
  - # 13
    frequency:   10.4453842715
  - # 14
    frequency:   12.8856015566
  - # 15
    frequency:   13.0478491795
  - # 16
    frequency:   14.2644185179
  - # 17
    frequency:   15.8771654646
  - # 18
    frequency:   16.1221317963
  - # 19
    frequency:   18.8188725222
  - # 20
    frequency:   26.4992562940
  - # 21
    frequency:   54.1690330880

- q-position: [    0.1515152,    0.0000000,    0.0000000 ]
  distance:    0.0529846
  band:
  - # 1
    frequency:    0.8603138281
  - # 2
    frequency:    1.3957622254
  - # 3
    frequency:    1.6254708238
  - # 4
    frequency:    1.9392855077
  - # 5
    frequency:    2.5234421064
  - # 6
    frequency:    2.9794617150
  - # 7
    frequency:    3.3579015036
  - # 8
    frequency:    4.7402096828
  - # 9
    frequency:    6.4670781753
  - # 10
    frequency:    7.5973530143
  - # 11
    frequency:    7.8662393970
  - # 12
    frequency:    9.8438461447
  - # 13
    frequency:   10.4720621530
  - # 14
    frequency:   12.8969990447
  - # 15
    frequency:   13.0641255245
  - # 16
    frequency:   14.2262442862
  - # 17
    frequency:   15.8668121577
  - # 18
    frequency:   16.1261328619
  - # 19
    frequency:   18.7857331088
  - # 20
    frequency:   26.4936178033
  - # 21