nqpoint: 300    
npath: 3      
segment_nqpoint:
- 100
- 100
- 100
labels:
- [ 'G', 'M' ]
- [ 'M', 'K' ]
- [ 'K', 'G' ]
reciprocal_lattice:
- [   0.29902266,   0.17264081,   0.00000000 ] # a*
- [   0.00000000,   0.34528163,   0.00000000 ] # b*
- [   0.00000000,   0.00000000,   0.04109201 ] # c*
natom: 6      
lattice:
- [     3.344228167386079,     0.000000000000000,     0.000000000000000 ] # a
- [    -1.672114083693040,     2.896186549006251,     0.000000000000000 ] # b
- [     0.000000000000000,     0.000000000000000,    24.335629126438519 ] # c
points:
- symbol: C # 1
  coordinates: [  0.000000000000000,  0.000000000000000,  0.467130152643208 ]
  mass: 12.010700
- symbol: C # 2
  coordinates: [  0.333332985432215,  0.666666983183674,  0.580584867495591 ]
  mass: 12.010700
- symbol: N # 3
  coordinates: [  0.333332985432215,  0.666666983183674,  0.630171878719902 ]
  mass: 14.006700
- symbol: O # 4
  coordinates: [  0.666666984744048,  0.333332985985145,  0.369828121280098 ]
  mass: 15.999400
- symbol: Zr # 5
  coordinates: [  0.333332985432215,  0.666666983183674,  0.408611902154608 ]
  mass: 91.224000
- symbol: Zr # 6
  coordinates: [  0.666666984744048,  0.333332985985145,  0.519501422675013 ]
  mass: 91.224000

phonon:
- q-position: [    0.0000000,    0.0000000,    0.0000000 ]
  distance:    0.0000000
  band:
  - # 1
    frequency:   -0.6449095351
  - # 2
    frequency:   -0.6449095351
  - # 3
    frequency:   -0.0000011837
  - # 4
    frequency:    0.0000001580
  - # 5
    frequency:    0.0000007470
  - # 6
    frequency:    3.7373028849
  - # 7
    frequency:    3.7373028849
  - # 8
    frequency:    6.2832807986
  - # 9
    frequency:    8.1544579983
  - # 10
    frequency:    8.1544579983
  - # 11
    frequency:    9.0803045836
  - # 12
    frequency:    9.9018222879
  - # 13
    frequency:    9.9018222879
  - # 14
    frequency:   14.4796624522
  - # 15
    frequency:   14.4796624522
  - # 16
    frequency:   14.7460973965
  - # 17
    frequency:   18.3688946088
  - # 18
    frequency:   59.9431862114

- q-position: [    0.0050505,    0.0000000,    0.0000000 ]
  distance:    0.0017438
  band:
  - # 1
    frequency:   -0.6467500299
  - # 2
    frequency:   -0.6458555152
  - # 3
    frequency:   -0.1199850195
  - # 4
    frequency:    0.0902305387
  - # 5
    frequency:    0.1895426652
  - # 6
    frequency:    3.7376343644
  - # 7
    frequency:    3.7389770125
  - # 8
    frequency:    6.2830627221
  - # 9
    frequency:    8.1541494131
  - # 10
    frequency:    8.1551751383
  - # 11
    frequency:    9.0799404579
  - # 12
    frequency:    9.9011558648
  - # 13
    frequency:    9.9018484110
  - # 14
    frequency:   14.4793293147
  - # 15
    frequency:   14.4794643312
  - # 16
    frequency:   14.7454702832
  - # 17
    frequency:   18.3682471403
  - # 18
    frequency:   59.9430582472

- q-position: [    0.0101010,    0.0000000,    0.0000000 ]
  distance:    0.0034877
  band:
  - # 1
    frequency:   -0.6520264426
  - # 2
    frequency:   -0.6482168094
  - # 3
    frequency:   -0.1322742767
  - # 4
    frequency:    0.1796605654
  - # 5
    frequency:    0.3208713147
  - # 6
    frequency:    3.7386283371
  - # 7
    frequency:    3.7439855544
  - # 8
    frequency:    6.2824087421
  - # 9
    frequency:    8.1532268771
  - # 10
    frequency:    8.1573239444
  - # 11
    frequency:    9.0788509846
  - # 12
    frequency:    9.8991492997
  - # 13
    frequency:    9.9019253732
  - # 14
    frequency:   14.4783245537
  - # 15
    frequency:   14.4788694443
  - # 16
    frequency:   14.7435956284
  - # 17
    frequency:   18.3663070564
  - # 18
    frequency:   59.9426744001

- q-position: [    0.0151515,    0.0000000,    0.0000000 ]
  distance:    0.0052315
  band:
  - # 1
    frequency:   -0.6601488614
  - # 2
    frequency:   -0.6509907069
  - # 3
    frequency:   -0.1230743325
  - # 4
    frequency:    0.2677888522
  - # 5
    frequency:    0.4533249495
  - # 6
    frequency:    3.7402834043
  - # 7
    frequency:    3.7522873387
  - # 8
    frequency:    6.2813195712
  - # 9
    frequency:    8.1517000202
  - # 10
    frequency:    8.1608965670
  - # 11
    frequency:    9.0770448163
  - # 12
    frequency:    9.8957808667
  - # 13
    frequency:    9.9020489823
  - # 14
    frequency:   14.4766321437
  - # 15
    frequency:   14.4778762250
  - # 16
    frequency:   14.7404934828
  - # 17
    frequency:   18.3630813130
  - # 18
    frequency:   59.9420348078

- q-position: [    0.0202020,    0.0000000,    0.0000000 ]
  distance:    0.0069754
  band:
  - # 1
    frequency:   -0.6704648575
  - # 2
    frequency:   -0.6532746427
  - # 3
    frequency:   -0.0989093119
  - # 4
    frequency:    0.3544821972
  - # 5
    frequency:    0.5869965857
  - # 6
    frequency:    3.7425972287
  - # 7
    frequency:    3.7638148910
  - # 8
    frequency:    6.2797962778
  - # 9
    frequency:    8.1495847954
  - # 10
    frequency:    8.1658798964
  - # 11
    frequency:    9.0745361824
  - # 12
    frequency:    9.8910148919
  - # 13
    frequency:    9.9022123463
  - # 14
    frequency:   14.4742254549
  - # 15
    frequency:   14.4764820822
  - # 16
    frequency:   14.7361972366
  - # 17
    frequency:   18.3585814695
  - # 18
    frequency:   59.9411397046

- q-position: [    0.0252525,    0.0000000,    0.0000000 ]
  distance:    0.0087192
  band:
  - # 1
    frequency:   -0.6824479564
  - # 2
    frequency:   -0.6544487418
  - # 3
    frequency:   -0.0496024148
  - # 4
    frequency:    0.4398531218
  - # 5
    frequency:    0.7211202977
  - # 6
    frequency:    3.7455665261
  - # 7
    frequency:    3.7784760869
  - # 8
    frequency:    6.2778401090
  - # 9
    frequency:    8.1469033341
  - # 10
    frequency:    8.1722555180
  - # 11
    frequency:    9.0713446111
  - # 12
    frequency:    9.8848025521
  - # 13
    frequency:    9.9024060149
  - # 14
    frequency:   14.4710674181
  - # 15
    frequency:   14.4746834293
  - # 16
    frequency:   14.7307535301
  - # 17
    frequency:   18.3528236392
  - # 18
    frequency:   59.9399894282

- q-position: [    0.0303030,    0.0000000,    0.0000000 ]
  distance:    0.0104631
  band:
  - # 1
    frequency:   -0.6957398270
  - # 2
    frequency:   -0.6540885346
  - # 3
    frequency:    0.0791570759
  - # 4
    frequency:    0.5241080250
  - # 5
    frequency:    0.8551976314
  - # 6
    frequency:    3.7491870551
  - # 7
    frequency:    3.7961563385
  - # 8
    frequency:    6.2754522430
  - # 9
    frequency:    8.1436837452
  - # 10
    frequency:    8.1799996436
  - # 11
    frequency:    9.0674945573
  - # 12
    frequency:    9.8770829821
  - # 13
    frequency:    9.9026181739
  - # 14
    frequency:   14.4671108513
  - # 15
    frequency:   14.4724757265
  - # 16
    frequency:   14.7242220296
  - # 17
    frequency:   18.3458284172
  - # 18
    frequency:   59.9385844301

- q-position: [    0.0353535,    0.0000000,    0.0000000 ]
  distance:    0.0122069
  band:
  - # 1
    frequency:   -0.7101140462
  - # 2
    frequency:   -0.6518692541
  - # 3
    frequency:    0.1267990108
  - # 4
    frequency:    0.6074504552
  - # 5
    frequency:    0.9888919179
  - # 6
    frequency:    3.7534536059
  - # 7
    frequency:    3.8167212031
  - # 8
    frequency:    6.2726334737
  - # 9
    frequency:    8.1399598567
  - # 10
    frequency:    8.1890830106
  - # 11
    frequency:    9.0630149536
  - # 12
    frequency:    9.8677846827
  - # 13
    frequency:    9.9028348882
  - # 14
    frequency:   14.4622990488
  - # 15
    frequency:   14.4698535354
  - # 16
    frequency:   14.7166749628
  - # 17
    frequency:   18.3376207871
  - # 18
    frequency:   59.9369252873

- q-position: [    0.0404040,    0.0000000,    0.0000000 ]
  distance:    0.0139508
  band:
  - # 1
    frequency:   -0.7254249183
  - # 2
    frequency:   -0.6475270691
  - # 3
    frequency:    0.1638047502
  - # 4
    frequency:    0.6900408965
  - # 5
    frequency:    1.1219386546
  - # 6
    frequency:    3.7583599890
  - # 7
    frequency:    3.8400192910
  - # 8
    frequency:    6.2693838280
  - # 9
    frequency:    8.1357709045
  - # 10
    frequency:    8.1994707412
  - # 11
    frequency:    9.0579387010
  - # 12
    frequency:    9.8568272215
  - # 13
    frequency:    9.9030403914
  - # 14
    frequency:   14.4565667670
  - # 15
    frequency:   14.4668105886
  - # 16
    frequency:   14.7081962771
  - # 17
    frequency:   18.3282300031
  - # 18
    frequency:   59.9350127175

- q-position: [    0.0454545,    0.0000000,    0.0000000 ]
  distance:    0.0156946
  band:
  - # 1
    frequency:   -0.7415677197
  - # 2
    frequency:   -0.6408625654
  - # 3
    frequency:    0.1963640069
  - # 4
    frequency:    0.7719894051
  - # 5
    frequency:    1.2541079432
  - # 6
    frequency:    3.7638990270
  - # 7
    frequency:    3.8658853450
  - # 8
    frequency:    6.2657021176
  - # 9
    frequency:    8.1311611667
  - # 10
    frequency:    8.2111221521
  - # 11
    frequency:    9.0523021171
  - # 12
    frequency:    9.8441232216
  - # 13
    frequency:    9.9032174147
  - # 14
    frequency:   14.4498417630
  - # 15
    frequency:   14.4633398740
  - # 16
    frequency:   14.6988802578
  - # 17
    frequency:   18.3176894484
  - # 18
    frequency:   59.9328475963

- q-position: [    0.0505051,    0.0000000,    0.0000000 ]
  distance:    0.0174385
  band:
  - # 1
    frequency:   -0.7584542120
  - # 2
    frequency:   -0.6317694565
  - # 3
    frequency:    0.2269175196
  - # 4
    frequency:    0.8533619855
  - # 5
    frequency:    1.3851894071
  - # 6
    frequency:    3.7700625497
  - # 7
    frequency:    3.8941433710
  - # 8
    frequency:    6.2615854259
  - # 9
    frequency:    8.1261795476
  - # 10
    frequency:    8.2239905011
  - # 11
    frequency:    9.0461443583
  - # 12
    frequency:    9.8295806357
  - # 13
    frequency:    9.9033475510
  - # 14
    frequency:   14.4420470475
  - # 15
    frequency:   14.4594337337
  - # 16
    frequency:   14.6888294409
  - # 17
    frequency:   18.3060364662
  - # 18
    frequency:   59.9304309764

- q-position: [    0.0555556,    0.0000000,    0.0000000 ]
  distance:    0.0191823
  band:
  - # 1
    frequency:   -0.7759997782
  - # 2
    frequency:   -0.6202822946
  - # 3
    frequency:    0.2571133379
  - # 4
    frequency:    0.9341905448
  - # 5
    frequency:    1.5149852246
  - # 6
    frequency:    3.7768413948
  - # 7
    frequency:    3.9246097127
  - # 8
    frequency:    6.2570285319
  - # 9
    frequency:    8.1208791137
  - # 10
    frequency:    8.2380226593
  - # 11
    frequency:    9.0395068279
  - # 12
    frequency:    9.8131053128
  - # 13
    frequency:    9.9034116477
  - # 14
    frequency:   14.4331039691
  - # 15
    frequency:   14.4550839815
  - # 16
    frequency:   14.6781516968
  - # 17
    frequency:   18.2933121646
  - # 18
    frequency:   59.9277641092

- q-position: [    0.0606061,    0.0000000,    0.0000000 ]
  distance:    0.0209262
  band:
  - # 1
    frequency:   -0.7941178059
  - # 2
    frequency:   -0.6066419347
  - # 3
    frequency:    0.2884041249
  - # 4
    frequency:    1.0144822195
  - # 5
    frequency:    1.6433061262
  - # 6
    frequency:    3.7842254157
  - # 7
    frequency:    3.9570959820
  - # 8
    frequency:    6.2520232705
  - # 9
    frequency:    8.1153165833
  - # 10
    frequency:    8.2531586914
  - # 11
    frequency:    9.0324325785
  - # 12
    frequency:    9.7946038697
  - # 13
    frequency:    9.9033902216
  - # 14
    frequency:   14.4229361499
  - # 15
    frequency:   14.4502820362
  - # 16
    frequency:   14.6669564601
  - # 17
    frequency:   18.2795611917
  - # 18
    frequency:   59.9248484672

- q-position: [    0.0656566,    0.0000000,    0.0000000 ]
  distance:    0.0226700
  band:
  - # 1
    frequency:   -0.8127180851
  - # 2
    frequency:   -0.5913726499
  - # 3
    frequency:    0.3221945407
  - # 4
    frequency:    1.0942268191
  - # 5
    frequency:    1.7699686184
  - # 6
    frequency:    3.7922034982
  - # 7
    frequency:    3.9914117755
  - # 8
    frequency:    6.2465578311
  - # 9
    frequency:    8.1095517753
  - # 10
    frequency:    8.2693313257
  - # 11
    frequency:    9.0249657049
  - # 12
    frequency:    9.7739868954
  - # 13
    frequency:    9.9032638897
  - # 14
    frequency:   14.4114741162
  - # 15
    frequency:   14.4450190740
  - # 16
    frequency:   14.6553502566
  - # 17
    frequency:   18.2648314824
  - # 18
    frequency:   59.9216857686

- q-position: [    0.0707071,    0.0000000,    0.0000000 ]
  distance:    0.0244139
  band:
  - # 1
    frequency:   -0.8317072067
  - # 2
    frequency:   -0.5753471592
  - # 3
    frequency:    0.3598018557
  - # 4
    frequency:    1.1734023434
  - # 5
    frequency:    1.8947928167
  - # 6
    frequency:    3.8007635875
  - # 7
    frequency:    4.0273671262
  - # 8
    frequency:    6.2406159979
  - # 9
    frequency:    8.1036470198
  - # 10
    frequency:    8.2864652935
  - # 11
    frequency:    9.0171507167
  - # 12
    frequency:    9.7511725294
  - # 13
    frequency:    9.9030138092
  - # 14
    frequency:   14.3986602490
  - # 15
    frequency:   14.4392861984
  - # 16
    frequency:   14.6434318978
  - # 17
    frequency:   18.2491739755
  - # 18
    frequency:   59.9182780027

- q-position: [    0.0757576,    0.0000000,    0.0000000 ]
  distance:    0.0261577
  band:
  - # 1
    frequency:   -0.8509898270
  - # 2
    frequency:   -0.5597884499
  - # 3
    frequency:    0.4022929359
  - # 4
    frequency:    1.2519789122
  - # 5
    frequency:    2.0176006347
  - # 6
    frequency:    3.8098927255
  - # 7
    frequency:    4.0647746583
  - # 8
    frequency:    6.2341763317
  - # 9
    frequency:    8.0976665354
  - # 10
    frequency:    8.3044765099
  - # 11
    frequency:    9.0090318571
  - # 12
    frequency:    9.7260904789
  - # 13
    frequency:    9.9026221198
  - # 14
    frequency:   14.3844534655
  - # 15
    frequency:   14.4330746297
  - # 16
    frequency:   14.6312879295
  - # 17
    frequency:   18.2326423013
  - # 18
    frequency:   59.9146274563

- q-position: [    0.0808081,    0.0000000,    0.0000000 ]
  distance:    0.0279015
  band:
  - # 1
    frequency:   -0.8704702059
  - # 2
    frequency:   -0.5461457032
  - # 3
    frequency:    0.4502674664
  - # 4
    frequency:    1.3299215072
  - # 5
    frequency:    2.1382141934
  - # 6
    frequency:    3.8195770997
  - # 7
    frequency:    4.1034514256
  - # 8
    frequency:    6.2272113048
  - # 9
    frequency:    8.0916757798
  - # 10
    frequency:    8.3232710659
  - # 11
    frequency:    9.0006523122
  - # 12
    frequency:    9.6986865699
  - # 13
    frequency:    9.9020723821
  - # 14
    frequency:   14.3688329282
  - # 15
    frequency:   14.4263759119
  - # 16
    frequency:   14.6189890345
  - # 17
    frequency:   18.2152924416
  - # 18
    frequency:   59.9107367400

- q-position: [    0.0858586,    0.0000000,    0.0000000 ]
  distance:    0.0296454
  band:
  - # 1
    frequency:   -0.8900537366
  - # 2
    frequency:   -0.5358322763
  - # 3
    frequency:    0.5037126943
  - # 4
    frequency:    1.4071918615
  - # 5
    frequency:    2.2564543642
  - # 6
    frequency:    3.8298021045
  - # 7
    frequency:    4.1432204211
  - # 8
    frequency:    6.2196863963
  - # 9
    frequency:    8.0857407775
  - # 10
    frequency:    8.3427439958
  - # 11
    frequency:    8.9920532095
  - # 12
    frequency:    9.6689279722
  - # 13
    frequency:    9.9013500060
  - # 14
    frequency:   14.3518001433
  - # 15
    frequency:   14.4191821378
  - # 16
    frequency:   14.6065880263
  - # 17
    frequency:   18.1971823629
  - # 18
    frequency:   59.9066088153

- q-position: [    0.0909091,    0.0000000,    0.0000000 ]
  distance:    0.0313892
  band:
  - # 1
    frequency:   -0.9096483538
  - # 2
    frequency:   -0.5299252488
  - # 3
    frequency:    0.5620467669
  - # 4
    frequency:    1.4837497533
  - # 5
    frequency:    2.3721393833
  - # 6
    frequency:    3.8405524132
  - # 7
    frequency:    4.1839117540
  - # 8
    frequency:    6.2115591717
  - # 9
    frequency:    8.0799274335
  - # 10
    frequency:    8.3627777770
  - # 11
    frequency:    8.9832722424
  - # 12
    frequency:    9.6368093065
  - # 13
    frequency:    9.9004426621
  - # 14
    frequency:   14.3333790731
  - # 15
    frequency:   14.4114861903
  - # 16
    frequency:   14.5941198099
  - # 17
    frequency:   18.1783716258
  - # 18
    frequency:   59.9022470215

- q-position: [    0.0959596,    0.0000000,    0.0000000 ]
  distance:    0.0331331
  band:
  - # 1
    frequency:   -0.9291657900
  - # 2
    frequency:   -0.5289863841
  - # 3
    frequency:    0.6243432000
  - # 4
    frequency:    1.5595538904
  - # 5
    frequency:    2.4850834875
  - # 6
    frequency:    3.8518120606
  - # 7
    frequency:    4.2253634862
  - # 8
    frequency:    6.2027783747
  - # 9
    frequency:    8.0743008381
  - # 10
    frequency:    8.3832405198
  - # 11
    frequency:    8.9743416479
  - # 12
    frequency:    9.6023599426
  - # 13
    frequency:    9.8993406727
  - # 14
    frequency:   14.3136142698
  - # 15
    frequency:   14.4032819994
  - # 16
    frequency:   14.5816033036
  - # 17
    frequency:   18.1589209747
  - # 18
    frequency:   59.8976551010

- q-position: [    0.1010101,    0.0000000,    0.0000000 ]
  distance:    0.0348769
  band:
  - # 1
    frequency:   -0.9485226908
  - # 2
    frequency:   -0.5330798198
  - # 3
    frequency:    0.6896017106
  - # 4
    frequency:    1.6345625122
  - # 5
    frequency:    2.5950955368
  - # 6
    frequency:    3.8635645364
  - # 7
    frequency:    4.2674221202
  - # 8
    frequency:    6.1932830835
  - # 9
    frequency:    8.0689245709
  - # 10
    frequency:    8.4039838076
  - # 11
    frequency:    8.9652850973
  - # 12
    frequency:    9.5656529567
  - # 13
    frequency:    9.8980373744
  - # 14
    frequency:   14.2925674142
  - # 15
    frequency:   14.3945648119
  - # 16
    frequency:   14.5690449391
  - # 17
    frequency:   18.1388919114
  - # 18
    frequency:   59.8928372249

- q-position: [    0.1060606,    0.0000000,    0.0000000 ]
  distance:    0.0366208
  band:
  - # 1
    frequency:   -0.9676416111
  - # 2
    frequency:   -0.5419242236
  - # 3
    frequency:    0.7569363718
  - # 4
    frequency:    1.7087337990
  - # 5
    frequency:    2.7019775927
  - # 6
    frequency:    3.8757928854
  - # 7
    frequency:    4.3099427176
  - # 8
    frequency:    6.1830020017
  - # 9
    frequency:    8.0638600129
  - # 10
    frequency:    8.4248401660
  - # 11
    frequency:    8.9561127849
  - # 12
    frequency:    9.5268164563
  - # 13
    frequency:    9.8965294499
  - # 14
    frequency:   14.2703128805
  - # 15
    frequency:   14.3853314725
  - # 16
    frequency:   14.5564431235
  - # 17
    frequency:   18.1183462582
  - # 18
    frequency:   59.8877980163

- q-position: [    0.1111111,    0.0000000,    0.0000000 ]
  distance:    0.0383646
  band:
  - # 1
    frequency:   -0.9864519193
  - # 2
    frequency:   -0.5550694638
  - # 3
    frequency:    0.8256488476
  - # 4
    frequency:    1.7820261483
  - # 5
    frequency:    2.8055234306
  - # 6
    frequency:    3.8884798160
  - # 7
    frequency:    4.3527886214
  - # 8
    frequency:    6.1718529905
  - # 9
    frequency:    8.0591656731
  - # 10
    frequency:    8.4456201830
  - # 11
    frequency:    8.9468135732
  - # 12
    frequency:    9.4860483493
  - # 13
    frequency:    9.8948172231
  - # 14
    frequency:   14.2469329976
  - # 15
    frequency:   14.3755807117
  - # 16
    frequency:   14.5437929939
  - # 17
    frequency:   18.0973457175
  - # 18
    frequency:   59.8825425726

- q-position: [    0.1161616,    0.0000000,    0.0000000 ]
  distance:    0.0401085
  band:
  - # 1
    frequency:   -1.0048906315
  - # 2
    frequency:   -0.5720304653
  - # 3
    frequency:    0.8952235841
  - # 4
    frequency:    1.8543983596
  - # 5
    frequency:    2.9055169645
  - # 6
    frequency:    3.9016078125
  - # 7
    frequency:    4.3958307385
  - # 8
    frequency:    6.1597429921
  - # 9
    frequency:    8.0548965388
  - # 10
    frequency:    8.4661093843
  - # 11
    frequency:    8.9373424200
  - # 12
    frequency:    9.4436361588
  - # 13
    frequency:    9.8929049149
  - # 14
    frequency:   14.2225135693
  - # 15
    frequency:   14.3653134401
  - # 16
    frequency:   14.5310909061
  - # 17
    frequency:   18.0759514328
  - # 18
    frequency:   59.8770764847

- q-position: [    0.1212121,    0.0000000,    0.0000000 ]
  distance:    0.0418523
  band:
  - # 1
    frequency:   -1.0229031928
  - # 2
    frequency:   -0.5923650252
  - # 3
    frequency:    0.9652908293
  - # 4
    frequency:    1.9258097566
  - # 5
    frequency:    3.0017305639
  - # 6
    frequency:    3.9151592510
  - # 7
    frequency:    4.4389463262
  - # 8
    frequency:    6.1465685502
  - # 9
    frequency:    8.0511034583
  - # 10
    frequency:    8.4860651043
  - # 11
    frequency:    8.9276004820
  - # 12
    frequency:    9.3999841480
  - # 13
    frequency:    9.8908008542
  - # 14
    frequency:   14.1971400238
  - # 15
    frequency:   14.3545330414
  - # 16
    frequency:   14.5183382881
  - # 17
    frequency:   18.0542235609
  - # 18
    frequency:   59.8714058548

- q-position: [    0.1262626,    0.0000000,    0.0000000 ]
  distance:    0.0435962
  band:
  - # 1
    frequency:   -1.0404442146
  - # 2
    frequency:   -0.6157087739
  - # 3
    frequency:    1.0355854218
  - # 4
    frequency:    1.9962202646
  - # 5
    frequency:    3.0939232370
  - # 6
    frequency:    3.9291165173
  - # 7
    frequency:    4.4820172132
  - # 8
    frequency:    6.1322172061
  - # 9
    frequency:    8.0478325626
  - # 10
    frequency:    8.5052137893
  - # 11
    frequency:    8.9174045436
  - # 12
    frequency:    9.3556505275
  - # 13
    frequency:    9.8885176430
  - # 14
    frequency:   14.1708943746
  - # 15
    frequency:   14.3432456642
  - # 16
    frequency:   14.5055446749
  - # 17
    frequency:   18.0322208611
  - # 18
    frequency:   59.8655373103

- q-position: [    0.1313131,    0.0000000,    0.0000000 ]
  distance:    0.0453400
  band:
  - # 1
    frequency:   -1.0574781735
  - # 2
    frequency:   -0.6417844844
  - # 3
    frequency:    1.1059123237
  - # 4
    frequency:    2.0655904602
  - # 5
    frequency:    3.1818386424
  - # 6
    frequency:    3.9434621236
  - # 7
    frequency:    4.5249273786
  - # 8
    frequency:    6.1165701375
  - # 9
    frequency:    8.0451247347
  - # 10
    frequency:    8.5232493733
  - # 11
    frequency:    8.9064429173
  - # 12
    frequency:    9.3113967624
  - # 13
    frequency:    9.8860722719
  - # 14
    frequency:   14.1438530257
  - # 15
    frequency:   14.3314605043
  - # 16
    frequency:   14.4927298922
  - # 17
    frequency:   18.0100003095
  - # 18
    frequency:   59.8594780155

- q-position: [    0.1363636,    0.0000000,    0.0000000 ]
  distance:    0.0470839
  band:
  - # 1
    frequency:   -1.0739800705
  - # 2
    frequency:   -0.6703985326
  - # 3
    frequency:    1.1761208130
  - # 4
    frequency:    2.1338816009
  - # 5
    frequency:    3.2652028807
  - # 6
    frequency:    3.9581788255
  - # 7
    frequency:    4.5675598085
  - # 8
    frequency:    6.0995065040
  - # 9
    frequency:    8.0430151339
  - # 10
    frequency:    8.5398334162
  - # 11
    frequency:    8.8942201604
  - # 12
    frequency:    9.2682456882
  - # 13
    frequency:    9.8834861830
  - # 14
    frequency:   14.1160853631
  - # 15
    frequency:   14.3191900757
  - # 16
    frequency:   14.4799254401
  - # 17
    frequency:   17.9876167461
  - # 18
    frequency:   59.8532356785

- q-position: [    0.1414141,    0.0000000,    0.0000000 ]
  distance:    0.0488277
  band:
  - # 1
    frequency:   -1.0899360418
  - # 2
    frequency:   -0.7014321708
  - # 3
    frequency:    1.2460858838
  - # 4
    frequency:    2.2010556454
  - # 5
    frequency:    3.3437219941
  - # 6
    frequency:    3.9732497354
  - # 7
    frequency:    4.6097925662
  - # 8
    frequency:    6.0809100663
  - # 9
    frequency:    8.0415327799
  - # 10
    frequency:    8.5545971798
  - # 11
    frequency:    8.8800105319
  - # 12
    frequency:    9.2275280089
  - # 13
    frequency:    9.8807852790
  - # 14
    frequency:   14.0876530348
  - # 15
    frequency:   14.3064504634
  - # 16
    frequency:   14.4671751669
  - # 17
    frequency:   17.9651225612
  - # 18
    frequency:   59.8468185557

- q-position: [    0.1464646,    0.0000000,    0.0000000 ]
  distance:    0.0505716
  band:
  - # 1
    frequency:   -1.1053439137
  - # 2
    frequency:   -0.7348316331
  - # 3
    frequency:    1.3156947171
  - # 4
    frequency:    2.2670752694
  - # 5
    frequency:    3.4170790973
  - # 6
    frequency:    3.9886584346
  - # 7
    frequency:    4.6514940400
  - # 8
    frequency:    6.0606787353
  - # 9
    frequency:    8.0407002041
  - # 10
    frequency:    8.5671439706
  - # 11
    frequency:    8.8628792590
  - # 12
    frequency:    9.1908593884
  - # 13
    frequency:    9.8779998773
  - # 14
    frequency:   14.0586098109
  - # 15
    frequency:   14.2932615536
  - # 16
    frequency:   14.4545353342
  - # 17
    frequency:   17.9425674278
  - # 18
    frequency:   59.8402354512

- q-position: [    0.1515152,    0.0000000,    0.0000000 ]
  distance:    0.0523154
  band:
  - # 1
    frequency:   -1.1202136840
  - # 2
    frequency:   -0.7705989556
  - # 3
    frequency:    1.3848363185
  - # 4
    frequency:    2.3319038843
  - # 5
    frequency:    3.4849310680
  - # 6
    frequency:    4.0043890824
  - # 7
    frequency:    4.6925173925
  - # 8
    frequency:    6.0387377402
  - # 9
    frequency:    8.0405331709
  - # 10
    frequency:    8.5770457540
  - # 11
    frequency:    8.8418762367
  - # 12
    frequency:    9.1599490571
  - # 13
    frequency:    9.8751646058
  - # 14
    frequency:   14.0290019190
  - # 15
    frequency:   14.2796472363
  - # 16
    frequency:   14.4420741622
  - # 17
    frequency:   17.9199980832
  - # 18
    frequency:   59.8334957119

- q-position: [    0.1565657,    0.0000000,    0.0000000 ]
  distance:    0.0540592
  band:
  - # 1
    frequency:   -1.1345679121
  - # 2
    frequency:   -0.8087842821
  - # 3
    frequency:    1.4533928321
  - # 4
    frequency:    2.3955056637
  - # 5
    frequency:    3.5469048002
  - # 6
    frequency:    4.0204265230
  - # 7
    frequency:    4.7326943323
  - # 8
    frequency:    6.0150570381
  - # 9
    frequency:    8.0410404735
  - # 10
    frequency:    8.5838200569
  - # 11
    frequency:    8.8164684221
  - # 12
    frequency:    9.1361871899
  - # 13
    frequency:    9.8723182424
  - # 14
    frequency:   13.9988687633
  - # 15
    frequency:   14.2656355734
  - # 16
    frequency:   14.4298709354
  - # 17
    frequency:   17.8974581652
  - # 18
    frequency:   59.8266092189

- q-position: [    0.1616162,    0.0000000,    0.0000000 ]
  distance:    0.0558031
  band:
  - # 1
    frequency:   -1.1484419974
  - # 2
    frequency:   -0.8494798913
  - # 3
    frequency:    1.5212313636
  - # 4
    frequency:    2.4578455825
  - # 5
    frequency:    3.6025932009
  - # 6
    frequency:    4.0367563912
  - # 7
    frequency:    4.7718284794
  - # 8
    frequency:    5.9896733152
  - # 9
    frequency:    8.0422238058
  - # 10
    frequency:    8.5868619535
  - # 11
    frequency:    8.7870605303
  - # 12
    frequency:    9.1201862223
  - # 13
    frequency:    9.8695034955
  - # 14
    frequency:   13.9682439406
  - # 15
    frequency:   14.2512589296
  - # 16
    frequency:   14.4180147402
  - # 17
    frequency:   17.8749881043
  - # 18
    frequency:   59.8195863730

- q-position: [    0.1666667,    0.0000000,    0.0000000 ]
  distance:    0.0575469
  band:
  - # 1
    frequency:   -1.1618843184
  - # 2
    frequency:   -0.8928159648
  - # 3
    frequency:    1.5881953383
  - # 4
    frequency:    2.5188894738
  - # 5
    frequency:    3.6515514852
  - # 6
    frequency:    4.0533652181
  - # 7
    frequency:    4.8096888379
  - # 8
    frequency:    5.9627163386
  - # 9
    frequency:    8.0440777104
  - # 10
    frequency:    8.5853026046
  - # 11
    frequency:    8.7552731714
  - # 12
    frequency:    9.1116351941
  - # 13
    frequency:    9.8667667274
  - # 14
    frequency:   13.9371564721
  - # 15
    frequency:   14.2365540583
  - # 16
    frequency:   14.4066029008
  - # 17
    frequency:   17.8526250711
  - # 18
    frequency:   59.8124380766

- q-position: [    0.1717172,    0.0000000,    0.0000000 ]
  distance:    0.0592908
  band:
  - # 1
    frequency:   -1.1749562081
  - # 2
    frequency:   -0.9389580389
  - # 3
    frequency:    1.6540944589
  - # 4
    frequency:    2.5786041076
  - # 5
    frequency:    3.6932950062
  - # 6
    frequency:    4.0702405373
  - # 7
    frequency:    4.8460042673
  - # 8
    frequency:    5.9344383258
  - # 9
    frequency:    8.0465896041
  - # 10
    frequency:    8.5778350542
  - # 11
    frequency:    8.7238280086
  - # 12
    frequency:    9.1095767629
  - # 13
    frequency:    9.8641576216
  - # 14
    frequency:   13.9056321712
  - # 15
    frequency:   14.2215621389
  - # 16
    frequency:   14.3957391817
  - # 17
    frequency:   17.8304029797
  - # 18
    frequency:   59.8051757099

- q-position: [    0.1767677,    0.0000000,    0.0000000 ]
  distance:    0.0610346
  band:
  - # 1
    frequency:   -1.1877317352
  - # 2
    frequency:   -0.9881060728
  - # 3
    frequency:    1.7186922423
  - # 4
    frequency:    2.6369572957
  - # 5
    frequency:    3.7273009555
  - # 6
    frequency:    4.0873709922
  - # 7
    frequency:    4.8804604477
  - # 8
    frequency:    5.9052432393
  - # 9
    frequency:    8.0497398766
  - # 10
    frequency:    8.5628727084
  - # 11
    frequency:    8.6959568048
  - # 12
    frequency:    9.1128248677
  - # 13
    frequency:    9.8617287956
  - # 14