nqpoint: 300    
npath: 3      
segment_nqpoint:
- 100
- 100
- 100
labels:
- [ 'G', 'M' ]
- [ 'M', 'K' ]
- [ 'K', 'G' ]
reciprocal_lattice:
- [   0.29902266,   0.17264081,   0.00000000 ] # a*
- [   0.00000000,   0.34528163,   0.00000000 ] # b*
- [   0.00000000,   0.00000000,   0.04109201 ] # c*
natom: 6      
lattice:
- [     3.344228167386079,     0.000000000000000,     0.000000000000000 ] # a
- [    -1.672114083693040,     2.896186549006251,     0.000000000000000 ] # b
- [     0.000000000000000,     0.000000000000000,    24.335629126438519 ] # c
points:
- symbol: C # 1
  coordinates: [  0.000000000000000,  0.000000000000000,  0.467130152643208 ]
  mass: 12.010700
- symbol: C # 2
  coordinates: [  0.333332985432215,  0.666666983183674,  0.580584867495591 ]
  mass: 12.010700
- symbol: N # 3
  coordinates: [  0.333332985432215,  0.666666983183674,  0.630171878719902 ]
  mass: 14.006700
- symbol: O # 4
  coordinates: [  0.666666984744048,  0.333332985985145,  0.369828121280098 ]
  mass: 15.999400
- symbol: Zr # 5
  coordinates: [  0.333332985432215,  0.666666983183674,  0.408611902154608 ]
  mass: 91.224000
- symbol: Zr # 6
  coordinates: [  0.666666984744048,  0.333332985985145,  0.519501422675013 ]
  mass: 91.224000

phonon:
- q-position: [    0.0000000,    0.0000000,    0.0000000 ]
  distance:    0.0000000
  band:
  - # 1
    frequency:   -0.0000073486
  - # 2
    frequency:   -0.0000003785
  - # 3
    frequency:    0.0000073978
  - # 4
    frequency:    0.5068872566
  - # 5
    frequency:    0.5068872566
  - # 6
    frequency:    3.8137435656
  - # 7
    frequency:    3.8137435656
  - # 8
    frequency:    6.2415370756
  - # 9
    frequency:    7.6392344214
  - # 10
    frequency:    7.6392344214
  - # 11
    frequency:    9.0856964504
  - # 12
    frequency:   10.2953195101
  - # 13
    frequency:   10.2953195101
  - # 14
    frequency:   14.7616633830
  - # 15
    frequency:   14.9690699352
  - # 16
    frequency:   14.9690699352
  - # 17
    frequency:   18.5874139240
  - # 18
    frequency:   59.9594434962

- q-position: [    0.0050505,    0.0000000,    0.0000000 ]
  distance:    0.0017438
  band:
  - # 1
    frequency:   -0.1036969607
  - # 2
    frequency:   -0.0707010669
  - # 3
    frequency:    0.0031717253
  - # 4
    frequency:    0.5232209090
  - # 5
    frequency:    0.5261732963
  - # 6
    frequency:    3.8136862182
  - # 7
    frequency:    3.8148692407
  - # 8
    frequency:    6.2414616847
  - # 9
    frequency:    7.6398726691
  - # 10
    frequency:    7.6406141612
  - # 11
    frequency:    9.0853525432
  - # 12
    frequency:   10.2940537852
  - # 13
    frequency:   10.2948151786
  - # 14
    frequency:   14.7602959900
  - # 15
    frequency:   14.9685276861
  - # 16
    frequency:   14.9690495034
  - # 17
    frequency:   18.5862176484
  - # 18
    frequency:   59.9592743096

- q-position: [    0.0101010,    0.0000000,    0.0000000 ]
  distance:    0.0034877
  band:
  - # 1
    frequency:   -0.1927213435
  - # 2
    frequency:   -0.1252341312
  - # 3
    frequency:    0.0130201167
  - # 4
    frequency:    0.5642251727
  - # 5
    frequency:    0.5763389146
  - # 6
    frequency:    3.8135169228
  - # 7
    frequency:    3.8182410775
  - # 8
    frequency:    6.2412348113
  - # 9
    frequency:    7.6417840152
  - # 10
    frequency:    7.6447463063
  - # 11
    frequency:    9.0843233575
  - # 12
    frequency:   10.2902539757
  - # 13
    frequency:   10.2933043239
  - # 14
    frequency:   14.7562247821
  - # 15
    frequency:   14.9669024928
  - # 16
    frequency:   14.9689604055
  - # 17
    frequency:   18.5826354434
  - # 18
    frequency:   59.9587670901

- q-position: [    0.0151515,    0.0000000,    0.0000000 ]
  distance:    0.0052315
  band:
  - # 1
    frequency:   -0.2649243023
  - # 2
    frequency:   -0.1595422534
  - # 3
    frequency:    0.0305542999
  - # 4
    frequency:    0.6178001740
  - # 5
    frequency:    0.6447751177
  - # 6
    frequency:    3.8132438925
  - # 7
    frequency:    3.8238436012
  - # 8
    frequency:    6.2408543030
  - # 9
    frequency:    7.6449582964
  - # 10
    frequency:    7.6516096925
  - # 11
    frequency:    9.0826164721
  - # 12
    frequency:   10.2839122561
  - # 13
    frequency:   10.2907933602
  - # 14
    frequency:   14.7495373429
  - # 15
    frequency:   14.9641990162
  - # 16
    frequency:   14.9687245877
  - # 17
    frequency:   18.5766871293
  - # 18
    frequency:   59.9579228575

- q-position: [    0.0202020,    0.0000000,    0.0000000 ]
  distance:    0.0069754
  band:
  - # 1
    frequency:   -0.3237911136
  - # 2
    frequency:   -0.1767486697
  - # 3
    frequency:    0.0575169494
  - # 4
    frequency:    0.6772151797
  - # 5
    frequency:    0.7234451937
  - # 6
    frequency:    3.8128807214
  - # 7
    frequency:    3.8316513225
  - # 8
    frequency:    6.2403164042
  - # 9
    frequency:    7.6493786653
  - # 10
    frequency:    7.6611692406
  - # 11
    frequency:    9.0802444207
  - # 12
    frequency:   10.2750158492
  - # 13
    frequency:   10.2872929581
  - # 14
    frequency:   14.7403640324
  - # 15
    frequency:   14.9604250182
  - # 16
    frequency:   14.9682276508
  - # 17
    frequency:   18.5684055909
  - # 18
    frequency:   59.9567433084

- q-position: [    0.0252525,    0.0000000,    0.0000000 ]
  distance:    0.0087192
  band:
  - # 1
    frequency:   -0.3728777317
  - # 2
    frequency:   -0.1825478607
  - # 3
    frequency:    0.0957364428
  - # 4
    frequency:    0.7395940103
  - # 5
    frequency:    0.8082840881
  - # 6
    frequency:    3.8124462454
  - # 7
    frequency:    3.8416291750
  - # 8
    frequency:    6.2396155137
  - # 9
    frequency:    7.6550217267
  - # 10
    frequency:    7.6733762356
  - # 11
    frequency:    9.0772245481
  - # 12
    frequency:   10.2635474273
  - # 13
    frequency:   10.2828180162
  - # 14
    frequency:   14.7288606602
  - # 15
    frequency:   14.9555913531
  - # 16
    frequency:   14.9673362924
  - # 17
    frequency:   18.5578365535
  - # 18
    frequency:   59.9552308118

- q-position: [    0.0303030,    0.0000000,    0.0000000 ]
  distance:    0.0104631
  band:
  - # 1
    frequency:   -0.4148149155
  - # 2
    frequency:   -0.1838550892
  - # 3
    frequency:    0.1449671447
  - # 4
    frequency:    0.8037212089
  - # 5
    frequency:    0.8971911951
  - # 6
    frequency:    3.8119643486
  - # 7
    frequency:    3.8537331036
  - # 8
    frequency:    6.2387438592
  - # 9
    frequency:    7.6618577241
  - # 10
    frequency:    7.6881686941
  - # 11
    frequency:    9.0735788156
  - # 12
    frequency:   10.2494856844
  - # 13
    frequency:   10.2773876197
  - # 14
    frequency:   14.7151926047
  - # 15
    frequency:   14.9497119542
  - # 16
    frequency:   14.9659143418
  - # 17
    frequency:   18.5450382686
  - # 18
    frequency:   59.9533884027

- q-position: [    0.0353535,    0.0000000,    0.0000000 ]
  distance:    0.0122069
  band:
  - # 1
    frequency:   -0.4514681834
  - # 2
    frequency:   -0.1858486166
  - # 3
    frequency:    0.2016141071
  - # 4
    frequency:    0.8690426539
  - # 5
    frequency:    0.9889640983
  - # 6
    frequency:    3.8114637175
  - # 7
    frequency:    3.8679107785
  - # 8
    frequency:    6.2376911049
  - # 9
    frequency:    7.6698507737
  - # 10
    frequency:    7.7054717999
  - # 11
    frequency:    9.0693335583
  - # 12
    frequency:   10.2328060873
  - # 13
    frequency:   10.2710249881
  - # 14
    frequency:   14.6995232020
  - # 15
    frequency:   14.9428038170
  - # 16
    frequency:   14.9638345608
  - # 17
    frequency:   18.5300811070
  - # 18
    frequency:   59.9512197736

- q-position: [    0.0404040,    0.0000000,    0.0000000 ]
  distance:    0.0139508
  band:
  - # 1
    frequency:   -0.4841799144
  - # 2
    frequency:   -0.1899324520
  - # 3
    frequency:    0.2614386859
  - # 4
    frequency:    0.9352716672
  - # 5
    frequency:    1.0828299036
  - # 6
    frequency:    3.8109775463
  - # 7
    frequency:    3.8841024089
  - # 8
    frequency:    6.2364439049
  - # 9
    frequency:    7.6789591423
  - # 10
    frequency:    7.7251983826
  - # 11
    frequency:    9.0645192032
  - # 12
    frequency:   10.2134818183
  - # 13
    frequency:   10.2637574097
  - # 14
    frequency:   14.6820069142
  - # 15
    frequency:   14.9348869778
  - # 16
    frequency:   14.9609856921
  - # 17
    frequency:   18.5130470614
  - # 18
    frequency:   59.9487292654

- q-position: [    0.0454545,    0.0000000,    0.0000000 ]
  distance:    0.0156946
  band:
  - # 1
    frequency:   -0.5139407673
  - # 2
    frequency:   -0.1954476242
  - # 3
    frequency:    0.3218846365
  - # 4
    frequency:    1.0022321911
  - # 5
    frequency:    1.1782377091
  - # 6
    frequency:    3.8105431955
  - # 7
    frequency:    3.9022416266
  - # 8
    frequency:    6.2349854181
  - # 9
    frequency:    7.6891355634
  - # 10
    frequency:    7.7472494126
  - # 11
    frequency:    9.0591699544
  - # 12
    frequency:   10.1914849253
  - # 13
    frequency:   10.2556161644
  - # 14
    frequency:   14.6627863847
  - # 15
    frequency:   14.9259844868
  - # 16
    frequency:   14.9572756390
  - # 17
    frequency:   18.4940291548
  - # 18
    frequency:   59.9459218549

- q-position: [    0.0505051,    0.0000000,    0.0000000 ]
  distance:    0.0174385
  band:
  - # 1
    frequency:   -0.5414994915
  - # 2
    frequency:   -0.2014589980
  - # 3
    frequency:    0.3818282548
  - # 4
    frequency:    1.0697942667
  - # 5
    frequency:    1.2747612142
  - # 6
    frequency:    3.8102018068
  - # 7
    frequency:    3.9222564140
  - # 8
    frequency:    6.2332947966
  - # 9
    frequency:    7.7003275872
  - # 10
    frequency:    7.7715144876
  - # 11
    frequency:    9.0533234542
  - # 12
    frequency:   10.1667876971
  - # 13
    frequency:   10.2466364330
  - # 14
    frequency:   14.6419920726
  - # 15
    frequency:   14.9161223770
  - # 16
    frequency:   14.9526320752
  - # 17
    frequency:   18.4731307578
  - # 18
    frequency:   59.9428031418

- q-position: [    0.0555556,    0.0000000,    0.0000000 ]
  distance:    0.0191823
  band:
  - # 1
    frequency:   -0.5674332154
  - # 2
    frequency:   -0.2072646151
  - # 3
    frequency:    0.4408422461
  - # 4
    frequency:    1.1378469736
  - # 5
    frequency:    1.3720494540
  - # 6
    frequency:    3.8099978784
  - # 7
    frequency:    3.9440700461
  - # 8
    frequency:    6.2313466593
  - # 9
    frequency:    7.7124779596
  - # 10
    frequency:    7.7978722808
  - # 11
    frequency:    9.0470204284
  - # 12
    frequency:   10.1393642867
  - # 13
    frequency:   10.2368571936
  - # 14
    frequency:   14.6197433073
  - # 15
    frequency:   14.9053296267
  - # 16
    frequency:   14.9470016313
  - # 17
    frequency:   18.4504648133
  - # 18
    frequency:   59.9393793333

- q-position: [    0.0606061,    0.0000000,    0.0000000 ]
  distance:    0.0209262
  band:
  - # 1
    frequency:   -0.5921936136
  - # 2
    frequency:   -0.2124074400
  - # 3
    frequency:    0.4987931321
  - # 4
    frequency:    1.2062871956
  - # 5
    frequency:    1.4697996865
  - # 6
    frequency:    3.8099788046
  - # 7
    frequency:    3.9676020257
  - # 8
    frequency:    6.2291105599
  - # 9
    frequency:    7.7255250236
  - # 10
    frequency:    7.8261909258
  - # 11
    frequency:    9.0403043243
  - # 12
    frequency:   10.1091926095
  - # 13
    frequency:   10.2263211040
  - # 14
    frequency:   14.5961499514
  - # 15
    frequency:   14.8936381151
  - # 16
    frequency:   14.9403484576
  - # 17
    frequency:   18.4261529727
  - # 18
    frequency:   59.9356572276

- q-position: [    0.0656566,    0.0000000,    0.0000000 ]
  distance:    0.0226700
  band:
  - # 1
    frequency:   -0.6161382278
  - # 2
    frequency:   -0.2166149504
  - # 3
    frequency:    0.5556722024
  - # 4
    frequency:    1.2750152339
  - # 5
    frequency:    1.5677410672
  - # 6
    frequency:    3.8101943835
  - # 7
    frequency:    3.9927689894
  - # 8
    frequency:    6.2265504549
  - # 9
    frequency:    7.7394031390
  - # 10
    frequency:    7.8563283082
  - # 11
    frequency:    9.0332209494
  - # 12
    frequency:   10.0762565471
  - # 13
    frequency:   10.2150743697
  - # 14
    frequency:   14.5713141749
  - # 15
    frequency:   14.8810825724
  - # 16
    frequency:   14.9326526476
  - # 17
    frequency:   18.4003246445
  - # 18
    frequency:   59.9316441951

- q-position: [    0.0707071,    0.0000000,    0.0000000 ]
  distance:    0.0244139
  band:
  - # 1
    frequency:   -0.6395523993
  - # 2
    frequency:   -0.2197568535
  - # 3
    frequency:    0.6115273019
  - # 4
    frequency:    1.3439333738
  - # 5
    frequency:    1.6656238965
  - # 6
    frequency:    3.8106962971
  - # 7
    frequency:    4.0194855676
  - # 8
    frequency:    6.2236241798
  - # 9
    frequency:    7.7540431153
  - # 10
    frequency:    7.8881322355
  - # 11
    frequency:    9.0258181144
  - # 12
    frequency:   10.0405484944
  - # 13
    frequency:   10.2031665968
  - # 14
    frequency:   14.5453320799
  - # 15
    frequency:   14.8677005210
  - # 16
    frequency:   14.9239087689
  - # 17
    frequency:   18.3731159638
  - # 18
    frequency:   59.9273481586

- q-position: [    0.0757576,    0.0000000,    0.0000000 ]
  distance:    0.0261577
  band:
  - # 1
    frequency:   -0.6626650674
  - # 2
    frequency:   -0.2218265539
  - # 3
    frequency:    0.6664347603
  - # 4
    frequency:    1.4129456715
  - # 5
    frequency:    1.7632119307
  - # 6
    frequency:    3.8115375694
  - # 7
    frequency:    4.0476651842
  - # 8
    frequency:    6.2202829384
  - # 9
    frequency:    7.7693726532
  - # 10
    frequency:    7.9214404519
  - # 11
    frequency:    9.0181452819
  - # 12
    frequency:   10.0020722985
  - # 13
    frequency:   10.1906506296
  - # 14
    frequency:   14.5182950533
  - # 15
    frequency:   14.8535322089
  - # 16
    frequency:   14.9141246112
  - # 17
    frequency:   18.3446686857
  - # 18
    frequency:   59.9227775711

- q-position: [    0.0808081,    0.0000000,    0.0000000 ]
  distance:    0.0279015
  band:
  - # 1
    frequency:   -0.6856604246
  - # 2
    frequency:   -0.2229402506
  - # 3
    frequency:    0.7204875169
  - # 4
    frequency:    1.4819581851
  - # 5
    frequency:    1.8602764842
  - # 6
    frequency:    3.8127720062
  - # 7
    frequency:    4.0772207852
  - # 8
    frequency:    6.2164708147
  - # 9
    frequency:    7.7853167897
  - # 10
    frequency:    7.9560804589
  - # 11
    frequency:    9.0102532106
  - # 12
    frequency:    9.9608466455
  - # 13
    frequency:   10.1775823711
  - # 14
    frequency:   14.4902908095
  - # 15
    frequency:   14.8386205346
  - # 16
    frequency:   14.9033201747
  - # 17
    frequency:   18.3151290152
  - # 18
    frequency:   59.9179413933

- q-position: [    0.0858586,    0.0000000,    0.0000000 ]
  distance:    0.0296454
  band:
  - # 1
    frequency:   -0.7086866853
  - # 2
    frequency:   -0.2233482008
  - # 3
    frequency:    0.7737899291
  - # 4
    frequency:    1.5508793122
  - # 5
    frequency:    1.9565916433
  - # 6
    frequency:    3.8144536233
  - # 7
    frequency:    4.1080654837
  - # 8
    frequency:    6.2121243219
  - # 9
    frequency:    7.8017983452
  - # 10
    frequency:    7.9918690970
  - # 11
    frequency:    9.0021935712
  - # 12
    frequency:    9.9169089772
  - # 13
    frequency:   10.1640205868
  - # 14
    frequency:   14.4614041266
  - # 15
    frequency:   14.8230109615
  - # 16
    frequency:   14.8915268872
  - # 17
    frequency:   18.2846463810
  - # 18
    frequency:   59.9128490681

- q-position: [    0.0909091,    0.0000000,    0.0000000 ]
  distance:    0.0313892
  band:
  - # 1
    frequency:   -0.7318627907
  - # 2
    frequency:   -0.2234532514
  - # 3
    frequency:    0.8264552691
  - # 4
    frequency:    1.6196200965
  - # 5
    frequency:    2.0519302031
  - # 6
    frequency:    3.8166360681
  - # 7
    frequency:    4.1401131134
  - # 8
    frequency:    6.2071720090
  - # 9
    frequency:    7.8187383677
  - # 10
    frequency:    8.0286118332
  - # 11
    frequency:    8.9940184806
  - # 12
    frequency:    9.8703200451
  - # 13
    frequency:   10.1500266903
  - # 14
    frequency:   14.4317172960
  - # 15
    frequency:   14.8067514226
  - # 16
    frequency:   14.8787870147
  - # 17
    frequency:   18.2533721698
  - # 18
    frequency:   59.9075104952

- q-position: [    0.0959596,    0.0000000,    0.0000000 ]
  distance:    0.0331331
  band:
  - # 1
    frequency:   -0.7552836005
  - # 2
    frequency:   -0.2238299568
  - # 3
    frequency:    0.8786041056
  - # 4
    frequency:    1.6880944626
  - # 5
    frequency:    2.1460600952
  - # 6
    frequency:    3.8193720409
  - # 7
    frequency:    4.1732786745
  - # 8
    frequency:    6.2015341595
  - # 9
    frequency:    7.8360565730
  - # 10
    frequency:    8.0661016857
  - # 11
    frequency:    8.9857798515
  - # 12
    frequency:    9.8211692624
  - # 13
    frequency:   10.1356645099
  - # 14
    frequency:   14.4013103176
  - # 15
    frequency:   14.7898922138
  - # 16
    frequency:   14.8651532302
  - # 17
    frequency:   18.2214584329
  - # 18
    frequency:   59.9019360033

- q-position: [    0.1010101,    0.0000000,    0.0000000 ]
  distance:    0.0348769
  band:
  - # 1
    frequency:   -0.7790239585
  - # 2
    frequency:   -0.2252332397
  - # 3
    frequency:    0.9303626909
  - # 4
    frequency:    1.7562193730
  - # 5
    frequency:    2.2387411569
  - # 6
    frequency:    3.8227127229
  - # 7
    frequency:    4.2074786588
  - # 8
    frequency:    6.1951226310
  - # 9
    frequency:    7.8536717785
  - # 10
    frequency:    8.1041177111
  - # 11
    frequency:    8.9775283674
  - # 12
    frequency:    9.7695810991
  - # 13
    frequency:   10.1210000357
  - # 14
    frequency:   14.3702608730
  - # 15
    frequency:   14.7724858759
  - # 16
    frequency:   14.8506882990
  - # 17
    frequency:   18.1890565840
  - # 18
    frequency:   59.8961363213

- q-position: [    0.1060606,    0.0000000,    0.0000000 ]
  distance:    0.0366208
  band:
  - # 1
    frequency:   -0.8031419058
  - # 2
    frequency:   -0.2285802405
  - # 3
    frequency:    0.9818609029
  - # 4
    frequency:    1.8239149217
  - # 5
    frequency:    2.3297221484
  - # 6
    frequency:    3.8267072174
  - # 7
    frequency:    4.2426312298
  - # 8
    frequency:    6.1878409082
  - # 9
    frequency:    7.8715023296
  - # 10
    frequency:    8.1424229650
  - # 11
    frequency:    8.9693117374
  - # 12
    frequency:    9.7157229075
  - # 13
    frequency:   10.1061011468
  - # 14
    frequency:   14.3386441125
  - # 15
    frequency:   14.7545870633
  - # 16
    frequency:   14.8354648451
  - # 17
    frequency:   18.1563161050
  - # 18
    frequency:   59.8901225487

- q-position: [    0.1111111,    0.0000000,    0.0000000 ]
  distance:    0.0383646
  band:
  - # 1
    frequency:   -0.8276812413
  - # 2
    frequency:   -0.2348881976
  - # 3
    frequency:    1.0332295191
  - # 4
    frequency:    1.8911043790
  - # 5
    frequency:    2.4187379615
  - # 6
    frequency:    3.8314020119
  - # 7
    frequency:    4.2786562279
  - # 8
    frequency:    6.1795844677
  - # 9
    frequency:    7.8894665178
  - # 10
    frequency:    8.1807618540
  - # 11
    frequency:    8.9611716087
  - # 12
    frequency:    9.6598148161
  - # 13
    frequency:   10.0910373178
  - # 14
    frequency:   14.3065322923
  - # 15
    frequency:   14.7362524006
  - # 16
    frequency:   14.8195651594
  - # 17
    frequency:   18.1233832791
  - # 18
    frequency:   59.8839061242

- q-position: [    0.1161616,    0.0000000,    0.0000000 ]
  distance:    0.0401085
  band:
  - # 1
    frequency:   -0.8526735810
  - # 2
    frequency:   -0.2451635483
  - # 3
    frequency:    1.0845967449
  - # 4
    frequency:    1.9577142042
  - # 5
    frequency:    2.5055069938
  - # 6
    frequency:    3.8368404693
  - # 7
    frequency:    4.3154749628
  - # 8
    frequency:    6.1702415927
  - # 9
    frequency:    7.9074829895
  - # 10
    frequency:    8.2188568204
  - # 11
    frequency:    8.9531380235
  - # 12
    frequency:    9.6021427607
  - # 13
    frequency:   10.0758793043
  - # 14
    frequency:   14.2739943022
  - # 15
    frequency:   14.7175403249
  - # 16
    frequency:   14.8030810176
  - # 17
    frequency:   18.0903999705
  - # 18
    frequency:   59.8774987941

- q-position: [    0.1212121,    0.0000000,    0.0000000 ]
  distance:    0.0418523
  band:
  - # 1
    frequency:   -0.8781400271
  - # 2
    frequency:   -0.2602654977
  - # 3
    frequency:    1.1360840270
  - # 4
    frequency:    2.0236740351
  - # 5
    frequency:    2.5897286937
  - # 6
    frequency:    3.8430623553
  - # 7
    frequency:    4.3530097418
  - # 8
    frequency:    6.1596948147
  - # 9
    frequency:    7.9254711462
  - # 10
    frequency:    8.2564043715
  - # 11
    frequency:    8.9452194369
  - # 12
    frequency:    9.5430764845
  - # 13
    frequency:   10.0606988085
  - # 14
    frequency:   14.2410951236
  - # 15
    frequency:   14.6985109145
  - # 16
    frequency:   14.7861134690
  - # 17
    frequency:   18.0575024693
  - # 18
    frequency:   59.8709125786

- q-position: [    0.1262626,    0.0000000,    0.0000000 ]
  distance:    0.0435962
  band:
  - # 1
    frequency:   -0.9040925357
  - # 2
    frequency:   -0.2807938639
  - # 3
    frequency:    1.1878012613
  - # 4
    frequency:    2.0889166655
  - # 5
    frequency:    2.6710813177
  - # 6
    frequency:    3.8501034106
  - # 7
    frequency:    4.3911830750
  - # 8
    frequency:    6.1478232121
  - # 9
    frequency:    7.9433515340
  - # 10
    frequency:    8.2930706171
  - # 11
    frequency:    8.9373847893
  - # 12
    frequency:    9.4830956596
  - # 13
    frequency:   10.0455681244
  - # 14
    frequency:   14.2078952629
  - # 15
    frequency:   14.6792257025
  - # 16
    frequency:   14.7687725637
  - # 17
    frequency:   18.0248204203
  - # 18
    frequency:   59.8641597389

- q-position: [    0.1313131,    0.0000000,    0.0000000 ]
  distance:    0.0453400
  band:
  - # 1
    frequency:   -0.9305350478
  - # 2
    frequency:   -0.3070469968
  - # 3
    frequency:    1.2398415533
  - # 4
    frequency:    2.1533780137
  - # 5
    frequency:    2.7492199812
  - # 6
    frequency:    3.8579949761
  - # 7
    frequency:    4.4299164860
  - # 8
    frequency:    6.1345058468
  - # 9
    frequency:    7.9610462244
  - # 10
    frequency:    8.3284867526
  - # 11
    frequency:    8.9295315909
  - # 12
    frequency:    9.4228294903
  - # 13
    frequency:   10.0305597647
  - # 14
    frequency:   14.1744502062
  - # 15
    frequency:   14.6597474766
  - # 16
    frequency:   14.7511769815
  - # 17
    frequency:   17.9924758514
  - # 18
    frequency:   59.8572527420

- q-position: [    0.1363636,    0.0000000,    0.0000000 ]
  distance:    0.0470839
  band:
  - # 1
    frequency:   -0.9574644375
  - # 2
    frequency:   -0.3390571015
  - # 3
    frequency:    1.2922756962
  - # 4
    frequency:    2.2169970867
  - # 5
    frequency:    2.8237751409
  - # 6
    frequency:    3.8667636775
  - # 7
    frequency:    4.4691288557
  - # 8
    frequency:    6.1196266703
  - # 9
    frequency:    7.9784791829
  - # 10
    frequency:    8.3622453621
  - # 11
    frequency:    8.9214302459
  - # 12
    frequency:    9.3631183927
  - # 13
    frequency:   10.0157460719
  - # 14
    frequency:   14.1408099408
  - # 15
    frequency:   14.6401400627
  - # 16
    frequency:   14.7334535278
  - # 17
    frequency:   17.9605823175
  - # 18
    frequency:   59.8502042260

- q-position: [    0.1414141,    0.0000000,    0.0000000 ]
  distance:    0.0488277
  band:
  - # 1
    frequency:   -0.9848713172
  - # 2
    frequency:   -0.3766714105
  - # 3
    frequency:    1.3451464829
  - # 4
    frequency:    2.2797159386
  - # 5
    frequency:    2.8943517227
  - # 6
    frequency:    3.8764311773
  - # 7
    frequency:    4.5087342260
  - # 8
    frequency:    6.1030812604
  - # 9
    frequency:    7.9955766262
  - # 10
    frequency:    8.3938989847
  - # 11
    frequency:    8.9126314646
  - # 12
    frequency:    9.3051090970
  - # 13
    frequency:   10.0011988145
  - # 14
    frequency:   14.1070185906
  - # 15
    frequency:   14.6204680944
  - # 16
    frequency:   14.7157364638
  - # 17
    frequency:   17.9292441706
  - # 18
    frequency:   59.8430269644

- q-position: [    0.1464646,    0.0000000,    0.0000000 ]
  distance:    0.0505716
  band:
  - # 1
    frequency:   -1.0127407310
  - # 2
    frequency:   -0.4196387763
  - # 3
    frequency:    1.3984628693
  - # 4
    frequency:    2.3414796243
  - # 5
    frequency:    2.9605292161
  - # 6
    frequency:    3.8870139993
  - # 7
    frequency:    4.5486390056
  - # 8
    frequency:    6.0847857485
  - # 9
    frequency:    8.0122673657
  - # 10
    frequency:    8.4229628624
  - # 11
    frequency:    8.9023297008
  - # 12
    frequency:    9.2503879102
  - # 13
    frequency:    9.9869887747
  - # 14
    frequency:   14.0731142043
  - # 15
    frequency:   14.6007967678
  - # 16
    frequency:   14.6981666407
  - # 17
    frequency:   17.8985559653
  - # 18
    frequency:   59.8357338302

- q-position: [    0.1515152,    0.0000000,    0.0000000 ]
  distance:    0.0523154
  band:
  - # 1
    frequency:   -1.0410527611
  - # 2
    frequency:   -0.4676772706
  - # 3
    frequency:    1.4521938547
  - # 4
    frequency:    2.4022361473
  - # 5
    frequency:    3.0218632087
  - # 6
    frequency:    3.8985234299
  - # 7
    frequency:    4.5887385490
  - # 8
    frequency:    6.0646882260
  - # 9
    frequency:    8.0284831336
  - # 10
    frequency:    8.4489235654
  - # 11
    frequency:    8.8892233724
  - # 12
    frequency:    9.2011092661
  - # 13
    frequency:    9.9731853306
  - # 14
    frequency:   14.0391287339
  - # 15
    frequency:   14.5811915809
  - # 16
    frequency:   14.6808904163
  - # 17
    frequency:   17.8686020070
  - # 18
    frequency:   59.8283377600

- q-position: [    0.1565657,    0.0000000,    0.0000000 ]
  distance:    0.0540592
  band:
  - # 1
    frequency:   -1.0697830659
  - # 2
    frequency:   -0.5205174495
  - # 3
    frequency:    1.5062617428
  - # 4
    frequency:    2.4619363988
  - # 5
    frequency:    3.0778890619
  - # 6
    frequency:    3.9109654998
  - # 7
    frequency:    4.6289131314
  - # 8
    frequency:    6.0427827462
  - # 9
    frequency:    8.0441588899
  - # 10
    frequency:    8.4712531619
  - # 11
    frequency:    8.8715637435
  - # 12
    frequency:    9.1599276199
  - # 13
    frequency:    9.9598560391
  - # 14
    frequency:   14.0050882258
  - # 15
    frequency:   14.5617180605
  - # 16
    frequency:   14.6640583384
  - # 17
    frequency:   17.8394560428
  - # 18
    frequency:   59.8208517174

- q-position: [    0.1616162,    0.0000000,    0.0000000 ]
  distance:    0.0558031
  band:
  - # 1
    frequency:   -1.0989033649
  - # 2
    frequency:   -0.5779262250
  - # 3
    frequency:    1.5605342151
  - # 4
    frequency:    2.5205340896
  - # 5
    frequency:    3.1281287525
  - # 6
    frequency:    3.9243410454
  - # 7
    frequency:    4.6690234147
  - # 8
    frequency:    6.0191257233
  - # 9
    frequency:    8.0592331051
  - # 10
    frequency:    8.4894236930
  - # 11
    frequency:    8.8477694248
  - # 12
    frequency:    9.1293606894
  - # 13
    frequency:    9.9470662272
  - # 14
    frequency:   13.9710132376
  - # 15
    frequency:   14.5424414751
  - # 16
    frequency:   14.6478235952
  - # 17
    frequency:   17.8111810968
  - # 18
    frequency:   59.8132886576

- q-position: [    0.1666667,    0.0000000,    0.0000000 ]
  distance:    0.0575469
  band:
  - # 1
    frequency:   -1.1283818800
  - # 2
    frequency:   -0.6397184727
  - # 3
    frequency:    1.6148143655
  - # 4
    frequency:    2.5779856716
  - # 5
    frequency:    3.1721023634
  - # 6
    frequency:    3.9386458493
  - # 7
    frequency:    4.7089056008
  - # 8
    frequency:    5.9938540283
  - # 9
    frequency:    8.0736480144
  - # 10
    frequency:    8.5029095904
  - # 11
    frequency:    8.8176098223
  - # 12
    frequency:    9.1105929723
  - # 13
    frequency:    9.9348785984
  - # 14
    frequency:   13.9369194754
  - # 15
    frequency:   14.5234265360
  - # 16
    frequency:   14.6323402455
  - # 17
    frequency:   17.7838294447
  - # 18
    frequency:   59.8056614908

- q-position: [    0.1717172,    0.0000000,    0.0000000 ]
  distance:    0.0592908
  band:
  - # 1
    frequency:   -1.1581837423
  - # 2
    frequency:   -0.7057620155
  - # 3
    frequency:    1.6688275241
  - # 4
    frequency:    2.6342502525
  - # 5
    frequency:    3.2093463224
  - # 6
    frequency:    3.9538708547
  - # 7
    frequency:    4.7483666030
  - # 8
    frequency:    5.9672033927
  - # 9
    frequency:    8.0873498369
  - # 10
    frequency:    8.5111624322
  - # 11
    frequency:    8.7828569711
  - # 12
    frequency:    9.1028358983
  - # 13
    frequency:    9.9233528627
  - # 14
    frequency:   13.9028186302
  - # 15
    frequency:   14.5047370885
  - # 16
    frequency:   14.6177612609
  - # 17
    frequency:   17.7574427204
  - # 18
    frequency:   59.7979830473

- q-position: [    0.1767677,    0.0000000,    0.0000000 ]
  distance:    0.0610346
  band:
  - # 1
    frequency:   -1.1882713704
  - # 2
    frequency:   -0.7759794757
  - # 3
    frequency:    1.7222033121
  - # 4
    frequency:    2.6892895045
  - # 5
    frequency:    3.2394412453
  - # 6
    frequency:    3.9700024475
  - # 7
    frequency:    4.7871797358
  - # 8
    frequency:    5.9395248669
  - # 9
    frequency:    8.1002889565
  - # 10
    frequency:    8.5135603425
  - # 11
    frequency:    8.7466058735
  - # 12
    frequency:    9.1040427375
  - # 13
    frequency:    9.9125453997
  - # 14