nqpoint: 300    
npath: 3      
segment_nqpoint:
- 100
- 100
- 100
labels:
- [ 'G', 'M' ]
- [ 'M', 'K' ]
- [ 'K', 'G' ]
reciprocal_lattice:
- [   0.30386667,   0.17543750,   0.00000000 ] # a*
- [   0.00000000,   0.35087500,   0.00000000 ] # b*
- [   0.00000000,   0.00000000,   0.04170219 ] # c*
natom: 6      
lattice:
- [     3.290917061276675,     0.000000000000000,     0.000000000000000 ] # a
- [    -1.645458530638337,     2.850017776824805,     0.000000000000000 ] # b
- [     0.000000000000000,     0.000000000000000,    23.979555441151646 ] # c
points:
- symbol: N # 1
  coordinates: [  0.000000000000000,  0.000000000000000,  0.471052652433723 ]
  mass: 14.006700
- symbol: N # 2
  coordinates: [  0.333332985432215,  0.666666983183674,  0.571259189124508 ]
  mass: 14.006700
- symbol: O # 3
  coordinates: [  0.333332985432215,  0.666666983183674,  0.624680281413601 ]
  mass: 15.999400
- symbol: O # 4
  coordinates: [  0.666666984744047,  0.333332985985145,  0.375319718586400 ]
  mass: 15.999400
- symbol: Sc # 5
  coordinates: [  0.333332985432215,  0.666666983183674,  0.404550107100341 ]
  mass: 44.955912
- symbol: Sc # 6
  coordinates: [  0.666666984744047,  0.333332985985145,  0.513903758697803 ]
  mass: 44.955912

phonon:
- q-position: [    0.0000000,    0.0000000,    0.0000000 ]
  distance:    0.0000000
  band:
  - # 1
    frequency:   -0.0000041887
  - # 2
    frequency:   -0.0000008925
  - # 3
    frequency:    0.0000041140
  - # 4
    frequency:    3.1677011840
  - # 5
    frequency:    3.1677011840
  - # 6
    frequency:    5.1396071507
  - # 7
    frequency:    5.1396071507
  - # 8
    frequency:    6.2182809068
  - # 9
    frequency:    8.8094612103
  - # 10
    frequency:    8.8369551174
  - # 11
    frequency:    8.8369551174
  - # 12
    frequency:   11.8420440830
  - # 13
    frequency:   11.8420440830
  - # 14
    frequency:   14.2878493569
  - # 15
    frequency:   14.2878493569
  - # 16
    frequency:   14.9756271774
  - # 17
    frequency:   17.0209395080
  - # 18
    frequency:   45.8887266451

- q-position: [    0.0050505,    0.0000000,    0.0000000 ]
  distance:    0.0017721
  band:
  - # 1
    frequency:   -0.0156673202
  - # 2
    frequency:    0.0663613876
  - # 3
    frequency:    0.1267838418
  - # 4
    frequency:    3.1684195980
  - # 5
    frequency:    3.1704837869
  - # 6
    frequency:    5.1395233602
  - # 7
    frequency:    5.1398099386
  - # 8
    frequency:    6.2186393486
  - # 9
    frequency:    8.7900264218
  - # 10
    frequency:    8.8373381096
  - # 11
    frequency:    8.8554980621
  - # 12
    frequency:   11.8422482066
  - # 13
    frequency:   11.8465776695
  - # 14
    frequency:   14.2851181792
  - # 15
    frequency:   14.2877739978
  - # 16
    frequency:   14.9762300886
  - # 17
    frequency:   17.0218085813
  - # 18
    frequency:   45.8877595391

- q-position: [    0.0101010,    0.0000000,    0.0000000 ]
  distance:    0.0035442
  band:
  - # 1
    frequency:    0.0252384263
  - # 2
    frequency:    0.1327319355
  - # 3
    frequency:    0.2503965576
  - # 4
    frequency:    3.1705701561
  - # 5
    frequency:    3.1787973942
  - # 6
    frequency:    5.1392763887
  - # 7
    frequency:    5.1404196641
  - # 8
    frequency:    6.2197150917
  - # 9
    frequency:    8.7604527524
  - # 10
    frequency:    8.8384802188
  - # 11
    frequency:    8.8823888726
  - # 12
    frequency:   11.8428586759
  - # 13
    frequency:   11.8601323950
  - # 14
    frequency:   14.2769626550
  - # 15
    frequency:   14.2875471304
  - # 16
    frequency:   14.9780007434
  - # 17
    frequency:   17.0244284913
  - # 18
    frequency:   45.8848597728

- q-position: [    0.0151515,    0.0000000,    0.0000000 ]
  distance:    0.0053163
  band:
  - # 1
    frequency:    0.0474807369
  - # 2
    frequency:    0.1991200679
  - # 3
    frequency:    0.3745997785
  - # 4
    frequency:    3.1741388633
  - # 5
    frequency:    3.1925404993
  - # 6
    frequency:    5.1388795618
  - # 7
    frequency:    5.1414404000
  - # 8
    frequency:    6.2215093552
  - # 9
    frequency:    8.7290698579
  - # 10
    frequency:    8.8403609100
  - # 11
    frequency:    8.9092760523
  - # 12
    frequency:   11.8438698108
  - # 13
    frequency:   11.8825707290
  - # 14
    frequency:   14.2634923644
  - # 15
    frequency:   14.2871663915
  - # 16
    frequency:   14.9808296840
  - # 17
    frequency:   17.0288370083
  - # 18
    frequency:   45.8800319964

- q-position: [    0.0202020,    0.0000000,    0.0000000 ]
  distance:    0.0070884
  band:
  - # 1
    frequency:    0.0691469721
  - # 2
    frequency:    0.2655327497
  - # 3
    frequency:    0.4988672643
  - # 4
    frequency:    3.1791025801
  - # 5
    frequency:    3.2115474733
  - # 6
    frequency:    5.1383555004
  - # 7
    frequency:    5.1428788920
  - # 8
    frequency:    6.2240240673
  - # 9
    frequency:    8.6965570008
  - # 10
    frequency:    8.8429461799
  - # 11
    frequency:    8.9354443826
  - # 12
    frequency:   11.8452722246
  - # 13
    frequency:   11.9136653474
  - # 14
    frequency:   14.2448765072
  - # 15
    frequency:   14.2866278623
  - # 16
    frequency:   14.9845490332
  - # 17
    frequency:   17.0350960829
  - # 18
    frequency:   45.8732839441

- q-position: [    0.0252525,    0.0000000,    0.0000000 ]
  distance:    0.0088605
  band:
  - # 1
    frequency:    0.0919855912
  - # 2
    frequency:    0.3319747892
  - # 3
    frequency:    0.6230496680
  - # 4
    frequency:    3.1854292955
  - # 5
    frequency:    3.2355935278
  - # 6
    frequency:    5.1377367242
  - # 7
    frequency:    5.1447444978
  - # 8
    frequency:    6.2272617305
  - # 9
    frequency:    8.6630400420
  - # 10
    frequency:    8.8461888865
  - # 11
    frequency:    8.9607185259
  - # 12
    frequency:   11.8470529416
  - # 13
    frequency:   11.9531019150
  - # 14
    frequency:   14.2213279393
  - # 15
    frequency:   14.2859260989
  - # 16
    frequency:   14.9889501723
  - # 17
    frequency:   17.0432903466
  - # 18
    frequency:   45.8646264098

- q-position: [    0.0303030,    0.0000000,    0.0000000 ]
  distance:    0.0106326
  band:
  - # 1
    frequency:    0.1165733176
  - # 2
    frequency:    0.3984481777
  - # 3
    frequency:    0.7470616835
  - # 4
    frequency:    3.1930785024
  - # 5
    frequency:    3.2644010029
  - # 6
    frequency:    5.1370664632
  - # 7
    frequency:    5.1470491016
  - # 8
    frequency:    6.2312252748
  - # 9
    frequency:    8.6285272860
  - # 10
    frequency:    8.8500292026
  - # 11
    frequency:    8.9850278847
  - # 12
    frequency:   11.8491955595
  - # 13
    frequency:   12.0004828433
  - # 14
    frequency:   14.1930872524
  - # 15
    frequency:   14.2850541749
  - # 16
    frequency:   14.9938021487
  - # 17
    frequency:   17.0535250144
  - # 18
    frequency:   45.8540732129

- q-position: [    0.0353535,    0.0000000,    0.0000000 ]
  distance:    0.0124047
  band:
  - # 1
    frequency:    0.1431691281
  - # 2
    frequency:    0.4649514760
  - # 3
    frequency:    0.8708319370
  - # 4
    frequency:    3.2020016634
  - # 5
    frequency:    3.2976464451
  - # 6
    frequency:    5.1363996499
  - # 7
    frequency:    5.1498070090
  - # 8
    frequency:    6.2359179319
  - # 9
    frequency:    8.5929783498
  - # 10
    frequency:    8.8543951872
  - # 11
    frequency:    9.0083384762
  - # 12
    frequency:   11.8516804505
  - # 13
    frequency:   12.0553318216
  - # 14
    frequency:   14.1604100963
  - # 15
    frequency:   14.2840037358
  - # 16
    frequency:   14.9988677191
  - # 17
    frequency:   17.0659231951
  - # 18
    frequency:   45.8416411554

- q-position: [    0.0404040,    0.0000000,    0.0000000 ]
  distance:    0.0141768
  band:
  - # 1
    frequency:    0.1718740566
  - # 2
    frequency:    0.5314792547
  - # 3
    frequency:    0.9942894245
  - # 4
    frequency:    3.2121427619
  - # 5
    frequency:    3.3349679344
  - # 6
    frequency:    5.1358040474
  - # 7
    frequency:    5.1530348220
  - # 8
    frequency:    6.2413431665
  - # 9
    frequency:    8.5563220675
  - # 10
    frequency:    8.8592034665
  - # 11
    frequency:    9.0306357563
  - # 12
    frequency:   11.8544849985
  - # 13
    frequency:   12.1170987890
  - # 14
    frequency:   14.1235594776
  - # 15
    frequency:   14.2827650655
  - # 16
    frequency:   15.0039154840
  - # 17
    frequency:   17.0806226232
  - # 18
    frequency:   45.8273499690

- q-position: [    0.0454545,    0.0000000,    0.0000000 ]
  distance:    0.0159489
  band:
  - # 1
    frequency:    0.2026885530
  - # 2
    frequency:    0.5980215936
  - # 3
    frequency:    1.1173584214
  - # 4
    frequency:    3.2234389248
  - # 5
    frequency:    3.3759721813
  - # 6
    frequency:    5.1353614609
  - # 7
    frequency:    5.1567512973
  - # 8
    frequency:    6.2475047000
  - # 9
    frequency:    8.5184632106
  - # 10
    frequency:    8.8643600133
  - # 11
    frequency:    9.0519186101
  - # 12
    frequency:   11.8575838677
  - # 13
    frequency:   12.1851648195
  - # 14
    frequency:   14.0828035015
  - # 15
    frequency:   14.2813271649
  - # 16
    frequency:   15.0087279580
  - # 17
    frequency:   17.0977718340
  - # 18
    frequency:   45.8112222540

- q-position: [    0.0505051,    0.0000000,    0.0000000 ]
  distance:    0.0177210
  band:
  - # 1
    frequency:    0.2355423601
  - # 2
    frequency:    0.6645636427
  - # 3
    frequency:    1.2399560288
  - # 4
    frequency:    3.2358211084
  - # 5
    frequency:    3.4202410252
  - # 6
    frequency:    5.1351689595
  - # 7
    frequency:    5.1609771888
  - # 8
    frequency:    6.2544066526
  - # 9
    frequency:    8.4792862291
  - # 10
    frequency:    8.8697610164
  - # 11
    frequency:    9.0721963376
  - # 12
    frequency:   11.8609492953
  - # 13
    frequency:   12.2588461074
  - # 14
    frequency:   14.0384184095
  - # 15
    frequency:   14.2796778421
  - # 16
    frequency:   15.0131062747
  - # 17
    frequency:   17.1175258216
  - # 18
    frequency:   45.7932834088

- q-position: [    0.0555556,    0.0000000,    0.0000000 ]
  distance:    0.0194931
  band:
  - # 1
    frequency:    0.2703133373
  - # 2
    frequency:    0.7310852434
  - # 3
    frequency:    1.3619907090
  - # 4
    frequency:    3.2492148360
  - # 5
    frequency:    3.4673371109
  - # 6
    frequency:    5.1353400060
  - # 7
    frequency:    5.1657350772
  - # 8
    frequency:    6.2620538259
  - # 9
    frequency:    8.4386582221
  - # 10
    frequency:    8.8752938252
  - # 11
    frequency:    9.0914864940
  - # 12
    frequency:   11.8645514049
  - # 13
    frequency:   12.3373957723
  - # 14
    frequency:   13.9906968870
  - # 15
    frequency:   14.2778038138
  - # 16
    frequency:   15.0168725265
  - # 17
    frequency:   17.1400412353
  - # 18
    frequency:   45.7735615518

- q-position: [    0.0606061,    0.0000000,    0.0000000 ]
  distance:    0.0212652
  band:
  - # 1
    frequency:    0.3068402155
  - # 2
    frequency:    0.7975606089
  - # 3
    frequency:    1.4833612273
  - # 4
    frequency:    3.2635409796
  - # 5
    frequency:    3.5168086775
  - # 6
    frequency:    5.1360053529
  - # 7
    frequency:    5.1710491864
  - # 8
    frequency:    6.2704521349
  - # 9
    frequency:    8.3964318226
  - # 10
    frequency:    8.8808379606
  - # 11
    frequency:    9.1098129907
  - # 12
    frequency:   11.8683585336
  - # 13
    frequency:   12.4200013714
  - # 14
    frequency:   13.9399624892
  - # 15
    frequency:   14.2756908187
  - # 16
    frequency:   15.0198706825
  - # 17
    frequency:   17.1654711935
  - # 18
    frequency:   45.7520874341

- q-position: [    0.0656566,    0.0000000,    0.0000000 ]
  distance:    0.0230372
  band:
  - # 1
    frequency:    0.3449313201
  - # 2
    frequency:    0.8639580563
  - # 3
    frequency:    1.6039557397
  - # 4
    frequency:    3.2787165757
  - # 5
    frequency:    3.5681935609
  - # 6
    frequency:    5.1373135017
  - # 7
    frequency:    5.1769451886
  - # 8
    frequency:    6.2796091925
  - # 9
    frequency:    8.3524482303
  - # 10
    frequency:    8.8862661777
  - # 11
    frequency:    9.1272043233
  - # 12
    frequency:   11.8723375676
  - # 13
    frequency:   12.5057744154
  - # 14
    frequency:   13.8865928511
  - # 15
    frequency:   14.2733237407
  - # 16
    frequency:   15.0219668000
  - # 17
    frequency:   17.1939598169
  - # 18
    frequency:   45.7288943464

- q-position: [    0.0707071,    0.0000000,    0.0000000 ]
  distance:    0.0248093
  band:
  - # 1
    frequency:    0.3843703444
  - # 2
    frequency:    0.9302397832
  - # 3
    frequency:    1.7236508821
  - # 4
    frequency:    3.2946556706
  - # 5
    frequency:    3.6210226776
  - # 6
    frequency:    5.1394304381
  - # 7
    frequency:    5.1834499970
  - # 8
    frequency:    6.2895350372
  - # 9
    frequency:    8.3065404808
  - # 10
    frequency:    8.8914455680
  - # 11
    frequency:    9.1436919385
  - # 12
    frequency:   11.8764542811
  - # 13
    frequency:   12.5937249424
  - # 14
    frequency:   13.8310578473
  - # 15
    frequency:   14.2706867427
  - # 16
    frequency:   15.0230489991
  - # 17
    frequency:   17.2256366066
  - # 18
    frequency:   45.7040180166

- q-position: [    0.0757576,    0.0000000,    0.0000000 ]
  distance:    0.0265814
  band:
  - # 1
    frequency:    0.4249198429
  - # 2
    frequency:    0.9963616796
  - # 3
    frequency:    1.8423107666
  - # 4
    frequency:    3.3112701899
  - # 5
    frequency:    3.6748234205
  - # 6
    frequency:    5.1425382492
  - # 7
    frequency:    5.1905915474
  - # 8
    frequency:    6.3002429896
  - # 9
    frequency:    8.2585370116
  - # 10
    frequency:    8.8962386899
  - # 11
    frequency:    9.1593087814
  - # 12
    frequency:   11.8806736747
  - # 13
    frequency:   12.6827073441
  - # 14
    frequency:   13.7739859675
  - # 15
    frequency:   14.2677634098
  - # 16
    frequency:   15.0230274535
  - # 17
    frequency:   17.2606108165
  - # 18
    frequency:   45.6774965024

- q-position: [    0.0808081,    0.0000000,    0.0000000 ]
  distance:    0.0283535
  band:
  - # 1
    frequency:    0.4663228853
  - # 2
    frequency:    1.0622731629
  - # 3
    frequency:    1.9597858045
  - # 4
    frequency:    3.3284708301
  - # 5
    frequency:    3.7291235557
  - # 6
    frequency:    5.1468320994
  - # 7
    frequency:    5.1983985652
  - # 8
    frequency:    6.3117506134
  - # 9
    frequency:    8.2082655925
  - # 10
    frequency:    8.9005047148
  - # 11
    frequency:    9.1740880630
  - # 12
    frequency:   11.8849603084
  - # 13
    frequency:   12.7713085226
  - # 14
    frequency:   13.7162874563
  - # 15
    frequency:   14.2645369012
  - # 16
    frequency:   15.0218345122
  - # 17
    frequency:   17.2989659860
  - # 18
    frequency:   45.6493700769

- q-position: [    0.0858586,    0.0000000,    0.0000000 ]
  distance:    0.0301256
  band:
  - # 1
    frequency:    0.5083031459
  - # 2
    frequency:    1.1279170227
  - # 3
    frequency:    2.0759112944
  - # 4
    frequency:    3.3461679713
  - # 5
    frequency:    3.7834563463
  - # 6
    frequency:    5.1525149050
  - # 7
    frequency:    5.2069003189
  - # 8
    frequency:    6.3240807508
  - # 9
    frequency:    8.1555577235
  - # 10
    frequency:    8.9041005763
  - # 11
    frequency:    9.1880622658
  - # 12
    frequency:   11.8892786261
  - # 13
    frequency:   12.8576158341
  - # 14
    frequency:   13.6593965016
  - # 15
    frequency:   14.2609901092
  - # 16
    frequency:   15.0194249741
  - # 17
    frequency:   17.3407548119
  - # 18
    frequency:   45.6196811080

- q-position: [    0.0909091,    0.0000000,    0.0000000 ]
  distance:    0.0318977
  band:
  - # 1
    frequency:    0.5505635751
  - # 2
    frequency:    1.1932292613
  - # 3
    frequency:    2.1905057192
  - # 4
    frequency:    3.3642726128
  - # 5
    frequency:    3.8373677131
  - # 6
    frequency:    5.1597889450
  - # 7
    frequency:    5.2161263569
  - # 8
    frequency:    6.3372625900
  - # 9
    frequency:    8.1002536480
  - # 10
    frequency:    8.9068821139
  - # 11
    frequency:    9.2012623919
  - # 12
    frequency:   11.8935932709
  - # 13
    frequency:   12.9387327543
  - # 14
    frequency:   13.6057643384
  - # 15
    frequency:   14.2571058249
  - # 16
    frequency:   15.0157765133
  - # 17
    frequency:   17.3859945461
  - # 18
    frequency:   45.5884739341

- q-position: [    0.0959596,    0.0000000,    0.0000000 ]
  distance:    0.0336698
  band:
  - # 1
    frequency:    0.5927836836
  - # 2
    frequency:    1.2581389150
  - # 3
    frequency:    2.3033687134
  - # 4
    frequency:    3.3826973329
  - # 5
    frequency:    3.8904262174
  - # 6
    frequency:    5.1688436165
  - # 7
    frequency:    5.2261062265
  - # 8
    frequency:    6.3513327080
  - # 9
    frequency:    8.0422081963
  - # 10
    frequency:    8.9087051977
  - # 11
    frequency:    9.2137174433
  - # 12
    frequency:   11.8978693881
  - # 13
    frequency:   13.0098236643
  - # 14
    frequency:   13.5598216938
  - # 15
    frequency:   14.2528669091
  - # 16
    frequency:   15.0108902506
  - # 17
    frequency:   17.4346631007
  - # 18
    frequency:   45.5557947333

- q-position: [    0.1010101,    0.0000000,    0.0000000 ]
  distance:    0.0354419
  band:
  - # 1
    frequency:    0.6346153536
  - # 2
    frequency:    1.3225678395
  - # 3
    frequency:    2.4142786856
  - # 4
    frequency:    3.4013572788
  - # 5
    frequency:    3.9422364396
  - # 6
    frequency:    5.1798386827
  - # 7
    frequency:    5.2368691744
  - # 8
    frequency:    6.3663360086
  - # 9
    frequency:    7.9812977562
  - # 10
    frequency:    8.9094268270
  - # 11
    frequency:    9.2254541160
  - # 12
    frequency:   11.9020729165
  - # 13
    frequency:   13.0627807171
  - # 14
    frequency:   13.5293174370
  - # 15
    frequency:   14.2482564670
  - # 16
    frequency:   15.0047915017
  - # 17
    frequency:   17.4866960307
  - # 18
    frequency:   45.5216913901

- q-position: [    0.1060606,    0.0000000,    0.0000000 ]
  distance:    0.0372140
  band:
  - # 1
    frequency:    0.6756769672
  - # 2
    frequency:    1.3864304433
  - # 3
    frequency:    2.5229901270
  - # 4
    frequency:    3.4201711888
  - # 5
    frequency:    3.9924558434
  - # 6
    frequency:    5.1928827282
  - # 7
    frequency:    5.2484438264
  - # 8
    frequency:    6.3823264299
  - # 9
    frequency:    7.9174287856
  - # 10
    frequency:    8.9089061926
  - # 11
    frequency:    9.2364966829
  - # 12
    frequency:   11.9061708680
  - # 13
    frequency:   13.0870506438
  - # 14
    frequency:   13.5244953866
  - # 15
    frequency:   14.2432580242
  - # 16
    frequency:   14.9975307774
  - # 17
    frequency:   17.5419845450
  - # 18
    frequency:   45.4862133579

- q-position: [    0.1111111,    0.0000000,    0.0000000 ]
  distance:    0.0389861
  band:
  - # 1
    frequency:    0.7155454845
  - # 2
    frequency:    1.4496333530
  - # 3
    frequency:    2.6292307150
  - # 4
    frequency:    3.4390624520
  - # 5
    frequency:    4.0408144179
  - # 6
    frequency:    5.2080071733
  - # 7
    frequency:    5.2608578489
  - # 8
    frequency:    6.3993672308
  - # 9
    frequency:    7.8505484381
  - # 10
    frequency:    8.9070056948
  - # 11
    frequency:    9.2468670422
  - # 12
    frequency:   11.9101315974
  - # 13
    frequency:   13.0775188056
  - # 14
    frequency:   13.5502117682
  - # 15
    frequency:   14.2378557042
  - # 16
    frequency:   14.9891851634
  - # 17
    frequency:   17.6003746589
  - # 18
    frequency:   45.4494115189

- q-position: [    0.1161616,    0.0000000,    0.0000000 ]
  distance:    0.0407582
  band:
  - # 1
    frequency:    0.7537458982
  - # 2
    frequency:    1.5120749931
  - # 3
    frequency:    2.7326984518
  - # 4
    frequency:    3.4579602104
  - # 5
    frequency:    4.0871353249
  - # 6
    frequency:    5.2251370368
  - # 7
    frequency:    5.2741375904
  - # 8
    frequency:    6.4175305512
  - # 9
    frequency:    7.7806580958
  - # 10
    frequency:    8.9035919110
  - # 11
    frequency:    9.2565849017
  - # 12
    frequency:   11.9139250626
  - # 13
    frequency:   13.0406344656
  - # 14
    frequency:   13.5998091298
  - # 15
    frequency:   14.2320344044
  - # 16
    frequency:   14.9798602698
  - # 17
    frequency:   17.6616675633
  - # 18
    frequency:   45.4113380421

- q-position: [    0.1212121,    0.0000000,    0.0000000 ]
  distance:    0.0425303
  band:
  - # 1
    frequency:    0.7897371887
  - # 2
    frequency:    1.5736450654
  - # 3
    frequency:    2.8330592848
  - # 4
    frequency:    3.4768005050
  - # 5
    frequency:    4.1313536490
  - # 6
    frequency:    5.2440604558
  - # 7
    frequency:    5.2883077080
  - # 8
    frequency:    6.4368957480
  - # 9
    frequency:    7.7078309039
  - # 10
    frequency:    8.8985365056
  - # 11
    frequency:    9.2656680714
  - # 12
    frequency:   11.9175230780
  - # 13
    frequency:   12.9868069804
  - # 14
    frequency:   13.6627168024
  - # 15
    frequency:   14.2257799688
  - # 16
    frequency:   14.9696929920
  - # 17
    frequency:   17.7256212300
  - # 18
    frequency:   45.3720462397

- q-position: [    0.1262626,    0.0000000,    0.0000000 ]
  distance:    0.0443024
  band:
  - # 1
    frequency:    0.8228934530
  - # 2
    frequency:    1.6342239145
  - # 3
    frequency:    2.9299459682
  - # 4
    frequency:    3.4955274658
  - # 5
    frequency:    4.1735294670
  - # 6
    frequency:    5.2643994550
  - # 7
    frequency:    5.3033907812
  - # 8
    frequency:    6.4575456954
  - # 9
    frequency:    7.6322348406
  - # 10
    frequency:    8.8917170800
  - # 11
    frequency:    9.2741328355
  - # 12
    frequency:   11.9208995627
  - # 13
    frequency:   12.9234363986
  - # 14
    frequency:   13.7314142115
  - # 15
    frequency:   14.2190793563
  - # 16
    frequency:   14.9588553715
  - # 17
    frequency:   17.7919532150
  - # 18
    frequency:   45.3315904223

- q-position: [    0.1313131,    0.0000000,    0.0000000 ]
  distance:    0.0460745
  band:
  - # 1
    frequency:    0.8524781584
  - # 2
    frequency:    1.6936817655
  - # 3
    frequency:    3.0229593399
  - # 4
    frequency:    3.5140945438
  - # 5
    frequency:    4.2138511271
  - # 6
    frequency:    5.2855843408
  - # 7
    frequency:    5.3194069198
  - # 8
    frequency:    6.4795596770
  - # 9
    frequency:    7.5541634646
  - # 10
    frequency:    8.8830179564
  - # 11
    frequency:    9.2819943724
  - # 12
    frequency:   11.9240307853
  - # 13
    frequency:   12.8547252728
  - # 14
    frequency:   13.8016100737
  - # 15
    frequency:   14.2119208030
  - # 16
    frequency:   14.9475598608
  - # 17
    frequency:   17.8603445613
  - # 18
    frequency:   45.2900257553

- q-position: [    0.1363636,    0.0000000,    0.0000000 ]
  distance:    0.0478466
  band:
  - # 1
    frequency:    0.8776082788
  - # 2
    frequency:    1.7518778290
  - # 3
    frequency:    3.1116736871
  - # 4
    frequency:    3.5324657758
  - # 5
    frequency:    4.2526249776
  - # 6
    frequency:    5.3068333955
  - # 7
    frequency:    5.3363733700
  - # 8
    frequency:    6.5030004957
  - # 9
    frequency:    7.4740774005
  - # 10
    frequency:    8.8723308973
  - # 11
    frequency:    9.2892671883
  - # 12
    frequency:   11.9268956057
  - # 13
    frequency:   12.7830512781
  - # 14
    frequency:   13.8708578386
  - # 15
    frequency:   14.2042939761
  - # 16
    frequency:   14.9360662371
  - # 17
    frequency:   17.9304446451
  - # 18
    frequency:   45.2474081144

- q-position: [    0.1414141,    0.0000000,    0.0000000 ]
  distance:    0.0496187
  band:
  - # 1
    frequency:    0.8972029925
  - # 2
    frequency:    1.8086592683
  - # 3
    frequency:    3.1956482972
  - # 4
    frequency:    3.5506170665
  - # 5
    frequency:    4.2902486264
  - # 6
    frequency:    5.3271388256
  - # 7
    frequency:    5.3543041302
  - # 8
    frequency:    6.5278914950
  - # 9
    frequency:    7.3926610723
  - # 10
    frequency:    8.8595557580
  - # 11
    frequency:    9.2959655299
  - # 12
    frequency:   11.9294757162
  - # 13
    frequency:   12.7098666528
  - # 14
    frequency:   13.9376415750
  - # 15
    frequency:   14.1961901183
  - # 16
    frequency:   14.9246901944
  - # 17
    frequency:   18.0018767640
  - # 18
    frequency:   45.2037939441

- q-position: [    0.1464646,    0.0000000,    0.0000000 ]
  distance:    0.0513908
  band:
  - # 1
    frequency:    0.9099078136
  - # 2
    frequency:    1.8638600386
  - # 3
    frequency:    3.2744473513
  - # 4
    frequency:    3.5685374638
  - # 5
    frequency:    4.3271658159
  - # 6
    frequency:    5.3452602453
  - # 7
    frequency:    5.3732095813
  - # 8
    frequency:    6.5541752596
  - # 9
    frequency:    7.3109018406
  - # 10
    frequency:    8.8446010750
  - # 11
    frequency:    9.3021037373
  - # 12
    frequency:   11.9317558791
  - # 13
    frequency:   12.6361495210
  - # 14
    frequency:   14.0009080339
  - # 15
    frequency:   14.1876021819
  - # 16
    frequency:   14.9138130944
  - # 17
    frequency:   18.0742442320
  - # 18
    frequency:   45.1592401168

- q-position: [    0.1515152,    0.0000000,    0.0000000 ]
  distance:    0.0531629
  band:
  - # 1
    frequency:    0.9139775936
  - # 2
    frequency:    1.9172996120
  - # 3
    frequency:    3.3476695272
  - # 4
    frequency:    3.5862303896
  - # 5
    frequency:    4.3638018796
  - # 6
    frequency:    5.3597298762
  - # 7
    frequency:    5.3930961437
  - # 8
    frequency:    6.5816373283
  - # 9
    frequency:    7.2302042665
  - # 10
    frequency:    8.8273845940
  - # 11
    frequency:    9.3076964983
  - # 12
    frequency:   11.9337241611
  - # 13
    frequency:   12.5626236171
  - # 14
    frequency:   14.0598303173
  - # 15
    frequency:   14.1785249500
  - # 16
    frequency:   14.9038912128
  - # 17
    frequency:   18.1471367344
  - # 18
    frequency:   45.1138037963

- q-position: [    0.1565657,    0.0000000,    0.0000000 ]
  distance:    0.0549350
  band:
  - # 1
    frequency:    0.9070861505
  - # 2
    frequency:    1.9687816252
  - # 3
    frequency:    3.4149865427
  - # 4
    frequency:    3.6037147717
  - # 5
    frequency:    4.4004793759
  - # 6
    frequency:    5.3688807775
  - # 7
    frequency:    5.4139659675
  - # 8
    frequency:    6.6097597811
  - # 9
    frequency:    7.1525652472
  - # 10
    frequency:    8.8078337424
  - # 11
    frequency:    9.3127589654
  - # 12
    frequency:   11.9353721615
  - # 13
    frequency:   12.4898684800
  - # 14
    frequency:   14.1136851098
  - # 15
    frequency:   14.1689551455
  - # 16
    frequency:   14.8954607320
  - # 17
    frequency:   18.2201366996
  - # 18
    frequency:   45.0675423034

- q-position: [    0.1616162,    0.0000000,    0.0000000 ]
  distance:    0.0567071
  band:
  - # 1
    frequency:    0.8859938889
  - # 2
    frequency:    2.0180924995
  - # 3
    frequency:    3.4761863203
  - # 4
    frequency:    3.6210260042
  - # 5
    frequency:    4.4373133423
  - # 6
    frequency:    5.3709220661
  - # 7
    frequency:    5.4358166655
  - # 8
    frequency:    6.6374322399
  - # 9
    frequency:    7.0808643663
  - # 10
    frequency:    8.7858860526
  - # 11
    frequency:    9.3173067001
  - # 12
    frequency:   11.9366952299
  - # 13
    frequency:   12.4183771360
  - # 14
    frequency:   14.1588915250
  - # 15
    frequency:   14.1617936156
  - # 16
    frequency:   14.8891315726
  - # 17
    frequency:   18.2928254673
  - # 18
    frequency:   45.0205129870

- q-position: [    0.1666667,    0.0000000,    0.0000000 ]
  distance:    0.0584792
  band:
  - # 1
    frequency:    0.8459089444
  - # 2
    frequency:    2.0650001083
  - # 3
    frequency:    3.5312124290
  - # 4
    frequency:    3.6382166388
  - # 5
    frequency:    4.4740827658
  - # 6
    frequency:    5.3641024664
  - # 7
    frequency:    5.4586410954
  - # 8
    frequency:    6.6624070577
  - # 9
    frequency:    7.0193542970
  - # 10
    frequency:    8.7614895453
  - # 11
    frequency:    9.3213554140
  - # 12
    frequency:   11.9376926694
  - # 13
    frequency:   12.3485875513
  - # 14
    frequency:   14.1483349594
  - # 15
    frequency:   14.2035104074
  - # 16
    frequency:   14.8855597851
  - # 17
    frequency:   18.3647890686
  - # 18
    frequency:   44.9727730998

- q-position: [    0.1717172,    0.0000000,    0.0000000 ]
  distance:    0.0602513
  band:
  - # 1
    frequency:    0.7790773751
  - # 2
    frequency:    2.1092525914
  - # 3
    frequency:    3.5801890520
  - # 4
    frequency:    3.6553566843
  - # 5
    frequency:    4.5100653584
  - # 6
    frequency:    5.3470197075
  - # 7
    frequency:    5.4824271962
  - # 8
    frequency:    6.6805989349
  - # 9
    frequency:    6.9742185958
  - # 10
    frequency:    8.7346030818
  - # 11
    frequency:    9.3249204890
  - # 12
    frequency:   11.9383679191
  - # 13
    frequency:   12.2809003579
  - # 14
    frequency:   14.1372884982
  - # 15
    frequency:   14.2382585362
  - # 16
    frequency:   14.8853878118
  - # 17
    frequency:   18.4356234755
  - # 18
    frequency:   44.9243796791

- q-position: [    0.1767677,    0.0000000,    0.0000000 ]
  distance:    0.0620234
  band:
  - # 1
    frequency:    0.6709181721
  - # 2
    frequency:    2.1505774343
  - # 3
    frequency:    3.6234220990
  - # 4
    frequency:    3.6725333680
  - # 5
    frequency:    4.5438021207
  - # 6
    frequency:    5.3191349917
  - # 7
    frequency:    5.5071578835
  - # 8
    frequency:    6.6868394744
  - # 9
    frequency:    6.9525715587
  - # 10
    frequency:    8.7051966949
  - # 11
    frequency:    9.3280162727
  - # 12
    frequency:   11.9387287090
  - # 13
    frequency:   12.2156890547
  - # 14