nqpoint: 300    
npath: 3      
segment_nqpoint:
- 100
- 100
- 100
labels:
- [ 'G', 'M' ]
- [ 'M', 'K' ]
- [ 'K', 'G' ]
reciprocal_lattice:
- [   0.30386667,   0.17543750,   0.00000000 ] # a*
- [   0.00000000,   0.35087500,   0.00000000 ] # b*
- [   0.00000000,   0.00000000,   0.04170219 ] # c*
natom: 6      
lattice:
- [     3.290917061276675,     0.000000000000000,     0.000000000000000 ] # a
- [    -1.645458530638337,     2.850017776824805,     0.000000000000000 ] # b
- [     0.000000000000000,     0.000000000000000,    23.979555441151646 ] # c
points:
- symbol: N # 1
  coordinates: [  0.000000000000000,  0.000000000000000,  0.471052652433723 ]
  mass: 14.006700
- symbol: N # 2
  coordinates: [  0.333332985432215,  0.666666983183674,  0.571259189124508 ]
  mass: 14.006700
- symbol: O # 3
  coordinates: [  0.333332985432215,  0.666666983183674,  0.624680281413601 ]
  mass: 15.999400
- symbol: O # 4
  coordinates: [  0.666666984744047,  0.333332985985145,  0.375319718586400 ]
  mass: 15.999400
- symbol: Sc # 5
  coordinates: [  0.333332985432215,  0.666666983183674,  0.404550107100341 ]
  mass: 44.955912
- symbol: Sc # 6
  coordinates: [  0.666666984744047,  0.333332985985145,  0.513903758697803 ]
  mass: 44.955912

phonon:
- q-position: [    0.0000000,    0.0000000,    0.0000000 ]
  distance:    0.0000000
  band:
  - # 1
    frequency:   -0.0000277808
  - # 2
    frequency:    0.0000004679
  - # 3
    frequency:    0.0000247967
  - # 4
    frequency:    3.0453647008
  - # 5
    frequency:    3.0453647009
  - # 6
    frequency:    5.0858075505
  - # 7
    frequency:    5.0858075506
  - # 8
    frequency:    6.2343318388
  - # 9
    frequency:    9.0115205530
  - # 10
    frequency:    9.3350748954
  - # 11
    frequency:    9.3350748954
  - # 12
    frequency:   12.4978119086
  - # 13
    frequency:   12.4978119086
  - # 14
    frequency:   14.4458031303
  - # 15
    frequency:   14.4458031303
  - # 16
    frequency:   14.8385778522
  - # 17
    frequency:   16.8495057655
  - # 18
    frequency:   45.8684923025

- q-position: [    0.0050505,    0.0000000,    0.0000000 ]
  distance:    0.0017721
  band:
  - # 1
    frequency:    0.0017458600
  - # 2
    frequency:    0.0520967125
  - # 3
    frequency:    0.1219798164
  - # 4
    frequency:    3.0458628813
  - # 5
    frequency:    3.0482198373
  - # 6
    frequency:    5.0859131011
  - # 7
    frequency:    5.0862602790
  - # 8
    frequency:    6.2345964530
  - # 9
    frequency:    9.0074785173
  - # 10
    frequency:    9.3347873873
  - # 11
    frequency:    9.3364543692
  - # 12
    frequency:   12.4976492672
  - # 13
    frequency:   12.5008819490
  - # 14
    frequency:   14.4401328908
  - # 15
    frequency:   14.4454635007
  - # 16
    frequency:   14.8416744185
  - # 17
    frequency:   16.8512353639
  - # 18
    frequency:   45.8675715929

- q-position: [    0.0101010,    0.0000000,    0.0000000 ]
  distance:    0.0035442
  band:
  - # 1
    frequency:    0.0069678744
  - # 2
    frequency:    0.1041974326
  - # 3
    frequency:    0.2438936844
  - # 4
    frequency:    3.0473573897
  - # 5
    frequency:    3.0567579325
  - # 6
    frequency:    5.0862305875
  - # 7
    frequency:    5.0876168095
  - # 8
    frequency:    6.2353927946
  - # 9
    frequency:    8.9956041156
  - # 10
    frequency:    9.3339226610
  - # 11
    frequency:    9.3403456979
  - # 12
    frequency:   12.4971617330
  - # 13
    frequency:   12.5100646819
  - # 14
    frequency:   14.4236958941
  - # 15
    frequency:   14.4444453531
  - # 16
    frequency:   14.8504042002
  - # 17
    frequency:   16.8564188160
  - # 18
    frequency:   45.8648106926

- q-position: [    0.0151515,    0.0000000,    0.0000000 ]
  distance:    0.0053163
  band:
  - # 1
    frequency:    0.0156112648
  - # 2
    frequency:    0.1563056867
  - # 3
    frequency:    0.3656749044
  - # 4
    frequency:    3.0498480928
  - # 5
    frequency:    3.0708979311
  - # 6
    frequency:    5.0867625983
  - # 7
    frequency:    5.0898722107
  - # 8
    frequency:    6.2367283232
  - # 9
    frequency:    8.9765461562
  - # 10
    frequency:    9.3324741258
  - # 11
    frequency:    9.3461138607
  - # 12
    frequency:   12.4963504746
  - # 13
    frequency:   12.5252780975
  - # 14
    frequency:   14.3979130393
  - # 15
    frequency:   14.4427509080
  - # 16
    frequency:   14.8633878239
  - # 17
    frequency:   16.8650401216
  - # 18
    frequency:   45.8602132854

- q-position: [    0.0202020,    0.0000000,    0.0000000 ]
  distance:    0.0070884
  band:
  - # 1
    frequency:    0.0275883005
  - # 2
    frequency:    0.2084240742
  - # 3
    frequency:    0.4872552680
  - # 4
    frequency:    3.0533346599
  - # 5
    frequency:    3.0905076041
  - # 6
    frequency:    5.0875137282
  - # 7
    frequency:    5.0930183709
  - # 8
    frequency:    6.2386153478
  - # 9
    frequency:    8.9511205000
  - # 10
    frequency:    9.3304308477
  - # 11
    frequency:    9.3529658046
  - # 12
    frequency:   12.4952174386
  - # 13
    frequency:   12.5463859987
  - # 14
    frequency:   14.3644612067
  - # 15
    frequency:   14.4403838546
  - # 16
    frequency:   14.8790180139
  - # 17
    frequency:   16.8770727197
  - # 18
    frequency:   45.8537855031

- q-position: [    0.0252525,    0.0000000,    0.0000000 ]
  distance:    0.0088605
  band:
  - # 1
    frequency:    0.0427803306
  - # 2
    frequency:    0.2605537889
  - # 3
    frequency:    0.6085643148
  - # 4
    frequency:    3.0578164035
  - # 5
    frequency:    3.1154075369
  - # 6
    frequency:    5.0884909917
  - # 7
    frequency:    5.0970441574
  - # 8
    frequency:    6.2410708501
  - # 9
    frequency:    8.9201101115
  - # 10
    frequency:    9.3277776242
  - # 11
    frequency:    9.3601501296
  - # 12
    frequency:   12.4937653464
  - # 13
    frequency:   12.5731986215
  - # 14
    frequency:   14.3248524393
  - # 15
    frequency:   14.4373493338
  - # 16
    frequency:   14.8958810728
  - # 17
    frequency:   16.8924796740
  - # 18
    frequency:   45.8455359150

- q-position: [    0.0303030,    0.0000000,    0.0000000 ]
  distance:    0.0106326
  band:
  - # 1
    frequency:    0.0610413848
  - # 2
    frequency:    0.3126941492
  - # 3
    frequency:    0.7295285958
  - # 4
    frequency:    3.0632920694
  - # 5
    frequency:    3.1453761517
  - # 6
    frequency:    5.0897043890
  - # 7
    frequency:    5.1019356315
  - # 8
    frequency:    6.2441162531
  - # 9
    frequency:    8.8841636261
  - # 10
    frequency:    9.3244950886
  - # 11
    frequency:    9.3670581478
  - # 12
    frequency:   12.4919976915
  - # 13
    frequency:   12.6054732572
  - # 14
    frequency:   14.2802934872
  - # 15
    frequency:   14.4336539143
  - # 16
    frequency:   14.9128984467
  - # 17
    frequency:   16.9112139749
  - # 18
    frequency:   45.8354755114

- q-position: [    0.0353535,    0.0000000,    0.0000000 ]
  distance:    0.0124047
  band:
  - # 1
    frequency:    0.0822020963
  - # 2
    frequency:    0.3648421265
  - # 3
    frequency:    0.8500709458
  - # 4
    frequency:    3.0697595838
  - # 5
    frequency:    3.1801553124
  - # 6
    frequency:    5.0911676102
  - # 7
    frequency:    5.1076763154
  - # 8
    frequency:    6.2477771498
  - # 9
    frequency:    8.8437734727
  - # 10
    frequency:    9.3205598427
  - # 11
    frequency:    9.3732452835
  - # 12
    frequency:   12.4899187351
  - # 13
    frequency:   12.6429145477
  - # 14
    frequency:   14.2317078696
  - # 15
    frequency:   14.4293055622
  - # 16
    frequency:   14.9293064813
  - # 17
    frequency:   16.9332189805
  - # 18
    frequency:   45.8236176842

- q-position: [    0.0404040,    0.0000000,    0.0000000 ]
  distance:    0.0141768
  band:
  - # 1
    frequency:    0.1060735788
  - # 2
    frequency:    0.4169918722
  - # 3
    frequency:    0.9701097664
  - # 4
    frequency:    3.0772157705
  - # 5
    frequency:    3.2194560570
  - # 6
    frequency:    5.0928988585
  - # 7
    frequency:    5.1142475024
  - # 8
    frequency:    6.2520830084
  - # 9
    frequency:    8.7992927863
  - # 10
    frequency:    9.3159446165
  - # 11
    frequency:    9.3784136113
  - # 12
    frequency:   12.4875335015
  - # 13
    frequency:   12.6851739007
  - # 14
    frequency:   14.1798080051
  - # 15
    frequency:   14.4243136041
  - # 16
    frequency:   14.9445873131
  - # 17
    frequency:   16.9584290052
  - # 18
    frequency:   45.8099782015

- q-position: [    0.0454545,    0.0000000,    0.0000000 ]
  distance:    0.0159489
  band:
  - # 1
    frequency:    0.1324509361
  - # 2
    frequency:    0.4691342447
  - # 3
    frequency:    1.0895583178
  - # 4
    frequency:    3.0856560525
  - # 5
    frequency:    3.2629640524
  - # 6
    frequency:    5.0949217674
  - # 7
    frequency:    5.1216286033
  - # 8
    frequency:    6.2570668731
  - # 9
    frequency:    8.7509634293
  - # 10
    frequency:    9.3106184536
  - # 11
    frequency:    9.3823832555
  - # 12
    frequency:   12.4848477736
  - # 13
    frequency:   12.7318470808
  - # 14
    frequency:   14.1251672381
  - # 15
    frequency:   14.4186886844
  - # 16
    frequency:   14.9584019451
  - # 17
    frequency:   16.9867700388
  - # 18
    frequency:   45.7945751790

- q-position: [    0.0505051,    0.0000000,    0.0000000 ]
  distance:    0.0177210
  band:
  - # 1
    frequency:    0.1611161542
  - # 2
    frequency:    0.5212563357
  - # 3
    frequency:    1.2083240162
  - # 4
    frequency:    3.0950741519
  - # 5
    frequency:    3.3103444521
  - # 6
    frequency:    5.0972663780
  - # 7
    frequency:    5.1297975188
  - # 8
    frequency:    6.2627650758
  - # 9
    frequency:    8.6989428544
  - # 10
    frequency:    9.3045469219
  - # 11
    frequency:    9.3850649955
  - # 12
    frequency:   12.4818680875
  - # 13
    frequency:   12.7824683376
  - # 14
    frequency:   14.0682800123
  - # 15
    frequency:   14.4124427163
  - # 16
    frequency:   14.9705388359
  - # 17
    frequency:   17.0181605590
  - # 18
    frequency:   45.7774290453

- q-position: [    0.0555556,    0.0000000,    0.0000000 ]
  distance:    0.0194931
  band:
  - # 1
    frequency:    0.1918402064
  - # 2
    frequency:    0.5733409987
  - # 3
    frequency:    1.3263077343
  - # 4
    frequency:    3.1054618012
  - # 5
    frequency:    3.3612459399
  - # 6
    frequency:    5.0999701295
  - # 7
    frequency:    5.1387310302
  - # 8
    frequency:    6.2692169738
  - # 9
    frequency:    8.6433262530
  - # 10
    frequency:    9.2976923459
  - # 11
    frequency:    9.3864377181
  - # 12
    frequency:   12.4786017272
  - # 13
    frequency:   12.8364981259
  - # 14
    frequency:   14.0096136645
  - # 15
    frequency:   14.4055888275
  - # 16
    frequency:   14.9808774310
  - # 17
    frequency:   17.0525123729
  - # 18
    frequency:   45.7585625045

- q-position: [    0.0606061,    0.0000000,    0.0000000 ]
  distance:    0.0212652
  band:
  - # 1
    frequency:    0.2243842706
  - # 2
    frequency:    0.6253663789
  - # 3
    frequency:    1.4434030979
  - # 4
    frequency:    3.1168084819
  - # 5
    frequency:    3.4153038493
  - # 6
    frequency:    5.1030788002
  - # 7
    frequency:    5.1484051978
  - # 8
    frequency:    6.2764647246
  - # 9
    frequency:    8.5841639896
  - # 10
    frequency:    9.2900140611
  - # 11
    frequency:    9.3865308273
  - # 12
    frequency:   12.4750567204
  - # 13
    frequency:   12.8932988595
  - # 14
    frequency:   13.9496610716
  - # 15
    frequency:   14.3981413011
  - # 16
    frequency:   14.9893629212
  - # 17
    frequency:   17.0897314170
  - # 18
    frequency:   45.7380004922

- q-position: [    0.0656566,    0.0000000,    0.0000000 ]
  distance:    0.0230372
  band:
  - # 1
    frequency:    0.2585000129
  - # 2
    frequency:    0.6773054468
  - # 3
    frequency:    1.5594957751
  - # 4
    frequency:    3.1291012013
  - # 5
    frequency:    3.4721423462
  - # 6
    frequency:    5.1066473089
  - # 7
    frequency:    5.1587957593
  - # 8
    frequency:    6.2845530988
  - # 9
    frequency:    8.5214753504
  - # 10
    frequency:    9.2814686876
  - # 11
    frequency:    9.3854107007
  - # 12
    frequency:   12.4712418335
  - # 13
    frequency:   12.9520877023
  - # 14
    frequency:   13.8890085586
  - # 15
    frequency:   14.3901155112
  - # 16
    frequency:   14.9959887942
  - # 17
    frequency:   17.1297184366
  - # 18
    frequency:   45.7157701286

- q-position: [    0.0707071,    0.0000000,    0.0000000 ]
  distance:    0.0248093
  band:
  - # 1
    frequency:    0.2939289188
  - # 2
    frequency:    0.7291255352
  - # 3
    frequency:    1.6744627498
  - # 4
    frequency:    3.1423243195
  - # 5
    frequency:    3.5313757498
  - # 6
    frequency:    5.1107402483
  - # 7
    frequency:    5.1698785188
  - # 8
    frequency:    6.2935293262
  - # 9
    frequency:    8.4552597216
  - # 10
    frequency:    9.2720104199
  - # 11
    frequency:    9.3831702170
  - # 12
    frequency:   12.4671665684
  - # 13
    frequency:   13.0118435920
  - # 14
    frequency:   13.8284443310
  - # 15
    frequency:   14.3815278552
  - # 16
    frequency:   15.0007846937
  - # 17
    frequency:   17.1723694769
  - # 18
    frequency:   45.6919006659

- q-position: [    0.0757576,    0.0000000,    0.0000000 ]
  distance:    0.0265814
  band:
  - # 1
    frequency:    0.3304006549
  - # 2
    frequency:    0.7807878798
  - # 3
    frequency:    1.7881715769
  - # 4
    frequency:    3.1564594351
  - # 5
    frequency:    3.5926091476
  - # 6
    frequency:    5.1154319712
  - # 7
    frequency:    5.1816297184
  - # 8
    frequency:    6.3034429544
  - # 9
    frequency:    8.3855061306
  - # 10
    frequency:    9.2615913337
  - # 11
    frequency:    9.3799205732
  - # 12
    frequency:   12.4628411592
  - # 13
    frequency:   13.0711197589
  - # 14
    frequency:   13.7691577955
  - # 15
    frequency:   14.3723956815
  - # 16
    frequency:   15.0038079429
  - # 17
    frequency:   17.2175761369
  - # 18
    frequency:   45.6664234319

- q-position: [    0.0808081,    0.0000000,    0.0000000 ]
  distance:    0.0283535
  band:
  - # 1
    frequency:    0.3676304264
  - # 2
    frequency:    0.8322471642
  - # 3
    frequency:    1.9004796143
  - # 4
    frequency:    3.1714853372
  - # 5
    frequency:    3.6554385317
  - # 6
    frequency:    5.1208059695
  - # 7
    frequency:    5.1940263863
  - # 8
    frequency:    6.3143456784
  - # 9
    frequency:    8.3122019036
  - # 10
    frequency:    9.2501617044
  - # 11
    frequency:    9.3757848309
  - # 12
    frequency:   12.4582765706
  - # 13
    frequency:   13.1276596356
  - # 14
    frequency:   13.7131328913
  - # 15
    frequency:   14.3627372149
  - # 16
    frequency:   15.0051376841
  - # 17
    frequency:   17.2652255563
  - # 18
    frequency:   45.6393717685

- q-position: [    0.0858586,    0.0000000,    0.0000000 ]
  distance:    0.0301256
  band:
  - # 1
    frequency:    0.4053152452
  - # 2
    frequency:    0.8834510665
  - # 3
    frequency:    2.0112332362
  - # 4
    frequency:    3.1873780280
  - # 5
    frequency:    3.7194507640
  - # 6
    frequency:    5.1269531868
  - # 7
    frequency:    5.2070466538
  - # 8
    frequency:    6.3262910756
  - # 9
    frequency:    8.2353410709
  - # 10
    frequency:    9.2376703391
  - # 11
    frequency:    9.3708928007
  - # 12
    frequency:   12.4534844970
  - # 13
    frequency:   13.1776432858
  - # 14
    frequency:   13.6639089299
  - # 15
    frequency:   14.3525714798
  - # 16
    frequency:   15.0048709794
  - # 17
    frequency:   17.3152001382
  - # 18
    frequency:   45.6107809659

- q-position: [    0.0909091,    0.0000000,    0.0000000 ]
  distance:    0.0318977
  band:
  - # 1
    frequency:    0.4431289560
  - # 2
    frequency:    0.9343398072
  - # 3
    frequency:    2.1202670366
  - # 4
    frequency:    3.2041108200
  - # 5
    frequency:    3.7842237585
  - # 6
    frequency:    5.1339687666
  - # 7
    frequency:    5.2206700361
  - # 8
    frequency:    6.3393341333
  - # 9
    frequency:    8.1549331215
  - # 10
    frequency:    9.2240649166
  - # 11
    frequency:    9.3653769905
  - # 12
    frequency:   12.4484773617
  - # 13
    frequency:   13.2145802193
  - # 14
    frequency:   13.6276934329
  - # 15
    frequency:   14.3419182208
  - # 16
    frequency:   15.0031204715
  - # 17
    frequency:   17.3673770307
  - # 18
    frequency:   45.5806881931

- q-position: [    0.0959596,    0.0000000,    0.0000000 ]
  distance:    0.0336698
  band:
  - # 1
    frequency:    0.4807157613
  - # 2
    frequency:    0.9848456952
  - # 3
    frequency:    2.2274030448
  - # 4
    frequency:    3.2216545067
  - # 5
    frequency:    3.8493273545
  - # 6
    frequency:    5.1419465738
  - # 7
    frequency:    5.2348776725
  - # 8
    frequency:    6.3535303959
  - # 9
    frequency:    8.0710127605
  - # 10
    frequency:    9.2092923371
  - # 11
    frequency:    9.3593694196
  - # 12
    frequency:   12.4432683188
  - # 13
    frequency:   13.2295756541
  - # 14
    frequency:   13.6131000918
  - # 15
    frequency:   14.3307978239
  - # 16
    frequency:   15.0000133691
  - # 17
    frequency:   17.4216274160
  - # 18
    frequency:   45.5491324229

- q-position: [    0.1010101,    0.0000000,    0.0000000 ]
  distance:    0.0354419
  band:
  - # 1
    frequency:    0.5176818438
  - # 2
    frequency:    1.0348926679
  - # 3
    frequency:    2.3324499943
  - # 4
    frequency:    3.2399776073
  - # 5
    frequency:    3.9143254278
  - # 6
    frequency:    5.1509706349
  - # 7
    frequency:    5.2496525217
  - # 8
    frequency:    6.3689344543
  - # 9
    frequency:    7.9836514769
  - # 10
    frequency:    9.1932990780
  - # 11
    frequency:    9.3529991492
  - # 12
    frequency:   12.4378712536
  - # 13
    frequency:   13.2170824514
  - # 14
    frequency:   13.6253996866
  - # 15
    frequency:   14.3192312361
  - # 16
    frequency:   14.9956916379
  - # 17
    frequency:   17.4778156726
  - # 18
    frequency:   45.5161543539

- q-position: [    0.1060606,    0.0000000,    0.0000000 ]
  distance:    0.0372140
  band:
  - # 1
    frequency:    0.5535844711
  - # 2
    frequency:    1.0843958220
  - # 3
    frequency:    2.4352027078
  - # 4
    frequency:    3.2590466809
  - # 5
    frequency:    3.9787798131
  - # 6
    frequency:    5.1611024609
  - # 7
    frequency:    5.2649795095
  - # 8
    frequency:    6.3855973276
  - # 9
    frequency:    7.8929720081
  - # 10
    frequency:    9.1760315561
  - # 11
    frequency:    9.3463904072
  - # 12
    frequency:   12.4323007845
  - # 13
    frequency:   13.1810072753
  - # 14
    frequency:   13.6604153818
  - # 15
    frequency:   14.3072398868
  - # 16
    frequency:   14.9903133615
  - # 17
    frequency:   17.5357984855
  - # 18
    frequency:   45.4817963279

- q-position: [    0.1111111,    0.0000000,    0.0000000 ]
  distance:    0.0389861
  band:
  - # 1
    frequency:    0.5879176538
  - # 2
    frequency:    1.1332609287
  - # 3
    frequency:    2.5354416968
  - # 4
    frequency:    3.2788267063
  - # 5
    frequency:    4.0422565315
  - # 6
    frequency:    5.1723630883
  - # 7
    frequency:    5.2808456258
  - # 8
    frequency:    6.4035619990
  - # 9
    frequency:    7.7991672480
  - # 10
    frequency:    9.1574364944
  - # 11
    frequency:    9.3396612072
  - # 12
    frequency:   12.4265722644
  - # 13
    frequency:   13.1297970644
  - # 14
    frequency:   13.7094362231
  - # 15
    frequency:   14.2948456097
  - # 16
    frequency:   14.9840553018
  - # 17
    frequency:   17.5954239872
  - # 18
    frequency:   45.4461022442

- q-position: [    0.1161616,    0.0000000,    0.0000000 ]
  distance:    0.0407582
  band:
  - # 1
    frequency:    0.6200929414
  - # 2
    frequency:    1.1813839290
  - # 3
    frequency:    2.6329331125
  - # 4
    frequency:    3.2992815207
  - # 5
    frequency:    4.1043345363
  - # 6
    frequency:    5.1847086911
  - # 7
    frequency:    5.2972399699
  - # 8
    frequency:    6.4228558329
  - # 9
    frequency:    7.7025259109
  - # 10
    frequency:    9.1374612935
  - # 11
    frequency:    9.3329223706
  - # 12
    frequency:   12.4207017813
  - # 13
    frequency:   13.0699678285
  - # 14
    frequency:   13.7656866837
  - # 15
    frequency:   14.2820705679
  - # 16
    frequency:   14.9771167340
  - # 17
    frequency:   17.6565310088
  - # 18
    frequency:   45.4091174692

- q-position: [    0.1212121,    0.0000000,    0.0000000 ]
  distance:    0.0425303
  band:
  - # 1
    frequency:    0.6494131490
  - # 2
    frequency:    1.2286504011
  - # 3
    frequency:    2.7274292318
  - # 4
    frequency:    3.3203743087
  - # 5
    frequency:    4.1646166121
  - # 6
    frequency:    5.1979988950
  - # 7
    frequency:    5.3141537431
  - # 8
    frequency:    6.4434776117
  - # 9
    frequency:    7.6034685404
  - # 10
    frequency:    9.1160544078
  - # 11
    frequency:    9.3262768743
  - # 12
    frequency:   12.4147061565
  - # 13
    frequency:   13.0053035906
  - # 14
    frequency:   13.8251242994
  - # 15
    frequency:   14.2689371813
  - # 16
    frequency:   14.9697246453
  - # 17
    frequency:   17.7189485125
  - # 18
    frequency:   45.3708887444

- q-position: [    0.1262626,    0.0000000,    0.0000000 ]
  distance:    0.0443024
  band:
  - # 1
    frequency:    0.6750354817
  - # 2
    frequency:    1.2749349940
  - # 3
    frequency:    2.8186697091
  - # 4
    frequency:    3.3420681334
  - # 5
    frequency:    4.2227410973
  - # 6
    frequency:    5.2119575961
  - # 7
    frequency:    5.3315801880
  - # 8
    frequency:    6.4653749608
  - # 9
    frequency:    7.5025997183
  - # 10
    frequency:    9.0931657264
  - # 11
    frequency:    9.3198194520
  - # 12
    frequency:   12.4086029418
  - # 13
    frequency:   12.9379214613
  - # 14
    frequency:   13.8853693246
  - # 15
    frequency:   14.2554680579
  - # 16
    frequency:   14.9621403381
  - # 17
    frequency:   17.7824952687
  - # 18
    frequency:   45.3314640896

- q-position: [    0.1313131,    0.0000000,    0.0000000 ]
  distance:    0.0460745
  band:
  - # 1
    frequency:    0.6959181578
  - # 2
    frequency:    1.3201008192
  - # 3
    frequency:    2.9063838551
  - # 4
    frequency:    3.3643264957
  - # 5
    frequency:    4.2783917470
  - # 6
    frequency:    5.2261273270
  - # 7
    frequency:    5.3495144746
  - # 8
    frequency:    6.4884038643
  - # 9
    frequency:    7.4007865504
  - # 10
    frequency:    9.0687469590
  - # 11
    frequency:    9.3136363851
  - # 12
    frequency:   12.4024104117
  - # 13
    frequency:   12.8690743663
  - # 14
    frequency:   13.9448949939
  - # 15
    frequency:   14.2416859298
  - # 16
    frequency:   14.9546673023
  - # 17
    frequency:   17.8469798209
  - # 18
    frequency:   45.2908927055

- q-position: [    0.1363636,    0.0000000,    0.0000000 ]
  distance:    0.0478466
  band:
  - # 1
    frequency:    0.7107402012
  - # 2
    frequency:    1.3639987937
  - # 3
    frequency:    2.9902942046
  - # 4
    frequency:    3.3871139109
  - # 5
    frequency:    4.3313014476
  - # 6
    frequency:    5.2398202793
  - # 7
    frequency:    5.3679535354
  - # 8
    frequency:    6.5122531795
  - # 9
    frequency:    7.2992819535
  - # 10
    frequency:    9.0427520296
  - # 11
    frequency:    9.3078054257
  - # 12
    frequency:   12.3961475521
  - # 13
    frequency:   12.7995707794
  - # 14
    frequency:   14.0025995723
  - # 15
    frequency:   14.2276135934
  - # 16
    frequency:   14.9476598126
  - # 17
    frequency:   17.9122007668
  - # 18
    frequency:   45.2492248721

- q-position: [    0.1414141,    0.0000000,    0.0000000 ]
  distance:    0.0496187
  band:
  - # 1
    frequency:    0.7177751414
  - # 2
    frequency:    1.4064669232
  - # 3
    frequency:    3.0701215646
  - # 4
    frequency:    3.4103964849
  - # 5
    frequency:    4.3812438432
  - # 6
    frequency:    5.2520726294
  - # 7
    frequency:    5.3868958503
  - # 8
    frequency:    6.5362977175
  - # 9
    frequency:    7.1999289438
  - # 10
    frequency:    9.0151374771
  - # 11
    frequency:    9.3023958003
  - # 12
    frequency:   12.3898340426
  - # 13
    frequency:   12.7299825781
  - # 14
    frequency:   14.0575904388
  - # 15
    frequency:   14.2132738562
  - # 16
    frequency:   14.9415308925
  - # 17
    frequency:   17.9779473650
  - # 18
    frequency:   45.2065118466

- q-position: [    0.1464646,    0.0000000,    0.0000000 ]
  distance:    0.0513908
  band:
  - # 1
    frequency:    0.7146797861
  - # 2
    frequency:    1.4473295182
  - # 3
    frequency:    3.1455915560
  - # 4
    frequency:    3.4341424742
  - # 5
    frequency:    4.4280053469
  - # 6
    frequency:    5.2616153603
  - # 7
    frequency:    5.4063411845
  - # 8
    frequency:    6.5593031801
  - # 9
    frequency:    7.1055178192
  - # 10
    frequency:    8.9858628678
  - # 11
    frequency:    9.2974682479
  - # 12
    frequency:   12.3834902323
  - # 13
    frequency:   12.6607503833
  - # 14
    frequency:   14.1090736173
  - # 15
    frequency:   14.1986894882
  - # 16
    frequency:   14.9367568904
  - # 17
    frequency:   18.0440004547
  - # 18
    frequency:   45.1628057591

- q-position: [    0.1515152,    0.0000000,    0.0000000 ]
  distance:    0.0531629
  band:
  - # 1
    frequency:    0.6981113693
  - # 2
    frequency:    1.4863963284
  - # 3
    frequency:    3.2164423250
  - # 4
    frequency:    3.4583228071
  - # 5
    frequency:    4.4713281029
  - # 6
    frequency:    5.2668872532
  - # 7
    frequency:    5.4262902828
  - # 8
    frequency:    6.5788504621
  - # 9
    frequency:    7.0204139288
  - # 10
    frequency:    8.9548912190
  - # 11
    frequency:    9.2930750517
  - # 12
    frequency:   12.3771371068
  - # 13
    frequency:   12.5922393176
  - # 14
    frequency:   14.1563006357
  - # 15
    frequency:   14.1838831803
  - # 16
    frequency:   14.9338738891
  - # 17
    frequency:   18.1101336665
  - # 18
    frequency:   45.1181595082

- q-position: [    0.1565657,    0.0000000,    0.0000000 ]
  distance:    0.0549350
  band:
  - # 1
    frequency:    0.6629510863
  - # 2
    frequency:    1.5234615812
  - # 3
    frequency:    3.2824325765
  - # 4
    frequency:    3.4829115474
  - # 5
    frequency:    4.5108110440
  - # 6
    frequency:    5.2661376079
  - # 7
    frequency:    5.4467445251
  - # 8
    frequency:    6.5904875094
  - # 9
    frequency:    6.9514153879
  - # 10
    frequency:    8.9221894389
  - # 11
    frequency:    9.2892600281
  - # 12
    frequency:   12.3707962469
  - # 13
    frequency:   12.5247698988
  - # 14
    frequency:   14.1688775086
  - # 15
    frequency:   14.1985549431
  - # 16
    frequency:   14.9334590436
  - # 17
    frequency:   18.1761148796
  - # 18
    frequency:   45.0726266549

- q-position: [    0.1616162,    0.0000000,    0.0000000 ]
  distance:    0.0567071
  band:
  - # 1
    frequency:    0.6004414820
  - # 2
    frequency:    1.5583029015
  - # 3
    frequency:    3.3433483578
  - # 4
    frequency:    3.5078862728
  - # 5
    frequency:    4.5457495470
  - # 6
    frequency:    5.2576962596
  - # 7
    frequency:    5.4677055478
  - # 8
    frequency:    6.5880525320
  - # 9
    frequency:    6.9073421159
  - # 10
    frequency:    8.8877287848
  - # 11
    frequency:    9.2860584426
  - # 12
    frequency:   12.3644897757
  - # 13
    frequency:   12.4586358786
  - # 14
    frequency:   14.1536949051
  - # 15
    frequency:   14.2351735211
  - # 16
    frequency:   14.9360894562
  - # 17
    frequency:   18.2417078798
  - # 18
    frequency:   45.0262613179

- q-position: [    0.1666667,    0.0000000,    0.0000000 ]
  distance:    0.0584792
  band:
  - # 1
    frequency:    0.4922576490
  - # 2
    frequency:    1.5906800842
  - # 3
    frequency:    3.3990061386
  - # 4
    frequency:    3.5332283466
  - # 5
    frequency:    4.5748851185
  - # 6
    frequency:    5.2405071190
  - # 7
    frequency:    5.4891748378
  - # 8
    frequency:    6.5690052958
  - # 9
    frequency:    6.8934560533
  - # 10
    frequency:    8.8514853417
  - # 11
    frequency:    9.2834968273
  - # 12
    frequency:   12.3582402947
  - # 13
    frequency:   12.3941148935
  - # 14
    frequency:   14.1383576344
  - # 15
    frequency:   14.2656009698
  - # 16
    frequency:   14.9422754893
  - # 17
    frequency:   18.3066741578
  - # 18
    frequency:   44.9791180680

- q-position: [    0.1717172,    0.0000000,    0.0000000 ]
  distance:    0.0602513
  band:
  - # 1
    frequency:    0.2738983061
  - # 2
    frequency:    1.6203336747
  - # 3
    frequency:    3.4492487607
  - # 4
    frequency:    3.5589230569
  - # 5
    frequency:    4.5960416022
  - # 6
    frequency:    5.2149728931
  - # 7
    frequency:    5.5111533053
  - # 8
    frequency:    6.5401038287
  - # 9
    frequency:    6.9053559424
  - # 10
    frequency:    8.8134405263
  - # 11
    frequency:    9.2815926826
  - # 12
    frequency:   12.3314749641
  - # 13
    frequency:   12.3520708082
  - # 14
    frequency:   14.1228877761
  - # 15
    frequency:   14.2894645615
  - # 16
    frequency:   14.9523770373
  - # 17
    frequency:   18.3707747935
  - # 18
    frequency:   44.9312518250

- q-position: [    0.1767677,    0.0000000,    0.0000000 ]
  distance:    0.0620234
  band:
  - # 1
    frequency:   -0.3914291540
  - # 2
    frequency:    1.6469832963
  - # 3
    frequency:    3.4939298308
  - # 4
    frequency:    3.5849596009
  - # 5
    frequency:    4.6057189381
  - # 6
    frequency:    5.1839426109
  - # 7
    frequency:    5.5336408438
  - # 8
    frequency:    6.5116726589
  - # 9
    frequency:    6.9342023970
  - # 10
    frequency:    8.7735816182
  - # 11
    frequency:    9.2803540559
  - # 12
    frequency:   12.2709784750
  - # 13
    frequency:   12.3460046340
  - # 14