nqpoint: 300    
npath: 3      
segment_nqpoint:
- 100
- 100
- 100
labels:
- [ 'G', 'M' ]
- [ 'M', 'K' ]
- [ 'K', 'G' ]
reciprocal_lattice:
- [   0.30118301,   0.17388809,   0.00000000 ] # a*
- [   0.00000000,   0.34777619,   0.00000000 ] # b*
- [   0.00000000,   0.00000000,   0.03946256 ] # c*
natom: 7      
lattice:
- [     3.320240356172845,     0.000000000000000,     0.000000000000000 ] # a
- [    -1.660120178086422,     2.875412495116383,     0.000000000000000 ] # b
- [     0.000000000000000,     0.000000000000000,    25.340471715633406 ] # c
points:
- symbol: C # 1
  coordinates: [  0.666666984744047,  0.333332985985145,  0.402039496017502 ]
  mass: 12.010700
- symbol: F # 2
  coordinates: [  0.333332985432215,  0.666666983183674,  0.644836919336131 ]
  mass: 18.998403
- symbol: N # 3
  coordinates: [  0.000000000000000,  0.000000000000000,  0.551939737553595 ]
  mass: 14.006700
- symbol: N # 4
  coordinates: [  0.666666984744047,  0.333332985985145,  0.355163080663869 ]
  mass: 14.006700
- symbol: O # 5
  coordinates: [  0.666666984744047,  0.333332985985145,  0.454809516228184 ]
  mass: 15.999400
- symbol: Sc # 6
  coordinates: [  0.333332985432215,  0.666666983183674,  0.504086931971902 ]
  mass: 44.955912
- symbol: Sc # 7
  coordinates: [  0.666666984744047,  0.333332985985145,  0.599288888065040 ]
  mass: 44.955912

phonon:
- q-position: [    0.0000000,    0.0000000,    0.0000000 ]
  distance:    0.0000000
  band:
  - # 1
    frequency:   -0.9202951129
  - # 2
    frequency:   -0.9202951129
  - # 3
    frequency:   -0.0000007828
  - # 4
    frequency:   -0.0000005925
  - # 5
    frequency:    0.0000005401
  - # 6
    frequency:    4.5031240895
  - # 7
    frequency:    4.5031240895
  - # 8
    frequency:    5.7987500033
  - # 9
    frequency:    5.7987500033
  - # 10
    frequency:    6.2932077102
  - # 11
    frequency:    7.4245820415
  - # 12
    frequency:    7.4245820415
  - # 13
    frequency:   10.4143844470
  - # 14
    frequency:   12.9808044239
  - # 15
    frequency:   13.2315723987
  - # 16
    frequency:   13.2315723987
  - # 17
    frequency:   13.9660505919
  - # 18
    frequency:   13.9660505919
  - # 19
    frequency:   15.0855138066
  - # 20
    frequency:   32.0847544429
  - # 21
    frequency:   68.0074485154

- q-position: [    0.0050505,    0.0000000,    0.0000000 ]
  distance:    0.0017564
  band:
  - # 1
    frequency:   -0.9188961067
  - # 2
    frequency:   -0.9155577047
  - # 3
    frequency:   -0.0607088548
  - # 4
    frequency:    0.0873672979
  - # 5
    frequency:    0.1386766659
  - # 6
    frequency:    4.5034523266
  - # 7
    frequency:    4.5047379727
  - # 8
    frequency:    5.8007787043
  - # 9
    frequency:    5.8009279409
  - # 10
    frequency:    6.2929984729
  - # 11
    frequency:    7.4241412454
  - # 12
    frequency:    7.4246113304
  - # 13
    frequency:   10.4128402626
  - # 14
    frequency:   12.9753215658
  - # 15
    frequency:   13.2313740589
  - # 16
    frequency:   13.2341423150
  - # 17
    frequency:   13.9661191578
  - # 18
    frequency:   13.9662075754
  - # 19
    frequency:   15.0838788930
  - # 20
    frequency:   32.0840282464
  - # 21
    frequency:   68.0071249254

- q-position: [    0.0101010,    0.0000000,    0.0000000 ]
  distance:    0.0035129
  band:
  - # 1
    frequency:   -0.9147293900
  - # 2
    frequency:   -0.9013872105
  - # 3
    frequency:   -0.1173376822
  - # 4
    frequency:    0.1748700651
  - # 5
    frequency:    0.2762284612
  - # 6
    frequency:    4.5044355612
  - # 7
    frequency:    4.5095598421
  - # 8
    frequency:    5.8068525413
  - # 9
    frequency:    5.8074413648
  - # 10
    frequency:    6.2923741217
  - # 11
    frequency:    7.4228170217
  - # 12
    frequency:    7.4246974600
  - # 13
    frequency:   10.4082136775
  - # 14
    frequency:   12.9595415016
  - # 15
    frequency:   13.2307791964
  - # 16
    frequency:   13.2411789878
  - # 17
    frequency:   13.9663243697
  - # 18
    frequency:   13.9666767044
  - # 19
    frequency:   15.0789899797
  - # 20
    frequency:   32.0818523960
  - # 21
    frequency:   68.0061551305

- q-position: [    0.0151515,    0.0000000,    0.0000000 ]
  distance:    0.0052693
  band:
  - # 1
    frequency:   -0.9078798167
  - # 2
    frequency:   -0.8778498512
  - # 3
    frequency:   -0.1736604624
  - # 4
    frequency:    0.2626181722
  - # 5
    frequency:    0.4147999247
  - # 6
    frequency:    4.5060695261
  - # 7
    frequency:    4.5175309429
  - # 8
    frequency:    5.8169347567
  - # 9
    frequency:    5.8182292206
  - # 10
    frequency:    6.2913448191
  - # 11
    frequency:    7.4206039624
  - # 12
    frequency:    7.4248352668
  - # 13
    frequency:   10.4005225709
  - # 14
    frequency:   12.9350012159
  - # 15
    frequency:   13.2297882796
  - # 16
    frequency:   13.2511321303
  - # 17
    frequency:   13.9666647667
  - # 18
    frequency:   13.9674524220
  - # 19
    frequency:   15.0708943531
  - # 20
    frequency:   32.0782350929
  - # 21
    frequency:   68.0045420497

- q-position: [    0.0202020,    0.0000000,    0.0000000 ]
  distance:    0.0070258
  band:
  - # 1
    frequency:   -0.8984701268
  - # 2
    frequency:   -0.8448767264
  - # 3
    frequency:   -0.2285941685
  - # 4
    frequency:    0.3506758318
  - # 5
    frequency:    0.5541911506
  - # 6
    frequency:    4.5083476286
  - # 7
    frequency:    4.5285552559
  - # 8
    frequency:    5.8309642354
  - # 9
    frequency:    5.8331900654
  - # 10
    frequency:    6.2899278117
  - # 11
    frequency:    7.4174933849
  - # 12
    frequency:    7.4250163051
  - # 13
    frequency:   10.3897966584
  - # 14
    frequency:   12.9033016370
  - # 15
    frequency:   13.2284020830
  - # 16
    frequency:   13.2623799510
  - # 17
    frequency:   13.9671379041
  - # 18
    frequency:   13.9685251645
  - # 19
    frequency:   15.0596701671
  - # 20
    frequency:   32.0731899517
  - # 21
    frequency:   68.0022905312

- q-position: [    0.0252525,    0.0000000,    0.0000000 ]
  distance:    0.0087822
  band:
  - # 1
    frequency:   -0.8866377059
  - # 2
    frequency:   -0.8020406167
  - # 3
    frequency:   -0.2815051415
  - # 4
    frequency:    0.4390510489
  - # 5
    frequency:    0.6941777080
  - # 6
    frequency:    4.5112616670
  - # 7
    frequency:    4.5425022015
  - # 8
    frequency:    5.8488557629
  - # 9
    frequency:    5.8521823321
  - # 10
    frequency:    6.2881480486
  - # 11
    frequency:    7.4134738424
  - # 12
    frequency:    7.4252290776
  - # 13
    frequency:   10.3760773777
  - # 14
    frequency:   12.8656913688
  - # 15
    frequency:   13.2266216786
  - # 16
    frequency:   13.2736473477
  - # 17
    frequency:   13.9677403405
  - # 18
    frequency:   13.9698809294
  - # 19
    frequency:   15.0454254465
  - # 20
    frequency:   32.0667359197
  - # 21
    frequency:   67.9994073262

- q-position: [    0.0303030,    0.0000000,    0.0000000 ]
  distance:    0.0105387
  band:
  - # 1
    frequency:   -0.8725101201
  - # 2
    frequency:   -0.7482817347
  - # 3
    frequency:   -0.3318474200
  - # 4
    frequency:    0.5276958203
  - # 5
    frequency:    0.8344129264
  - # 6
    frequency:    4.5148027134
  - # 7
    frequency:    4.5592101402
  - # 8
    frequency:    5.8705004518
  - # 9
    frequency:    5.8750242219
  - # 10
    frequency:    6.2860394193
  - # 11
    frequency:    7.4085318669
  - # 12
    frequency:    7.4254593459
  - # 13
    frequency:   10.3594177448
  - # 14
    frequency:   12.8230321054
  - # 15
    frequency:   13.2244484259
  - # 16
    frequency:   13.2840431151
  - # 17
    frequency:   13.9684676259
  - # 18
    frequency:   13.9715007174
  - # 19
    frequency:   15.0282966730
  - # 20
    frequency:   32.0588971645
  - # 21
    frequency:   67.9959010533

- q-position: [    0.0353535,    0.0000000,    0.0000000 ]
  distance:    0.0122951
  band:
  - # 1
    frequency:   -0.8561843025
  - # 2
    frequency:   -0.6815009378
  - # 3
    frequency:   -0.3791025043
  - # 4
    frequency:    0.6165153399
  - # 5
    frequency:    0.9744907946
  - # 6
    frequency:    4.5189620682
  - # 7
    frequency:    4.5784904280
  - # 8
    frequency:    5.8957663854
  - # 9
    frequency:    5.9014925835
  - # 10
    frequency:    6.2836471564
  - # 11
    frequency:    7.4026529788
  - # 12
    frequency:    7.4256905054
  - # 13
    frequency:   10.3398821977
  - # 14
    frequency:   12.7758982149
  - # 15
    frequency:   13.2218839626
  - # 16
    frequency:   13.2929635986
  - # 17
    frequency:   13.9693142942
  - # 18
    frequency:   13.9733599020
  - # 19
    frequency:   15.0084469350
  - # 20
    frequency:   32.0497029318
  - # 21
    frequency:   67.9917821529

- q-position: [    0.0404040,    0.0000000,    0.0000000 ]
  distance:    0.0140516
  band:
  - # 1
    frequency:   -0.8377122067
  - # 2
    frequency:   -0.5977145898
  - # 3
    frequency:   -0.4227363765
  - # 4
    frequency:    0.7053823953
  - # 5
    frequency:    1.1140096156
  - # 6
    frequency:    4.5237321871
  - # 7
    frequency:    4.6001317746
  - # 8
    frequency:    5.9244995163
  - # 9
    frequency:    5.9313195691
  - # 10
    frequency:    6.2810324917
  - # 11
    frequency:    7.3958230094
  - # 12
    frequency:    7.4259040081
  - # 13
    frequency:   10.3175464402
  - # 14
    frequency:   12.7246792011
  - # 15
    frequency:   13.2189301972
  - # 16
    frequency:   13.2999939792
  - # 17
    frequency:   13.9702738660
  - # 18
    frequency:   13.9754275986
  - # 19
    frequency:   14.9860636293
  - # 20
    frequency:   32.0391873734
  - # 21
    frequency:   67.9870628322

- q-position: [    0.0454545,    0.0000000,    0.0000000 ]
  distance:    0.0158080
  band:
  - # 1
    frequency:   -0.8170930645
  - # 2
    frequency:   -0.4895252363
  - # 3
    frequency:   -0.4611826194
  - # 4
    frequency:    0.7941527254
  - # 5
    frequency:    1.2526084056
  - # 6
    frequency:    4.5291074930
  - # 7
    frequency:    4.6239046616
  - # 8
    frequency:    5.9565248460
  - # 9
    frequency:    5.9641846512
  - # 10
    frequency:    6.2782818444
  - # 11
    frequency:    7.3880298030
  - # 12
    frequency:    7.4260798184
  - # 13
    frequency:   10.2924973022
  - # 14
    frequency:   12.6696536396
  - # 15
    frequency:   13.2155893091
  - # 16
    frequency:   13.3048384607
  - # 17
    frequency:   13.9713388675
  - # 18
    frequency:   13.9776661183
  - # 19
    frequency:   14.9613557058
  - # 20
    frequency:   32.0273893480
  - # 21
    frequency:   67.9817570013

- q-position: [    0.0505051,    0.0000000,    0.0000000 ]
  distance:    0.0175645
  band:
  - # 1
    frequency:   -0.7942702416
  - # 2
    frequency:   -0.4980345529
  - # 3
    frequency:   -0.3284858057
  - # 4
    frequency:    0.8826781532
  - # 5
    frequency:    1.3899784879
  - # 6
    frequency:    4.5350850043
  - # 7
    frequency:    4.6495656105
  - # 8
    frequency:    5.9916478856
  - # 9
    frequency:    5.9996967175
  - # 10
    frequency:    6.2755256608
  - # 11
    frequency:    7.3792653931
  - # 12
    frequency:    7.4261968814
  - # 13
    frequency:   10.2648326250
  - # 14
    frequency:   12.6110371983
  - # 15
    frequency:   13.2118637561
  - # 16
    frequency:   13.3072766030
  - # 17
    frequency:   13.9725008695
  - # 18
    frequency:   13.9800305925
  - # 19
    frequency:   14.9345504644
  - # 20
    frequency:   32.0143521952
  - # 21
    frequency:   67.9758802005

- q-position: [    0.0555556,    0.0000000,    0.0000000 ]
  distance:    0.0193209
  band:
  - # 1
    frequency:   -0.7691296384
  - # 2
    frequency:   -0.5280128722
  - # 3
    frequency:    0.1825490304
  - # 4
    frequency:    0.9708159826
  - # 5
    frequency:    1.5258607688
  - # 6
    frequency:    4.5416647342
  - # 7
    frequency:    4.6768611359
  - # 8
    frequency:    6.0296563773
  - # 9
    frequency:    6.0373535753
  - # 10
    frequency:    6.2729793882
  - # 11
    frequency:    7.3695287814
  - # 12
    frequency:    7.4262335899
  - # 13
    frequency:   10.2346611777
  - # 14
    frequency:   12.5490128667
  - # 15
    frequency:   13.2077562969
  - # 16
    frequency:   13.3071375243
  - # 17
    frequency:   13.9737505532
  - # 18
    frequency:   13.9824688375
  - # 19
    frequency:   14.9058899359
  - # 20
    frequency:   32.0001234853
  - # 21
    frequency:   67.9694495201

- q-position: [    0.0606061,    0.0000000,    0.0000000 ]
  distance:    0.0210773
  band:
  - # 1
    frequency:   -0.7414964424
  - # 2
    frequency:   -0.5525458815
  - # 3
    frequency:    0.4309661933
  - # 4
    frequency:    1.0584345940
  - # 5
    frequency:    1.6600374851
  - # 6
    frequency:    4.5488498425
  - # 7
    frequency:    4.7055312671
  - # 8
    frequency:    6.0703222329
  - # 9
    frequency:    6.0764455106
  - # 10
    frequency:    6.2710397078
  - # 11
    frequency:    7.3588295024
  - # 12
    frequency:    7.4261682335
  - # 13
    frequency:   10.2021026026
  - # 14
    frequency:   12.4837498983
  - # 15
    frequency:   13.2032700291
  - # 16
    frequency:   13.3042853280
  - # 17
    frequency:   13.9750778037
  - # 18
    frequency:   13.9849214862
  - # 19
    frequency:   14.8756269178
  - # 20
    frequency:   31.9847547471
  - # 21
    frequency:   67.9624835123

- q-position: [    0.0656566,    0.0000000,    0.0000000 ]
  distance:    0.0228338
  band:
  - # 1
    frequency:   -0.7111271393
  - # 2
    frequency:   -0.5709854855
  - # 3
    frequency:    0.5908330373
  - # 4
    frequency:    1.1454159990
  - # 5
    frequency:    1.7923233164
  - # 6
    frequency:    4.5566465424
  - # 7
    frequency:    4.7353125692
  - # 8
    frequency:    6.1134036278
  - # 9
    frequency:    6.1158087559
  - # 10
    frequency:    6.2705298889
  - # 11
    frequency:    7.3471922231
  - # 12
    frequency:    7.4259794214
  - # 13
    frequency:   10.1672873795
  - # 14
    frequency:   12.4154156964
  - # 15
    frequency:   13.1984084491
  - # 16
    frequency:   13.2986113934
  - # 17
    frequency:   13.9764718348
  - # 18
    frequency:   13.9873223627
  - # 19
    frequency:   14.8440207837
  - # 20
    frequency:   31.9683011746
  - # 21
    frequency:   67.9550020965

- q-position: [    0.0707071,    0.0000000,    0.0000000 ]
  distance:    0.0245902
  band:
  - # 1
    frequency:   -0.6776933034
  - # 2
    frequency:   -0.5826728763
  - # 3
    frequency:    0.7233095436
  - # 4
    frequency:    1.2316563467
  - # 5
    frequency:    1.9225578306
  - # 6
    frequency:    4.5650637823
  - # 7
    frequency:    4.7659406407
  - # 8
    frequency:    6.1531805685
  - # 9
    frequency:    6.1586471813
  - # 10
    frequency:    6.2733421913
  - # 11
    frequency:    7.3346627265
  - # 12
    frequency:    7.4256464742
  - # 13
    frequency:   10.1303567923
  - # 14
    frequency:   12.3441832389
  - # 15
    frequency:   13.1931755360
  - # 16
    frequency:   13.2900308234
  - # 17
    frequency:   13.9779213452
  - # 18
    frequency:   13.9895990039
  - # 19
    frequency:   14.8113332469
  - # 20
    frequency:   31.9508213166
  - # 21
    frequency:   67.9470264584

- q-position: [    0.0757576,    0.0000000,    0.0000000 ]
  distance:    0.0263467
  band:
  - # 1
    frequency:   -0.6407519755
  - # 2
    frequency:   -0.5868380267
  - # 3
    frequency:    0.8413019031
  - # 4
    frequency:    1.3170652610
  - # 5
    frequency:    2.0505996661
  - # 6
    frequency:    4.5741127393
  - # 7
    frequency:    4.7971520983
  - # 8
    frequency:    6.1839869914
  - # 9
    frequency:    6.2057901439
  - # 10
    frequency:    6.2836457629
  - # 11
    frequency:    7.3213157476
  - # 12
    frequency:    7.4251497881
  - # 13
    frequency:   10.0914628676
  - # 14
    frequency:   12.2702356162
  - # 15
    frequency:   13.1875758616
  - # 16
    frequency:   13.2784813713
  - # 17
    frequency:   13.9794147029
  - # 18
    frequency:   13.9916731753
  - # 19
    frequency:   14.7778243234
  - # 20
    frequency:   31.9323767496
  - # 21
    frequency:   67.9385789444

- q-position: [    0.0808081,    0.0000000,    0.0000000 ]
  distance:    0.0281031
  band:
  - # 1
    frequency:   -0.5996929978
  - # 2
    frequency:   -0.5825223089
  - # 3
    frequency:    0.9500919875
  - # 4
    frequency:    1.4015646320
  - # 5
    frequency:    2.1763222157
  - # 6
    frequency:    4.5838061635
  - # 7
    frequency:    4.8286860898
  - # 8
    frequency:    6.2026175728
  - # 9
    frequency:    6.2545625141
  - # 10
    frequency:    6.3066051288
  - # 11
    frequency:    7.3072652854
  - # 12
    frequency:    7.4244711832
  - # 13
    frequency:   10.0507682484
  - # 14
    frequency:   12.1937686466
  - # 15
    frequency:   13.1816147301
  - # 16
    frequency:   13.2639237679
  - # 17
    frequency:   13.9809401560
  - # 18
    frequency:   13.9934611796
  - # 19
    frequency:   14.7437488057
  - # 20
    frequency:   31.9130317380
  - # 21
    frequency:   67.9296829503

- q-position: [    0.0858586,    0.0000000,    0.0000000 ]
  distance:    0.0298596
  band:
  - # 1
    frequency:   -0.5684574784
  - # 2
    frequency:   -0.5536429033
  - # 3
    frequency:    1.0524100525
  - # 4
    frequency:    1.4850872447
  - # 5
    frequency:    2.2996104069
  - # 6
    frequency:    4.5941576226
  - # 7
    frequency:    4.8602853988
  - # 8
    frequency:    6.2096715251
  - # 9
    frequency:    6.3046890093
  - # 10
    frequency:    6.3411240222
  - # 11
    frequency:    7.2926781622
  - # 12
    frequency:    7.4235942605
  - # 13
    frequency:   10.0084459526
  - # 14
    frequency:   12.1149921765
  - # 15
    frequency:   13.1752983449
  - # 16
    frequency:   13.2463427121
  - # 17
    frequency:   13.9824860633
  - # 18
    frequency:   13.9948737442
  - # 19
    frequency:   14.7093536037
  - # 20
    frequency:   31.8928528833
  - # 21
    frequency:   67.9203628071

- q-position: [    0.0909091,    0.0000000,    0.0000000 ]
  distance:    0.0316160
  band:
  - # 1
    frequency:   -0.5428444935
  - # 2
    frequency:   -0.5012770174
  - # 3
    frequency:    1.1498601948
  - # 4
    frequency:    1.5675754372
  - # 5
    frequency:    2.4203581856
  - # 6
    frequency:    4.6051806914
  - # 7
    frequency:    4.8916972232
  - # 8
    frequency:    6.2103163663
  - # 9
    frequency:    6.3558908148
  - # 10
    frequency:    6.3814726750
  - # 11
    frequency:    7.2777916759
  - # 12
    frequency:    7.4225048058
  - # 13
    frequency:    9.9646789571
  - # 14
    frequency:   12.0341304602
  - # 15
    frequency:   13.1686340016
  - # 16
    frequency:   13.2257479776
  - # 17
    frequency:   13.9840411385
  - # 18
    frequency:   13.9958152943
  - # 19
    frequency:   14.6748763217
  - # 20
    frequency:   31.8719087646
  - # 21
    frequency:   67.9106436631

- q-position: [    0.0959596,    0.0000000,    0.0000000 ]
  distance:    0.0333725
  band:
  - # 1
    frequency:   -0.5028954939
  - # 2
    frequency:   -0.4404076997
  - # 3
    frequency:    1.2434652664
  - # 4
    frequency:    1.6489798625
  - # 5
    frequency:    2.5384663769
  - # 6
    frequency:    4.6168881330
  - # 7
    frequency:    4.9226737204
  - # 8
    frequency:    6.2079005395
  - # 9
    frequency:    6.4078870390
  - # 10
    frequency:    6.4236564592
  - # 11
    frequency:    7.2629359697
  - # 12
    frequency:    7.4211912942
  - # 13
    frequency:    9.9196595325
  - # 14
    frequency:   11.9514218897
  - # 15
    frequency:   13.1616303039
  - # 16
    frequency:   13.2021752062
  - # 17
    frequency:   13.9855946983
  - # 18
    frequency:   13.9961824818
  - # 19
    frequency:   14.6405453973
  - # 20
    frequency:   31.8502695738
  - # 21
    frequency:   67.9005513647

- q-position: [    0.1010101,    0.0000000,    0.0000000 ]
  distance:    0.0351289
  band:
  - # 1
    frequency:   -0.4437109911
  - # 2
    frequency:   -0.3669027810
  - # 3
    frequency:    1.3339157302
  - # 4
    frequency:    1.7292583563
  - # 5
    frequency:    2.6538406707
  - # 6
    frequency:    4.6292911146
  - # 7
    frequency:    4.9529724255
  - # 8
    frequency:    6.2038789221
  - # 9
    frequency:    6.4603957941
  - # 10
    frequency:    6.4654673433
  - # 11
    frequency:    7.2485607588
  - # 12
    frequency:    7.4196455725
  - # 13
    frequency:    9.8735882477
  - # 14
    frequency:   11.8671182732
  - # 15
    frequency:   13.1542973943
  - # 16
    frequency:   13.1756860532
  - # 17
    frequency:   13.9871369081
  - # 18
    frequency:   13.9958619529
  - # 19
    frequency:   14.6065820041
  - # 20
    frequency:   31.8280067463
  - # 21
    frequency:   67.8901123344

- q-position: [    0.1060606,    0.0000000,    0.0000000 ]
  distance:    0.0368854
  band:
  - # 1
    frequency:   -0.3546490471
  - # 2
    frequency:   -0.2707665337
  - # 3
    frequency:    1.4216975955
  - # 4
    frequency:    1.8083748817
  - # 5
    frequency:    2.7663895246
  - # 6
    frequency:    4.6423984953
  - # 7
    frequency:    4.9823566536
  - # 8
    frequency:    6.1988773090
  - # 9
    frequency:    6.5053951417
  - # 10
    frequency:    6.5131348118
  - # 11
    frequency:    7.2352633696
  - # 12
    frequency:    7.4178638220
  - # 13
    frequency:    9.8266725508
  - # 14
    frequency:   11.7814838198
  - # 15
    frequency:   13.1463674541
  - # 16
    frequency:   13.1466471917
  - # 17
    frequency:   13.9886590126
  - # 18
    frequency:   13.9947275002
  - # 19
    frequency:   14.5732037073
  - # 20
    frequency:   31.8051925916
  - # 21
    frequency:   67.8793534496

- q-position: [    0.1111111,    0.0000000,    0.0000000 ]
  distance:    0.0386418
  band:
  - # 1
    frequency:   -0.1971533110
  - # 2
    frequency:   -0.1005603413
  - # 3
    frequency:    1.5071640371
  - # 4
    frequency:    1.8862985124
  - # 5
    frequency:    2.8760218168
  - # 6
    frequency:    4.6562162203
  - # 7
    frequency:    5.0105960010
  - # 8
    frequency:    6.1931778496
  - # 9
    frequency:    6.5421254510
  - # 10
    frequency:    6.5658214801
  - # 11
    frequency:    7.2238092491
  - # 12
    frequency:    7.4158479410
  - # 13
    frequency:    9.7791248300
  - # 14
    frequency:   11.6947939665
  - # 15
    frequency:   13.1143299016
  - # 16
    frequency:   13.1386936235
  - # 17
    frequency:   13.9901535448
  - # 18
    frequency:   13.9926369939
  - # 19
    frequency:   14.5406295211
  - # 20
    frequency:   31.7818999251
  - # 21
    frequency:   67.8683019207

- q-position: [    0.1161616,    0.0000000,    0.0000000 ]
  distance:    0.0403982
  band:
  - # 1
    frequency:    0.2343569938
  - # 2
    frequency:    0.2538816989
  - # 3
    frequency:    1.5905781551
  - # 4
    frequency:    1.9630024164
  - # 5
    frequency:    2.9826440924
  - # 6
    frequency:    4.6707468471
  - # 7
    frequency:    5.0374670528
  - # 8
    frequency:    6.1869019483
  - # 9
    frequency:    6.5743665702
  - # 10
    frequency:    6.6181721485
  - # 11
    frequency:    7.2151261787
  - # 12
    frequency:    7.4136075319
  - # 13
    frequency:    9.7311598651
  - # 14
    frequency:   11.6073341740
  - # 15
    frequency:   13.0797047559
  - # 16
    frequency:   13.1304528398
  - # 17
    frequency:   13.9894298258
  - # 18
    frequency:   13.9916145028
  - # 19
    frequency:   14.5090855635
  - # 20
    frequency:   31.7582017031
  - # 21
    frequency:   67.8569851702

- q-position: [    0.1212121,    0.0000000,    0.0000000 ]
  distance:    0.0421547
  band:
  - # 1
    frequency:    0.3488902272
  - # 2
    frequency:    0.4297758532
  - # 3
    frequency:    1.6721398293
  - # 4
    frequency:    2.0384628187
  - # 5
    frequency:    3.0861572515
  - # 6
    frequency:    4.6859892253
  - # 7
    frequency:    5.0627543905
  - # 8
    frequency:    6.1800802568
  - # 9
    frequency:    6.6008456428
  - # 10
    frequency:    6.6699004920
  - # 11
    frequency:    7.2102423881
  - # 12
    frequency:    7.4111627417
  - # 13
    frequency:    9.6829915959
  - # 14
    frequency:   11.5193988092
  - # 15
    frequency:   13.0426407406
  - # 16
    frequency:   13.1219433927
  - # 17
    frequency:   13.9849260568
  - # 18
    frequency:   13.9930374885
  - # 19
    frequency:   14.4788099241
  - # 20
    frequency:   31.7341706646
  - # 21
    frequency:   67.8454307143

- q-position: [    0.1262626,    0.0000000,    0.0000000 ]
  distance:    0.0439111
  band:
  - # 1
    frequency:    0.4361438364
  - # 2
    frequency:    0.5677001035
  - # 3
    frequency:    1.7520032848
  - # 4
    frequency:    2.1126579317
  - # 5
    frequency:    3.1864525160
  - # 6
    frequency:    4.7019383388
  - # 7
    frequency:    5.0862519586
  - # 8
    frequency:    6.1726788272
  - # 9
    frequency:    6.6204335748
  - # 10
    frequency:    6.7207146466
  - # 11
    frequency:    7.2101400442
  - # 12
    frequency:    7.4085482863
  - # 13
    frequency:    9.6348291721
  - # 14
    frequency:   11.4312902276
  - # 15
    frequency:   13.0032998810
  - # 16
    frequency:   13.1131863647
  - # 17
    frequency:   13.9789289652
  - # 18
    frequency:   13.9944198013
  - # 19
    frequency:   14.4500547509
  - # 20
    frequency:   31.7098789809
  - # 21
    frequency:   67.8336660457

- q-position: [    0.1313131,    0.0000000,    0.0000000 ]
  distance:    0.0456676
  band:
  - # 1
    frequency:    0.5102382619
  - # 2
    frequency:    0.6909957914
  - # 3
    frequency:    1.8302889737
  - # 4
    frequency:    2.1855668627
  - # 5
    frequency:    3.2834064910
  - # 6
    frequency:    4.7185853134
  - # 7
    frequency:    5.1077647970
  - # 8
    frequency:    6.1646064500
  - # 9
    frequency:    6.6323659098
  - # 10
    frequency:    6.7703127233
  - # 11
    frequency:    7.2155320477
  - # 12
    frequency:    7.4058190897
  - # 13
    frequency:    9.5868723156
  - # 14
    frequency:   11.3433181500
  - # 15
    frequency:   12.9618532047
  - # 16
    frequency:   13.1042054281
  - # 17
    frequency:   13.9712330611
  - # 18
    frequency:   13.9957604833
  - # 19
    frequency:   14.4230831299
  - # 20
    frequency:   31.6853979150
  - # 21
    frequency:   67.8217185208

- q-position: [    0.1363636,    0.0000000,    0.0000000 ]
  distance:    0.0474240
  band:
  - # 1
    frequency:    0.5762089906
  - # 2
    frequency:    0.8065151307
  - # 3
    frequency:    1.9070918403
  - # 4
    frequency:    2.2571685231
  - # 5
    frequency:    3.3768751084
  - # 6
    frequency:    4.7359175817
  - # 7
    frequency:    5.1271110805
  - # 8
    frequency:    6.1557136071
  - # 9
    frequency:    6.6364691002
  - # 10
    frequency:    6.8183762028
  - # 11
    frequency:    7.2266424616
  - # 12
    frequency:    7.4030580744
  - # 13
    frequency:    9.5393061164
  - # 14
    frequency:   11.2557994029
  - # 15
    frequency:   12.9184765425
  - # 16
    frequency:   13.0950268181
  - # 17
    frequency:   13.9616394216
  - # 18
    frequency:   13.9970603137
  - # 19
    frequency:   14.3981585164
  - # 20
    frequency:   31.6607974946
  - # 21
    frequency:   67.8096152495

- q-position: [    0.1414141,    0.0000000,    0.0000000 ]
  distance:    0.0491805
  band:
  - # 1
    frequency:    0.6365289896
  - # 2
    frequency:    0.9172438395
  - # 3
    frequency:    1.9824872062
  - # 4
    frequency:    2.3274405804
  - # 5
    frequency:    3.4666862040
  - # 6
    frequency:    4.7539191847
  - # 7
    frequency:    5.1441243304
  - # 8
    frequency:    6.1457891160
  - # 9
    frequency:    6.6332625514
  - # 10
    frequency:    6.8645606535
  - # 11
    frequency:    7.2431143616
  - # 12
    frequency:    7.4003866914
  - # 13
    frequency:    9.4922955143
  - # 14
    frequency:   11.1690580430
  - # 15
    frequency:   12.8733467397
  - # 16
    frequency:   13.0856792045
  - # 17
    frequency:   13.9499788503
  - # 18
    frequency:   13.9983217530
  - # 19
    frequency:   14.3755258533
  - # 20
    frequency:   31.6361461980
  - # 21
    frequency:   67.7973829904

- q-position: [    0.1464646,    0.0000000,    0.0000000 ]
  distance:    0.0509369
  band:
  - # 1
    frequency:    0.6926225607
  - # 2
    frequency:    1.0247234900
  - # 3
    frequency:    2.0565350422
  - # 4
    frequency:    2.3963585070
  - # 5
    frequency:    3.5526304438
  - # 6
    frequency:    4.7725711837
  - # 7
    frequency:    5.1586556143
  - # 8
    frequency:    6.1345602757
  - # 9
    frequency:    6.6238711966
  - # 10
    frequency:    6.9084833639
  - # 11
    frequency:    7.2641048055
  - # 12
    frequency:    7.3979786159
  - # 13
    frequency:    9.4459798771
  - # 14
    frequency:   11.0834258158
  - # 15
    frequency:   12.8266385256
  - # 16
    frequency:   13.0761934471
  - # 17
    frequency:   13.9361405489
  - # 18
    frequency:   13.9995488395
  - # 19
    frequency:   14.3553863801
  - # 20
    frequency:   31.6115106570
  - # 21
    frequency:   67.7850480505

- q-position: [    0.1515152,    0.0000000,    0.0000000 ]
  distance:    0.0526934
  band:
  - # 1
    frequency:    0.7453943672
  - # 2
    frequency:    1.1298247774
  - # 3
    frequency:    2.1292831161
  - # 4
    frequency:    2.4638947915
  - # 5
    frequency:    3.6344502952
  - # 6
    frequency:    4.7918521436
  - # 7
    frequency:    5.1705755769
  - # 8
    frequency:    6.1217039861
  - # 9
    frequency:    6.6098085065
  - # 10
    frequency:    6.9497082237
  - # 11
    frequency:    7.2884997474
  - # 12
    frequency:    7.3960762892
  - # 13
    frequency:    9.4004682667
  - # 14
    frequency:   10.9992427985
  - # 15
    frequency:   12.7785222075
  - # 16
    frequency:   13.0666022268
  - # 17
    frequency:   13.9201004189
  - # 18
    frequency:   14.0007470414
  - # 19
    frequency:   14.3378717823
  - # 20
    frequency:   31.5869553765
  - # 21
    frequency:   67.7726361900