nqpoint: 300    
npath: 3      
segment_nqpoint:
- 100
- 100
- 100
labels:
- [ 'G', 'M' ]
- [ 'M', 'K' ]
- [ 'K', 'G' ]
reciprocal_lattice:
- [   0.30118301,   0.17388809,   0.00000000 ] # a*
- [   0.00000000,   0.34777619,   0.00000000 ] # b*
- [   0.00000000,   0.00000000,   0.03946256 ] # c*
natom: 7      
lattice:
- [     3.320240356172845,     0.000000000000000,     0.000000000000000 ] # a
- [    -1.660120178086422,     2.875412495116383,     0.000000000000000 ] # b
- [     0.000000000000000,     0.000000000000000,    25.340471715633406 ] # c
points:
- symbol: C # 1
  coordinates: [  0.666666984744047,  0.333332985985145,  0.402039496017502 ]
  mass: 12.010700
- symbol: F # 2
  coordinates: [  0.333332985432215,  0.666666983183674,  0.644836919336131 ]
  mass: 18.998403
- symbol: N # 3
  coordinates: [  0.000000000000000,  0.000000000000000,  0.551939737553595 ]
  mass: 14.006700
- symbol: N # 4
  coordinates: [  0.666666984744047,  0.333332985985145,  0.355163080663869 ]
  mass: 14.006700
- symbol: O # 5
  coordinates: [  0.666666984744047,  0.333332985985145,  0.454809516228184 ]
  mass: 15.999400
- symbol: Sc # 6
  coordinates: [  0.333332985432215,  0.666666983183674,  0.504086931971902 ]
  mass: 44.955912
- symbol: Sc # 7
  coordinates: [  0.666666984744047,  0.333332985985145,  0.599288888065040 ]
  mass: 44.955912

phonon:
- q-position: [    0.0000000,    0.0000000,    0.0000000 ]
  distance:    0.0000000
  band:
  - # 1
    frequency:   -0.0000029914
  - # 2
    frequency:   -0.0000001216
  - # 3
    frequency:    0.0000043765
  - # 4
    frequency:    1.2438937438
  - # 5
    frequency:    1.2438937438
  - # 6
    frequency:    5.1401518733
  - # 7
    frequency:    5.1401518733
  - # 8
    frequency:    6.1889692348
  - # 9
    frequency:    6.8385138131
  - # 10
    frequency:    6.8385138131
  - # 11
    frequency:    7.7170355051
  - # 12
    frequency:    7.7170355051
  - # 13
    frequency:   10.1666642541
  - # 14
    frequency:   12.5586669952
  - # 15
    frequency:   13.5222677052
  - # 16
    frequency:   13.5222677052
  - # 17
    frequency:   14.0077254020
  - # 18
    frequency:   14.0077254020
  - # 19
    frequency:   14.2531698956
  - # 20
    frequency:   32.0096118791
  - # 21
    frequency:   67.9875782617

- q-position: [    0.0050505,    0.0000000,    0.0000000 ]
  distance:    0.0017564
  band:
  - # 1
    frequency:   -0.2361920916
  - # 2
    frequency:   -0.2214569606
  - # 3
    frequency:    0.0016502147
  - # 4
    frequency:    1.2664852373
  - # 5
    frequency:    1.2682061626
  - # 6
    frequency:    5.1391013641
  - # 7
    frequency:    5.1403233753
  - # 8
    frequency:    6.1888212160
  - # 9
    frequency:    6.8385153030
  - # 10
    frequency:    6.8387832642
  - # 11
    frequency:    7.7166106377
  - # 12
    frequency:    7.7171319385
  - # 13
    frequency:   10.1656719928
  - # 14
    frequency:   12.5567046322
  - # 15
    frequency:   13.5203046999
  - # 16
    frequency:   13.5223401343
  - # 17
    frequency:   14.0076861744
  - # 18
    frequency:   14.0077865665
  - # 19
    frequency:   14.2535506233
  - # 20
    frequency:   32.0090642726
  - # 21
    frequency:   67.9873040677

- q-position: [    0.0101010,    0.0000000,    0.0000000 ]
  distance:    0.0035129
  band:
  - # 1
    frequency:   -0.4498174596
  - # 2
    frequency:   -0.4227243679
  - # 3
    frequency:    0.0065974792
  - # 4
    frequency:    1.3253747152
  - # 5
    frequency:    1.3307176641
  - # 6
    frequency:    5.1359595820
  - # 7
    frequency:    5.1408341068
  - # 8
    frequency:    6.1883776003
  - # 9
    frequency:    6.8385189753
  - # 10
    frequency:    6.8395934641
  - # 11
    frequency:    7.7153358588
  - # 12
    frequency:    7.7174218815
  - # 13
    frequency:   10.1626970525
  - # 14
    frequency:   12.5508113188
  - # 15
    frequency:   13.5144323335
  - # 16
    frequency:   13.5225558067
  - # 17
    frequency:   14.0075854376
  - # 18
    frequency:   14.0079680015
  - # 19
    frequency:   14.2546726554
  - # 20
    frequency:   32.0074229141
  - # 21
    frequency:   67.9864821006

- q-position: [    0.0151515,    0.0000000,    0.0000000 ]
  distance:    0.0052693
  band:
  - # 1
    frequency:   -0.6343807967
  - # 2
    frequency:   -0.5971482670
  - # 3
    frequency:    0.0148303160
  - # 4
    frequency:    1.4045320705
  - # 5
    frequency:    1.4133632332
  - # 6
    frequency:    5.1307557893
  - # 7
    frequency:    5.1416727218
  - # 8
    frequency:    6.1876398635
  - # 9
    frequency:    6.8385224363
  - # 10
    frequency:    6.8409492023
  - # 11
    frequency:    7.7132111158
  - # 12
    frequency:    7.7179072523
  - # 13
    frequency:   10.1577449635
  - # 14
    frequency:   12.5409685836
  - # 15
    frequency:   13.5047013359
  - # 16
    frequency:   13.5229098670
  - # 17
    frequency:   14.0074699613
  - # 18
    frequency:   14.0082635868
  - # 19
    frequency:   14.2564786798
  - # 20
    frequency:   32.0046921822
  - # 21
    frequency:   67.9851142038

- q-position: [    0.0202020,    0.0000000,    0.0000000 ]
  distance:    0.0070258
  band:
  - # 1
    frequency:   -0.7932694038
  - # 2
    frequency:   -0.7471479956
  - # 3
    frequency:    0.0263297557
  - # 4
    frequency:    1.4925238826
  - # 5
    frequency:    1.5040365631
  - # 6
    frequency:    5.1235388409
  - # 7
    frequency:    5.1428202346
  - # 8
    frequency:    6.1866109526
  - # 9
    frequency:    6.8385216875
  - # 10
    frequency:    6.8428559926
  - # 11
    frequency:    7.7102379061
  - # 12
    frequency:    7.7185912151
  - # 13
    frequency:   10.1508249394
  - # 14
    frequency:   12.5271463491
  - # 15
    frequency:   13.4911983634
  - # 16
    frequency:   13.5233941843
  - # 17
    frequency:   14.0074055294
  - # 18
    frequency:   14.0086633011
  - # 19
    frequency:   14.2588827140
  - # 20
    frequency:   32.0008793563
  - # 21
    frequency:   67.9832034419

- q-position: [    0.0252525,    0.0000000,    0.0000000 ]
  distance:    0.0087822
  band:
  - # 1
    frequency:   -0.9315711477
  - # 2
    frequency:   -0.8771747175
  - # 3
    frequency:    0.0410691216
  - # 4
    frequency:    1.5833390788
  - # 5
    frequency:    1.5967828850
  - # 6
    frequency:    5.1143773084
  - # 7
    frequency:    5.1442499186
  - # 8
    frequency:    6.1852959384
  - # 9
    frequency:    6.8385111112
  - # 10
    frequency:    6.8453164870
  - # 11
    frequency:    7.7064216269
  - # 12
    frequency:    7.7194781324
  - # 13
    frequency:   10.1419498704
  - # 14
    frequency:   12.5093040997
  - # 15
    frequency:   13.4740476717
  - # 16
    frequency:   13.5239972968
  - # 17
    frequency:   14.0074628895
  - # 18
    frequency:   14.0091534883
  - # 19
    frequency:   14.2617815947
  - # 20
    frequency:   31.9959945902
  - # 21
    frequency:   67.9807540914

- q-position: [    0.0303030,    0.0000000,    0.0000000 ]
  distance:    0.0105387
  band:
  - # 1
    frequency:   -1.0534754712
  - # 2
    frequency:   -0.9911276397
  - # 3
    frequency:    0.0590139252
  - # 4
    frequency:    1.6740863552
  - # 5
    frequency:    1.6889423961
  - # 6
    frequency:    5.1033596473
  - # 7
    frequency:    5.1459271809
  - # 8
    frequency:    6.1837027776
  - # 9
    frequency:    6.8384834462
  - # 10
    frequency:    6.8483256772
  - # 11
    frequency:    7.7017748145
  - # 12
    frequency:    7.7205735019
  - # 13
    frequency:   10.1311363117
  - # 14
    frequency:   12.4873927131
  - # 15
    frequency:   13.4534112252
  - # 16
    frequency:   13.5247043358
  - # 17
    frequency:   14.0077044667
  - # 18
    frequency:   14.0097172227
  - # 19
    frequency:   14.2650667178
  - # 20
    frequency:   31.9900508752
  - # 21
    frequency:   67.9777716249

- q-position: [    0.0353535,    0.0000000,    0.0000000 ]
  distance:    0.0122951
  band:
  - # 1
    frequency:   -1.1620393071
  - # 2
    frequency:   -1.0919723923
  - # 3
    frequency:    0.0801217532
  - # 4
    frequency:    1.7633939067
  - # 5
    frequency:    1.7793802679
  - # 6
    frequency:    5.0905943978
  - # 7
    frequency:    5.1478094348
  - # 8
    frequency:    6.1818430497
  - # 9
    frequency:    6.8384297505
  - # 10
    frequency:    6.8518650881
  - # 11
    frequency:    7.6963212231
  - # 12
    frequency:    7.7218838800
  - # 13
    frequency:   10.1184044652
  - # 14
    frequency:   12.4613571021
  - # 15
    frequency:   13.4294862928
  - # 16
    frequency:   13.5254969327
  - # 17
    frequency:   14.0081748179
  - # 18
    frequency:   14.0103347651
  - # 19
    frequency:   14.2686338557
  - # 20
    frequency:   31.9830639925
  - # 21
    frequency:   67.9742626935

- q-position: [    0.0404040,    0.0000000,    0.0000000 ]
  distance:    0.0140516
  band:
  - # 1
    frequency:   -1.2594379315
  - # 2
    frequency:   -1.1819013179
  - # 3
    frequency:    0.1043421600
  - # 4
    frequency:    1.8506092663
  - # 5
    frequency:    1.8676550807
  - # 6
    frequency:    5.0762104069
  - # 7
    frequency:    5.1498459848
  - # 8
    frequency:    6.1797325221
  - # 9
    frequency:    6.8383393506
  - # 10
    frequency:    6.8558962002
  - # 11
    frequency:    7.6901006812
  - # 12
    frequency:    7.7234167957
  - # 13
    frequency:   10.1037781508
  - # 14
    frequency:   12.4311397947
  - # 15
    frequency:   13.4025003200
  - # 16
    frequency:   13.5263531106
  - # 17
    frequency:   14.0088960504
  - # 18
    frequency:   14.0109841044
  - # 19
    frequency:   14.2723899107
  - # 20
    frequency:   31.9750524556
  - # 21
    frequency:   67.9702351033

- q-position: [    0.0454545,    0.0000000,    0.0000000 ]
  distance:    0.0158080
  band:
  - # 1
    frequency:   -1.3472199551
  - # 2
    frequency:   -1.2625441043
  - # 3
    frequency:    0.1316165807
  - # 4
    frequency:    1.9354226095
  - # 5
    frequency:    1.9536440542
  - # 6
    frequency:    5.0603570503
  - # 7
    frequency:    5.1519779488
  - # 8
    frequency:    6.1773913966
  - # 9
    frequency:    6.8381997729
  - # 10
    frequency:    6.8603533706
  - # 11
    frequency:    7.6831746352
  - # 12
    frequency:    7.7251806576
  - # 13
    frequency:   10.0872847634
  - # 14
    frequency:   12.3966855195
  - # 15
    frequency:   13.3727035408
  - # 16
    frequency:   13.5272471651
  - # 17
    frequency:   14.0098678385
  - # 18
    frequency:   14.0116415708
  - # 19
    frequency:   14.2762564420
  - # 20
    frequency:   31.9660374433
  - # 21
    frequency:   67.9656977896

- q-position: [    0.0505051,    0.0000000,    0.0000000 ]
  distance:    0.0175645
  band:
  - # 1
    frequency:   -1.4264929032
  - # 2
    frequency:   -1.3351321041
  - # 3
    frequency:    0.1618782813
  - # 4
    frequency:    2.0176875088
  - # 5
    frequency:    2.0373710650
  - # 6
    frequency:    5.0432044240
  - # 7
    frequency:    5.1541382316
  - # 8
    frequency:    6.1748441115
  - # 9
    frequency:    6.8379966581
  - # 10
    frequency:    6.8651365594
  - # 11
    frequency:    7.6756322434
  - # 12
    frequency:    7.7271846565
  - # 13
    frequency:   10.0689552130
  - # 14
    frequency:   12.3579467634
  - # 15
    frequency:   13.3403601763
  - # 16
    frequency:   13.5281495362
  - # 17
    frequency:   14.0110707431
  - # 18
    frequency:   14.0122825136
  - # 19
    frequency:   14.2801704470
  - # 20
    frequency:   31.9560427226
  - # 21
    frequency:   67.9606607862

- q-position: [    0.0555556,    0.0000000,    0.0000000 ]
  distance:    0.0193209
  band:
  - # 1
    frequency:   -1.4980489129
  - # 2
    frequency:   -1.4006135125
  - # 3
    frequency:    0.1950523599
  - # 4
    frequency:    2.0973331041
  - # 5
    frequency:    2.1189252889
  - # 6
    frequency:    5.0249434633
  - # 7
    frequency:    5.1562515673
  - # 8
    frequency:    6.1721186093
  - # 9
    frequency:    6.8377136605
  - # 10
    frequency:    6.8701042334
  - # 11
    frequency:    7.6675967839
  - # 12
    frequency:    7.7294386662
  - # 13
    frequency:   10.0488238411
  - # 14
    frequency:   12.3148901372
  - # 15
    frequency:   13.3057391507
  - # 16
    frequency:   13.5290266770
  - # 17
    frequency:   14.0124713074
  - # 18
    frequency:   14.0128820272
  - # 19
    frequency:   14.2840831548
  - # 20
    frequency:   31.9450945627
  - # 21
    frequency:   67.9551351919

- q-position: [    0.0606061,    0.0000000,    0.0000000 ]
  distance:    0.0210773
  band:
  - # 1
    frequency:   -1.5624489932
  - # 2
    frequency:   -1.4597321507
  - # 3
    frequency:    0.2310558140
  - # 4
    frequency:    2.1743197629
  - # 5
    frequency:    2.1984216510
  - # 6
    frequency:    5.0057859291
  - # 7
    frequency:    5.1582346367
  - # 8
    frequency:    6.1692450242
  - # 9
    frequency:    6.8373323342
  - # 10
    frequency:    6.8750669525
  - # 11
    frequency:    7.6592319800
  - # 12
    frequency:    7.7319531429
  - # 13
    frequency:   10.0269283079
  - # 14
    frequency:   12.2675032491
  - # 15
    frequency:   13.2691051465
  - # 16
    frequency:   13.5298409216
  - # 17
    frequency:   14.0134157155
  - # 18
    frequency:   14.0140276185
  - # 19
    frequency:   14.2879576185
  - # 20
    frequency:   31.9332216406
  - # 21
    frequency:   67.9491331330

- q-position: [    0.0656566,    0.0000000,    0.0000000 ]
  distance:    0.0228338
  band:
  - # 1
    frequency:   -1.6200800347
  - # 2
    frequency:   -1.5130814548
  - # 3
    frequency:    0.2697976837
  - # 4
    frequency:    2.2486162221
  - # 5
    frequency:    2.2759812252
  - # 6
    frequency:    4.9859641863
  - # 7
    frequency:    5.1599962629
  - # 8
    frequency:    6.1662537917
  - # 9
    frequency:    6.8368320121
  - # 10
    frequency:    6.8797823627
  - # 11
    frequency:    7.6507475814
  - # 12
    frequency:    7.7347390233
  - # 13
    frequency:   10.0033094449
  - # 14
    frequency:   12.2158016635
  - # 15
    frequency:   13.2307106456
  - # 16
    frequency:   13.5305503596
  - # 17
    frequency:   14.0138604777
  - # 18
    frequency:   14.0156944271
  - # 19
    frequency:   14.2917657812
  - # 20
    frequency:   31.9204549378
  - # 21
    frequency:   67.9426677226

- q-position: [    0.0707071,    0.0000000,    0.0000000 ]
  distance:    0.0245902
  band:
  - # 1
    frequency:   -1.6711939698
  - # 2
    frequency:   -1.5611418709
  - # 3
    frequency:    0.3111792792
  - # 4
    frequency:    2.3201878069
  - # 5
    frequency:    2.3517214183
  - # 6
    frequency:    4.9657306706
  - # 7
    frequency:    5.1614376759
  - # 8
    frequency:    6.1631732274
  - # 9
    frequency:    6.8361896869
  - # 10
    frequency:    6.8839526625
  - # 11
    frequency:    7.6424031656
  - # 12
    frequency:    7.7378076205
  - # 13
    frequency:    9.9780110658
  - # 14
    frequency:   12.1598354574
  - # 15
    frequency:   13.1907894353
  - # 16
    frequency:   13.5311087229
  - # 17
    frequency:   14.0141953003
  - # 18
    frequency:   14.0174273082
  - # 19
    frequency:   14.2954855362
  - # 20
    frequency:   31.9068276292
  - # 21
    frequency:   67.9357530174

- q-position: [    0.0757576,    0.0000000,    0.0000000 ]
  distance:    0.0263467
  band:
  - # 1
    frequency:   -1.7159350686
  - # 2
    frequency:   -1.6043070942
  - # 3
    frequency:    0.3550944972
  - # 4
    frequency:    2.3889906823
  - # 5
    frequency:    2.4257510173
  - # 6
    frequency:    4.9453569183
  - # 7
    frequency:    5.1624528305
  - # 8
    frequency:    6.1600266566
  - # 9
    frequency:    6.8353799015
  - # 10
    frequency:    6.8872260374
  - # 11
    frequency:    7.6345086695
  - # 12
    frequency:    7.7411705142
  - # 13
    frequency:    9.9510797284
  - # 14
    frequency:   12.0996948922
  - # 15
    frequency:   13.1495518992
  - # 16
    frequency:   13.5314652932
  - # 17
    frequency:   14.0144020376
  - # 18
    frequency:   14.0191856461
  - # 19
    frequency:   14.2990981447
  - # 20
    frequency:   31.8923749651
  - # 21
    frequency:   67.9284039707

- q-position: [    0.0808081,    0.0000000,    0.0000000 ]
  distance:    0.0281031
  band:
  - # 1
    frequency:   -1.7543591558
  - # 2
    frequency:   -1.6429027027
  - # 3
    frequency:    0.4014302269
  - # 4
    frequency:    2.4549696573
  - # 5
    frequency:    2.4981676319
  - # 6
    frequency:    4.9251320058
  - # 7
    frequency:    5.1629287553
  - # 8
    frequency:    6.1568291955
  - # 9
    frequency:    6.8343746623
  - # 10
    frequency:    6.8892039649
  - # 11
    frequency:    7.6274197410
  - # 12
    frequency:    7.7448394322
  - # 13
    frequency:    9.9225644435
  - # 14
    frequency:   12.0355148053
  - # 15
    frequency:   13.1071822618
  - # 16
    frequency:   13.5315648417
  - # 17
    frequency:   14.0144661598
  - # 18
    frequency:   14.0209344244
  - # 19
    frequency:   14.3025862361
  - # 20
    frequency:   31.8771341457
  - # 21
    frequency:   67.9206363833

- q-position: [    0.0858586,    0.0000000,    0.0000000 ]
  distance:    0.0298596
  band:
  - # 1
    frequency:   -1.7864471397
  - # 2
    frequency:   -1.6771995210
  - # 3
    frequency:    0.4500668421
  - # 4
    frequency:    2.5180583395
  - # 5
    frequency:    2.5690562466
  - # 6
    frequency:    4.9053602210
  - # 7
    frequency:    5.1627459061
  - # 8
    frequency:    6.1535842939
  - # 9
    frequency:    6.8331433874
  - # 10
    frequency:    6.8894564179
  - # 11
    frequency:    7.6215258737
  - # 12
    frequency:    7.7488261192
  - # 13
    frequency:    9.8925163278
  - # 14
    frequency:   11.9674774852
  - # 15
    frequency:   13.0638377862
  - # 16
    frequency:   13.5313476143
  - # 17
    frequency:   14.0143774453
  - # 18
    frequency:   14.0226449235
  - # 19
    frequency:   14.3059325044
  - # 20
    frequency:   31.8611441897
  - # 21
    frequency:   67.9124668518

- q-position: [    0.0909091,    0.0000000,    0.0000000 ]
  distance:    0.0316160
  band:
  - # 1
    frequency:   -1.8121143555
  - # 2
    frequency:   -1.7074232734
  - # 3
    frequency:    0.5008787763
  - # 4
    frequency:    2.5781810908
  - # 5
    frequency:    2.6384881861
  - # 6
    frequency:    4.8863577734
  - # 7
    frequency:    5.1617784990
  - # 8
    frequency:    6.1502801456
  - # 9
    frequency:    6.8316529036
  - # 10
    frequency:    6.8875464371
  - # 11
    frequency:    7.6172298471
  - # 12
    frequency:    7.7531421854
  - # 13
    frequency:    9.8609882012
  - # 14
    frequency:   11.8958139750
  - # 15
    frequency:   13.0196497580
  - # 16
    frequency:   13.5307493804
  - # 17
    frequency:   14.0141305937
  - # 18
    frequency:   14.0242944895
  - # 19
    frequency:   14.3091191183
  - # 20
    frequency:   31.8444457966
  - # 21
    frequency:   67.9039127145

- q-position: [    0.0959596,    0.0000000,    0.0000000 ]
  distance:    0.0333725
  band:
  - # 1
    frequency:   -1.8312166354
  - # 2
    frequency:   -1.7337615832
  - # 3
    frequency:    0.5537351713
  - # 4
    frequency:    2.6352565700
  - # 5
    frequency:    2.7065200967
  - # 6
    frequency:    4.8684483537
  - # 7
    frequency:    5.1598948131
  - # 8
    frequency:    6.1468860675
  - # 9
    frequency:    6.8298675059
  - # 10
    frequency:    6.8830639357
  - # 11
    frequency:    7.6149186041
  - # 12
    frequency:    7.7577989317
  - # 13
    frequency:    9.8280341423
  - # 14
    frequency:   11.8208039269
  - # 15
    frequency:   12.9747259412
  - # 16
    frequency:   13.5297015660
  - # 17
    frequency:   14.0137257264
  - # 18
    frequency:   14.0258655702
  - # 19
    frequency:   14.3121277979
  - # 20
    frequency:   31.8270812046
  - # 21
    frequency:   67.8949919952

- q-position: [    0.1010101,    0.0000000,    0.0000000 ]
  distance:    0.0351289
  band:
  - # 1
    frequency:   -1.8435536056
  - # 2
    frequency:   -1.7563690553
  - # 3
    frequency:    0.6085005935
  - # 4
    frequency:    2.6892027918
  - # 5
    frequency:    2.7731926952
  - # 6
    frequency:    4.8519573816
  - # 7
    frequency:    5.1569574734
  - # 8
    frequency:    6.1433489483
  - # 9
    frequency:    6.8277490947
  - # 10
    frequency:    6.8756659378
  - # 11
    frequency:    7.6149283471
  - # 12
    frequency:    7.7628071443
  - # 13
    frequency:    9.7937090209
  - # 14
    frequency:   11.7427742496
  - # 15
    frequency:   12.9291540933
  - # 16
    frequency:   13.5281314945
  - # 17
    frequency:   14.0131687474
  - # 18
    frequency:   14.0273442199
  - # 19
    frequency:   14.3149404598
  - # 20
    frequency:   31.8090940428
  - # 21
    frequency:   67.8857233457

- q-position: [    0.1060606,    0.0000000,    0.0000000 ]
  distance:    0.0368854
  band:
  - # 1
    frequency:   -1.8488693880
  - # 2
    frequency:   -1.7753709662
  - # 3
    frequency:    0.6650358103
  - # 4
    frequency:    2.7399436609
  - # 5
    frequency:    2.8385291031
  - # 6
    frequency:    4.8372048578
  - # 7
    frequency:    5.1528237709
  - # 8
    frequency:    6.1395898870
  - # 9
    frequency:    6.8252574012
  - # 10
    frequency:    6.8651175106
  - # 11
    frequency:    7.6175095241
  - # 12
    frequency:    7.7681768550
  - # 13
    frequency:    9.7580680539
  - # 14
    frequency:   11.6620968444
  - # 15
    frequency:   12.8830060909
  - # 16
    frequency:   13.5259627632
  - # 17
    frequency:   14.0124715286
  - # 18
    frequency:   14.0287182696
  - # 19
    frequency:   14.3175403057
  - # 20
    frequency:   31.7905291801
  - # 21
    frequency:   67.8761259864

- q-position: [    0.1111111,    0.0000000,    0.0000000 ]
  distance:    0.0386418
  band:
  - # 1
    frequency:   -1.8468505966
  - # 2
    frequency:   -1.7908659424
  - # 3
    frequency:    0.7231986225
  - # 4
    frequency:    2.7874168675
  - # 5
    frequency:    2.9025326103
  - # 6
    frequency:    4.8244968601
  - # 7
    frequency:    5.1473461364
  - # 8
    frequency:    6.1355012034
  - # 9
    frequency:    6.8223503155
  - # 10
    frequency:    6.8513259369
  - # 11
    frequency:    7.6227989915
  - # 12
    frequency:    7.7739170616
  - # 13
    frequency:    9.7211664507
  - # 14
    frequency:   11.5791857013
  - # 15
    frequency:   12.8363422457
  - # 16
    frequency:   13.5231157799
  - # 17
    frequency:   14.0116518884
  - # 18
    frequency:   14.0299753375
  - # 19
    frequency:   14.3199132204
  - # 20
    frequency:   31.7714325709
  - # 21
    frequency:   67.8662196450

- q-position: [    0.1161616,    0.0000000,    0.0000000 ]
  distance:    0.0403982
  band:
  - # 1
    frequency:   -1.8371212033
  - # 2
    frequency:   -1.8029279156
  - # 3
    frequency:    0.7828447555
  - # 4
    frequency:    2.8315828763
  - # 5
    frequency:    2.9651837018
  - # 6
    frequency:    4.8141159071
  - # 7
    frequency:    5.1403729818
  - # 8
    frequency:    6.1309441193
  - # 9
    frequency:    6.8189843248
  - # 10
    frequency:    6.8343615427
  - # 11
    frequency:    7.6308055858
  - # 12
    frequency:    7.7800354080
  - # 13
    frequency:    9.6830592566
  - # 14
    frequency:   11.4944935469
  - # 15
    frequency:   12.7892154577
  - # 16
    frequency:   13.5195084832
  - # 17
    frequency:   14.0107333370
  - # 18
    frequency:   14.0311008308
  - # 19
    frequency:   14.3220493433
  - # 20
    frequency:   31.7518510965
  - # 21
    frequency:   67.8560244956

- q-position: [    0.1212121,    0.0000000,    0.0000000 ]
  distance:    0.0421547
  band:
  - # 1
    frequency:   -1.8192334481
  - # 2
    frequency:   -1.8116075703
  - # 3
    frequency:    0.8438288166
  - # 4
    frequency:    2.8724345369
  - # 5
    frequency:    3.0264361537
  - # 6
    frequency:    4.8063106402
  - # 7
    frequency:    5.1317502492
  - # 8
    frequency:    6.1257476231
  - # 9
    frequency:    6.8144620242
  - # 10
    frequency:    6.8151150705
  - # 11
    frequency:    7.6414116035
  - # 12
    frequency:    7.7865378224
  - # 13
    frequency:    9.6438015442
  - # 14
    frequency:   11.4085081161
  - # 15
    frequency:   12.7416749543
  - # 16
    frequency:   13.5150572619
  - # 17
    frequency:   14.0097445669
  - # 18
    frequency:   14.0320760659
  - # 19
    frequency:   14.3239446897
  - # 20
    frequency:   31.7318324066
  - # 21
    frequency:   67.8455610958

- q-position: [    0.1262626,    0.0000000,    0.0000000 ]
  distance:    0.0439111
  band:
  - # 1
    frequency:   -1.8169334590
  - # 2
    frequency:   -1.7926533784
  - # 3
    frequency:    0.9060053439
  - # 4
    frequency:    2.9100066108
  - # 5
    frequency:    3.0862119559
  - # 6
    frequency:    4.8012855162
  - # 7
    frequency:    5.1213241783
  - # 8
    frequency:    6.1197093525
  - # 9
    frequency:    6.7920213405
  - # 10
    frequency:    6.8106980277
  - # 11
    frequency:    7.6543880214
  - # 12
    frequency:    7.7934281172
  - # 13
    frequency:    9.6034491630
  - # 14
    frequency:   11.3217479925
  - # 15
    frequency:   12.6937694597
  - # 16
    frequency:   13.5096780763
  - # 17
    frequency:   14.0087186857
  - # 18
    frequency:   14.0328766068
  - # 19
    frequency:   14.3256027076
  - # 20
    frequency:   31.7114247567
  - # 21
    frequency:   67.8348503231

- q-position: [    0.1313131,    0.0000000,    0.0000000 ]
  distance:    0.0456676
  band:
  - # 1
    frequency:   -1.8189129150
  - # 2
    frequency:   -1.7567386593
  - # 3
    frequency:    0.9692299875
  - # 4
    frequency:    2.9443843185
  - # 5
    frequency:    3.1443947565
  - # 6
    frequency:    4.7991914006
  - # 7
    frequency:    5.1089460143
  - # 8
    frequency:    6.1125997555
  - # 9
    frequency:    6.7675669630
  - # 10
    frequency:    6.8056893082
  - # 11
    frequency:    7.6694179831
  - # 12
    frequency:    7.8007075539
  - # 13
    frequency:    9.5620603149
  - # 14
    frequency:   11.2347578397
  - # 15
    frequency:   12.6455497274
  - # 16
    frequency:   13.5032877657
  - # 17
    frequency:   14.0076922021
  - # 18
    frequency:   14.0334709080
  - # 19
    frequency:   14.3270356650
  - # 20
    frequency:   31.6906768467
  - # 21
    frequency:   67.8239133124

- q-position: [    0.1363636,    0.0000000,    0.0000000 ]
  distance:    0.0474240
  band:
  - # 1
    frequency:   -1.8175328713
  - # 2
    frequency:   -1.7107046703
  - # 3
    frequency:    1.0333608970
  - # 4
    frequency:    2.9757099248
  - # 5
    frequency:    3.2008214510
  - # 6
    frequency:    4.8001180449
  - # 7
    frequency:    5.0944796311
  - # 8
    frequency:    6.1041712278
  - # 9
    frequency:    6.7417293768
  - # 10
    frequency:    6.8000465849
  - # 11
    frequency:    7.6861223483
  - # 12
    frequency:    7.8083743828
  - # 13
    frequency:    9.5196982775
  - # 14
    frequency:   11.1481027476
  - # 15
    frequency:   12.5970704363
  - # 16
    frequency:   13.4958055066
  - # 17
    frequency:   14.0067038008
  - # 18
    frequency:   14.0338193365
  - # 19
    frequency:   14.3282657664
  - # 20
    frequency:   31.6696376577
  - # 21
    frequency:   67.8127713917

- q-position: [    0.1414141,    0.0000000,    0.0000000 ]
  distance:    0.0491805
  band:
  - # 1
    frequency:   -1.8127606610
  - # 2
    frequency:   -1.6535719360
  - # 3
    frequency:    1.0982604388
  - # 4
    frequency:    3.0041864503
  - # 5
    frequency:    3.2552714703
  - # 6
    frequency:    4.8040893610
  - # 7
    frequency:    5.0778132995
  - # 8
    frequency:    6.0941741297
  - # 9
    frequency:    6.7152059155
  - # 10
    frequency:    6.7937301310
  - # 11
    frequency:    7.7040825234
  - # 12
    frequency:    7.8164233676
  - # 13
    frequency:    9.4764356341
  - # 14
    frequency:   11.0623613678
  - # 15
    frequency:   12.5483914953
  - # 16
    frequency:   13.4871543639
  - # 17
    frequency:   14.0057929658
  - # 18
    frequency:   14.0338736492
  - # 19
    frequency:   14.3293258966
  - # 20
    frequency:   31.6483562896
  - # 21
    frequency:   67.8014460191

- q-position: [    0.1464646,    0.0000000,    0.0000000 ]
  distance:    0.0509369
  band:
  - # 1
    frequency:   -1.8045448564
  - # 2
    frequency:   -1.5840821550
  - # 3
    frequency:    1.1637974417
  - # 4
    frequency:    3.0300778606
  - # 5
    frequency:    3.3074532868
  - # 6
    frequency:    4.8110621473
  - # 7
    frequency:    5.0588770326
  - # 8
    frequency:    6.0823810995
  - # 9
    frequency:    6.6887190710
  - # 10
    frequency:    6.7867039652
  - # 11
    frequency:    7.7228580439
  - # 12
    frequency:    7.8248453083
  - # 13
    frequency:    9.4323603472
  - # 14
    frequency:   10.9781175173
  - # 15
    frequency:   12.4995788270
  - # 16
    frequency:   13.4772628554
  - # 17
    frequency:   14.0049985303
  - # 18
    frequency:   14.0335770023
  - # 19
    frequency:   14.3302598863
  - # 20
    frequency:   31.6268817996
  - # 21
    frequency:   67.7899587198

- q-position: [    0.1515152,    0.0000000,    0.0000000 ]
  distance:    0.0526934
  band:
  - # 1
    frequency:   -1.7928161728
  - # 2
    frequency:   -1.5005579851
  - # 3
    frequency:    1.2298503013
  - # 4
    frequency:    3.0537054913
  - # 5
    frequency:    3.3569877353
  - # 6
    frequency:    4.8209285110
  - # 7
    frequency:    5.0376669544
  - # 8
    frequency:    6.0686193448
  - # 9
    frequency:    6.6629691249
  - # 10
    frequency:    6.7789370879
  - # 11
    frequency:    7.7419983629
  - # 12
    frequency:    7.8336265781
  - # 13
    frequency:    9.3875839168
  - # 14
    frequency:   10.8959500206
  - # 15
    frequency:   12.4507047153
  - # 16
    frequency:   13.4660664389
  - # 17
    frequency:   14.0043572483
  - # 18
    frequency:   14.0328645723
  - # 19
    frequency:   14.3311221928
  - # 20
    frequency:   31.6052630422
  - # 21
    frequency:   67.7783310239