nqpoint: 300    
npath: 3      
segment_nqpoint:
- 100
- 100
- 100
labels:
- [ 'G', 'M' ]
- [ 'M', 'K' ]
- [ 'K', 'G' ]
reciprocal_lattice:
- [   0.29980622,   0.17309320,   0.00000000 ] # a*
- [   0.00000000,   0.34618641,   0.00000000 ] # b*
- [   0.00000000,   0.00000000,   0.03596552 ] # c*
natom: 8      
lattice:
- [     3.335487781735559,     0.000000000000000,     0.000000000000000 ] # a
- [    -1.667743890867780,     2.888617152984438,     0.000000000000000 ] # b
- [     0.000000000000000,     0.000000000000000,    27.804408477404436 ] # c
points:
- symbol: C # 1
  coordinates: [  0.666666984744048,  0.333332985985144,  0.366412816732117 ]
  mass: 12.010700
- symbol: N # 2
  coordinates: [  0.000000000000000,  0.000000000000000,  0.505525468234419 ]
  mass: 14.006700
- symbol: N # 3
  coordinates: [  0.666666984744048,  0.333332985985144,  0.323689677027798 ]
  mass: 14.006700
- symbol: O # 4
  coordinates: [  0.333332985432215,  0.666666983183674,  0.676310322972202 ]
  mass: 15.999400
- symbol: O # 5
  coordinates: [  0.666666984744048,  0.333332985985144,  0.414532368378288 ]
  mass: 15.999400
- symbol: P # 6
  coordinates: [  0.333332985432215,  0.666666983183674,  0.622587984747512 ]
  mass: 30.973762
- symbol: Zr # 7
  coordinates: [  0.333332985432215,  0.666666983183674,  0.464701823446545 ]
  mass: 91.224000
- symbol: Zr # 8
  coordinates: [  0.666666984744048,  0.333332985985144,  0.551840751187808 ]
  mass: 91.224000

phonon:
- q-position: [    0.0000000,    0.0000000,    0.0000000 ]
  distance:    0.0000000
  band:
  - # 1
    frequency:   -1.6610889836
  - # 2
    frequency:   -1.6610889835
  - # 3
    frequency:   -0.9689473361
  - # 4
    frequency:   -0.9689473360
  - # 5
    frequency:   -0.0000183137
  - # 6
    frequency:    0.0000001645
  - # 7
    frequency:    0.0000149759
  - # 8
    frequency:    3.9558466605
  - # 9
    frequency:    3.9558466606
  - # 10
    frequency:    4.6019133605
  - # 11
    frequency:    4.6019133605
  - # 12
    frequency:    4.8692088742
  - # 13
    frequency:    6.5571255692
  - # 14
    frequency:    6.5571255692
  - # 15
    frequency:    8.1720904104
  - # 16
    frequency:    9.7758904397
  - # 17
    frequency:   12.2235038517
  - # 18
    frequency:   13.8142145483
  - # 19
    frequency:   13.8142145484
  - # 20
    frequency:   15.9294207891
  - # 21
    frequency:   15.9294207891
  - # 22
    frequency:   31.6932961566
  - # 23
    frequency:   34.0340105732
  - # 24
    frequency:   67.8456667689

- q-position: [    0.0050505,    0.0000000,    0.0000000 ]
  distance:    0.0017484
  band:
  - # 1
    frequency:   -1.6602031738
  - # 2
    frequency:   -1.6591939542
  - # 3
    frequency:   -0.9681093859
  - # 4
    frequency:   -0.9661843397
  - # 5
    frequency:    0.0019083620
  - # 6
    frequency:    0.0443881230
  - # 7
    frequency:    0.1063541280
  - # 8
    frequency:    3.9557990559
  - # 9
    frequency:    3.9562808325
  - # 10
    frequency:    4.6002174873
  - # 11
    frequency:    4.6020371854
  - # 12
    frequency:    4.8711278797
  - # 13
    frequency:    6.5570743803
  - # 14
    frequency:    6.5572912282
  - # 15
    frequency:    8.1720723390
  - # 16
    frequency:    9.7750969995
  - # 17
    frequency:   12.2235787872
  - # 18
    frequency:   13.8142210781
  - # 19
    frequency:   13.8143545441
  - # 20
    frequency:   15.9293865060
  - # 21
    frequency:   15.9294545984
  - # 22
    frequency:   31.6928379751
  - # 23
    frequency:   34.0338537500
  - # 24
    frequency:   67.8454313205

- q-position: [    0.0101010,    0.0000000,    0.0000000 ]
  distance:    0.0034968
  band:
  - # 1
    frequency:   -1.6575525303
  - # 2
    frequency:   -1.6535232134
  - # 3
    frequency:   -0.9655969648
  - # 4
    frequency:   -0.9578174832
  - # 5
    frequency:    0.0076519484
  - # 6
    frequency:    0.0889437659
  - # 7
    frequency:    0.2126376763
  - # 8
    frequency:    3.9556565852
  - # 9
    frequency:    3.9575809009
  - # 10
    frequency:    4.5952707623
  - # 11
    frequency:    4.6024081004
  - # 12
    frequency:    4.8767440444
  - # 13
    frequency:    6.5569212971
  - # 14
    frequency:    6.5577894793
  - # 15
    frequency:    8.1720160037
  - # 16
    frequency:    9.7727181289
  - # 17
    frequency:   12.2238045642
  - # 18
    frequency:   13.8142407622
  - # 19
    frequency:   13.8147744250
  - # 20
    frequency:   15.9292839454
  - # 21
    frequency:   15.9295550691
  - # 22
    frequency:   31.6914645600
  - # 23
    frequency:   34.0333835289
  - # 24
    frequency:   67.8447254866

- q-position: [    0.0151515,    0.0000000,    0.0000000 ]
  distance:    0.0052452
  band:
  - # 1
    frequency:   -1.6531576806
  - # 2
    frequency:   -1.6441190827
  - # 3
    frequency:   -0.9614136121
  - # 4
    frequency:   -0.9436129938
  - # 5
    frequency:    0.0172892179
  - # 6
    frequency:    0.1338298660
  - # 7
    frequency:    0.3187897133
  - # 8
    frequency:    3.9554202774
  - # 9
    frequency:    3.9597395590
  - # 10
    frequency:    4.5874467750
  - # 11
    frequency:    4.6030244349
  - # 12
    frequency:    4.8856839500
  - # 13
    frequency:    6.5566677648
  - # 14
    frequency:    6.5586241045
  - # 15
    frequency:    8.1719150809
  - # 16
    frequency:    9.7687581763
  - # 17
    frequency:   12.2241840841
  - # 18
    frequency:   13.8142738839
  - # 19
    frequency:   13.8154738729
  - # 20
    frequency:   15.9291139734
  - # 21
    frequency:   15.9297193328
  - # 22
    frequency:   31.6891792955
  - # 23
    frequency:   34.0326006552
  - # 24
    frequency:   67.8435507985

- q-position: [    0.0202020,    0.0000000,    0.0000000 ]
  distance:    0.0069937
  band:
  - # 1
    frequency:   -1.6470539059
  - # 2
    frequency:   -1.6310496495
  - # 3
    frequency:   -0.9555626764
  - # 4
    frequency:   -0.9231791095
  - # 5
    frequency:    0.0309304929
  - # 6
    frequency:    0.1792001855
  - # 7
    frequency:    0.4247653153
  - # 8
    frequency:    3.9550918404
  - # 9
    frequency:    3.9627447472
  - # 10
    frequency:    4.5772398286
  - # 11
    frequency:    4.6038834292
  - # 12
    frequency:    4.8974537190
  - # 13
    frequency:    6.5563161745
  - # 14
    frequency:    6.5598012728
  - # 15
    frequency:    8.1717591607
  - # 16
    frequency:    9.7632243815
  - # 17
    frequency:   12.2247221461
  - # 18
    frequency:   13.8143209127
  - # 19
    frequency:   13.8164523581
  - # 20
    frequency:   15.9288780305
  - # 21
    frequency:   15.9299426189
  - # 22
    frequency:   31.6859878100
  - # 23
    frequency:   34.0315063691
  - # 24
    frequency:   67.8419098031

- q-position: [    0.0252525,    0.0000000,    0.0000000 ]
  distance:    0.0087421
  band:
  - # 1
    frequency:   -1.6392925028
  - # 2
    frequency:   -1.6144049488
  - # 3
    frequency:   -0.9480433128
  - # 4
    frequency:   -0.8959580280
  - # 5
    frequency:    0.0487611472
  - # 6
    frequency:    0.2251947727
  - # 7
    frequency:    0.5305368368
  - # 8
    frequency:    3.9546736526
  - # 9
    frequency:    3.9665798219
  - # 10
    frequency:    4.5651566664
  - # 11
    frequency:    4.6049812720
  - # 12
    frequency:    4.9115475005
  - # 13
    frequency:    6.5558698373
  - # 14
    frequency:    6.5613293430
  - # 15
    frequency:    8.1715339373
  - # 16
    frequency:    9.7561268651
  - # 17
    frequency:   12.2254253938
  - # 18
    frequency:   13.8143824996
  - # 19
    frequency:   13.8177091415
  - # 20
    frequency:   15.9285781288
  - # 21
    frequency:   15.9302182695
  - # 22
    frequency:   31.6818979581
  - # 23
    frequency:   34.0301024026
  - # 24
    frequency:   67.8398060543

- q-position: [    0.0303030,    0.0000000,    0.0000000 ]
  distance:    0.0104905
  band:
  - # 1
    frequency:   -1.6299426968
  - # 2
    frequency:   -1.5942914067
  - # 3
    frequency:   -0.9388445711
  - # 4
    frequency:   -0.8612069485
  - # 5
    frequency:    0.0710842815
  - # 6
    frequency:    0.2719356006
  - # 7
    frequency:    0.6360903494
  - # 8
    frequency:    3.9541687498
  - # 9
    frequency:    3.9712237739
  - # 10
    frequency:    4.5516504665
  - # 11
    frequency:    4.6063131515
  - # 12
    frequency:    4.9275137714
  - # 13
    frequency:    6.5553329482
  - # 14
    frequency:    6.5632185966
  - # 15
    frequency:    8.1712214695
  - # 16
    frequency:    9.7474786118
  - # 17
    frequency:   12.2263022410
  - # 18
    frequency:   13.8144594711
  - # 19
    frequency:   13.8192432760
  - # 20
    frequency:   15.9282168465
  - # 21
    frequency:   15.9305377614
  - # 22
    frequency:   31.6769197958
  - # 23
    frequency:   34.0283909753
  - # 24
    frequency:   67.8372441015

- q-position: [    0.0353535,    0.0000000,    0.0000000 ]
  distance:    0.0122389
  band:
  - # 1
    frequency:   -1.6190940913
  - # 2
    frequency:   -1.5708244986
  - # 3
    frequency:   -0.9279373640
  - # 4
    frequency:   -0.8179648152
  - # 5
    frequency:    0.0983990482
  - # 6
    frequency:    0.3195226279
  - # 7
    frequency:    0.7414189355
  - # 8
    frequency:    3.9535808096
  - # 9
    frequency:    3.9766514806
  - # 10
    frequency:    4.5370969570
  - # 11
    frequency:    4.6078733195
  - # 12
    frequency:    4.9449796047
  - # 13
    frequency:    6.5547105397
  - # 14
    frequency:    6.5654809081
  - # 15
    frequency:    8.1708005032
  - # 16
    frequency:    9.7372954500
  - # 17
    frequency:   12.2273627783
  - # 18
    frequency:   13.8145528215
  - # 19
    frequency:   13.8210536090
  - # 20
    frequency:   15.9277973214
  - # 21
    frequency:   15.9308907328
  - # 22
    frequency:   31.6710655478
  - # 23
    frequency:   34.0263747891
  - # 24
    frequency:   67.8342294744

- q-position: [    0.0404040,    0.0000000,    0.0000000 ]
  distance:    0.0139873
  band:
  - # 1
    frequency:   -1.6068595950
  - # 2
    frequency:   -1.5441197709
  - # 3
    frequency:   -0.9152641840
  - # 4
    frequency:   -0.7650090941
  - # 5
    frequency:    0.1315483333
  - # 6
    frequency:    0.3680306271
  - # 7
    frequency:    0.8465149479
  - # 8
    frequency:    3.9529141324
  - # 9
    frequency:    3.9828339689
  - # 10
    frequency:    4.5217961368
  - # 11
    frequency:    4.6096551682
  - # 12
    frequency:    4.9636494221
  - # 13
    frequency:    6.5540084271
  - # 14
    frequency:    6.5681293629
  - # 15
    frequency:    8.1702468501
  - # 16
    frequency:    9.7255960243
  - # 17
    frequency:   12.2286186617
  - # 18
    frequency:   13.8146637036
  - # 19
    frequency:   13.8231387854
  - # 20
    frequency:   15.9273232431
  - # 21
    frequency:   15.9312650182
  - # 22
    frequency:   31.6643495691
  - # 23
    frequency:   34.0240570217
  - # 24
    frequency:   67.8307686655

- q-position: [    0.0454545,    0.0000000,    0.0000000 ]
  distance:    0.0157357
  band:
  - # 1
    frequency:   -1.5933786942
  - # 2
    frequency:   -1.5142826480
  - # 3
    frequency:   -0.9007265775
  - # 4
    frequency:   -0.7008381160
  - # 5
    frequency:    0.1720044735
  - # 6
    frequency:    0.4175071733
  - # 7
    frequency:    0.9513629751
  - # 8
    frequency:    3.9521736204
  - # 9
    frequency:    3.9897386621
  - # 10
    frequency:    4.5059846755
  - # 11
    frequency:    4.6116513171
  - # 12
    frequency:    4.9832931641
  - # 13
    frequency:    6.5532331440
  - # 14
    frequency:    6.5711778337
  - # 15
    frequency:    8.1695338119
  - # 16
    frequency:    9.7124017629
  - # 17
    frequency:   12.2300829848
  - # 18
    frequency:   13.8147934175
  - # 19
    frequency:   13.8254972504
  - # 20
    frequency:   15.9267988432
  - # 21
    frequency:   15.9316466882
  - # 22
    frequency:   31.6567882991
  - # 23
    frequency:   34.0214413188
  - # 24
    frequency:   67.8268691084

- q-position: [    0.0505051,    0.0000000,    0.0000000 ]
  distance:    0.0174842
  band:
  - # 1
    frequency:   -1.5788208138
  - # 2
    frequency:   -1.4813977449
  - # 3
    frequency:   -0.8841705679
  - # 4
    frequency:   -0.6238357320
  - # 5
    frequency:    0.2224097867
  - # 6
    frequency:    0.4679721596
  - # 7
    frequency:    1.0559345693
  - # 8
    frequency:    3.9513647545
  - # 9
    frequency:    3.9973295778
  - # 10
    frequency:    4.4898504816
  - # 11
    frequency:    4.6138537101
  - # 12
    frequency:    5.0037324021
  - # 13
    frequency:    6.5523918697
  - # 14
    frequency:    6.5746405278
  - # 15
    frequency:    8.1686326414
  - # 16
    frequency:    9.6977368374
  - # 17
    frequency:   12.2317701362
  - # 18
    frequency:   13.8149433989
  - # 19
    frequency:   13.8281272525
  - # 20
    frequency:   15.9262288847
  - # 21
    frequency:   15.9320200972
  - # 22
    frequency:   31.6484002085
  - # 23
    frequency:   34.0185317854
  - # 24
    frequency:   67.8225391541

- q-position: [    0.0555556,    0.0000000,    0.0000000 ]
  distance:    0.0192326
  band:
  - # 1
    frequency:   -1.5633883399
  - # 2
    frequency:   -1.4455186196
  - # 3
    frequency:   -0.8653703561
  - # 4
    frequency:   -0.5331769974
  - # 5
    frequency:    0.2873727050
  - # 6
    frequency:    0.5194190616
  - # 7
    frequency:    1.1601851438
  - # 8
    frequency:    3.9504935691
  - # 9
    frequency:    4.0055674355
  - # 10
    frequency:    4.4735458684
  - # 11
    frequency:    4.6162537201
  - # 12
    frequency:    5.0248279818
  - # 13
    frequency:    6.5514923490
  - # 14
    frequency:    6.5785315162
  - # 15
    frequency:    8.1675130308
  - # 16
    frequency:    9.6816281153
  - # 17
    frequency:   12.2336956446
  - # 18
    frequency:   13.8151152050
  - # 19
    frequency:   13.8310268472
  - # 20
    frequency:   15.9256186488
  - # 21
    frequency:   15.9323679369
  - # 22
    frequency:   31.6392057412
  - # 23
    frequency:   34.0153329760
  - # 24
    frequency:   67.8177880437

- q-position: [    0.0606061,    0.0000000,    0.0000000 ]
  distance:    0.0209810
  band:
  - # 1
    frequency:   -1.5473186537
  - # 2
    frequency:   -1.4066589476
  - # 3
    frequency:   -0.8440105939
  - # 4
    frequency:   -0.4315654577
  - # 5
    frequency:    0.3731252397
  - # 6
    frequency:    0.5718179432
  - # 7
    frequency:    1.2640529690
  - # 8
    frequency:    3.9495666262
  - # 9
    frequency:    4.0144096207
  - # 10
    frequency:    4.4571983712
  - # 11
    frequency:    4.6188422605
  - # 12
    frequency:    5.0464701797
  - # 13
    frequency:    6.5505428057
  - # 14
    frequency:    6.5828642588
  - # 15
    frequency:    8.1661436161
  - # 16
    frequency:    9.6641051052
  - # 17
    frequency:   12.2358760130
  - # 18
    frequency:   13.8153105002
  - # 19
    frequency:   13.8341938996
  - # 20
    frequency:   15.9249739215
  - # 21
    frequency:   15.9326712977
  - # 22
    frequency:   31.6292272483
  - # 23
    frequency:   34.0118498835
  - # 24
    frequency:   67.8126258784

- q-position: [    0.0656566,    0.0000000,    0.0000000 ]
  distance:    0.0227294
  band:
  - # 1
    frequency:   -1.5308843013
  - # 2
    frequency:   -1.3647859210
  - # 3
    frequency:   -0.8196671161
  - # 4
    frequency:   -0.3268857131
  - # 5
    frequency:    0.4812855339
  - # 6
    frequency:    0.6251199195
  - # 7
    frequency:    1.3674599136
  - # 8
    frequency:    3.9485909879
  - # 9
    frequency:    4.0238099374
  - # 10
    frequency:    4.4409193741
  - # 11
    frequency:    4.6216099013
  - # 12
    frequency:    5.0685712646
  - # 13
    frequency:    6.5495518495
  - # 14
    frequency:    6.5876511357
  - # 15
    frequency:    8.1644924894
  - # 16
    frequency:    9.6451998928
  - # 17
    frequency:   12.2383285445
  - # 18
    frequency:   13.8155310397
  - # 19
    frequency:   13.8376260876
  - # 20
    frequency:   15.9243009773
  - # 21
    frequency:   15.9329097364
  - # 22
    frequency:   31.6184889170
  - # 23
    frequency:   34.0080879272
  - # 24
    frequency:   67.8070635873

- q-position: [    0.0707071,    0.0000000,    0.0000000 ]
  distance:    0.0244778
  band:
  - # 1
    frequency:   -1.5143902661
  - # 2
    frequency:   -1.3198163012
  - # 3
    frequency:   -0.7917849057
  - # 4
    frequency:   -0.2190557786
  - # 5
    frequency:    0.6017988413
  - # 6
    frequency:    0.6792625547
  - # 7
    frequency:    1.4703134324
  - # 8
    frequency:    3.9475741891
  - # 9
    frequency:    4.0337180523
  - # 10
    frequency:    4.4248110675
  - # 11
    frequency:    4.6245469884
  - # 12
    frequency:    5.0910600258
  - # 13
    frequency:    6.5485283783
  - # 14
    frequency:    6.5929029969
  - # 15
    frequency:    8.1625277090
  - # 16
    frequency:    9.6249470677
  - # 17
    frequency:   12.2410711628
  - # 18
    frequency:   13.8157786533
  - # 19
    frequency:   13.8413209050
  - # 20
    frequency:   15.9236065621
  - # 21
    frequency:   15.9330613515
  - # 22
    frequency:   31.6070166931
  - # 23
    frequency:   34.0040529403
  - # 24
    frequency:   67.8011128921

- q-position: [    0.0757576,    0.0000000,    0.0000000 ]
  distance:    0.0262262
  band:
  - # 1
    frequency:   -1.4981673634
  - # 2
    frequency:   -1.2716150596
  - # 3
    frequency:   -0.7596496463
  - # 4
    frequency:   -0.0281376904
  - # 5
    frequency:    0.7227645281
  - # 6
    frequency:    0.7341755354
  - # 7
    frequency:    1.5725092804
  - # 8
    frequency:    3.9465242092
  - # 9
    frequency:    4.0440784978
  - # 10
    frequency:    4.4089723275
  - # 11
    frequency:    4.6276437638
  - # 12
    frequency:    5.1138777983
  - # 13
    frequency:    6.5474814767
  - # 14
    frequency:    6.5986287388
  - # 15
    frequency:    8.1602177986
  - # 16
    frequency:    9.6033836416
  - # 17
    frequency:   12.2441222277
  - # 18
    frequency:   13.8160552272
  - # 19
    frequency:   13.8452756632
  - # 20
    frequency:   15.9228978742
  - # 21
    frequency:   15.9331028650
  - # 22
    frequency:   31.5948381980
  - # 23
    frequency:   33.9997511554
  - # 24
    frequency:   67.7947862700

- q-position: [    0.0808081,    0.0000000,    0.0000000 ]
  distance:    0.0279747
  band:
  - # 1
    frequency:   -1.4825611864
  - # 2
    frequency:   -1.2199959892
  - # 3
    frequency:   -0.7223442362
  - # 4
    frequency:    0.2082271730
  - # 5
    frequency:    0.7897859673
  - # 6
    frequency:    0.8391327990
  - # 7
    frequency:    1.6739344760
  - # 8
    frequency:    3.9454494447
  - # 9
    frequency:    4.0548290394
  - # 10
    frequency:    4.3935040986
  - # 11
    frequency:    4.6308904868
  - # 12
    frequency:    5.1369755911
  - # 13
    frequency:    6.5464203117
  - # 14
    frequency:    6.6048349189
  - # 15
    frequency:    8.1575322290
  - # 16
    frequency:    9.5805489553
  - # 17
    frequency:   12.2475003502
  - # 18
    frequency:   13.8163626861
  - # 19
    frequency:   13.8494874937
  - # 20
    frequency:   15.9221825438
  - # 21
    frequency:   15.9330097127
  - # 22
    frequency:   31.5819826404
  - # 23
    frequency:   33.9951891903
  - # 24
    frequency:   67.7880969134

- q-position: [    0.0858586,    0.0000000,    0.0000000 ]
  distance:    0.0297231
  band:
  - # 1
    frequency:   -1.4679168851
  - # 2
    frequency:   -1.1647229888
  - # 3
    frequency:   -0.6786711225
  - # 4
    frequency:    0.2995710461
  - # 5
    frequency:    0.8460227657
  - # 6
    frequency:    0.9500868227
  - # 7
    frequency:    1.7744701338
  - # 8
    frequency:    3.9443586810
  - # 9
    frequency:    4.0658981273
  - # 10
    frequency:    4.3785148602
  - # 11
    frequency:    4.6342775513
  - # 12
    frequency:    5.1603120158
  - # 13
    frequency:    6.5453540269
  - # 14
    frequency:    6.6115254128
  - # 15
    frequency:    8.1544418743
  - # 16
    frequency:    9.5564845775
  - # 17
    frequency:   12.2512242074
  - # 18
    frequency:   13.8167029741
  - # 19
    frequency:   13.8539533495
  - # 20
    frequency:   15.9214686105
  - # 21
    frequency:   15.9327561406
  - # 22
    frequency:   31.5684807231
  - # 23
    frequency:   33.9903740318
  - # 24
    frequency:   67.7810586887

- q-position: [    0.0909091,    0.0000000,    0.0000000 ]
  distance:    0.0314715
  band:
  - # 1
    frequency:   -1.4545612434
  - # 2
    frequency:   -1.1055095837
  - # 3
    frequency:   -0.6269970630
  - # 4
    frequency:    0.3763159778
  - # 5
    frequency:    0.9028198170
  - # 6
    frequency:    1.0560783972
  - # 7
    frequency:    1.8739939024
  - # 8
    frequency:    3.9432610659
  - # 9
    frequency:    4.0772010275
  - # 10
    frequency:    4.3641268084
  - # 11
    frequency:    4.6377956014
  - # 12
    frequency:    5.1838517867
  - # 13
    frequency:    6.5442916371
  - # 14
    frequency:    6.6187011207
  - # 15
    frequency:    8.1509194385
  - # 16
    frequency:    9.5312341913
  - # 17
    frequency:   12.2553123604
  - # 18
    frequency:   13.8170780359
  - # 19
    frequency:   13.8586700058
  - # 20
    frequency:   15.9207644991
  - # 21
    frequency:   15.9323153086
  - # 22
    frequency:   31.5543645443
  - # 23
    frequency:   33.9853130199
  - # 24
    frequency:   67.7736860923

- q-position: [    0.0959596,    0.0000000,    0.0000000 ]
  distance:    0.0332199
  band:
  - # 1
    frequency:   -1.4427846542
  - # 2
    frequency:   -1.0420118673
  - # 3
    frequency:   -0.5649120133
  - # 4
    frequency:    0.4486908227
  - # 5
    frequency:    0.9601177991
  - # 6
    frequency:    1.1577635836
  - # 7
    frequency:    1.9723818565
  - # 8
    frequency:    3.9421660828
  - # 9
    frequency:    4.0886340770
  - # 10
    frequency:    4.3504834765
  - # 11
    frequency:    4.6414356405
  - # 12
    frequency:    5.2075646324
  - # 13
    frequency:    6.5432419232
  - # 14
    frequency:    6.6263597283
  - # 15
    frequency:    8.1469398455
  - # 16
    frequency:    9.5048434725
  - # 17
    frequency:   12.2597830770
  - # 18
    frequency:   13.8174897968
  - # 19
    frequency:   13.8636340610
  - # 20
    frequency:   15.9200789947
  - # 21
    frequency:   15.9316594018
  - # 22
    frequency:   31.5396674951
  - # 23
    frequency:   33.9800138301
  - # 24
    frequency:   67.7659942055

- q-position: [    0.1010101,    0.0000000,    0.0000000 ]
  distance:    0.0349683
  band:
  - # 1
    frequency:   -1.4328261348
  - # 2
    frequency:   -0.9738049945
  - # 3
    frequency:   -0.4883794339
  - # 4
    frequency:    0.5204403419
  - # 5
    frequency:    1.0178647326
  - # 6
    frequency:    1.2557299390
  - # 7
    frequency:    2.0695097853
  - # 8
    frequency:    3.9410835254
  - # 9
    frequency:    4.1000663799
  - # 10
    frequency:    4.3377596056
  - # 11
    frequency:    4.6451891342
  - # 12
    frequency:    5.2314244968
  - # 13
    frequency:    6.5422133305
  - # 14
    frequency:    6.6344955223
  - # 15
    frequency:    8.1424805921
  - # 16
    frequency:    9.4773599573
  - # 17
    frequency:   12.2646541599
  - # 18
    frequency:   13.8179401438
  - # 19
    frequency:   13.8688419358
  - # 20
    frequency:   15.9194212145
  - # 21
    frequency:   15.9307597485
  - # 22
    frequency:   31.5244241526
  - # 23
    frequency:   33.9744844556
  - # 24
    frequency:   67.7579986473

- q-position: [    0.1060606,    0.0000000,    0.0000000 ]
  distance:    0.0367167
  band:
  - # 1
    frequency:   -1.4248640699
  - # 2
    frequency:   -0.9003231128
  - # 3
    frequency:   -0.3890916553
  - # 4
    frequency:    0.5933356856
  - # 5
    frequency:    1.0760154615
  - # 6
    frequency:    1.3504519583
  - # 7
    frequency:    2.1652538883
  - # 8
    frequency:    3.9400234731
  - # 9
    frequency:    4.1113283615
  - # 10
    frequency:    4.3261739432
  - # 11
    frequency:    4.6490481046
  - # 12
    frequency:    5.2554089460
  - # 13
    frequency:    6.5412138706
  - # 14
    frequency:    6.6430992634
  - # 15
    frequency:    8.1375220573
  - # 16
    frequency:    9.4488329001
  - # 17
    frequency:   12.2699427832
  - # 18
    frequency:   13.8184309056
  - # 19
    frequency:   13.8742898734
  - # 20
    frequency:   15.9188005791
  - # 21
    frequency:   15.9295869441
  - # 22
    frequency:   31.5086701697
  - # 23
    frequency:   33.9687331891
  - # 24
    frequency:   67.7497155261

- q-position: [    0.1111111,    0.0000000,    0.0000000 ]
  distance:    0.0384652
  band:
  - # 1
    frequency:   -1.4190139901
  - # 2
    frequency:   -0.8207224876
  - # 3
    frequency:   -0.2409017665
  - # 4
    frequency:    0.6682768597
  - # 5
    frequency:    1.1345303331
  - # 6
    frequency:    1.4423027039
  - # 7
    frequency:    2.2594909325
  - # 8
    frequency:    3.9389962677
  - # 9
    frequency:    4.1221975026
  - # 10
    frequency:    4.3160047237
  - # 11
    frequency:    4.6530052158
  - # 12
    frequency:    5.2794987193
  - # 13
    frequency:    6.5402510290
  - # 14
    frequency:    6.6521581159
  - # 15
    frequency:    8.1320477695
  - # 16
    frequency:    9.4193131236
  - # 17
    frequency:   12.2756653373
  - # 18
    frequency:   13.8189638342
  - # 19
    frequency:   13.8799739375
  - # 20
    frequency:   15.9182267817
  - # 21
    frequency:   15.9281109829
  - # 22
    frequency:   31.4924421605
  - # 23
    frequency:   33.9627686034
  - # 24
    frequency:   67.7411613906

- q-position: [    0.1161616,    0.0000000,    0.0000000 ]
  distance:    0.0402136
  band:
  - # 1
    frequency:   -1.4153329504
  - # 2
    frequency:   -0.7335849964
  - # 3
    frequency:    0.2028234275
  - # 4
    frequency:    0.7456473534
  - # 5
    frequency:    1.1933733789
  - # 6
    frequency:    1.5315748027
  - # 7
    frequency:    2.3520979423
  - # 8
    frequency:    3.9380124908
  - # 9
    frequency:    4.1323846307
  - # 10
    frequency:    4.3076045140
  - # 11
    frequency:    4.6570538480
  - # 12
    frequency:    5.3036773790
  - # 13
    frequency:    6.5393316792
  - # 14
    frequency:    6.6616556311
  - # 15
    frequency:    8.1260446278
  - # 16
    frequency:    9.3888528594
  - # 17
    frequency:   12.2818372844
  - # 18
    frequency:   13.8195405850
  - # 19
    frequency:   13.8858900110
  - # 20
    frequency:   15.9177097557
  - # 21
    frequency:   15.9263013942
  - # 22
    frequency:   31.4757775836
  - # 23
    frequency:   33.9565995318
  - # 24
    frequency:   67.7323531789

- q-position: [    0.1212121,    0.0000000,    0.0000000 ]
  distance:    0.0419620
  band:
  - # 1
    frequency:   -1.4138286796
  - # 2
    frequency:   -0.6362638266
  - # 3
    frequency:    0.3815532720
  - # 4
    frequency:    0.8254476270
  - # 5
    frequency:    1.2525102923
  - # 6
    frequency:    1.6184992589
  - # 7
    frequency:    2.4429515000
  - # 8
    frequency:    3.9370829428
  - # 9
    frequency:    4.1415314774
  - # 10
    frequency:    4.3014037599
  - # 11
    frequency:    4.6611881597
  - # 12
    frequency:    5.3279310290
  - # 13
    frequency:    6.5384620045
  - # 14
    frequency:    6.6715717842
  - # 15
    frequency:    8.1195030789
  - # 16
    frequency:    9.3575055825
  - # 17
    frequency:   12.2884730237
  - # 18
    frequency:   13.8201626997
  - # 19
    frequency:   13.8920337937
  - # 20
    frequency:   15.9172596404
  - # 21
    frequency:   15.9241273857
  - # 22
    frequency:   31.4587146229
  - # 23
    frequency:   33.9502350480
  - # 24
    frequency:   67.7233081676

- q-position: [    0.1262626,    0.0000000,    0.0000000 ]
  distance:    0.0437104
  band:
  - # 1
    frequency:   -1.4144710933
  - # 2
    frequency:   -0.5232318918
  - # 3
    frequency:    0.5046699437
  - # 4
    frequency:    0.9073769800
  - # 5
    frequency:    1.3119064756
  - # 6
    frequency:    1.7032601289
  - # 7
    frequency:    2.5319267313
  - # 8
    frequency:    3.9362186231
  - # 9
    frequency:    4.1492418137
  - # 10
    frequency:    4.2978807531
  - # 11
    frequency:    4.6654031382
  - # 12
    frequency:    5.3522480764
  - # 13
    frequency:    6.5376474300
  - # 14
    frequency:    6.6818830579
  - # 15
    frequency:    8.1124172479
  - # 16
    frequency:    9.3253258393
  - # 17
    frequency:   12.2955857676
  - # 18
    frequency:   13.8208315876
  - # 19
    frequency:   13.8984007998
  - # 20
    frequency:   15.9168867454
  - # 21
    frequency:   15.9215579916
  - # 22
    frequency:   31.4412920651
  - # 23
    frequency:   33.9436844460
  - # 24
    frequency:   67.7140439198

- q-position: [    0.1313131,    0.0000000,    0.0000000 ]
  distance:    0.0454588
  band:
  - # 1
    frequency:   -1.4172039707
  - # 2
    frequency:   -0.3802549702
  - # 3
    frequency:    0.6064796595
  - # 4
    frequency:    0.9909278867
  - # 5
    frequency:    1.3715253827
  - # 6
    frequency:    1.7860055045
  - # 7
    frequency:    2.6188960498
  - # 8
    frequency:    3.9354307112
  - # 9
    frequency:    4.1551720666
  - # 10
    frequency:    4.2974721354
  - # 11
    frequency:    4.6696946353
  - # 12
    frequency:    5.3766190239
  - # 13
    frequency:    6.5368925638
  - # 14
    frequency:    6.6925625719
  - # 15
    frequency:    8.1047850250
  - # 16
    frequency:    9.2923690704
  - # 17
    frequency:   12.3031874301
  - # 18
    frequency:   13.8215485097
  - # 19
    frequency:   13.9049863546
  - # 20
    frequency:   15.9166015134
  - # 21
    frequency:   15.9185622248
  - # 22
    frequency:   31.4235491772
  - # 23
    frequency:   33.9369572187
  - # 24
    frequency:   67.7045782332

- q-position: [    0.1363636,    0.0000000,    0.0000000 ]
  distance:    0.0472072
  band:
  - # 1
    frequency:   -1.4219552707
  - # 2
    frequency:   -0.1283477891
  - # 3
    frequency:    0.6959250379
  - # 4
    frequency:    1.0754990888
  - # 5
    frequency:    1.4313273215
  - # 6
    frequency:    1.8668556609
  - # 7