nqpoint: 300    
npath: 3      
segment_nqpoint:
- 100
- 100
- 100
labels:
- [ 'G', 'M' ]
- [ 'M', 'K' ]
- [ 'K', 'G' ]
reciprocal_lattice:
- [   0.26847040,   0.15500146,   0.00000000 ] # a*
- [   0.00000000,   0.31000291,   0.00000000 ] # b*
- [   0.00000000,   0.00000000,   0.03633073 ] # c*
natom: 8      
lattice:
- [     3.724805475792038,     0.000000000000000,     0.000000000000000 ] # a
- [    -1.862402737896019,     3.225776166215963,     0.000000000000000 ] # b
- [     0.000000000000000,     0.000000000000000,    27.524910597988708 ] # c
points:
- symbol: C # 1
  coordinates: [  0.666666984744047,  0.333332985985145,  0.370213508852680 ]
  mass: 12.010700
- symbol: N # 2
  coordinates: [  0.000000000000000,  0.000000000000000,  0.534238225533252 ]
  mass: 14.006700
- symbol: N # 3
  coordinates: [  0.333332985432215,  0.666666983183674,  0.623657374869150 ]
  mass: 14.006700
- symbol: N # 4
  coordinates: [  0.666666984744047,  0.333332985985145,  0.326976538868673 ]
  mass: 14.006700
- symbol: O # 5
  coordinates: [  0.333332985432215,  0.666666983183674,  0.673023461131327 ]
  mass: 15.999400
- symbol: S # 6
  coordinates: [  0.666666984744047,  0.333332985985145,  0.430997250814502 ]
  mass: 32.065000
- symbol: Y # 7
  coordinates: [  0.333332985432215,  0.666666983183674,  0.495469809360875 ]
  mass: 88.905850
- symbol: Y # 8
  coordinates: [  0.666666984744047,  0.333332985985145,  0.597207392196554 ]
  mass: 88.905850

phonon:
- q-position: [    0.0000000,    0.0000000,    0.0000000 ]
  distance:    0.0000000
  band:
  - # 1
    frequency:   -6.2427298513
  - # 2
    frequency:   -6.2427298513
  - # 3
    frequency:   -0.7493848960
  - # 4
    frequency:   -0.7493848959
  - # 5
    frequency:   -0.0000233447
  - # 6
    frequency:    0.0000002879
  - # 7
    frequency:    0.0000236341
  - # 8
    frequency:    1.7638108006
  - # 9
    frequency:    1.7638108009
  - # 10
    frequency:    3.6401315132
  - # 11
    frequency:    4.6859435285
  - # 12
    frequency:    4.6859435285
  - # 13
    frequency:    4.7284249091
  - # 14
    frequency:    7.3535078810
  - # 15
    frequency:    8.9911572912
  - # 16
    frequency:    8.9911572913
  - # 17
    frequency:   10.6384745344
  - # 18
    frequency:   10.6384745345
  - # 19
    frequency:   12.6100068878
  - # 20
    frequency:   12.6100068879
  - # 21
    frequency:   12.7898734342
  - # 22
    frequency:   21.2480634601
  - # 23
    frequency:   35.8905234483
  - # 24
    frequency:   65.2746680548

- q-position: [    0.0050505,    0.0000000,    0.0000000 ]
  distance:    0.0015657
  band:
  - # 1
    frequency:   -6.2423860541
  - # 2
    frequency:   -6.2417044876
  - # 3
    frequency:   -0.7496256682
  - # 4
    frequency:   -0.7481761904
  - # 5
    frequency:    0.0013311689
  - # 6
    frequency:    0.0276535082
  - # 7
    frequency:    0.0699086597
  - # 8
    frequency:    1.7644542130
  - # 9
    frequency:    1.7658189988
  - # 10
    frequency:    3.6399153312
  - # 11
    frequency:    4.6827638079
  - # 12
    frequency:    4.6861523412
  - # 13
    frequency:    4.7313031039
  - # 14
    frequency:    7.3524721797
  - # 15
    frequency:    8.9910296846
  - # 16
    frequency:    8.9945744111
  - # 17
    frequency:   10.6384319617
  - # 18
    frequency:   10.6387150419
  - # 19
    frequency:   12.6042316195
  - # 20
    frequency:   12.6097192767
  - # 21
    frequency:   12.7954569893
  - # 22
    frequency:   21.2480107298
  - # 23
    frequency:   35.8897872850
  - # 24
    frequency:   65.2746035069

- q-position: [    0.0101010,    0.0000000,    0.0000000 ]
  distance:    0.0031313
  band:
  - # 1
    frequency:   -6.2413550134
  - # 2
    frequency:   -6.2386307809
  - # 3
    frequency:   -0.7503346141
  - # 4
    frequency:   -0.7445531901
  - # 5
    frequency:    0.0053064384
  - # 6
    frequency:    0.0551663608
  - # 7
    frequency:    0.1397452788
  - # 8
    frequency:    1.7663826594
  - # 9
    frequency:    1.7718219256
  - # 10
    frequency:    3.6392744760
  - # 11
    frequency:    4.6747339497
  - # 12
    frequency:    4.6867783670
  - # 13
    frequency:    4.7384396597
  - # 14
    frequency:    7.3493901655
  - # 15
    frequency:    8.9906469416
  - # 16
    frequency:    9.0047770797
  - # 17
    frequency:   10.6383045333
  - # 18
    frequency:   10.6394374412
  - # 19
    frequency:   12.5886292034
  - # 20
    frequency:   12.6088569839
  - # 21
    frequency:   12.8104868723
  - # 22
    frequency:   21.2478526243
  - # 23
    frequency:   35.8875800342
  - # 24
    frequency:   65.2744099593

- q-position: [    0.0151515,    0.0000000,    0.0000000 ]
  distance:    0.0046970
  band:
  - # 1
    frequency:   -6.2396377834
  - # 2
    frequency:   -6.2335158754
  - # 3
    frequency:   -0.7514726423
  - # 4
    frequency:   -0.7385237377
  - # 5
    frequency:    0.0118890375
  - # 6
    frequency:    0.0824049799
  - # 7
    frequency:    0.2094301926
  - # 8
    frequency:    1.7695907703
  - # 9
    frequency:    1.7817556956
  - # 10
    frequency:    3.6382319126
  - # 11
    frequency:    4.6638678141
  - # 12
    frequency:    4.6878203701
  - # 13
    frequency:    4.7478542895
  - # 14
    frequency:    7.3443347138
  - # 15
    frequency:    8.9900092942
  - # 16
    frequency:    9.0216220289
  - # 17
    frequency:   10.6380931159
  - # 18
    frequency:   10.6406443994
  - # 19
    frequency:   12.5664795111
  - # 20
    frequency:   12.6074216317
  - # 21
    frequency:   12.8316910604
  - # 22
    frequency:   21.2475893992
  - # 23
    frequency:   35.8839054102
  - # 24
    frequency:   65.2740877000

- q-position: [    0.0202020,    0.0000000,    0.0000000 ]
  distance:    0.0062627
  band:
  - # 1
    frequency:   -6.2372361269
  - # 2
    frequency:   -6.2263716464
  - # 3
    frequency:   -0.7529778227
  - # 4
    frequency:   -0.7300963128
  - # 5
    frequency:    0.0210187232
  - # 6
    frequency:    0.1092491798
  - # 7
    frequency:    0.2788698842
  - # 8
    frequency:    1.7740696034
  - # 9
    frequency:    1.7955174205
  - # 10
    frequency:    3.6368255665
  - # 11
    frequency:    4.6511006853
  - # 12
    frequency:    4.6892762960
  - # 13
    frequency:    4.7586668449
  - # 14
    frequency:    7.3374197594
  - # 15
    frequency:    8.9891171335
  - # 16
    frequency:    9.0448793375
  - # 17
    frequency:   10.6377991448
  - # 18
    frequency:   10.6423404793
  - # 19
    frequency:   12.5403542824
  - # 20
    frequency:   12.6054159268
  - # 21
    frequency:   12.8565109905
  - # 22
    frequency:   21.2472214800
  - # 23
    frequency:   35.8787695930
  - # 24
    frequency:   65.2736372084

- q-position: [    0.0252525,    0.0000000,    0.0000000 ]
  distance:    0.0078284
  band:
  - # 1
    frequency:   -6.2341525241
  - # 2
    frequency:   -6.2172146536
  - # 3
    frequency:   -0.7547696351
  - # 4
    frequency:   -0.7192744822
  - # 5
    frequency:    0.0326188744
  - # 6
    frequency:    0.1355970168
  - # 7
    frequency:    0.3479531114
  - # 8
    frequency:    1.7798066599
  - # 9
    frequency:    1.8129701615
  - # 10
    frequency:    3.6351078187
  - # 11
    frequency:    4.6367749447
  - # 12
    frequency:    4.6911432784
  - # 13
    frequency:    4.7706104706
  - # 14
    frequency:    7.3287904717
  - # 15
    frequency:    8.9879710162
  - # 16
    frequency:    9.0742441593
  - # 17
    frequency:   10.6374246103
  - # 18
    frequency:   10.6445323203
  - # 19
    frequency:   12.5117827755
  - # 20
    frequency:   12.6028436642
  - # 21
    frequency:   12.8834360560
  - # 22
    frequency:   21.2467494603
  - # 23
    frequency:   35.8721812131
  - # 24
    frequency:   65.2730591541

- q-position: [    0.0303030,    0.0000000,    0.0000000 ]
  distance:    0.0093940
  band:
  - # 1
    frequency:   -6.2303901843
  - # 2
    frequency:   -6.2060660763
  - # 3
    frequency:   -0.7567539298
  - # 4
    frequency:   -0.7060512800
  - # 5
    frequency:    0.0466035171
  - # 6
    frequency:    0.1613679018
  - # 7
    frequency:    0.4165495561
  - # 8
    frequency:    1.7867859137
  - # 9
    frequency:    1.8339490939
  - # 10
    frequency:    3.6331448318
  - # 11
    frequency:    4.6210317487
  - # 12
    frequency:    4.6934176502
  - # 13
    frequency:    4.7836383996
  - # 14
    frequency:    7.3186119628
  - # 15
    frequency:    8.9865716730
  - # 16
    frequency:    9.1093504823
  - # 17
    frequency:   10.6369720388
  - # 18
    frequency:   10.6472288957
  - # 19
    frequency:   12.4816208281
  - # 20
    frequency:   12.5997097330
  - # 21
    frequency:   12.9116347624
  - # 22
    frequency:   21.2461741003
  - # 23
    frequency:   35.8641513295
  - # 24
    frequency:   65.2723543953

- q-position: [    0.0353535,    0.0000000,    0.0000000 ]
  distance:    0.0109597
  band:
  - # 1
    frequency:   -6.2259530609
  - # 2
    frequency:   -6.1929516321
  - # 3
    frequency:   -0.7588279435
  - # 4
    frequency:   -0.6904047511
  - # 5
    frequency:    0.0628855891
  - # 6
    frequency:    0.1865039554
  - # 7
    frequency:    0.4845105302
  - # 8
    frequency:    1.7949878627
  - # 9
    frequency:    1.8582683025
  - # 10
    frequency:    3.6310157281
  - # 11
    frequency:    4.6039623384
  - # 12
    frequency:    4.6960949564
  - # 13
    frequency:    4.7977708574
  - # 14
    frequency:    7.3070581417
  - # 15
    frequency:    8.9849200199
  - # 16
    frequency:    9.1497851380
  - # 17
    frequency:   10.6364444688
  - # 18
    frequency:   10.6504418528
  - # 19
    frequency:   12.4503600093
  - # 20
    frequency:   12.5960201231
  - # 21
    frequency:   12.9406458678
  - # 22
    frequency:   21.2454963247
  - # 23
    frequency:   35.8546934025
  - # 24
    frequency:   65.2715239770

- q-position: [    0.0404040,    0.0000000,    0.0000000 ]
  distance:    0.0125254
  band:
  - # 1
    frequency:   -6.2208458700
  - # 2
    frequency:   -6.1779014793
  - # 3
    frequency:   -0.7608848533
  - # 4
    frequency:   -0.6722955073
  - # 5
    frequency:    0.0813861738
  - # 6
    frequency:    0.2109698440
  - # 7
    frequency:    0.5516709192
  - # 8
    frequency:    1.8043896071
  - # 9
    frequency:    1.8857276596
  - # 10
    frequency:    3.6288116286
  - # 11
    frequency:    4.5856616857
  - # 12
    frequency:    4.6991699701
  - # 13
    frequency:    4.8130394876
  - # 14
    frequency:    7.2943019654
  - # 15
    frequency:    8.9830171710
  - # 16
    frequency:    9.1951006178
  - # 17
    frequency:   10.6358454225
  - # 18
    frequency:   10.6541859405
  - # 19
    frequency:   12.4183002566
  - # 20
    frequency:   12.5917819334
  - # 21
    frequency:   12.9702061306
  - # 22
    frequency:   21.2447172197
  - # 23
    frequency:   35.8438232599
  - # 24
    frequency:   65.2705691285

- q-position: [    0.0454545,    0.0000000,    0.0000000 ]
  distance:    0.0140910
  band:
  - # 1
    frequency:   -6.2150741113
  - # 2
    frequency:   -6.1609501049
  - # 3
    frequency:   -0.7628175457
  - # 4
    frequency:   -0.6516668378
  - # 5
    frequency:    0.1020445843
  - # 6
    frequency:    0.2347514654
  - # 7
    frequency:    0.6178515658
  - # 8
    frequency:    1.8149649616
  - # 9
    frequency:    1.9161193378
  - # 10
    frequency:    3.6266345467
  - # 11
    frequency:    4.5662462168
  - # 12
    frequency:    4.7026367120
  - # 13
    frequency:    4.8294676748
  - # 14
    frequency:    7.2805078242
  - # 15
    frequency:    8.9808644522
  - # 16
    frequency:    9.2448257612
  - # 17
    frequency:   10.6351788722
  - # 18
    frequency:   10.6584795302
  - # 19
    frequency:   12.3856395726
  - # 20
    frequency:   12.5870033811
  - # 21
    frequency:   13.0001611053
  - # 22
    frequency:   21.2438380302
  - # 23
    frequency:   35.8315590575
  - # 24
    frequency:   65.2694912605

- q-position: [    0.0505051,    0.0000000,    0.0000000 ]
  distance:    0.0156567
  band:
  - # 1
    frequency:   -6.2086440916
  - # 2
    frequency:   -6.1421362002
  - # 3
    frequency:   -0.7645214751
  - # 4
    frequency:   -0.6284479234
  - # 5
    frequency:    0.1248292789
  - # 6
    frequency:    0.2578538825
  - # 7
    frequency:    0.6828615605
  - # 8
    frequency:    1.8266846064
  - # 9
    frequency:    1.9492336426
  - # 10
    frequency:    3.6245961026
  - # 11
    frequency:    4.5458577894
  - # 12
    frequency:    4.7064884714
  - # 13
    frequency:    4.8470647048
  - # 14
    frequency:    7.2658262985
  - # 15
    frequency:    8.9784634173
  - # 16
    frequency:    9.2984738923
  - # 17
    frequency:   10.6344492031
  - # 18
    frequency:   10.6633452319
  - # 19
    frequency:   12.3525213688
  - # 20
    frequency:   12.5816938111
  - # 21
    frequency:   13.0304184227
  - # 22
    frequency:   21.2428601557
  - # 23
    frequency:   35.8179212340
  - # 24
    frequency:   65.2682919621

- q-position: [    0.0555556,    0.0000000,    0.0000000 ]
  distance:    0.0172224
  band:
  - # 1
    frequency:   -6.2015629512
  - # 2
    frequency:   -6.1215025236
  - # 3
    frequency:   -0.7658966341
  - # 4
    frequency:   -0.6025611538
  - # 5
    frequency:    0.1497494781
  - # 6
    frequency:    0.2802988554
  - # 7
    frequency:    0.7465002450
  - # 8
    frequency:    1.8395162780
  - # 9
    frequency:    1.9848639788
  - # 10
    frequency:    3.6228159935
  - # 11
    frequency:    4.5246623948
  - # 12
    frequency:    4.7107178312
  - # 13
    frequency:    4.8658253997
  - # 14
    frequency:    7.2503911424
  - # 15
    frequency:    8.9758158636
  - # 16
    frequency:    9.3555483835
  - # 17
    frequency:   10.6336611722
  - # 18
    frequency:   10.6688106038
  - # 19
    frequency:   12.3190606418
  - # 20
    frequency:   12.5758637069
  - # 21
    frequency:   13.0609223964
  - # 22
    frequency:   21.2417851470
  - # 23
    frequency:   35.8029324603
  - # 24
    frequency:   65.2669729972

- q-position: [    0.0606061,    0.0000000,    0.0000000 ]
  distance:    0.0187881
  band:
  - # 1
    frequency:   -6.1938386916
  - # 2
    frequency:   -6.0990957540
  - # 3
    frequency:   -0.7668487542
  - # 4
    frequency:   -0.5739353956
  - # 5
    frequency:    0.1768667162
  - # 6
    frequency:    0.3021222442
  - # 7
    frequency:    0.8085590279
  - # 8
    frequency:    1.8534249999
  - # 9
    frequency:    2.0228108705
  - # 10
    frequency:    3.6214201251
  - # 11
    frequency:    4.5028471035
  - # 12
    frequency:    4.7153166948
  - # 13
    frequency:    4.8857318093
  - # 14
    frequency:    7.2343181265
  - # 15
    frequency:    8.9729238482
  - # 16
    frequency:    9.4155458791
  - # 17
    frequency:   10.6328198639
  - # 18
    frequency:   10.6749089385
  - # 19
    frequency:   12.2853593677
  - # 20
    frequency:   12.5695247003
  - # 21
    frequency:   13.0916396086
  - # 22
    frequency:   21.2406147013
  - # 23
    frequency:   35.7866175833
  - # 24
    frequency:   65.2655363002

- q-position: [    0.0656566,    0.0000000,    0.0000000 ]
  distance:    0.0203537
  band:
  - # 1
    frequency:   -6.1854802057
  - # 2
    frequency:   -6.0749663352
  - # 3
    frequency:   -0.7672898937
  - # 4
    frequency:   -0.5425280216
  - # 5
    frequency:    0.2063038059
  - # 6
    frequency:    0.3233714655
  - # 7
    frequency:    0.8688232969
  - # 8
    frequency:    1.8683733502
  - # 9
    frequency:    2.0628850273
  - # 10
    frequency:    3.6205382759
  - # 11
    frequency:    4.4806168026
  - # 12
    frequency:    4.7202763156
  - # 13
    frequency:    4.9067554939
  - # 14
    frequency:    7.2177052837
  - # 15
    frequency:    8.9697897045
  - # 16
    frequency:    9.4779575461
  - # 17
    frequency:   10.6319306427
  - # 18
    frequency:   10.6816800940
  - # 19
    frequency:   12.2515162659
  - # 20
    frequency:   12.5626895820
  - # 21
    frequency:   13.1225503669
  - # 22
    frequency:   21.2393506582
  - # 23
    frequency:   35.7690035643
  - # 24
    frequency:   65.2639839721

- q-position: [    0.0707071,    0.0000000,    0.0000000 ]
  distance:    0.0219194
  band:
  - # 1
    frequency:   -6.1764973089
  - # 2
    frequency:   -6.0491683134
  - # 3
    frequency:   -0.7671385758
  - # 4
    frequency:   -0.5083585351
  - # 5
    frequency:    0.2382450150
  - # 6
    frequency:    0.3441031167
  - # 7
    frequency:    0.9270747974
  - # 8
    frequency:    1.8843217596
  - # 9
    frequency:    2.1049094854
  - # 10
    frequency:    3.6203011446
  - # 11
    frequency:    4.4581914215
  - # 12
    frequency:    4.7255873291
  - # 13
    frequency:    4.9288597780
  - # 14
    frequency:    7.2006341103
  - # 15
    frequency:    8.9664160570
  - # 16
    frequency:    9.5422687615
  - # 17
    frequency:   10.6309991036
  - # 18
    frequency:   10.6891712924
  - # 19
    frequency:   12.2176335900
  - # 20
    frequency:   12.5553723115
  - # 21
    frequency:   13.1536434321
  - # 22
    frequency:   21.2379949940
  - # 23
    frequency:   35.7501194131
  - # 24
    frequency:   65.2623182752

- q-position: [    0.0757576,    0.0000000,    0.0000000 ]
  distance:    0.0234851
  band:
  - # 1
    frequency:   -6.1669007710
  - # 2
    frequency:   -6.0217591686
  - # 3
    frequency:   -0.7663196214
  - # 4
    frequency:   -0.4715530052
  - # 5
    frequency:    0.2729153251
  - # 6
    frequency:    0.3643808241
  - # 7
    frequency:    0.9830948569
  - # 8
    frequency:    1.9012288334
  - # 9
    frequency:    2.1487208649
  - # 10
    frequency:    3.6208366185
  - # 11
    frequency:    4.4358039489
  - # 12
    frequency:    4.7312397874
  - # 13
    frequency:    4.9520017351
  - # 14
    frequency:    7.1831713405
  - # 15
    frequency:    8.9628058359
  - # 16
    frequency:    9.6079576633
  - # 17
    frequency:   10.6300310207
  - # 18
    frequency:   10.6974377560
  - # 19
    frequency:   12.1838223876
  - # 20
    frequency:   12.5475880254
  - # 21
    frequency:   13.1849126423
  - # 22
    frequency:   21.2365498172
  - # 23
    frequency:   35.7299961163
  - # 24
    frequency:   65.2605416286

- q-position: [    0.0808081,    0.0000000,    0.0000000 ]
  distance:    0.0250507
  band:
  - # 1
    frequency:   -6.1567023489
  - # 2
    frequency:   -5.9927996414
  - # 3
    frequency:   -0.7647637954
  - # 4
    frequency:   -0.4323864598
  - # 5
    frequency:    0.3105215774
  - # 6
    frequency:    0.3842733379
  - # 7
    frequency:    1.0366687925
  - # 8
    frequency:    1.9190516879
  - # 9
    frequency:    2.1941697811
  - # 10
    frequency:    3.6222651099
  - # 11
    frequency:    4.4136993602
  - # 12
    frequency:    4.7372231957
  - # 13
    frequency:    4.9761338351
  - # 14
    frequency:    7.1653709959
  - # 15
    frequency:    8.9589622891
  - # 16
    frequency:    9.6744930120
  - # 17
    frequency:   10.6290322945
  - # 18
    frequency:   10.7065429453
  - # 19
    frequency:   12.1502070678
  - # 20
    frequency:   12.5393530453
  - # 21
    frequency:   13.2163546748
  - # 22
    frequency:   21.2350173625
  - # 23
    frequency:   35.7086665615
  - # 24
    frequency:   65.2586566025

- q-position: [    0.0858586,    0.0000000,    0.0000000 ]
  distance:    0.0266164
  band:
  - # 1
    frequency:   -6.1459148190
  - # 2
    frequency:   -5.9623535566
  - # 3
    frequency:   -0.7624073569
  - # 4
    frequency:   -0.3912876578
  - # 5
    frequency:    0.3511457026
  - # 6
    frequency:    0.4038528730
  - # 7
    frequency:    1.0875917543
  - # 8
    frequency:    1.9377462914
  - # 9
    frequency:    2.2411204439
  - # 10
    frequency:    3.6246938518
  - # 11
    frequency:    4.3921344814
  - # 12
    frequency:    4.7435265514
  - # 13
    frequency:    5.0012052615
  - # 14
    frequency:    7.1472764954
  - # 15
    frequency:    8.9548889925
  - # 16
    frequency:    9.7413318859
  - # 17
    frequency:   10.6280088987
  - # 18
    frequency:   10.7165580124
  - # 19
    frequency:   12.1169297962
  - # 20
    frequency:   12.5306848830
  - # 21
    frequency:   13.2479675168
  - # 22
    frequency:   21.2333999858
  - # 23
    frequency:   35.6861654576
  - # 24
    frequency:   65.2566659126

- q-position: [    0.0909091,    0.0000000,    0.0000000 ]
  distance:    0.0281821
  band:
  - # 1
    frequency:   -6.1345520091
  - # 2
    frequency:   -5.9304876439
  - # 3
    frequency:   -0.7591915790
  - # 4
    frequency:   -0.3487532346
  - # 5
    frequency:    0.3946168724
  - # 6
    frequency:    0.4231936854
  - # 7
    frequency:    1.1356761300
  - # 8
    frequency:    1.9572678026
  - # 9
    frequency:    2.2894494796
  - # 10
    frequency:    3.6282101214
  - # 11
    frequency:    4.3713787535
  - # 12
    frequency:    4.7501383842
  - # 13
    frequency:    5.0271629380
  - # 14
    frequency:    7.1289226877
  - # 15
    frequency:    8.9505898574
  - # 16
    frequency:    9.8079178947
  - # 17
    frequency:   10.6269668261
  - # 18
    frequency:   10.7275598596
  - # 19
    frequency:   12.0841550677
  - # 20
    frequency:   12.5216022443
  - # 21
    frequency:   13.2797493891
  - # 22
    frequency:   21.2317001577
  - # 23
    frequency:   35.6625292496
  - # 24
    frequency:   65.2545724138

- q-position: [    0.0959596,    0.0000000,    0.0000000 ]
  distance:    0.0297478
  band:
  - # 1
    frequency:   -6.1226288287
  - # 2
    frequency:   -5.8972713578
  - # 3
    frequency:   -0.7550622817
  - # 4
    frequency:   -0.3051465367
  - # 5
    frequency:    0.4404431045
  - # 6
    frequency:    0.4423708659
  - # 7
    frequency:    1.1807604709
  - # 8
    frequency:    1.9775708949
  - # 9
    frequency:    2.3390440291
  - # 10
    frequency:    3.6328735043
  - # 11
    frequency:    4.3517157947
  - # 12
    frequency:    4.7570467991
  - # 13
    frequency:    5.0539523096
  - # 14
    frequency:    7.1103377210
  - # 15
    frequency:    8.9460691352
  - # 16
    frequency:    9.8736808503
  - # 17
    frequency:   10.6259120362
  - # 18
    frequency:   10.7396268951
  - # 19
    frequency:   12.0520746981
  - # 20
    frequency:   12.5121250297
  - # 21
    frequency:   13.3116979655
  - # 22
    frequency:   21.2299204579
  - # 23
    frequency:   35.6377960314
  - # 24
    frequency:   65.2523790946

- q-position: [    0.1010101,    0.0000000,    0.0000000 ]
  distance:    0.0313134
  band:
  - # 1
    frequency:   -6.1101612985
  - # 2
    frequency:   -5.8627766958
  - # 3
    frequency:   -0.7499694070
  - # 4
    frequency:   -0.2604324284
  - # 5
    frequency:    0.4614593307
  - # 6
    frequency:    0.4878799404
  - # 7
    frequency:    1.2227196883
  - # 8
    frequency:    1.9986100624
  - # 9
    frequency:    2.3897992080
  - # 10
    frequency:    3.6387075158
  - # 11
    frequency:    4.3334455523
  - # 12
    frequency:    4.7642395201
  - # 13
    frequency:    5.0815179226
  - # 14
    frequency:    7.0915447119
  - # 15
    frequency:    8.9413314177
  - # 16
    frequency:    9.9380391870
  - # 17
    frequency:   10.6248504023
  - # 18
    frequency:   10.7528312301
  - # 19
    frequency:   12.0209133708
  - # 20
    frequency:   12.5022743323
  - # 21
    frequency:   13.3438097916
  - # 22
    frequency:   21.2280635694
  - # 23
    frequency:   35.6120054533
  - # 24
    frequency:   65.2500890698

- q-position: [    0.1060606,    0.0000000,    0.0000000 ]
  distance:    0.0328791
  band:
  - # 1
    frequency:   -6.0971665762
  - # 2
    frequency:   -5.8270780169
  - # 3
    frequency:   -0.7438666496
  - # 4
    frequency:   -0.2138984297
  - # 5
    frequency:    0.4805329869
  - # 6
    frequency:    0.5361107612
  - # 7
    frequency:    1.2614760282
  - # 8
    frequency:    2.0203398996
  - # 9
    frequency:    2.4416150571
  - # 10
    frequency:    3.6456911956
  - # 11
    frequency:    4.3168866583
  - # 12
    frequency:    4.7717039360
  - # 13
    frequency:    5.1098038417
  - # 14
    frequency:    7.0725632017
  - # 15
    frequency:    8.9363816350
  - # 16
    frequency:   10.0004067772
  - # 17
    frequency:   10.6237876610
  - # 18
    frequency:   10.7672257795
  - # 19
    frequency:   11.9909347462
  - # 20
    frequency:   12.4920724314
  - # 21
    frequency:   13.3760798381
  - # 22
    frequency:   21.2261322719
  - # 23
    frequency:   35.5851986278
  - # 24
    frequency:   65.2477055742

- q-position: [    0.1111111,    0.0000000,    0.0000000 ]
  distance:    0.0344448
  band:
  - # 1
    frequency:   -6.0836629798
  - # 2
    frequency:   -5.7902518597
  - # 3
    frequency:   -0.7367111488
  - # 4
    frequency:   -0.1636263724
  - # 5
    frequency:    0.4996640493
  - # 6
    frequency:    0.5844213547
  - # 7
    frequency:    1.2970100858
  - # 8
    frequency:    2.0427153518
  - # 9
    frequency:    2.4943931510
  - # 10
    frequency:    3.6537516774
  - # 11
    frequency:    4.3023783227
  - # 12
    frequency:    4.7794271468
  - # 13
    frequency:    5.1387539379
  - # 14
    frequency:    7.0534104082
  - # 15
    frequency:    8.9312250483
  - # 16
    frequency:   10.0602059449
  - # 17
    frequency:   10.6227293635
  - # 18
    frequency:   10.7828247576
  - # 19
    frequency:   11.9624479126
  - # 20
    frequency:   12.4815427831
  - # 21
    frequency:   13.4085011454
  - # 22
    frequency:   21.2241294360
  - # 23
    frequency:   35.5574180306
  - # 24
    frequency:   65.2452319557

- q-position: [    0.1161616,    0.0000000,    0.0000000 ]
  distance:    0.0360104
  band:
  - # 1
    frequency:   -6.0696700071
  - # 2
    frequency:   -5.7523767612
  - # 3
    frequency:   -0.7284632377
  - # 4
    frequency:   -0.1039325393
  - # 5
    frequency:    0.5189224810
  - # 6
    frequency:    0.6322842371
  - # 7
    frequency:    1.3293708886
  - # 8
    frequency:    2.0656919338
  - # 9
    frequency:    2.5480330535
  - # 10
    frequency:    3.6627592174
  - # 11
    frequency:    4.2902806999
  - # 12
    frequency:    4.7873960117
  - # 13
    frequency:    5.1683120704
  - # 14
    frequency:    7.0341022909
  - # 15
    frequency:    8.9258672388
  - # 16
    frequency:   10.1168880638
  - # 17
    frequency:   10.6216808290
  - # 18
    frequency:   10.7995768244
  - # 19
    frequency:   11.9358135767
  - # 20
    frequency:   12.4707100055
  - # 21
    frequency:   13.4410645311
  - # 22
    frequency:   21.2220580167
  - # 23
    frequency:   35.5287074008
  - # 24
    frequency:   65.2426716678

- q-position: [    0.1212121,    0.0000000,    0.0000000 ]
  distance:    0.0375761
  band:
  - # 1
    frequency:   -6.0552083504
  - # 2
    frequency:   -5.7135330757
  - # 3
    frequency:   -0.7190862365
  - # 4
    frequency:    0.0460584597
  - # 5
    frequency:    0.5383755308
  - # 6
    frequency:    0.6793576528
  - # 7
    frequency:    1.3586839021
  - # 8
    frequency:    2.0892259151
  - # 9
    frequency:    2.6024287972
  - # 10
    frequency:    3.6725266706
  - # 11
    frequency:    4.2809721850
  - # 12
    frequency:    4.7955971969
  - # 13
    frequency:    5.1984221830
  - # 14
    frequency:    7.0146544555
  - # 15
    frequency:    8.9203140931
  - # 16
    frequency:   10.1699616941
  - # 17
    frequency:   10.6206471012
  - # 18
    frequency:   10.8173321779
  - # 19
    frequency:   11.9114487765
  - # 20
    frequency:   12.4595998590
  - # 21
    frequency:   13.4737583399
  - # 22
    frequency:   21.2199210474
  - # 23
    frequency:   35.4991116372
  - # 24
    frequency:   65.2400282623

- q-position: [    0.1262626,    0.0000000,    0.0000000 ]
  distance:    0.0391418
  band:
  - # 1
    frequency:   -6.0402999060
  - # 2
    frequency:   -5.6738027948
  - # 3
    frequency:   -0.7085462704
  - # 4
    frequency:    0.1086245349
  - # 5
    frequency:    0.5580873352
  - # 6
    frequency:    0.7254447328
  - # 7
    frequency:    1.3851557170
  - # 8
    frequency:    2.1132744728
  - # 9
    frequency:    2.6574655126
  - # 10
    frequency:    3.6828157717
  - # 11
    frequency:    4.2748417005
  - # 12
    frequency:    4.8040172246
  - # 13
    frequency:    5.2290283291
  - # 14
    frequency:    6.9950829235
  - # 15
    frequency:    8.9145717836
  - # 16
    frequency:   10.2190255325
  - # 17
    frequency:   10.6196329084
  - # 18
    frequency:   10.8358084616
  - # 19
    frequency:   11.8898279833
  - # 20
    frequency:   12.4482392211
  - # 21
    frequency:   13.5065682225
  - # 22
    frequency:   21.2177216335
  - # 23
    frequency:   35.4686766933
  - # 24
    frequency:   65.2373053823

- q-position: [    0.1313131,    0.0000000,    0.0000000 ]
  distance:    0.0407075
  band:
  - # 1
    frequency:   -6.0249677775
  - # 2
    frequency:   -5.6332693667
  - # 3
    frequency:   -0.6968120808
  - # 4
    frequency:    0.1337443803
  - # 5
    frequency:    0.5781185523
  - # 6
    frequency:    0.7704480222
  - # 7
    frequency:    1.4090741913
  - # 8
    frequency:    2.1377958131
  - # 9
    frequency:    2.7130162424
  - # 10
    frequency:    3.6933524825
  - # 11
    frequency:    4.2722740414
  - # 12
    frequency:    4.8126425221
  - # 13
    frequency:    5.2600746352
  - # 14
    frequency:    6.9754047933
  - # 15
    frequency:    8.9086467449
  - # 16
    frequency:   10.2638000882
  - # 17
    frequency:   10.6186426265
  - # 18
    frequency:   10.8545648623
  - # 19
    frequency:   11.8714773137
  - # 20
    frequency:   12.4366560556
  - # 21
    frequency:   13.5394769344
  - # 22
    frequency:   21.2154629465
  - # 23
    frequency:   35.4374494705
  - # 24
    frequency:   65.2345067540

- q-position: [    0.1363636,    0.0000000,    0.0000000 ]
  distance:    0.0422731
  band:
  - # 1
    frequency:   -6.0092362726
  - # 2
    frequency:   -5.5920175164
  - # 3
    frequency:   -0.6838547881
  - # 4
    frequency:    0.1411542556
  - # 5
    frequency:    0.5985259945
  - # 6
    frequency:    0.8143337891
  - # 7