nqpoint: 300    
npath: 3      
segment_nqpoint:
- 100
- 100
- 100
labels:
- [ 'G', 'M' ]
- [ 'M', 'K' ]
- [ 'K', 'G' ]
reciprocal_lattice:
- [   0.31644594,   0.18270015,   0.00000000 ] # a*
- [   0.00000000,   0.36540030,   0.00000000 ] # b*
- [   0.00000000,   0.00000000,   0.04014649 ] # c*
natom: 7      
lattice:
- [     3.160097399602656,     0.000000000000000,     0.000000000000000 ] # a
- [    -1.580048699801328,     2.736724626488191,     0.000000000000000 ] # b
- [     0.000000000000000,     0.000000000000000,    24.908778737486063 ] # c
points:
- symbol: C # 1
  coordinates: [  0.000000000000000,  0.000000000000000,  0.494104651042563 ]
  mass: 12.010700
- symbol: H # 2
  coordinates: [  0.666666984744047,  0.333332985985145,  0.361318396813072 ]
  mass: 1.007940
- symbol: N # 3
  coordinates: [  0.333332985432215,  0.666666983183674,  0.585963630672149 ]
  mass: 14.006700
- symbol: O # 4
  coordinates: [  0.333332985432215,  0.666666983183674,  0.638681603186928 ]
  mass: 15.999400
- symbol: O # 5
  coordinates: [  0.666666984744047,  0.333332985985145,  0.400870154734635 ]
  mass: 15.999400
- symbol: Ti # 6
  coordinates: [  0.333332985432215,  0.666666983183674,  0.451692769037965 ]
  mass: 47.867000
- symbol: Ti # 7
  coordinates: [  0.666666984744047,  0.333332985985145,  0.547812893156128 ]
  mass: 47.867000

phonon:
- q-position: [    0.0000000,    0.0000000,    0.0000000 ]
  distance:    0.0000000
  band:
  - # 1
    frequency:   -4.6956591795
  - # 2
    frequency:   -4.6956591795
  - # 3
    frequency:   -0.0000075341
  - # 4
    frequency:   -0.0000000499
  - # 5
    frequency:    0.0000065892
  - # 6
    frequency:    4.8183051141
  - # 7
    frequency:    4.8183051142
  - # 8
    frequency:    7.2670911513
  - # 9
    frequency:    7.3434076903
  - # 10
    frequency:    7.3434076903
  - # 11
    frequency:   10.2745431182
  - # 12
    frequency:   10.2745431182
  - # 13
    frequency:   10.6653949731
  - # 14
    frequency:   11.8879316267
  - # 15
    frequency:   11.8879316268
  - # 16
    frequency:   13.9153694810
  - # 17
    frequency:   16.6652593922
  - # 18
    frequency:   16.6652593922
  - # 19
    frequency:   18.0674206311
  - # 20
    frequency:   41.3074469429
  - # 21
    frequency:  113.6804192189

- q-position: [    0.0050505,    0.0000000,    0.0000000 ]
  distance:    0.0018455
  band:
  - # 1
    frequency:   -4.6962620236
  - # 2
    frequency:   -4.6950223165
  - # 3
    frequency:    0.0025951602
  - # 4
    frequency:    0.0873883694
  - # 5
    frequency:    0.1440069655
  - # 6
    frequency:    4.8188542055
  - # 7
    frequency:    4.8198775451
  - # 8
    frequency:    7.2647884224
  - # 9
    frequency:    7.3435763161
  - # 10
    frequency:    7.3467827515
  - # 11
    frequency:   10.2685439516
  - # 12
    frequency:   10.2742976204
  - # 13
    frequency:   10.6702654317
  - # 14
    frequency:   11.8877043536
  - # 15
    frequency:   11.8882597624
  - # 16
    frequency:   13.9164880301
  - # 17
    frequency:   16.6648935011
  - # 18
    frequency:   16.6653770343
  - # 19
    frequency:   18.0674847329
  - # 20
    frequency:   41.3067152345
  - # 21
    frequency:  113.6797908149

- q-position: [    0.0101010,    0.0000000,    0.0000000 ]
  distance:    0.0036909
  band:
  - # 1
    frequency:   -4.6980707076
  - # 2
    frequency:   -4.6931168662
  - # 3
    frequency:    0.0103612742
  - # 4
    frequency:    0.1747859713
  - # 5
    frequency:    0.2880691491
  - # 6
    frequency:    4.8204999253
  - # 7
    frequency:    4.8245809859
  - # 8
    frequency:    7.2588428313
  - # 9
    frequency:    7.3440816051
  - # 10
    frequency:    7.3559434227
  - # 11
    frequency:   10.2514162374
  - # 12
    frequency:   10.2735640531
  - # 13
    frequency:   10.6840134457
  - # 14
    frequency:   11.8870265816
  - # 15
    frequency:   11.8892441909
  - # 16
    frequency:   13.9198413302
  - # 17
    frequency:   16.6637959016
  - # 18
    frequency:   16.6657329469
  - # 19
    frequency:   18.0676731578
  - # 20
    frequency:   41.3045211529
  - # 21
    frequency:  113.6779080496

- q-position: [    0.0151515,    0.0000000,    0.0000000 ]
  distance:    0.0055364
  band:
  - # 1
    frequency:   -4.7010856407
  - # 2
    frequency:   -4.6899580708
  - # 3
    frequency:    0.0232572030
  - # 4
    frequency:    0.2622013514
  - # 5
    frequency:    0.4322393428
  - # 6
    frequency:    4.8232376213
  - # 7
    frequency:    4.8323742334
  - # 8
    frequency:    7.2509783890
  - # 9
    frequency:    7.3449217969
  - # 10
    frequency:    7.3691599363
  - # 11
    frequency:   10.2252258057
  - # 12
    frequency:   10.2723511662
  - # 13
    frequency:   10.7045925657
  - # 14
    frequency:   11.8859103033
  - # 15
    frequency:   11.8908849786
  - # 16
    frequency:   13.9254223847
  - # 17
    frequency:   16.6619668194
  - # 18
    frequency:   16.6663359897
  - # 19
    frequency:   18.0679743572
  - # 20
    frequency:   41.3008678265
  - # 21
    frequency:  113.6747782535

- q-position: [    0.0202020,    0.0000000,    0.0000000 ]
  distance:    0.0073818
  band:
  - # 1
    frequency:   -4.7053073509
  - # 2
    frequency:   -4.6855707607
  - # 3
    frequency:    0.0412127116
  - # 4
    frequency:    0.3496416992
  - # 5
    frequency:    0.5765655220
  - # 6
    frequency:    4.8270595764
  - # 7
    frequency:    4.8431897738
  - # 8
    frequency:    7.2424282771
  - # 9
    frequency:    7.3460939726
  - # 10
    frequency:    7.3851894963
  - # 11
    frequency:   10.1922488257
  - # 12
    frequency:   10.2706734498
  - # 13
    frequency:   10.7297592869
  - # 14
    frequency:   11.8843750134
  - # 15
    frequency:   11.8931822417
  - # 16
    frequency:   13.9332196815
  - # 17
    frequency:   16.6594066470
  - # 18
    frequency:   16.6672006031
  - # 19
    frequency:   18.0683693914
  - # 20
    frequency:   41.2957604622
  - # 21
    frequency:  113.6704136140

- q-position: [    0.0252525,    0.0000000,    0.0000000 ]
  distance:    0.0092273
  band:
  - # 1
    frequency:   -4.7107362621
  - # 2
    frequency:   -4.6799885051
  - # 3
    frequency:    0.0641316586
  - # 4
    frequency:    0.4371122143
  - # 5
    frequency:    0.7210885266
  - # 6
    frequency:    4.8319550628
  - # 7
    frequency:    4.8569354491
  - # 8
    frequency:    7.2338597498
  - # 9
    frequency:    7.3475940776
  - # 10
    frequency:    7.4033513468
  - # 11
    frequency:   10.1543875737
  - # 12
    frequency:   10.2685509953
  - # 13
    frequency:   10.7576578102
  - # 14
    frequency:   11.8824469867
  - # 15
    frequency:   11.8961361544
  - # 16
    frequency:   13.9432174060
  - # 17
    frequency:   16.6561159689
  - # 18
    frequency:   16.6683463351
  - # 19
    frequency:   18.0688323777
  - # 20
    frequency:   41.2892063340
  - # 21
    frequency:  113.6648311290

- q-position: [    0.0303030,    0.0000000,    0.0000000 ]
  distance:    0.0110727
  band:
  - # 1
    frequency:   -4.7173723912
  - # 2
    frequency:   -4.6732524474
  - # 3
    frequency:    0.0918940474
  - # 4
    frequency:    0.5246155252
  - # 5
    frequency:    0.8658398502
  - # 6
    frequency:    4.8379104178
  - # 7
    frequency:    4.8734966622
  - # 8
    frequency:    7.2256119425
  - # 9
    frequency:    7.3494169529
  - # 10
    frequency:    7.4232889239
  - # 11
    frequency:   10.1130573444
  - # 12
    frequency:   10.2660093042
  - # 13
    frequency:   10.7869338497
  - # 14
    frequency:   11.8801583023
  - # 15
    frequency:   11.8997469574
  - # 16
    frequency:   13.9553957244
  - # 17
    frequency:   16.6520955946
  - # 18
    frequency:   16.6697972098
  - # 19
    frequency:   18.0693310934
  - # 20
    frequency:   41.2812147680
  - # 21
    frequency:  113.6580525431

- q-position: [    0.0353535,    0.0000000,    0.0000000 ]
  distance:    0.0129182
  band:
  - # 1
    frequency:   -4.7252149803
  - # 2
    frequency:   -4.6654098505
  - # 3
    frequency:    0.1243584604
  - # 4
    frequency:    0.6121511720
  - # 5
    frequency:    1.0108395731
  - # 6
    frequency:    4.8449091397
  - # 7
    frequency:    4.8927390039
  - # 8
    frequency:    7.2178584183
  - # 9
    frequency:    7.3515563748
  - # 10
    frequency:    7.4448072606
  - # 11
    frequency:   10.0692770332
  - # 12
    frequency:   10.2630790460
  - # 13
    frequency:   10.8166449262
  - # 14
    frequency:   11.8775456473
  - # 15
    frequency:   11.9040149689
  - # 16
    frequency:   13.9697311200
  - # 17
    frequency:   16.6473466022
  - # 18
    frequency:   16.6715809633
  - # 19
    frequency:   18.0698277092
  - # 20
    frequency:   41.2717971221
  - # 21
    frequency:  113.6501042664

- q-position: [    0.0404040,    0.0000000,    0.0000000 ]
  distance:    0.0147636
  band:
  - # 1
    frequency:   -4.7342620751
  - # 2
    frequency:   -4.6565123869
  - # 3
    frequency:    0.1613647643
  - # 4
    frequency:    0.6997151686
  - # 5
    frequency:    1.1560944731
  - # 6
    frequency:    4.8529320031
  - # 7
    frequency:    4.9145111810
  - # 8
    frequency:    7.2106898144
  - # 9
    frequency:    7.3540051026
  - # 10
    frequency:    7.4677902865
  - # 11
    frequency:   10.0237892646
  - # 12
    frequency:   10.2597957699
  - # 13
    frequency:   10.8461412393
  - # 14
    frequency:   11.8746489441
  - # 15
    frequency:   11.9089405924
  - # 16
    frequency:   13.9861967679
  - # 17
    frequency:   16.6418703890
  - # 18
    frequency:   16.6737281810
  - # 19
    frequency:   18.0702796286
  - # 20
    frequency:   41.2609667627
  - # 21
    frequency:  113.6410172741

- q-position: [    0.0454545,    0.0000000,    0.0000000 ]
  distance:    0.0166091
  band:
  - # 1
    frequency:   -4.7445100652
  - # 2
    frequency:   -4.6466142184
  - # 3
    frequency:    0.2027369663
  - # 4
    frequency:    0.7872996496
  - # 5
    frequency:    1.3015963470
  - # 6
    frequency:    4.8619571933
  - # 7
    frequency:    4.9386481178
  - # 8
    frequency:    7.2041543643
  - # 9
    frequency:    7.3567549334
  - # 10
    frequency:    7.4921602497
  - # 11
    frequency:    9.9771550889
  - # 12
    frequency:   10.2561995719
  - # 13
    frequency:   10.8749720463
  - # 14
    frequency:   11.8715098486
  - # 15
    frequency:   11.9145243230
  - # 16
    frequency:   14.0047629322
  - # 17
    frequency:   16.6356687303
  - # 18
    frequency:   16.6762713702
  - # 19
    frequency:   18.0706404015
  - # 20
    frequency:   41.2487390360
  - # 21
    frequency:  113.6308269906

- q-position: [    0.0505051,    0.0000000,    0.0000000 ]
  distance:    0.0184546
  band:
  - # 1
    frequency:   -4.7559532035
  - # 2
    frequency:   -4.6357699202
  - # 3
    frequency:    0.2482861130
  - # 4
    frequency:    0.8748926109
  - # 5
    frequency:    1.4473205665
  - # 6
    frequency:    4.8719604582
  - # 7
    frequency:    4.9649741201
  - # 8
    frequency:    7.1982783194
  - # 9
    frequency:    7.3597967642
  - # 10
    frequency:    7.5178572449
  - # 11
    frequency:    9.9298185596
  - # 12
    frequency:   10.2523347229
  - # 13
    frequency:   10.9028221806
  - # 14
    frequency:   11.8681701785
  - # 15
    frequency:   11.9207667489
  - # 16
    frequency:   14.0253973702
  - # 17
    frequency:   16.6287438451
  - # 18
    frequency:   16.6792440039
  - # 19
    frequency:   18.0708606855
  - # 20
    frequency:   41.2351312363
  - # 21
    frequency:  113.6195731549

- q-position: [    0.0555556,    0.0000000,    0.0000000 ]
  distance:    0.0203000
  band:
  - # 1
    frequency:   -4.7685831213
  - # 2
    frequency:   -4.6240323122
  - # 3
    frequency:    0.2978131349
  - # 4
    frequency:    0.9624777440
  - # 5
    frequency:    1.5932248883
  - # 6
    frequency:    4.8829152753
  - # 7
    frequency:    4.9933060016
  - # 8
    frequency:    7.1930766318
  - # 9
    frequency:    7.3631206586
  - # 10
    frequency:    7.5448284922
  - # 11
    frequency:    9.8821487104
  - # 12
    frequency:   10.2482492619
  - # 13
    frequency:   10.9294711181
  - # 14
    frequency:   11.8646703340
  - # 15
    frequency:   11.9276685467
  - # 16
    frequency:   14.0480657313
  - # 17
    frequency:   16.6210984674
  - # 18
    frequency:   16.6826795689
  - # 19
    frequency:   18.0708892250
  - # 20
    frequency:   41.2201625698
  - # 21
    frequency:  113.6072996709

- q-position: [    0.0606061,    0.0000000,    0.0000000 ]
  distance:    0.0221455
  band:
  - # 1
    frequency:   -4.7823883550
  - # 2
    frequency:   -4.6114502672
  - # 3
    frequency:    0.3511115636
  - # 4
    frequency:    1.0500343667
  - # 5
    frequency:    1.7392485254
  - # 6
    frequency:    4.8947930346
  - # 7
    frequency:    5.0234561007
  - # 8
    frequency:    7.1885586830
  - # 9
    frequency:    7.3667159197
  - # 10
    frequency:    7.5730225955
  - # 11
    frequency:    9.8344665677
  - # 12
    frequency:   10.2439945581
  - # 13
    frequency:   10.9547668796
  - # 14
    frequency:   11.8610477775
  - # 15
    frequency:   11.9352304703
  - # 16
    frequency:   14.0727319414
  - # 17
    frequency:   16.6127359230
  - # 18
    frequency:   16.6866106520
  - # 19
    frequency:   18.0706738228
  - # 20
    frequency:   41.2038541143
  - # 21
    frequency:  113.5940544407

- q-position: [    0.0656566,    0.0000000,    0.0000000 ]
  distance:    0.0239909
  band:
  - # 1
    frequency:   -4.7973539016
  - # 2
    frequency:   -4.5980665687
  - # 3
    frequency:    0.4079700630
  - # 4
    frequency:    1.1375374433
  - # 5
    frequency:    1.8853114757
  - # 6
    frequency:    4.9075632335
  - # 7
    frequency:    5.0552351358
  - # 8
    frequency:    7.1847313393
  - # 9
    frequency:    7.3705711663
  - # 10
    frequency:    7.6023865157
  - # 11
    frequency:    9.7870626250
  - # 12
    frequency:   10.2396248479
  - # 13
    frequency:   10.9786092508
  - # 14
    frequency:   11.8573356408
  - # 15
    frequency:   11.9434533296
  - # 16
    frequency:   14.0993585648
  - # 17
    frequency:   16.6036602093
  - # 18
    frequency:   16.6910680890
  - # 19
    frequency:   18.0701622818
  - # 20
    frequency:   41.1862287759
  - # 21
    frequency:  113.5798891826

- q-position: [    0.0707071,    0.0000000,    0.0000000 ]
  distance:    0.0258364
  band:
  - # 1
    frequency:   -4.8134608159
  - # 2
    frequency:   -4.5839158919
  - # 3
    frequency:    0.4681747407
  - # 4
    frequency:    1.2249576920
  - # 5
    frequency:    2.0313140915
  - # 6
    frequency:    4.9211936831
  - # 7
    frequency:    5.0884548740
  - # 8
    frequency:    7.1816004670
  - # 9
    frequency:    7.3746744116
  - # 10
    frequency:    7.6328641442
  - # 11
    frequency:    9.7402082541
  - # 12
    frequency:   10.2351967503
  - # 13
    frequency:   11.0009387504
  - # 14
    frequency:   11.8535615277
  - # 15
    frequency:   11.9523379619
  - # 16
    frequency:   14.1279071403
  - # 17
    frequency:   16.5938760793
  - # 18
    frequency:   16.6960802017
  - # 19
    frequency:   18.0693032972
  - # 20
    frequency:   41.1673112419
  - # 21
    frequency:  113.5648592343

- q-position: [    0.0757576,    0.0000000,    0.0000000 ]
  distance:    0.0276818
  band:
  - # 1
    frequency:   -4.8306858626
  - # 2
    frequency:   -4.5690229735
  - # 3
    frequency:    0.5315112168
  - # 4
    frequency:    1.3122617687
  - # 5
    frequency:    2.1771368605
  - # 6
    frequency:    4.9356507245
  - # 7
    frequency:    5.1229306079
  - # 8
    frequency:    7.1791715080
  - # 9
    frequency:    7.3790131439
  - # 10
    frequency:    7.6643959054
  - # 11
    frequency:    9.6941631895
  - # 12
    frequency:   10.2307687668
  - # 13
    frequency:   11.0217291109
  - # 14
    frequency:   11.8497465734
  - # 15
    frequency:   11.9618851919
  - # 16
    frequency:   14.1583384881
  - # 17
    frequency:   16.5833891264
  - # 18
    frequency:   16.7016721386
  - # 19
    frequency:   18.0680472837
  - # 20
    frequency:   41.1471279298
  - # 21
    frequency:  113.5490233418

- q-position: [    0.0808081,    0.0000000,    0.0000000 ]
  distance:    0.0295273
  band:
  - # 1
    frequency:   -4.8490012336
  - # 2
    frequency:   -4.5534010300
  - # 3
    frequency:    0.5977664465
  - # 4
    frequency:    1.3994125192
  - # 5
    frequency:    2.3226403590
  - # 6
    frequency:    4.9508994506
  - # 7
    frequency:    5.1584834549
  - # 8
    frequency:    7.1774494461
  - # 9
    frequency:    7.3835744069
  - # 10
    frequency:    7.6969190890
  - # 11
    frequency:    9.6491803863
  - # 12
    frequency:   10.2264007708
  - # 13
    frequency:   11.0409818750
  - # 14
    frequency:   11.8459048090
  - # 15
    frequency:   11.9720957826
  - # 16
    frequency:   14.1906129865
  - # 17
    frequency:   16.5722058702
  - # 18
    frequency:   16.7078653325
  - # 19
    frequency:   18.0663471287
  - # 20
    frequency:   41.1257069337
  - # 21
    frequency:  113.5324434345

- q-position: [    0.0858586,    0.0000000,    0.0000000 ]
  distance:    0.0313728
  band:
  - # 1
    frequency:   -4.8683743369
  - # 2
    frequency:   -4.5370504694
  - # 3
    frequency:    0.6667302969
  - # 4
    frequency:    1.4863692879
  - # 5
    frequency:    2.4676653302
  - # 6
    frequency:    4.9669039351
  - # 7
    frequency:    5.1949425085
  - # 8
    frequency:    7.1764383635
  - # 9
    frequency:    7.3883448795
  - # 10
    frequency:    7.7303687539
  - # 11
    frequency:    9.6055090281
  - # 12
    frequency:   10.2221534909
  - # 13
    frequency:   11.0587222436
  - # 14
    frequency:   11.8420428663
  - # 15
    frequency:   11.9829703759
  - # 16
    frequency:   14.2246908195
  - # 17
    frequency:   16.5603338418
  - # 18
    frequency:   16.7146770808
  - # 19
    frequency:   18.0641588613
  - # 20
    frequency:   41.1030779675
  - # 21
    frequency:  113.5151843876

- q-position: [    0.0909091,    0.0000000,    0.0000000 ]
  distance:    0.0332182
  band:
  - # 1
    frequency:   -4.8887676631
  - # 2
    frequency:   -4.5199579267
  - # 3
    frequency:    0.7381968901
  - # 4
    frequency:    1.5730882727
  - # 5
    frequency:    2.6120328385
  - # 6
    frequency:    4.9836274625
  - # 7
    frequency:    5.2321468784
  - # 8
    frequency:    7.1761407191
  - # 9
    frequency:    7.3933109520
  - # 10
    frequency:    7.7646791200
  - # 11
    frequency:    9.5633961462
  - # 12
    frequency:   10.2180879930
  - # 13
    frequency:   11.0749956359
  - # 14
    frequency:   11.8381600345
  - # 15
    frequency:   11.9945094249
  - # 16
    frequency:   14.2605321929
  - # 17
    frequency:   16.5477816677
  - # 18
    frequency:   16.7221202523
  - # 19
    frequency:   18.0614422352
  - # 20
    frequency:   41.0792723049
  - # 21
    frequency:  113.4973137727

- q-position: [    0.0959596,    0.0000000,    0.0000000 ]
  distance:    0.0350637
  band:
  - # 1
    frequency:   -4.9101387312
  - # 2
    frequency:   -4.5020956367
  - # 3
    frequency:    0.8119657240
  - # 4
    frequency:    1.6595229133
  - # 5
    frequency:    2.7555444495
  - # 6
    frequency:    5.0010327599
  - # 7
    frequency:    5.2699476636
  - # 8
    frequency:    7.1765564486
  - # 9
    frequency:    7.3984587990
  - # 10
    frequency:    7.7997853985
  - # 11
    frequency:    9.5230871121
  - # 12
    frequency:   10.2142651672
  - # 13
    frequency:   11.0898646436
  - # 14
    frequency:   11.8342486596
  - # 15
    frequency:   12.0067131167
  - # 16
    frequency:   14.2980975193
  - # 17
    frequency:   16.5345591509
  - # 18
    frequency:   16.7302031159
  - # 19
    frequency:   18.0581612238
  - # 20
    frequency:   41.0543227168
  - # 21
    frequency:  113.4789015967

- q-position: [    0.1010101,    0.0000000,    0.0000000 ]
  distance:    0.0369091
  band:
  - # 1
    frequency:   -4.9324401141
  - # 2
    frequency:   -4.4834211415
  - # 3
    frequency:    0.8878425881
  - # 4
    frequency:    1.7456243037
  - # 5
    frequency:    2.8979823957
  - # 6
    frequency:    5.0190822262
  - # 7
    frequency:    5.3082099011
  - # 8
    frequency:    7.1776819752
  - # 9
    frequency:    7.4037744465
  - # 10
    frequency:    7.8356260269
  - # 11
    frequency:    9.4848251459
  - # 12
    frequency:   10.2107452237
  - # 13
    frequency:   11.1034062001
  - # 14
    frequency:   11.8302948503
  - # 15
    frequency:   12.0195812889
  - # 16
    frequency:   14.3373475715
  - # 17
    frequency:   16.5206773476
  - # 18
    frequency:   16.7389292875
  - # 19
    frequency:   18.0542844277
  - # 20
    frequency:   41.0282634064
  - # 21
    frequency:  113.4600200309

- q-position: [    0.1060606,    0.0000000,    0.0000000 ]
  distance:    0.0387546
  band:
  - # 1
    frequency:   -4.9556195411
  - # 2
    frequency:   -4.4638773143
  - # 3
    frequency:    0.9656402886
  - # 4
    frequency:    1.8313416174
  - # 5
    frequency:    3.0391096983
  - # 6
    frequency:    5.0377381572
  - # 7
    frequency:    5.3468145260
  - # 8
    frequency:    7.1795092223
  - # 9
    frequency:    7.4092438326
  - # 10
    frequency:    7.8721452630
  - # 11
    frequency:    9.4488499154
  - # 12
    frequency:   10.2075872022
  - # 13
    frequency:   11.1157088833
  - # 14
    frequency:   11.8262794387
  - # 15
    frequency:   12.0331133399
  - # 16
    frequency:   14.3782436008
  - # 17
    frequency:   16.5061486406
  - # 18
    frequency:   16.7482977850
  - # 19
    frequency:   18.0497854003
  - # 20
    frequency:   41.0011299416
  - # 21
    frequency:  113.4407431308

- q-position: [    0.1111111,    0.0000000,    0.0000000 ]
  distance:    0.0406000
  band:
  - # 1
    frequency:   -4.9796200739
  - # 2
    frequency:   -4.4433926699
  - # 3
    frequency:    1.0451792006
  - # 4
    frequency:    1.9166225362
  - # 5
    frequency:    3.1786702347
  - # 6
    frequency:    5.0569629642
  - # 7
    frequency:    5.3856603674
  - # 8
    frequency:    7.1820247301
  - # 9
    frequency:    7.4148528599
  - # 10
    frequency:    7.9092960670
  - # 11
    frequency:    9.4153952704
  - # 12
    frequency:   10.2048485002
  - # 13
    frequency:   11.1268703350
  - # 14
    frequency:   11.8221791252
  - # 15
    frequency:   12.0473081345
  - # 16
    frequency:   14.4207474186
  - # 17
    frequency:   16.4909868048
  - # 18
    frequency:   16.7583031810
  - # 19
    frequency:   18.0446428931
  - # 20
    frequency:   40.9729591854
  - # 21
    frequency:  113.4211465474

- q-position: [    0.1161616,    0.0000000,    0.0000000 ]
  distance:    0.0424455
  band:
  - # 1
    frequency:   -5.0043803501
  - # 2
    frequency:   -4.4218819211
  - # 3
    frequency:    1.1262876598
  - # 4
    frequency:    2.0014136765
  - # 5
    frequency:    3.3163887674
  - # 6
    frequency:    5.0767193829
  - # 7
    frequency:    5.4246661806
  - # 8
    frequency:    7.1852089897
  - # 9
    frequency:    7.4205874391
  - # 10
    frequency:    7.9470431520
  - # 11
    frequency:    9.3846861651
  - # 12
    frequency:   10.2025844244
  - # 13
    frequency:   11.1369948162
  - # 14
    frequency:   11.8179677332
  - # 15
    frequency:   12.0621639067
  - # 16
    frequency:   14.4648214383
  - # 17
    frequency:   16.4752070679
  - # 18
    frequency:   16.7689358403
  - # 19
    frequency:   18.0388410291
  - # 20
    frequency:   40.9437892244
  - # 21
    frequency:  113.4013072315

- q-position: [    0.1212121,    0.0000000,    0.0000000 ]
  distance:    0.0442909
  band:
  - # 1
    frequency:   -5.0298348879
  - # 2
    frequency:   -4.3992467352
  - # 3
    frequency:    1.2088022108
  - # 4
    frequency:    2.0856610044
  - # 5
    frequency:    3.4519709838
  - # 6
    frequency:    5.0969706709
  - # 7
    frequency:    5.4637726872
  - # 8
    frequency:    7.1890361258
  - # 9
    frequency:    7.4264335241
  - # 10
    frequency:    7.9853660131
  - # 11
    frequency:    9.3569348600
  - # 12
    frequency:   10.2008477686
  - # 13
    frequency:   11.1461909390
  - # 14
    frequency:   11.8136174978
  - # 15
    frequency:   12.0776781621
  - # 16
    frequency:   14.5104286744
  - # 17
    frequency:   16.4588261623
  - # 18
    frequency:   16.7801822286
  - # 19
    frequency:   18.0323694093
  - # 20
    frequency:   40.9136592951
  - # 21
    frequency:  113.3813031312

- q-position: [    0.1262626,    0.0000000,    0.0000000 ]
  distance:    0.0461364
  band:
  - # 1
    frequency:   -5.0559144441
  - # 2
    frequency:   -4.3753766406
  - # 3
    frequency:    1.2925677251
  - # 4
    frequency:    2.1693102360
  - # 5
    frequency:    3.5851036376
  - # 6
    frequency:    5.1176807916
  - # 7
    frequency:    5.5029445477
  - # 8
    frequency:    7.1934740620
  - # 9
    frequency:    7.4323771353
  - # 10
    frequency:    8.0242616624
  - # 11
    frequency:    9.3323365656
  - # 12
    frequency:   10.1996884229
  - # 13
    frequency:   11.1545696202
  - # 14
    frequency:   11.8091003237
  - # 15
    frequency:   12.0938475796
  - # 16
    frequency:   14.5575326962
  - # 17
    frequency:   16.4418623686
  - # 18
    frequency:   16.7920252782
  - # 19
    frequency:   18.0252231606
  - # 20
    frequency:   40.8826097092
  - # 21
    frequency:  113.3612128857

- q-position: [    0.1313131,    0.0000000,    0.0000000 ]
  distance:    0.0479819
  band:
  - # 1
    frequency:   -5.0825464183
  - # 2
    frequency:   -4.3501500342
  - # 3
    frequency:    1.3774374022
  - # 4
    frequency:    2.2523072190
  - # 5
    frequency:    3.7154549403
  - # 6
    frequency:    5.1388145810
  - # 7
    frequency:    5.5421721346
  - # 8
    frequency:    7.1984853033
  - # 9
    frequency:    7.4384043744
  - # 10
    frequency:    8.0637466984
  - # 11
    frequency:    9.3110647910
  - # 12
    frequency:   10.1991530178
  - # 13
    frequency:   11.1622422967
  - # 14
    frequency:   11.8043889601
  - # 15
    frequency:   12.1106679163
  - # 16
    frequency:   14.6060975340
  - # 17
    frequency:   16.4243355505
  - # 18
    frequency:   16.8044447969
  - # 19
    frequency:   18.0174029320
  - # 20
    frequency:   40.8506817771
  - # 21
    frequency:  113.3411155139

- q-position: [    0.1363636,    0.0000000,    0.0000000 ]
  distance:    0.0498273
  band:
  - # 1
    frequency:   -5.1096552949
  - # 2
    frequency:   -4.3234352407
  - # 3
    frequency:    1.4632726692
  - # 4
    frequency:    2.3345982920
  - # 5
    frequency:    3.8426754226
  - # 6
    frequency:    5.1603378972
  - # 7
    frequency:    5.5814728941
  - # 8
    frequency:    7.2040284440
  - # 9
    frequency:    7.4445014282
  - # 10
    frequency:    8.1038582538
  - # 11
    frequency:    9.2932667742
  - # 12
    frequency:   10.1992846049
  - # 13
    frequency:   11.1693194286
  - # 14
    frequency:   11.7994580573
  - # 15
    frequency:   12.1281339153
  - # 16
    frequency:   14.6560875364
  - # 17
    frequency:   16.4062671794
  - # 18
    frequency:   16.8174179054
  - # 19
    frequency:   18.0089148469
  - # 20
    frequency:   40.8179177299
  - # 21
    frequency:  113.3210901012

- q-position: [    0.1414141,    0.0000000,    0.0000000 ]
  distance:    0.0516728
  band:
  - # 1
    frequency:   -5.1371631142
  - # 2
    frequency:   -4.2950915810
  - # 3
    frequency:    1.5499429896
  - # 4
    frequency:    2.4161306214
  - # 5
    frequency:    3.9663995695
  - # 6
    frequency:    5.1822177491
  - # 7
    frequency:    5.6208919881
  - # 8
    frequency:    7.2100604646
  - # 9
    frequency:    7.4506545634
  - # 10
    frequency:    8.1446532998
  - # 11
    frequency:    9.2790594832
  - # 12
    frequency:   10.2001223776
  - # 13
    frequency:   11.1759093064
  - # 14
    frequency:   11.7942850899
  - # 15
    frequency:   12.1462392192
  - # 16
    frequency:   14.7074671778
  - # 17
    frequency:   16.3876803483
  - # 18
    frequency:   16.8309194910
  - # 19
    frequency:   17.9997704201
  - # 20
    frequency:   40.7843606411
  - # 21
    frequency:  113.3012154842

- q-position: [    0.1464646,    0.0000000,    0.0000000 ]
  distance:    0.0535182
  band:
  - # 1
    frequency:   -5.1649899663
  - # 2
    frequency:   -4.2649704072
  - # 3
    frequency:    1.6373255983
  - # 4
    frequency:    2.4968525129
  - # 5
    frequency:    4.0862486369
  - # 6
    frequency:    5.2044224040
  - # 7
    frequency:    5.6605017984
  - # 8
    frequency:    7.2165398088
  - # 9
    frequency:    7.4568501127
  - # 10
    frequency:    8.1862057910
  - # 11
    frequency:    9.2685267601
  - # 12
    frequency:   10.2017014334
  - # 13
    frequency:   11.1821171579
  - # 14
    frequency:   11.7888511472
  - # 15
    frequency:   12.1649762900
  - # 16
    frequency:   14.7602008182
  - # 17
    frequency:   16.3685997757
  - # 18
    frequency:   16.8449226638
  - # 19
    frequency:   17.9899864474
  - # 20
    frequency:   40.7500543470
  - # 21
    frequency:  113.2815699364

- q-position: [    0.1515152,    0.0000000,    0.0000000 ]
  distance:    0.0553637
  band:
  - # 1
    frequency:   -5.1930544991
  - # 2
    frequency:   -4.2329160695
  - # 3
    frequency:    1.7253051723
  - # 4
    frequency:    2.5767136997
  - # 5
    frequency:    4.2018351584
  - # 6
    frequency:    5.2269214717
  - # 7
    frequency:    5.7003997580
  - # 8
    frequency:    7.2234301368
  - # 9
    frequency:    7.4630744535
  - # 10
    frequency:    8.2286012082
  - # 11
    frequency:    9.2617182020
  - # 12
    frequency:   10.2040525798
  - # 13
    frequency:   11.1880445425
  - # 14
    frequency:   11.7831416046
  - # 15
    frequency:   12.1843363368
  - # 16
    frequency:   14.8142524147
  - # 17
    frequency:   16.3490517968
  - # 18
    frequency:   16.8593992045
  - # 19
    frequency:   17.9795848767
  - # 20
    frequency:   40.7150433659
  - # 21
    frequency:  113.2622308532
