nqpoint: 300    
npath: 3      
segment_nqpoint:
- 100
- 100
- 100
labels:
- [ 'G', 'M' ]
- [ 'M', 'K' ]
- [ 'K', 'G' ]
reciprocal_lattice:
- [   0.29783498,   0.17195511,   0.00000000 ] # a*
- [   0.00000000,   0.34391021,   0.00000000 ] # b*
- [   0.00000000,   0.00000000,   0.03738305 ] # c*
natom: 8      
lattice:
- [     3.357563980849121,     0.000000000000000,     0.000000000000000 ] # a
- [    -1.678781990424560,     2.907735702237602,     0.000000000000000 ] # b
- [     0.000000000000000,     0.000000000000000,    26.750089296706221 ] # c
points:
- symbol: C # 1
  coordinates: [  0.000000000000000,  0.000000000000000,  0.523453673880512 ]
  mass: 12.010700
- symbol: C # 2
  coordinates: [  0.666666984744047,  0.333332985985145,  0.381470973845733 ]
  mass: 12.010700
- symbol: Hf # 3
  coordinates: [  0.333332985432215,  0.666666983183674,  0.481695697838440 ]
  mass: 178.490000
- symbol: Hf # 4
  coordinates: [  0.666666984744047,  0.333332985985145,  0.577302699622147 ]
  mass: 178.490000
- symbol: N # 5
  coordinates: [  0.333332985432215,  0.666666983183674,  0.613393885614484 ]
  mass: 14.006700
- symbol: N # 6
  coordinates: [  0.666666984744047,  0.333332985985145,  0.428208641035813 ]
  mass: 14.006700
- symbol: O # 7
  coordinates: [  0.333332985432215,  0.666666983183674,  0.663552524996311 ]
  mass: 15.999400
- symbol: O # 8
  coordinates: [  0.666666984744047,  0.333332985985145,  0.336447475003688 ]
  mass: 15.999400

phonon:
- q-position: [    0.0000000,    0.0000000,    0.0000000 ]
  distance:    0.0000000
  band:
  - # 1
    frequency:   -5.6533478495
  - # 2
    frequency:   -5.6533478494
  - # 3
    frequency:   -1.1052837033
  - # 4
    frequency:   -1.1052837032
  - # 5
    frequency:   -0.0000157331
  - # 6
    frequency:   -0.0000006762
  - # 7
    frequency:    0.0000128391
  - # 8
    frequency:    2.8287942353
  - # 9
    frequency:    2.8287942354
  - # 10
    frequency:    4.5632262971
  - # 11
    frequency:    5.5078571968
  - # 12
    frequency:    5.5078571969
  - # 13
    frequency:    7.9517102636
  - # 14
    frequency:    8.6830172239
  - # 15
    frequency:   10.7307450281
  - # 16
    frequency:   10.7307450282
  - # 17
    frequency:   16.3802003961
  - # 18
    frequency:   16.3802003962
  - # 19
    frequency:   16.6409090966
  - # 20
    frequency:   16.9550606234
  - # 21
    frequency:   16.9550606234
  - # 22
    frequency:   37.5313498994
  - # 23
    frequency:   37.9836823383
  - # 24
    frequency:   68.8029851736

- q-position: [    0.0050505,    0.0000000,    0.0000000 ]
  distance:    0.0017369
  band:
  - # 1
    frequency:   -5.6537846442
  - # 2
    frequency:   -5.6525962978
  - # 3
    frequency:   -1.1046167521
  - # 4
    frequency:   -1.1034142391
  - # 5
    frequency:    0.0017277194
  - # 6
    frequency:    0.0534864278
  - # 7
    frequency:    0.0910255905
  - # 8
    frequency:    2.8291022431
  - # 9
    frequency:    2.8298685433
  - # 10
    frequency:    4.5630381038
  - # 11
    frequency:    5.5081801037
  - # 12
    frequency:    5.5089250250
  - # 13
    frequency:    7.9512603476
  - # 14
    frequency:    8.6817998550
  - # 15
    frequency:   10.7307925504
  - # 16
    frequency:   10.7313551471
  - # 17
    frequency:   16.3798815001
  - # 18
    frequency:   16.3801114252
  - # 19
    frequency:   16.6412932485
  - # 20
    frequency:   16.9550482775
  - # 21
    frequency:   16.9552209711
  - # 22
    frequency:   37.5307864174
  - # 23
    frequency:   37.9836650177
  - # 24
    frequency:   68.8018404575

- q-position: [    0.0101010,    0.0000000,    0.0000000 ]
  distance:    0.0034738
  band:
  - # 1
    frequency:   -5.6550941602
  - # 2
    frequency:   -5.6503404523
  - # 3
    frequency:   -1.1026174780
  - # 4
    frequency:   -1.0978031685
  - # 5
    frequency:    0.0066075988
  - # 6
    frequency:    0.1069823987
  - # 7
    frequency:    0.1820529352
  - # 8
    frequency:    2.8300257730
  - # 9
    frequency:    2.8330836964
  - # 10
    frequency:    4.5624747696
  - # 11
    frequency:    5.5091482796
  - # 12
    frequency:    5.5121249414
  - # 13
    frequency:    7.9499118386
  - # 14
    frequency:    8.6781586917
  - # 15
    frequency:   10.7309357292
  - # 16
    frequency:   10.7331805789
  - # 17
    frequency:   16.3789258672
  - # 18
    frequency:   16.3798502187
  - # 19
    frequency:   16.6424393628
  - # 20
    frequency:   16.9550113712
  - # 21
    frequency:   16.9557018901
  - # 22
    frequency:   37.5290965361
  - # 23
    frequency:   37.9836132497
  - # 24
    frequency:   68.7984086650

- q-position: [    0.0151515,    0.0000000,    0.0000000 ]
  distance:    0.0052108
  band:
  - # 1
    frequency:   -5.6572737910
  - # 2
    frequency:   -5.6465767391
  - # 3
    frequency:   -1.0992905311
  - # 4
    frequency:   -1.0884409791
  - # 5
    frequency:    0.0147125866
  - # 6
    frequency:    0.1604967043
  - # 7
    frequency:    0.2730784402
  - # 8
    frequency:    2.8315633471
  - # 9
    frequency:    2.8384166077
  - # 10
    frequency:    4.5615400116
  - # 11
    frequency:    5.5107600913
  - # 12
    frequency:    5.5174462656
  - # 13
    frequency:    7.9476684488
  - # 14
    frequency:    8.6721262988
  - # 15
    frequency:   10.7311763968
  - # 16
    frequency:   10.7362067867
  - # 17
    frequency:   16.3773366596
  - # 18
    frequency:   16.3794335101
  - # 19
    frequency:   16.6443288113
  - # 20
    frequency:   16.9549502976
  - # 21
    frequency:   16.9565030047
  - # 22
    frequency:   37.5262819533
  - # 23
    frequency:   37.9835276100
  - # 24
    frequency:   68.7926968571

- q-position: [    0.0202020,    0.0000000,    0.0000000 ]
  distance:    0.0069477
  band:
  - # 1
    frequency:   -5.6603191883
  - # 2
    frequency:   -5.6412991953
  - # 3
    frequency:   -1.0946433733
  - # 4
    frequency:   -1.0753070144
  - # 5
    frequency:    0.0260182884
  - # 6
    frequency:    0.2140366590
  - # 7
    frequency:    0.3640878552
  - # 8
    frequency:    2.8337125077
  - # 9
    frequency:    2.8458295365
  - # 10
    frequency:    4.5602399588
  - # 11
    frequency:    5.5130128206
  - # 12
    frequency:    5.5248712777
  - # 13
    frequency:    7.9445363482
  - # 14
    frequency:    8.6637560870
  - # 15
    frequency:   10.7315175929
  - # 16
    frequency:   10.7404103194
  - # 17
    frequency:   16.3751191333
  - # 18
    frequency:   16.3788879592
  - # 19
    frequency:   16.6469318115
  - # 20
    frequency:   16.9548657092
  - # 21
    frequency:   16.9576236751
  - # 22
    frequency:   37.5223455136
  - # 23
    frequency:   37.9834090386
  - # 24
    frequency:   68.7847167800

- q-position: [    0.0252525,    0.0000000,    0.0000000 ]
  distance:    0.0086846
  band:
  - # 1
    frequency:   -5.6642242552
  - # 2
    frequency:   -5.6344994607
  - # 3
    frequency:   -1.0886858551
  - # 4
    frequency:   -1.0583626572
  - # 5
    frequency:    0.0404882797
  - # 6
    frequency:    0.2676074370
  - # 7
    frequency:    0.4550529615
  - # 8
    frequency:    2.8364698259
  - # 9
    frequency:    2.8552711449
  - # 10
    frequency:    4.5585830587
  - # 11
    frequency:    5.5159026685
  - # 12
    frequency:    5.5343753329
  - # 13
    frequency:    7.9405241395
  - # 14
    frequency:    8.6531210745
  - # 15
    frequency:   10.7319635442
  - # 16
    frequency:   10.7457599197
  - # 17
    frequency:   16.3722806180
  - # 18
    frequency:   16.3782484931
  - # 19
    frequency:   16.6502091373
  - # 20
    frequency:   16.9547585135
  - # 21
    frequency:   16.9590629773
  - # 22
    frequency:   37.5172912282
  - # 23
    frequency:   37.9832588130
  - # 24
    frequency:   68.7744848321

- q-position: [    0.0303030,    0.0000000,    0.0000000 ]
  distance:    0.0104215
  band:
  - # 1
    frequency:   -5.6689811376
  - # 2
    frequency:   -5.6261667663
  - # 3
    frequency:   -1.0814296419
  - # 4
    frequency:   -1.0375424224
  - # 5
    frequency:    0.0580798076
  - # 6
    frequency:    0.3212114940
  - # 7
    frequency:    0.5459297784
  - # 8
    frequency:    2.8398309131
  - # 9
    frequency:    2.8666778836
  - # 10
    frequency:    4.5565799573
  - # 11
    frequency:    5.5194247625
  - # 12
    frequency:    5.5459270145
  - # 13
    frequency:    7.9356428206
  - # 14
    frequency:    8.6403122635
  - # 15
    frequency:   10.7325196352
  - # 16
    frequency:   10.7522179662
  - # 17
    frequency:   16.3688304873
  - # 18
    frequency:   16.3775563051
  - # 19
    frequency:   16.6541141936
  - # 20
    frequency:   16.9546298679
  - # 21
    frequency:   16.9608196754
  - # 22
    frequency:   37.5111243008
  - # 23
    frequency:   37.9830785114
  - # 24
    frequency:   68.7620220177

- q-position: [    0.0353535,    0.0000000,    0.0000000 ]
  distance:    0.0121584
  band:
  - # 1
    frequency:   -5.6745802142
  - # 2
    frequency:   -5.6162879226
  - # 3
    frequency:   -1.0728875071
  - # 4
    frequency:   -1.0127432795
  - # 5
    frequency:    0.0787477202
  - # 6
    frequency:    0.3748480996
  - # 7
    frequency:    0.6366585412
  - # 8
    frequency:    2.8437904359
  - # 9
    frequency:    2.8799756258
  - # 10
    frequency:    4.5542433611
  - # 11
    frequency:    5.5235731650
  - # 12
    frequency:    5.5594883149
  - # 13
    frequency:    7.9299057356
  - # 14
    frequency:    8.6254367253
  - # 15
    frequency:   10.7331923724
  - # 16
    frequency:   10.7597421565
  - # 17
    frequency:   16.3647801226
  - # 18
    frequency:   16.3768567382
  - # 19
    frequency:   16.6585952261
  - # 20
    frequency:   16.9544811720
  - # 21
    frequency:   16.9628921856
  - # 22
    frequency:   37.5038511575
  - # 23
    frequency:   37.9828699717
  - # 24
    frequency:   68.7473538879

- q-position: [    0.0404040,    0.0000000,    0.0000000 ]
  distance:    0.0138954
  band:
  - # 1
    frequency:   -5.6810100847
  - # 2
    frequency:   -5.6048473085
  - # 3
    frequency:   -1.0630725170
  - # 4
    frequency:   -0.9838122183
  - # 5
    frequency:    0.1024492718
  - # 6
    frequency:    0.4285129963
  - # 7
    frequency:    0.7271651911
  - # 8
    frequency:    2.8483421336
  - # 9
    frequency:    2.8950814604
  - # 10
    frequency:    4.5515878910
  - # 11
    frequency:    5.5283408840
  - # 12
    frequency:    5.5750148391
  - # 13
    frequency:    7.9233285120
  - # 14
    frequency:    8.6086154960
  - # 15
    frequency:   10.7339893402
  - # 16
    frequency:   10.7682873302
  - # 17
    frequency:   16.3601428674
  - # 18
    frequency:   16.3761972498
  - # 19
    frequency:   16.6635974706
  - # 20
    frequency:   16.9543140588
  - # 21
    frequency:   16.9652785329
  - # 22
    frequency:   37.4954794763
  - # 23
    frequency:   37.9826352446
  - # 24
    frequency:   68.7305104687

- q-position: [    0.0454545,    0.0000000,    0.0000000 ]
  distance:    0.0156323
  band:
  - # 1
    frequency:   -5.6882575588
  - # 2
    frequency:   -5.5918268616
  - # 3
    frequency:   -1.0519971292
  - # 4
    frequency:   -0.9505315340
  - # 5
    frequency:    0.1291503596
  - # 6
    frequency:    0.4821982007
  - # 7
    frequency:    0.8173639204
  - # 8
    frequency:    2.8534788389
  - # 9
    frequency:    2.9119055555
  - # 10
    frequency:    4.5486299362
  - # 11
    frequency:    5.5337198845
  - # 12
    frequency:    5.5924560215
  - # 13
    frequency:    7.9159289829
  - # 14
    frequency:    8.5899813844
  - # 15
    frequency:   10.7349191506
  - # 16
    frequency:   10.7778073328
  - # 17
    frequency:   16.3549339748
  - # 18
    frequency:   16.3756255973
  - # 19
    frequency:   16.6690650994
  - # 20
    frequency:   16.9541303851
  - # 21
    frequency:   16.9679763019
  - # 22
    frequency:   37.4860182166
  - # 23
    frequency:   37.9823765473
  - # 24
    frequency:   68.7115261762

- q-position: [    0.0505051,    0.0000000,    0.0000000 ]
  distance:    0.0173692
  band:
  - # 1
    frequency:   -5.6963076448
  - # 2
    frequency:   -5.5772060746
  - # 3
    frequency:   -1.0396722346
  - # 4
    frequency:   -0.9126004999
  - # 5
    frequency:    0.1588338416
  - # 6
    frequency:    0.5358919472
  - # 7
    frequency:    0.9071602452
  - # 8
    frequency:    2.8591925010
  - # 9
    frequency:    2.9303530101
  - # 10
    frequency:    4.5453875175
  - # 11
    frequency:    5.5397011020
  - # 12
    frequency:    5.6117553513
  - # 13
    frequency:    7.9077270928
  - # 14
    frequency:    8.5696767827
  - # 15
    frequency:   10.7359913861
  - # 16
    frequency:   10.7882568301
  - # 17
    frequency:   16.3491705473
  - # 18
    frequency:   16.3751883238
  - # 19
    frequency:   16.6749428864
  - # 20
    frequency:   16.9539322195
  - # 21
    frequency:   16.9709825816
  - # 22
    frequency:   37.4754776446
  - # 23
    frequency:   37.9820962172
  - # 24
    frequency:   68.6904397198

- q-position: [    0.0555556,    0.0000000,    0.0000000 ]
  distance:    0.0191061
  band:
  - # 1
    frequency:   -5.7051435403
  - # 2
    frequency:   -5.5609619960
  - # 3
    frequency:   -1.0261061629
  - # 4
    frequency:   -0.8696109173
  - # 5
    frequency:    0.1915109487
  - # 6
    frequency:    0.5895787729
  - # 7
    frequency:    0.9964541191
  - # 8
    frequency:    2.8654742107
  - # 9
    frequency:    2.9503256236
  - # 10
    frequency:    4.5418801633
  - # 11
    frequency:    5.5462744573
  - # 12
    frequency:    5.6328506014
  - # 13
    frequency:    7.8987447858
  - # 14
    frequency:    8.5478515572
  - # 15
    frequency:   10.7372165371
  - # 16
    frequency:   10.7995929992
  - # 17
    frequency:   16.3428714693
  - # 18
    frequency:   16.3749295651
  - # 19
    frequency:   16.6811775649
  - # 20
    frequency:   16.9537218297
  - # 21
    frequency:   16.9742939061
  - # 22
    frequency:   37.4638693527
  - # 23
    frequency:   37.9817966681
  - # 24
    frequency:   68.6672939927

- q-position: [    0.0606061,    0.0000000,    0.0000000 ]
  distance:    0.0208430
  band:
  - # 1
    frequency:   -5.7147466246
  - # 2
    frequency:   -5.5430692409
  - # 3
    frequency:   -1.0113036725
  - # 4
    frequency:   -0.8210120950
  - # 5
    frequency:    0.2272373624
  - # 6
    frequency:    0.6432397291
  - # 7
    frequency:    1.0851427306
  - # 8
    frequency:    2.8723142286
  - # 9
    frequency:    2.9717235285
  - # 10
    frequency:    4.5381288040
  - # 11
    frequency:    5.5534288720
  - # 12
    frequency:    5.6556740588
  - # 13
    frequency:    7.8890058761
  - # 14
    frequency:    8.5246610768
  - # 15
    frequency:   10.7386059343
  - # 16
    frequency:   10.8117770383
  - # 17
    frequency:   16.3360573322
  - # 18
    frequency:   16.3748901651
  - # 19
    frequency:   16.6877188910
  - # 20
    frequency:   16.9535016687
  - # 21
    frequency:   16.9779061947
  - # 22
    frequency:   37.4512062728
  - # 23
    frequency:   37.9814803518
  - # 24
    frequency:   68.6421359513

- q-position: [    0.0656566,    0.0000000,    0.0000000 ]
  distance:    0.0225800
  band:
  - # 1
    frequency:   -5.7250964558
  - # 2
    frequency:   -5.5235000117
  - # 3
    frequency:   -0.9952649334
  - # 4
    frequency:   -0.7660570769
  - # 5
    frequency:    0.2661362012
  - # 6
    frequency:    0.6968526992
  - # 7
    frequency:    1.1731227830
  - # 8
    frequency:    2.8797020137
  - # 9
    frequency:    2.9944466448
  - # 10
    frequency:    4.5341556865
  - # 11
    frequency:    5.5611522857
  - # 12
    frequency:    5.6801527545
  - # 13
    frequency:    7.8785358992
  - # 14
    frequency:    8.5002644198
  - # 15
    frequency:   10.7401716760
  - # 16
    frequency:   10.8247754584
  - # 17
    frequency:   16.3287503534
  - # 18
    frequency:   16.3751070561
  - # 19
    frequency:   16.6945204484
  - # 20
    frequency:   16.9532743598
  - # 21
    frequency:   16.9818146920
  - # 22
    frequency:   37.4375026822
  - # 23
    frequency:   37.9811497238
  - # 24
    frequency:   68.6150164823

- q-position: [    0.0707071,    0.0000000,    0.0000000 ]
  distance:    0.0243169
  band:
  - # 1
    frequency:   -5.7361707717
  - # 2
    frequency:   -5.5022241308
  - # 3
    frequency:   -0.9779844989
  - # 4
    frequency:   -0.7037133032
  - # 5
    frequency:    0.3084304828
  - # 6
    frequency:    0.7503927981
  - # 7
    frequency:    1.2602921959
  - # 8
    frequency:    2.8876262556
  - # 9
    frequency:    3.0183959330
  - # 10
    frequency:    4.5299843067
  - # 11
    frequency:    5.5694316739
  - # 12
    frequency:    5.7062086935
  - # 13
    frequency:    7.8673619464
  - # 14
    frequency:    8.4748227810
  - # 15
    frequency:   10.7419265525
  - # 16
    frequency:   10.8385611354
  - # 17
    frequency:   16.3209742886
  - # 18
    frequency:   16.3756128565
  - # 19
    frequency:   16.7015402425
  - # 20
    frequency:   16.9530426804
  - # 21
    frequency:   16.9860139127
  - # 22
    frequency:   37.4227742003
  - # 23
    frequency:   37.9808072159
  - # 24
    frequency:   68.5859902596

- q-position: [    0.0757576,    0.0000000,    0.0000000 ]
  distance:    0.0260538
  band:
  - # 1
    frequency:   -5.7479454968
  - # 2
    frequency:   -5.4792090887
  - # 3
    frequency:   -0.9594502482
  - # 4
    frequency:   -0.6324969008
  - # 5
    frequency:    0.3544857016
  - # 6
    frequency:    0.8038328244
  - # 7
    frequency:    1.3465512707
  - # 8
    frequency:    2.8960749066
  - # 9
    frequency:    3.0434744340
  - # 10
    frequency:    4.5256393618
  - # 11
    frequency:    5.5782530666
  - # 12
    frequency:    5.7337590853
  - # 13
    frequency:    7.8555124850
  - # 14
    frequency:    8.4484980848
  - # 15
    frequency:   10.7438839667
  - # 16
    frequency:   10.8531141159
  - # 17
    frequency:   16.3127543379
  - # 18
    frequency:   16.3764356324
  - # 19
    frequency:   16.7087411270
  - # 20
    frequency:   16.9528095455
  - # 21
    frequency:   16.9904975945
  - # 22
    frequency:   37.4070377783
  - # 23
    frequency:   37.9804552131
  - # 24
    frequency:   68.5551155892

- q-position: [    0.0808081,    0.0000000,    0.0000000 ]
  distance:    0.0277907
  band:
  - # 1
    frequency:   -5.7603947566
  - # 2
    frequency:   -5.4544201065
  - # 3
    frequency:   -0.9396422624
  - # 4
    frequency:   -0.5501091234
  - # 5
    frequency:    0.4048528939
  - # 6
    frequency:    0.8571437362
  - # 7
    frequency:    1.4318034187
  - # 8
    frequency:    2.9050352158
  - # 9
    frequency:    3.0695880935
  - # 10
    frequency:    4.5211467167
  - # 11
    frequency:    5.5876015681
  - # 12
    frequency:    5.7627165746
  - # 13
    frequency:    7.8430171689
  - # 14
    frequency:    8.4214517997
  - # 15
    frequency:   10.7460578525
  - # 16
    frequency:   10.8684221821
  - # 17
    frequency:   16.3041170468
  - # 18
    frequency:   16.3775987779
  - # 19
    frequency:   16.7160911072
  - # 20
    frequency:   16.9525779894
  - # 21
    frequency:   16.9952586622
  - # 22
    frequency:   37.3903116812
  - # 23
    frequency:   37.9800960378
  - # 24
    frequency:   68.5224542454

- q-position: [    0.0858586,    0.0000000,    0.0000000 ]
  distance:    0.0295276
  band:
  - # 1
    frequency:   -5.7734909000
  - # 2
    frequency:   -5.4278202156
  - # 3
    frequency:   -0.9185315735
  - # 4
    frequency:   -0.4524185689
  - # 5
    frequency:    0.4602692187
  - # 6
    frequency:    0.9102951251
  - # 7
    frequency:    1.5159555686
  - # 8
    frequency:    2.9144937641
  - # 9
    frequency:    3.0966463813
  - # 10
    frequency:    4.5165333831
  - # 11
    frequency:    5.5974613775
  - # 12
    frequency:    5.7929894717
  - # 13
    frequency:    7.8299066505
  - # 14
    frequency:    8.3938439360
  - # 15
    frequency:   10.7484625918
  - # 16
    frequency:   10.8844811892
  - # 17
    frequency:   16.2950902014
  - # 18
    frequency:   16.3791209722
  - # 19
    frequency:   16.7235635520
  - # 20
    frequency:   16.9523511482
  - # 21
    frequency:   17.0002892080
  - # 22
    frequency:   37.3726154617
  - # 23
    frequency:   37.9797319371
  - # 24
    frequency:   68.4880712955

- q-position: [    0.0909091,    0.0000000,    0.0000000 ]
  distance:    0.0312646
  band:
  - # 1
    frequency:   -5.7872045305
  - # 2
    frequency:   -5.3993703547
  - # 3
    frequency:   -0.8960787006
  - # 4
    frequency:   -0.3294300455
  - # 5
    frequency:    0.5215024795
  - # 6
    frequency:    0.9632556662
  - # 7
    frequency:    1.5989183692
  - # 8
    frequency:    2.9244365008
  - # 9
    frequency:    3.1245627149
  - # 10
    frequency:    4.5118275080
  - # 11
    frequency:    5.6078158103
  - # 12
    frequency:    5.8244819810
  - # 13
    frequency:    7.8162124041
  - # 14
    frequency:    8.3658322016
  - # 15
    frequency:   10.7511129298
  - # 16
    frequency:   10.9012951946
  - # 17
    frequency:   16.2857027194
  - # 18
    frequency:   16.3810161822
  - # 19
    frequency:   16.7311373429
  - # 20
    frequency:   16.9521322404
  - # 21
    frequency:   17.0055804892
  - # 22
    frequency:   37.3539699296
  - # 23
    frequency:   37.9793650762
  - # 24
    frequency:   68.4520349168

- q-position: [    0.0959596,    0.0000000,    0.0000000 ]
  distance:    0.0330015
  band:
  - # 1
    frequency:   -5.8015045484
  - # 2
    frequency:   -5.3690294838
  - # 3
    frequency:   -0.8722318509
  - # 4
    frequency:   -0.1284853842
  - # 5
    frequency:    0.5888905448
  - # 6
    frequency:    1.0159935270
  - # 7
    frequency:    1.6806062801
  - # 8
    frequency:    2.9348487794
  - # 9
    frequency:    3.1532547076
  - # 10
    frequency:    4.5070583659
  - # 11
    frequency:    5.6186473206
  - # 12
    frequency:    5.8570944236
  - # 13
    frequency:    7.8019665811
  - # 14
    frequency:    8.3375712863
  - # 15
    frequency:   10.7540238910
  - # 16
    frequency:   10.9188763992
  - # 17
    frequency:   16.2759845363
  - # 18
    frequency:   16.3832936854
  - # 19
    frequency:   16.7387969788
  - # 20
    frequency:   16.9519245482
  - # 21
    frequency:   17.0111229491
  - # 22
    frequency:   37.3343971144
  - # 23
    frequency:   37.9789975339
  - # 24
    frequency:   68.4144162036

- q-position: [    0.1010101,    0.0000000,    0.0000000 ]
  distance:    0.0347384
  band:
  - # 1
    frequency:   -5.8163582033
  - # 2
    frequency:   -5.3367547156
  - # 3
    frequency:   -0.8469246164
  - # 4
    frequency:    0.2645272016
  - # 5
    frequency:    0.6617128763
  - # 6
    frequency:    1.0684767263
  - # 7
    frequency:    1.7609376262
  - # 8
    frequency:    2.9457153958
  - # 9
    frequency:    3.1826442571
  - # 10
    frequency:    4.5022563538
  - # 11
    frequency:    5.6299375246
  - # 12
    frequency:    5.8907234488
  - # 13
    frequency:    7.7872019209
  - # 14
    frequency:    8.3092122363
  - # 15
    frequency:   10.7572106944
  - # 16
    frequency:   10.9372449255
  - # 17
    frequency:   16.2659664881
  - # 18
    frequency:   16.3859580938
  - # 19
    frequency:   16.7465326514
  - # 20
    frequency:   16.9517313972
  - # 21
    frequency:   17.0169062601
  - # 22
    frequency:   37.3139202239
  - # 23
    frequency:   37.9786313017
  - # 24
    frequency:   68.3752889664

- q-position: [    0.1060606,    0.0000000,    0.0000000 ]
  distance:    0.0364753
  band:
  - # 1
    frequency:   -5.8317311591
  - # 2
    frequency:   -5.3025014613
  - # 3
    frequency:   -0.8200729237
  - # 4
    frequency:    0.3891425052
  - # 5
    frequency:    0.7380986110
  - # 6
    frequency:    1.1206734354
  - # 7
    frequency:    1.8398346670
  - # 8
    frequency:    2.9570206258
  - # 9
    frequency:    3.2126574946
  - # 10
    frequency:    4.4974529821
  - # 11
    frequency:    5.6416672254
  - # 12
    frequency:    5.9252622243
  - # 13
    frequency:    7.7719517465
  - # 14
    frequency:    8.2809018809
  - # 15
    frequency:   10.7606886702
  - # 16
    frequency:   10.9564284529
  - # 17
    frequency:   16.2556801903
  - # 18
    frequency:   16.3890093656
  - # 19
    frequency:   16.7543403012
  - # 20
    frequency:   16.9515561376
  - # 21
    frequency:   17.0229193915
  - # 22
    frequency:   37.2925635997
  - # 23
    frequency:   37.9782682846
  - # 24
    frequency:   68.3347295241

- q-position: [    0.1111111,    0.0000000,    0.0000000 ]
  distance:    0.0382122
  band:
  - # 1
    frequency:   -5.8475875709
  - # 2
    frequency:   -5.2662235916
  - # 3
    frequency:   -0.7915708848
  - # 4
    frequency:    0.4795359440
  - # 5
    frequency:    0.8158203447
  - # 6
    frequency:    1.1725522235
  - # 7
    frequency:    1.9172237151
  - # 8
    frequency:    2.9687482639
  - # 9
    frequency:    3.2432246137
  - # 10
    frequency:    4.4926808616
  - # 11
    frequency:    5.6538164386
  - # 12
    frequency:    5.9606005961
  - # 13
    frequency:    7.7562500830
  - # 14
    frequency:    8.2527822680
  - # 15
    frequency:   10.7644731774
  - # 16
    frequency:   10.9764617331
  - # 17
    frequency:   16.2451579147
  - # 18
    frequency:   16.3924427963
  - # 19
    frequency:   16.7622216601
  - # 20
    frequency:   16.9514021237
  - # 21
    frequency:   17.0291507008
  - # 22
    frequency:   37.2703526688
  - # 23
    frequency:   37.9779103037
  - # 24
    frequency:   68.2928164882

- q-position: [    0.1161616,    0.0000000,    0.0000000 ]
  distance:    0.0399492
  band:
  - # 1
    frequency:   -5.8638901753
  - # 2
    frequency:   -5.2278736078
  - # 3
    frequency:   -0.7612850124
  - # 4
    frequency:    0.5550390835
  - # 5
    frequency:    0.8931474812
  - # 6
    frequency:    1.2240822485
  - # 7
    frequency:    1.9930353252
  - # 8
    frequency:    2.9808816610
  - # 9
    frequency:    3.2742795971
  - # 10
    frequency:    4.4879736798
  - # 11
    frequency:    5.6663644200
  - # 12
    frequency:    5.9966252017
  - # 13
    frequency:    7.7401319379
  - # 14
    frequency:    8.2249900676
  - # 15
    frequency:   10.7685795235
  - # 16
    frequency:   10.9973860036
  - # 17
    frequency:   16.2344324631
  - # 18
    frequency:   16.3962489843
  - # 19
    frequency:   16.7701842838
  - # 20
    frequency:   16.9512726945
  - # 21
    frequency:   17.0355880464
  - # 22
    frequency:   37.2473138943
  - # 23
    frequency:   37.9775590989
  - # 24
    frequency:   68.2496305416

- q-position: [    0.1212121,    0.0000000,    0.0000000 ]
  distance:    0.0416861
  band:
  - # 1
    frequency:   -5.8806003932
  - # 2
    frequency:   -5.1874028211
  - # 3
    frequency:   -0.7290459582
  - # 4
    frequency:    0.6228323427
  - # 5
    frequency:    0.9690784588
  - # 6
    frequency:    1.2752334003
  - # 7
    frequency:    2.0672045601
  - # 8
    frequency:    2.9934037641
  - # 9
    frequency:    3.3057598602
  - # 10
    frequency:    4.4833661667
  - # 11
    frequency:    5.6792896951
  - # 12
    frequency:    6.0332195203
  - # 13
    frequency:    7.7236337877
  - # 14
    frequency:    8.1976559046
  - # 15
    frequency:   10.7730228859
  - # 16
    frequency:   11.0192483176
  - # 17
    frequency:   16.2235370398
  - # 18
    frequency:   16.4004137725
  - # 19
    frequency:   16.7782415745
  - # 20
    frequency:   16.9511711542
  - # 21
    frequency:   17.0422189206
  - # 22
    frequency:   37.2234747233
  - # 23
    frequency:   37.9772163328
  - # 24
    frequency:   68.2052542115

- q-position: [    0.1262626,    0.0000000,    0.0000000 ]
  distance:    0.0434230
  band:
  - # 1
    frequency:   -5.8976784456
  - # 2
    frequency:   -5.1447615356
  - # 3
    frequency:   -0.6946363849
  - # 4
    frequency:    0.6863527514
  - # 5
    frequency:    1.0431608338
  - # 6
    frequency:    1.3259764024
  - # 7
    frequency:    2.1396713355
  - # 8
    frequency:    3.0062971549
  - # 9
    frequency:    3.3376058305
  - # 10
    frequency:    4.4788940447
  - # 11
    frequency:    5.6925700899
  - # 12
    frequency:    6.0702638391
  - # 13
    frequency:    7.7067943101
  - # 14
    frequency:    8.1709035896
  - # 15
    frequency:   10.7778182360
  - # 16
    frequency:   11.0421008058
  - # 17
    frequency:   16.2125051229
  - # 18
    frequency:   16.4049181687
  - # 19
    frequency:   16.7864127902
  - # 20
    frequency:   16.9511007524
  - # 21
    frequency:   17.0490305973
  - # 22
    frequency:   37.1988635347
  - # 23
    frequency:   37.9768835942
  - # 24
    frequency:   68.1597716372

- q-position: [    0.1313131,    0.0000000,    0.0000000 ]
  distance:    0.0451599
  band:
  - # 1
    frequency:   -5.9150834824
  - # 2
    frequency:   -5.0998992300
  - # 3
    frequency:   -0.6577725791
  - # 4
    frequency:    0.7474178448
  - # 5
    frequency:    1.1152577034
  - # 6
    frequency:    1.3762828803
  - # 7
    frequency:    2.2103808357
  - # 8
    frequency:    3.0195440887
  - # 9
    frequency:    3.3697604805
  - # 10
    frequency:    4.4745939622
  - # 11
    frequency:    5.7061827650
  - # 12
    frequency:    6.1076351130
  - # 13
    frequency:    7.6896553943
  - # 14
    frequency:    8.1448492292
  - # 15
    frequency:   10.7829802653
  - # 16
    frequency:   11.0659998837
  - # 17
    frequency:   16.2013703342
  - # 18
    frequency:   16.4097382550
  - # 19
    frequency:   16.7947230331
  - # 20
    frequency:   16.9510646657
  - # 21
    frequency:   17.0560102922
  - # 22
    frequency:   37.1735095853
  - # 23
    frequency:   37.9765624011
  - # 24
    frequency:   68.1132683340

- q-position: [    0.1363636,    0.0000000,    0.0000000 ]
  distance:    0.0468968
  band:
  - # 1
    frequency:   -5.9327737232
  - # 2
    frequency:   -5.0527647322
  - # 3
    frequency:   -0.6180754413
  - # 4
    frequency:    0.8070444299
  - # 5
    frequency:    1.1853880141
  - # 6
    frequency:    1.4261254031
  - # 7