nqpoint: 300    
npath: 3      
segment_nqpoint:
- 100
- 100
- 100
labels:
- [ 'G', 'M' ]
- [ 'M', 'K' ]
- [ 'K', 'G' ]
reciprocal_lattice:
- [   0.29501621,   0.17032769,   0.00000000 ] # a*
- [   0.00000000,   0.34065538,   0.00000000 ] # b*
- [   0.00000000,   0.00000000,   0.03722821 ] # c*
natom: 8      
lattice:
- [     3.389644263323640,     0.000000000000000,     0.000000000000000 ] # a
- [    -1.694822131661820,     2.935518041833345,     0.000000000000000 ] # b
- [     0.000000000000000,     0.000000000000000,    26.861350300488851 ] # c
points:
- symbol: C # 1
  coordinates: [  0.000000000000000,  0.000000000000000,  0.520841144234604 ]
  mass: 12.010700
- symbol: C # 2
  coordinates: [  0.333332985432215,  0.666666983183674,  0.620317169351745 ]
  mass: 12.010700
- symbol: C # 3
  coordinates: [  0.666666984744047,  0.333332985985145,  0.379301511559241 ]
  mass: 12.010700
- symbol: N # 4
  coordinates: [  0.333332985432215,  0.666666983183674,  0.664946106605958 ]
  mass: 14.006700
- symbol: N # 5
  coordinates: [  0.666666984744047,  0.333332985985145,  0.335053893394042 ]
  mass: 14.006700
- symbol: O # 6
  coordinates: [  0.666666984744047,  0.333332985985145,  0.429095100593594 ]
  mass: 15.999400
- symbol: Sc # 7
  coordinates: [  0.333332985432215,  0.666666983183674,  0.474284795277013 ]
  mass: 44.955912
- symbol: Sc # 8
  coordinates: [  0.666666984744047,  0.333332985985145,  0.567172593579171 ]
  mass: 44.955912

phonon:
- q-position: [    0.0000000,    0.0000000,    0.0000000 ]
  distance:    0.0000000
  band:
  - # 1
    frequency:   -2.7247937339
  - # 2
    frequency:   -2.7247937339
  - # 3
    frequency:   -1.4008099122
  - # 4
    frequency:   -1.4008099122
  - # 5
    frequency:   -0.0000011678
  - # 6
    frequency:    0.0000002948
  - # 7
    frequency:    0.0000013441
  - # 8
    frequency:    4.7048588210
  - # 9
    frequency:    4.7048588210
  - # 10
    frequency:    5.8018216718
  - # 11
    frequency:    6.0080201531
  - # 12
    frequency:    6.0080201531
  - # 13
    frequency:    7.9926478973
  - # 14
    frequency:    7.9926478973
  - # 15
    frequency:    8.8037504464
  - # 16
    frequency:   11.3089769671
  - # 17
    frequency:   11.3089769671
  - # 18
    frequency:   11.7319567488
  - # 19
    frequency:   13.7431642272
  - # 20
    frequency:   13.7431642272
  - # 21
    frequency:   18.7395727844
  - # 22
    frequency:   31.9688266275
  - # 23
    frequency:   62.8373205751
  - # 24
    frequency:   67.7928069312

- q-position: [    0.0050505,    0.0000000,    0.0000000 ]
  distance:    0.0017205
  band:
  - # 1
    frequency:   -2.7245996689
  - # 2
    frequency:   -2.7242393050
  - # 3
    frequency:   -1.4000581881
  - # 4
    frequency:   -1.3982400041
  - # 5
    frequency:   -0.0361582862
  - # 6
    frequency:    0.0802953478
  - # 7
    frequency:    0.1274840141
  - # 8
    frequency:    4.7051529187
  - # 9
    frequency:    4.7058418434
  - # 10
    frequency:    5.8009461435
  - # 11
    frequency:    6.0083123520
  - # 12
    frequency:    6.0133080184
  - # 13
    frequency:    7.9927257663
  - # 14
    frequency:    7.9940287939
  - # 15
    frequency:    8.8036828540
  - # 16
    frequency:   11.3095365192
  - # 17
    frequency:   11.3153343966
  - # 18
    frequency:   11.7315074897
  - # 19
    frequency:   13.7432110814
  - # 20
    frequency:   13.7433839225
  - # 21
    frequency:   18.7380122903
  - # 22
    frequency:   31.9682432883
  - # 23
    frequency:   62.8372019051
  - # 24
    frequency:   67.7925435688

- q-position: [    0.0101010,    0.0000000,    0.0000000 ]
  distance:    0.0034410
  band:
  - # 1
    frequency:   -2.7240192689
  - # 2
    frequency:   -2.7225862216
  - # 3
    frequency:   -1.3978108559
  - # 4
    frequency:   -1.3905465434
  - # 5
    frequency:   -0.0434074388
  - # 6
    frequency:    0.1606520346
  - # 7
    frequency:    0.2486579301
  - # 8
    frequency:    4.7060341965
  - # 9
    frequency:    4.7087838838
  - # 10
    frequency:    5.7985512033
  - # 11
    frequency:    6.0091857627
  - # 12
    frequency:    6.0287788525
  - # 13
    frequency:    7.9929585670
  - # 14
    frequency:    7.9981634443
  - # 15
    frequency:    8.8034816153
  - # 16
    frequency:   11.3112110518
  - # 17
    frequency:   11.3342687864
  - # 18
    frequency:   11.7303091919
  - # 19
    frequency:   13.7433516797
  - # 20
    frequency:   13.7440426696
  - # 21
    frequency:   18.7333343393
  - # 22
    frequency:   31.9664954403
  - # 23
    frequency:   62.8368462584
  - # 24
    frequency:   67.7917541976

- q-position: [    0.0151515,    0.0000000,    0.0000000 ]
  distance:    0.0051614
  band:
  - # 1
    frequency:   -2.7230578669
  - # 2
    frequency:   -2.7198645110
  - # 3
    frequency:   -1.3940909190
  - # 4
    frequency:   -1.3777749403
  - # 5
    frequency:   -0.0507511645
  - # 6
    frequency:    0.2411272804
  - # 7
    frequency:    0.3715767367
  - # 8
    frequency:    4.7074996150
  - # 9
    frequency:    4.7136641603
  - # 10
    frequency:    5.7951619753
  - # 11
    frequency:    6.0106308748
  - # 12
    frequency:    6.0534352845
  - # 13
    frequency:    7.9933438891
  - # 14
    frequency:    8.0050270197
  - # 15
    frequency:    8.8031513603
  - # 16
    frequency:   11.3139882250
  - # 17
    frequency:   11.3652819612
  - # 18
    frequency:   11.7288912017
  - # 19
    frequency:   13.7435861285
  - # 20
    frequency:   13.7451394692
  - # 21
    frequency:   18.7255495158
  - # 22
    frequency:   31.9635895776
  - # 23
    frequency:   62.8362547237
  - # 24
    frequency:   67.7904409615

- q-position: [    0.0202020,    0.0000000,    0.0000000 ]
  distance:    0.0068819
  band:
  - # 1
    frequency:   -2.7217241794
  - # 2
    frequency:   -2.7161223508
  - # 3
    frequency:   -1.3889350373
  - # 4
    frequency:   -1.3599898881
  - # 5
    frequency:   -0.0560870269
  - # 6
    frequency:    0.3217703785
  - # 7
    frequency:    0.4954784247
  - # 8
    frequency:    4.7095441327
  - # 9
    frequency:    4.7204489750
  - # 10
    frequency:    5.7912957038
  - # 11
    frequency:    6.0126319964
  - # 12
    frequency:    6.0860089662
  - # 13
    frequency:    7.9938777492
  - # 14
    frequency:    8.0145758710
  - # 15
    frequency:    8.8026998581
  - # 16
    frequency:   11.3178475721
  - # 17
    frequency:   11.4071851001
  - # 18
    frequency:   11.7284826345
  - # 19
    frequency:   13.7439146048
  - # 20
    frequency:   13.7466727161
  - # 21
    frequency:   18.7146754293
  - # 22
    frequency:   31.9595364773
  - # 23
    frequency:   62.8354291086
  - # 24
    frequency:   67.7886074215

- q-position: [    0.0252525,    0.0000000,    0.0000000 ]
  distance:    0.0086024
  band:
  - # 1
    frequency:   -2.7200300582
  - # 2
    frequency:   -2.7114235006
  - # 3
    frequency:   -1.3823911593
  - # 4
    frequency:   -1.3372598953
  - # 5
    frequency:   -0.0567282290
  - # 6
    frequency:    0.4026194841
  - # 7
    frequency:    0.6202635605
  - # 8
    frequency:    4.7121607419
  - # 9
    frequency:    4.7290929464
  - # 10
    frequency:    5.7873018766
  - # 11
    frequency:    6.0151674875
  - # 12
    frequency:    6.1251708751
  - # 13
    frequency:    7.9945546388
  - # 14
    frequency:    8.0267444788
  - # 15
    frequency:    8.8021380963
  - # 16
    frequency:   11.3227606512
  - # 17
    frequency:   11.4572101921
  - # 18
    frequency:   11.7318843151
  - # 19
    frequency:   13.7443373534
  - # 20
    frequency:   13.7486402946
  - # 21
    frequency:   18.7007366668
  - # 22
    frequency:   31.9543511298
  - # 23
    frequency:   62.8343719301
  - # 24
    frequency:   67.7862585367

- q-position: [    0.0303030,    0.0000000,    0.0000000 ]
  distance:    0.0103229
  band:
  - # 1
    frequency:   -2.7179901620
  - # 2
    frequency:   -2.7058441278
  - # 3
    frequency:   -1.3745154965
  - # 4
    frequency:   -1.3096377337
  - # 5
    frequency:   -0.0480336882
  - # 6
    frequency:    0.4836992312
  - # 7
    frequency:    0.7459176640
  - # 8
    frequency:    4.7153405188
  - # 9
    frequency:    4.7395404507
  - # 10
    frequency:    5.7833597985
  - # 11
    frequency:    6.0182100788
  - # 12
    frequency:    6.1695976260
  - # 13
    frequency:    7.9953675927
  - # 14
    frequency:    8.0414418768
  - # 15
    frequency:    8.8014803956
  - # 16
    frequency:   11.3286912555
  - # 17
    frequency:   11.5089299514
  - # 18
    frequency:   11.7455274145
  - # 19
    frequency:   13.7448546857
  - # 20
    frequency:   13.7510397278
  - # 21
    frequency:   18.6837647286
  - # 22
    frequency:   31.9480526423
  - # 23
    frequency:   62.8330864011
  - # 24
    frequency:   67.7834006390

- q-position: [    0.0353535,    0.0000000,    0.0000000 ]
  distance:    0.0120434
  band:
  - # 1
    frequency:   -2.7156215632
  - # 2
    frequency:   -2.6994693461
  - # 3
    frequency:   -1.3653691071
  - # 4
    frequency:   -1.2771388078
  - # 5
    frequency:    0.0132830914
  - # 6
    frequency:    0.5650193313
  - # 7
    frequency:    0.8724101708
  - # 8
    frequency:    4.7190726895
  - # 9
    frequency:    4.7517271118
  - # 10
    frequency:    5.7795352406
  - # 11
    frequency:    6.0217272665
  - # 12
    frequency:    6.2179862834
  - # 13
    frequency:    7.9963082736
  - # 14
    frequency:    8.0585482106
  - # 15
    frequency:    8.8007445626
  - # 16
    frequency:   11.3355956856
  - # 17
    frequency:   11.5502014579
  - # 18
    frequency:   11.7815053485
  - # 19
    frequency:   13.7454669752
  - # 20
    frequency:   13.7538683976
  - # 21
    frequency:   18.6637979457
  - # 22
    frequency:   31.9406641164
  - # 23
    frequency:   62.8315764127
  - # 24
    frequency:   67.7800413997

- q-position: [    0.0404040,    0.0000000,    0.0000000 ]
  distance:    0.0137639
  band:
  - # 1
    frequency:   -2.7129433108
  - # 2
    frequency:   -2.6923897706
  - # 3
    frequency:   -1.3550143801
  - # 4
    frequency:   -1.2397194629
  - # 5
    frequency:    0.0701821711
  - # 6
    frequency:    0.6465742098
  - # 7
    frequency:    0.9996728144
  - # 8
    frequency:    4.7233447099
  - # 9
    frequency:    4.7655812336
  - # 10
    frequency:    5.7758342781
  - # 11
    frequency:    6.0256817738
  - # 12
    frequency:    6.2690731114
  - # 13
    frequency:    7.9973670734
  - # 14
    frequency:    8.0779121915
  - # 15
    frequency:    8.7999520877
  - # 16
    frequency:   11.3434230798
  - # 17
    frequency:   11.5705920799
  - # 18
    frequency:   11.8501226694
  - # 19
    frequency:   13.7461746536
  - # 20
    frequency:   13.7571238722
  - # 21
    frequency:   18.6408813818
  - # 22
    frequency:   31.9322125008
  - # 23
    frequency:   62.8298465139
  - # 24
    frequency:   67.7761897907

- q-position: [    0.0454545,    0.0000000,    0.0000000 ]
  distance:    0.0154843
  band:
  - # 1
    frequency:   -2.7099759687
  - # 2
    frequency:   -2.6846983282
  - # 3
    frequency:   -1.3435117122
  - # 4
    frequency:   -1.1972565710
  - # 5
    frequency:    0.1128600805
  - # 6
    frequency:    0.7283436263
  - # 7
    frequency:    1.1276000305
  - # 8
    frequency:    4.7281423612
  - # 9
    frequency:    4.7810251270
  - # 10
    frequency:    5.7722383949
  - # 11
    frequency:    6.0300320688
  - # 12
    frequency:    6.3216658878
  - # 13
    frequency:    7.9985332292
  - # 14
    frequency:    8.0993501930
  - # 15
    frequency:    8.7991283941
  - # 16
    frequency:   11.3521158057
  - # 17
    frequency:   11.5726815256
  - # 18
    frequency:   11.9485696384
  - # 19
    frequency:   13.7469782044
  - # 20
    frequency:   13.7608044019
  - # 21
    frequency:   18.6150667211
  - # 22
    frequency:   31.9227284204
  - # 23
    frequency:   62.8279018867
  - # 24
    frequency:   67.7718560380

- q-position: [    0.0505051,    0.0000000,    0.0000000 ]
  distance:    0.0172048
  band:
  - # 1
    frequency:   -2.7067411503
  - # 2
    frequency:   -2.6764874827
  - # 3
    frequency:   -1.3309166225
  - # 4
    frequency:   -1.1495284477
  - # 5
    frequency:    0.1565896471
  - # 6
    frequency:    0.8102941311
  - # 7
    frequency:    1.2560571184
  - # 8
    frequency:    4.7334498598
  - # 9
    frequency:    4.7979763278
  - # 10
    frequency:    5.7687236091
  - # 11
    frequency:    6.0347329251
  - # 12
    frequency:    6.3746816290
  - # 13
    frequency:    7.9997949519
  - # 14
    frequency:    8.1226475720
  - # 15
    frequency:    8.7983031510
  - # 16
    frequency:   11.3616099089
  - # 17
    frequency:   11.5637923072
  - # 18
    frequency:   12.0691726349
  - # 19
    frequency:   13.7478781556
  - # 20
    frequency:   13.7649097014
  - # 21
    frequency:   18.5864121438
  - # 22
    frequency:   31.9122459834
  - # 23
    frequency:   62.8257483190
  - # 24
    frequency:   67.7670515697

- q-position: [    0.0555556,    0.0000000,    0.0000000 ]
  distance:    0.0189253
  band:
  - # 1
    frequency:   -2.7032610672
  - # 2
    frequency:   -2.6678469457
  - # 3
    frequency:   -1.3172774734
  - # 4
    frequency:   -1.0961954909
  - # 5
    frequency:    0.2032405631
  - # 6
    frequency:    0.8923811373
  - # 7
    frequency:    1.3848905176
  - # 8
    frequency:    4.7392499820
  - # 9
    frequency:    4.8163487201
  - # 10
    frequency:    5.7652695758
  - # 11
    frequency:    6.0397360141
  - # 12
    frequency:    6.4271799006
  - # 13
    frequency:    8.0011395658
  - # 14
    frequency:    8.1475624715
  - # 15
    frequency:    8.7975106643
  - # 16
    frequency:   11.3718356195
  - # 17
    frequency:   11.5484261215
  - # 18
    frequency:   12.2069448096
  - # 19
    frequency:   13.7488750694
  - # 20
    frequency:   13.7694422454
  - # 21
    frequency:   18.5549821937
  - # 22
    frequency:   31.9008025680
  - # 23
    frequency:   62.8233921736
  - # 24
    frequency:   67.7617889586

- q-position: [    0.0606061,    0.0000000,    0.0000000 ]
  distance:    0.0206458
  band:
  - # 1
    frequency:   -2.6995581088
  - # 2
    frequency:   -2.6588618704
  - # 3
    frequency:   -1.3026338764
  - # 4
    frequency:   -1.0367769958
  - # 5
    frequency:    0.2535287673
  - # 6
    frequency:    0.9745513515
  - # 7
    frequency:    1.5139373395
  - # 8
    frequency:    4.7455242027
  - # 9
    frequency:    4.8360535845
  - # 10
    frequency:    5.7618632420
  - # 11
    frequency:    6.0449905166
  - # 12
    frequency:    6.4783852463
  - # 13
    frequency:    8.0025536575
  - # 14
    frequency:    8.1738319275
  - # 15
    frequency:    8.7967903634
  - # 16
    frequency:   11.3827179119
  - # 17
    frequency:   11.5287475777
  - # 18
    frequency:   12.3590964295
  - # 19
    frequency:   13.7499695310
  - # 20
    frequency:   13.7744095484
  - # 21
    frequency:   18.5208476408
  - # 22
    frequency:   31.8884385915
  - # 23
    frequency:   62.8208403548
  - # 24
    frequency:   67.7560818592

- q-position: [    0.0656566,    0.0000000,    0.0000000 ]
  distance:    0.0223663
  band:
  - # 1
    frequency:   -2.6956544659
  - # 2
    frequency:   -2.6496114753
  - # 3
    frequency:   -1.2870157696
  - # 4
    frequency:   -0.9706176692
  - # 5
    frequency:    0.3078909905
  - # 6
    frequency:    1.0567453153
  - # 7
    frequency:    1.6430327983
  - # 8
    frequency:    4.7522528473
  - # 9
    frequency:    4.8570005851
  - # 10
    frequency:    5.7584998225
  - # 11
    frequency:    6.0504437417
  - # 12
    frequency:    6.5276961526
  - # 13
    frequency:    8.0040232305
  - # 14
    frequency:    8.2011796529
  - # 15
    frequency:    8.7961874061
  - # 16
    frequency:   11.3941771183
  - # 17
    frequency:   11.5058285345
  - # 18
    frequency:   12.5237909426
  - # 19
    frequency:   13.7511621344
  - # 20
    frequency:   13.7798284714
  - # 21
    frequency:   18.4840853470
  - # 22
    frequency:   31.8751972620
  - # 23
    frequency:   62.8181002724
  - # 24
    frequency:   67.7499449396

- q-position: [    0.0707071,    0.0000000,    0.0000000 ]
  distance:    0.0240867
  band:
  - # 1
    frequency:   -2.6915718051
  - # 2
    frequency:   -2.6401680154
  - # 3
    frequency:   -1.2704430761
  - # 4
    frequency:   -0.8968306127
  - # 5
    frequency:    0.3667078346
  - # 6
    frequency:    1.1388998439
  - # 7
    frequency:    1.7720151673
  - # 8
    frequency:    4.7594152557
  - # 9
    frequency:    4.8790987000
  - # 10
    frequency:    5.7551825952
  - # 11
    frequency:    6.0560417428
  - # 12
    frequency:    6.5746810689
  - # 13
    frequency:    8.0055338653
  - # 14
    frequency:    8.2293245313
  - # 15
    frequency:    8.7957534257
  - # 16
    frequency:   11.4061295878
  - # 17
    frequency:   11.4802532511
  - # 18
    frequency:   12.6995433107
  - # 19
    frequency:   13.7524534648
  - # 20
    frequency:   13.7857340913
  - # 21
    frequency:   18.4447781417
  - # 22
    frequency:   31.8611243169
  - # 23
    frequency:   62.8151798032
  - # 24
    frequency:   67.7433938104

- q-position: [    0.0757576,    0.0000000,    0.0000000 ]
  distance:    0.0258072
  band:
  - # 1
    frequency:   -2.6873310025
  - # 2
    frequency:   -2.6305960157
  - # 3
    frequency:   -1.2529258117
  - # 4
    frequency:   -0.8141837560
  - # 5
    frequency:    0.4303808073
  - # 6
    frequency:    1.2209502101
  - # 7
    frequency:    1.9007284800
  - # 8
    frequency:    4.7669899573
  - # 9
    frequency:    4.9022570982
  - # 10
    frequency:    5.7519222663
  - # 11
    frequency:    6.0617299202
  - # 12
    frequency:    6.6190640217
  - # 13
    frequency:    8.0070708811
  - # 14
    frequency:    8.2579887123
  - # 15
    frequency:    8.7955474465
  - # 16
    frequency:   11.4184883908
  - # 17
    frequency:   11.4523762509
  - # 18
    frequency:   12.8849602091
  - # 19
    frequency:   13.7538440799
  - # 20
    frequency:   13.7922000601
  - # 21
    frequency:   18.4030147197
  - # 22
    frequency:   31.8462677494
  - # 23
    frequency:   62.8120872502
  - # 24
    frequency:   67.7364449484

- q-position: [    0.0808081,    0.0000000,    0.0000000 ]
  distance:    0.0275277
  band:
  - # 1
    frequency:   -2.6829519346
  - # 2
    frequency:   -2.6209516900
  - # 3
    frequency:   -1.2344644830
  - # 4
    frequency:   -0.7208332775
  - # 5
    frequency:    0.4993338193
  - # 6
    frequency:    1.3028319794
  - # 7
    frequency:    2.0290234601
  - # 8
    frequency:    4.7749548548
  - # 9
    frequency:    4.9263859594
  - # 10
    frequency:    5.7487362604
  - # 11
    frequency:    6.0674536035
  - # 12
    frequency:    6.6607033166
  - # 13
    frequency:    8.0086194973
  - # 14
    frequency:    8.2869042985
  - # 15
    frequency:    8.7956369856
  - # 16
    frequency:   11.4224364357
  - # 17
    frequency:   11.4311640598
  - # 18
    frequency:   13.0785942760
  - # 19
    frequency:   13.7553344867
  - # 20
    frequency:   13.7993926358
  - # 21
    frequency:   18.3588895790
  - # 22
    frequency:   31.8306775247
  - # 23
    frequency:   62.8088313009
  - # 24
    frequency:   67.7291156184

- q-position: [    0.0858586,    0.0000000,    0.0000000 ]
  distance:    0.0292482
  band:
  - # 1
    frequency:   -2.6784533282
  - # 2
    frequency:   -2.6112824957
  - # 3
    frequency:   -1.2150506278
  - # 4
    frequency:   -0.6135879590
  - # 5
    frequency:    0.5739214269
  - # 6
    frequency:    1.3844824649
  - # 7
    frequency:    2.1567572093
  - # 8
    frequency:    4.7832874162
  - # 9
    frequency:    4.9513972358
  - # 10
    frequency:    5.7456480841
  - # 11
    frequency:    6.0731586062
  - # 12
    frequency:    6.6995668999
  - # 13
    frequency:    8.0101649941
  - # 14
    frequency:    8.3158179088
  - # 15
    frequency:    8.7960993468
  - # 16
    frequency:   11.3906111658
  - # 17
    frequency:   11.4440653619
  - # 18
    frequency:   13.2787376138
  - # 19
    frequency:   13.7569251167
  - # 20
    frequency:   13.8077472300
  - # 21
    frequency:   18.3125030193
  - # 22
    frequency:   31.8144052906
  - # 23
    frequency:   62.8054209826
  - # 24
    frequency:   67.7214237918

- q-position: [    0.0909091,    0.0000000,    0.0000000 ]
  distance:    0.0309687
  band:
  - # 1
    frequency:   -2.6738526630
  - # 2
    frequency:   -2.6016267966
  - # 3
    frequency:   -1.1946673636
  - # 4
    frequency:   -0.4854816863
  - # 5
    frequency:    0.6542104834
  - # 6
    frequency:    1.4658418087
  - # 7
    frequency:    2.2837921069
  - # 8
    frequency:    4.7919648710
  - # 9
    frequency:    4.9772053575
  - # 10
    frequency:    5.7426868157
  - # 11
    frequency:    6.0787917479
  - # 12
    frequency:    6.7357074164
  - # 13
    frequency:    8.0116928671
  - # 14
    frequency:    8.3444928091
  - # 15
    frequency:    8.7970230754
  - # 16
    frequency:   11.3570436919
  - # 17
    frequency:   11.4571000960
  - # 18
    frequency:   13.4826149273
  - # 19
    frequency:   13.7586162976
  - # 20
    frequency:   13.8187716658
  - # 21
    frequency:   18.2639612367
  - # 22
    frequency:   31.7975040819
  - # 23
    frequency:   62.8018656182
  - # 24
    frequency:   67.7133880631

- q-position: [    0.0959596,    0.0000000,    0.0000000 ]
  distance:    0.0326892
  band:
  - # 1
    frequency:   -2.6691661213
  - # 2
    frequency:   -2.5920136325
  - # 3
    frequency:   -1.1732898366
  - # 4
    frequency:   -0.3142688655
  - # 5
    frequency:    0.7396843592
  - # 6
    frequency:    1.5468537286
  - # 7
    frequency:    2.4099942609
  - # 8
    frequency:    4.8009644112
  - # 9
    frequency:    5.0037278852
  - # 10
    frequency:    5.7398867301
  - # 11
    frequency:    6.0843013404
  - # 12
    frequency:    6.7692391597
  - # 13
    frequency:    8.0131889784
  - # 14
    frequency:    8.3727087320
  - # 15
    frequency:    8.7985094774
  - # 16
    frequency:   11.3218579377
  - # 17
    frequency:   11.4701759059
  - # 18
    frequency:   13.6797283825
  - # 19
    frequency:   13.7604082230
  - # 20
    frequency:   13.8417084454
  - # 21
    frequency:   18.2133765614
  - # 22
    frequency:   31.7800280232
  - # 23
    frequency:   62.7981747796
  - # 24
    frequency:   67.7050275655

- q-position: [    0.1010101,    0.0000000,    0.0000000 ]
  distance:    0.0344096
  band:
  - # 1
    frequency:   -2.6644085794
  - # 2
    frequency:   -2.5824626119
  - # 3
    frequency:   -1.1508854888
  - # 4
    frequency:    0.1845594235
  - # 5
    frequency:    0.8290954583
  - # 6
    frequency:    1.6274659812
  - # 7
    frequency:    2.5352317384
  - # 8
    frequency:    4.8102633920
  - # 9
    frequency:    5.0308861194
  - # 10
    frequency:    5.7372870465
  - # 11
    frequency:    6.0896376358
  - # 12
    frequency:    6.8003182203
  - # 13
    frequency:    8.0146396978
  - # 14
    frequency:    8.4002598960
  - # 15
    frequency:    8.8006739898
  - # 16
    frequency:   11.2851668979
  - # 17
    frequency:   11.4832011010
  - # 18
    frequency:   13.7623009202
  - # 19
    frequency:   13.7937726605
  - # 20
    frequency:   13.9516301755
  - # 21
    frequency:   18.1608679111
  - # 22
    frequency:   31.7620320317
  - # 23
    frequency:   62.7943582415
  - # 24
    frequency:   67.6963618854

- q-position: [    0.1060606,    0.0000000,    0.0000000 ]
  distance:    0.0361301
  band:
  - # 1
    frequency:   -2.6595936307
  - # 2
    frequency:   -2.5729839540
  - # 3
    frequency:   -1.1274140770
  - # 4
    frequency:    0.4051754881
  - # 5
    frequency:    0.9207048145
  - # 6
    frequency:    1.7076305977
  - # 7
    frequency:    2.6593727140
  - # 8
    frequency:    4.8198395319
  - # 9
    frequency:    5.0586056773
  - # 10
    frequency:    5.7349317829
  - # 11
    frequency:    6.0947532357
  - # 12
    frequency:    6.8291263695
  - # 13
    frequency:    8.0160320369
  - # 14
    frequency:    8.4269520754
  - # 15
    frequency:    8.8036470042
  - # 16
    frequency:   11.2470776389
  - # 17
    frequency:   11.4960854770
  - # 18
    frequency:   13.7642942162
  - # 19
    frequency:   13.8183477999
  - # 20
    frequency:   14.1537369357
  - # 21
    frequency:   18.1065615669
  - # 22
    frequency:   31.7435715223
  - # 23
    frequency:   62.7904259347
  - # 24
    frequency:   67.6874109765

- q-position: [    0.1111111,    0.0000000,    0.0000000 ]
  distance:    0.0378506
  band:
  - # 1
    frequency:   -2.6547336356
  - # 2
    frequency:   -2.5635787089
  - # 3
    frequency:   -1.1028273903
  - # 4
    frequency:    0.5422540460
  - # 5
    frequency:    1.0127912921
  - # 6
    frequency:    1.7873039451
  - # 7
    frequency:    2.7822836112
  - # 8
    frequency:    4.8296711090
  - # 9
    frequency:    5.0868170530
  - # 10
    frequency:    5.7328696967
  - # 11
    frequency:    6.0996034620
  - # 12
    frequency:    6.8558586604
  - # 13
    frequency:    8.0173537723
  - # 14
    frequency:    8.4525998720
  - # 15
    frequency:    8.8075734864
  - # 16
    frequency:   11.2076944075
  - # 17
    frequency:   11.5087411253
  - # 18
    frequency:   13.7663877031
  - # 19
    frequency:   13.8306843743
  - # 20
    frequency:   14.3696392605
  - # 21
    frequency:   18.0505924409
  - # 22
    frequency:   31.7247021167
  - # 23
    frequency:   62.7863878989
  - # 24
    frequency:   67.6781950741

- q-position: [    0.1161616,    0.0000000,    0.0000000 ]
  distance:    0.0395711
  band:
  - # 1
    frequency:   -2.6498397886
  - # 2
    frequency:   -2.5542391762
  - # 3
    frequency:   -1.0770686097
  - # 4
    frequency:    0.6530286500
  - # 5
    frequency:    1.1040419435
  - # 6
    frequency:    1.8664466587
  - # 7
    frequency:    2.9038272730
  - # 8
    frequency:    4.8397371521
  - # 9
    frequency:    5.1154561791
  - # 10
    frequency:    5.7311542937
  - # 11
    frequency:    6.1041466903
  - # 12
    frequency:    6.8807143778
  - # 13
    frequency:    8.0185935577
  - # 14
    frequency:    8.4770255986
  - # 15
    frequency:    8.8126104340
  - # 16
    frequency:   11.1671206511
  - # 17
    frequency:   11.5210832237
  - # 18
    frequency:   13.7685807039
  - # 19
    frequency:   13.8408173000
  - # 20
    frequency:   14.5881895674
  - # 21
    frequency:   17.9931061010
  - # 22
    frequency:   31.7054793603
  - # 23
    frequency:   62.7822542368
  - # 24
    frequency:   67.6687346107

- q-position: [    0.1212121,    0.0000000,    0.0000000 ]
  distance:    0.0412916
  band:
  - # 1
    frequency:   -2.6449221986
  - # 2
    frequency:   -2.5449495306
  - # 3
    frequency:   -1.0500712445
  - # 4
    frequency:    0.7508948089
  - # 5
    frequency:    1.1936426430
  - # 6
    frequency:    1.9450234835
  - # 7
    frequency:    3.0238611720
  - # 8
    frequency:    4.8500176234
  - # 9
    frequency:    5.1444650089
  - # 10
    frequency:    5.7298438825
  - # 11
    frequency:    6.1083446475
  - # 12
    frequency:    6.9038908011
  - # 13
    frequency:    8.0197410243
  - # 14
    frequency:    8.5000613025
  - # 15
    frequency:    8.8189210019
  - # 16
    frequency:   11.1254603978
  - # 17
    frequency:   11.5330307977
  - # 18
    frequency:   13.7708722389
  - # 19
    frequency:   13.8503363210
  - # 20
    frequency:   14.8067334817
  - # 21
    frequency:   17.9342619904
  - # 22
    frequency:   31.6859584463
  - # 23
    frequency:   62.7780350679
  - # 24
    frequency:   67.6590501328

- q-position: [    0.1262626,    0.0000000,    0.0000000 ]
  distance:    0.0430120
  band:
  - # 1
    frequency:   -2.6399899749
  - # 2
    frequency:   -2.5356866491
  - # 3
    frequency:   -1.0217575545
  - # 4
    frequency:    0.8415234578
  - # 5
    frequency:    1.2811772819
  - # 6
    frequency:    2.0230030553
  - # 7
    frequency:    3.1422356627
  - # 8
    frequency:    4.8604935914
  - # 9
    frequency:    5.1737921369
  - # 10
    frequency:    5.7290016571
  - # 11
    frequency:    6.1121626759
  - # 12
    frequency:    6.9255792044
  - # 13
    frequency:    8.0207868692
  - # 14
    frequency:    8.5215552193
  - # 15
    frequency:    8.8266642645
  - # 16
    frequency:   11.0828192575
  - # 17
    frequency:   11.5445074444
  - # 18
    frequency:   13.7732609947
  - # 19
    frequency:   13.8596928876
  - # 20
    frequency:   15.0238008090
  - # 21
    frequency:   17.8742385797
  - # 22
    frequency:   31.6661939516
  - # 23
    frequency:   62.7737404839
  - # 24
    frequency:   67.6491622186

- q-position: [    0.1313131,    0.0000000,    0.0000000 ]
  distance:    0.0447325
  band:
  - # 1
    frequency:   -2.6350513160
  - # 2
    frequency:   -2.5264211143
  - # 3
    frequency:   -0.9920363239
  - # 4
    frequency:    0.9278109549
  - # 5
    frequency:    1.3664864321
  - # 6
    frequency:    2.1003576432
  - # 7
    frequency:    3.2587922773
  - # 8
    frequency:    4.8711473928
  - # 9
    frequency:    5.2033934744
  - # 10
    frequency:    5.7286957816
  - # 11
    frequency:    6.1155699663
  - # 12
    frequency:    6.9459625488
  - # 13
    frequency:    8.0217229304
  - # 14
    frequency:    8.5413829927
  - # 15
    frequency:    8.8359804317
  - # 16
    frequency:   11.0393052093
  - # 17
    frequency:   11.5554420097
  - # 18
    frequency:   13.7757452962
  - # 19
    frequency:   13.8690567898
  - # 20
    frequency:   15.2382418267
  - # 21
    frequency:   17.8132417479
  - # 22
    frequency:   31.6462395839
  - # 23
    frequency:   62.7693805050
  - # 24
    frequency:   67.6390913996

- q-position: [    0.1363636,    0.0000000,    0.0000000 ]
  distance:    0.0464530
  band:
  - # 1
    frequency:   -2.6301135962
  - # 2
    frequency:   -2.5171183599
  - # 3
    frequency:   -0.9607997877
  - # 4
    frequency:    1.0113775195
  - # 5
    frequency:    1.4495557244
  - # 6
    frequency:    2.1770628705
  - # 7