nqpoint: 300    
npath: 3      
segment_nqpoint:
- 100
- 100
- 100
labels:
- [ 'G', 'M' ]
- [ 'M', 'K' ]
- [ 'K', 'G' ]
reciprocal_lattice:
- [   0.32752369,   0.18909589,   0.00000000 ] # a*
- [   0.00000000,   0.37819178,   0.00000000 ] # b*
- [   0.00000000,   0.00000000,   0.04062211 ] # c*
natom: 6      
lattice:
- [     3.053214236494910,     0.000000000000000,     0.000000000000000 ] # a
- [    -1.526607118247455,     2.644161091998983,     0.000000000000000 ] # b
- [     0.000000000000000,     0.000000000000000,    24.617137622003082 ] # c
points:
- symbol: H # 1
  coordinates: [  0.666666984744047,  0.333332985985145,  0.365598963543012 ]
  mass: 1.007940
- symbol: N # 2
  coordinates: [  0.000000000000000,  0.000000000000000,  0.451396062415879 ]
  mass: 14.006700
- symbol: O # 3
  coordinates: [  0.333332985432215,  0.666666983183674,  0.634401036456989 ]
  mass: 15.999400
- symbol: P # 4
  coordinates: [  0.333332985432215,  0.666666983183674,  0.573848353594590 ]
  mass: 30.973762
- symbol: Ti # 5
  coordinates: [  0.333332985432215,  0.666666983183674,  0.404115405935540 ]
  mass: 47.867000
- symbol: Ti # 6
  coordinates: [  0.666666984744047,  0.333332985985145,  0.498684914069444 ]
  mass: 47.867000

phonon:
- q-position: [    0.0000000,    0.0000000,    0.0000000 ]
  distance:    0.0000000
  band:
  - # 1
    frequency:   -0.0000115433
  - # 2
    frequency:    0.0000003883
  - # 3
    frequency:    0.0000095400
  - # 4
    frequency:    2.6473412627
  - # 5
    frequency:    2.6473412627
  - # 6
    frequency:    4.7692606744
  - # 7
    frequency:    4.7692606744
  - # 8
    frequency:    6.0698359852
  - # 9
    frequency:    6.0698359852
  - # 10
    frequency:    7.0368848329
  - # 11
    frequency:   11.7975433268
  - # 12
    frequency:   15.6328780771
  - # 13
    frequency:   16.7921921713
  - # 14
    frequency:   16.7921921713
  - # 15
    frequency:   28.9525171461
  - # 16
    frequency:   28.9525171461
  - # 17
    frequency:   30.1750279844
  - # 18
    frequency:   34.5894590709

- q-position: [    0.0050505,    0.0000000,    0.0000000 ]
  distance:    0.0019101
  band:
  - # 1
    frequency:    0.0025586135
  - # 2
    frequency:    0.0665361337
  - # 3
    frequency:    0.1320263519
  - # 4
    frequency:    2.6474488834
  - # 5
    frequency:    2.6519216669
  - # 6
    frequency:    4.7696592048
  - # 7
    frequency:    4.7713519656
  - # 8
    frequency:    6.0694422072
  - # 9
    frequency:    6.0701766117
  - # 10
    frequency:    7.0377667002
  - # 11
    frequency:   11.7969889141
  - # 12
    frequency:   15.6326441607
  - # 13
    frequency:   16.7920603694
  - # 14
    frequency:   16.7920674084
  - # 15
    frequency:   28.9526979069
  - # 16
    frequency:   28.9531028398
  - # 17
    frequency:   30.1750414766
  - # 18
    frequency:   34.5892647659

- q-position: [    0.0101010,    0.0000000,    0.0000000 ]
  distance:    0.0038201
  band:
  - # 1
    frequency:    0.0102149458
  - # 2
    frequency:    0.1326771007
  - # 3
    frequency:    0.2639762510
  - # 4
    frequency:    2.6477938543
  - # 5
    frequency:    2.6655973501
  - # 6
    frequency:    4.7708525057
  - # 7
    frequency:    4.7776099336
  - # 8
    frequency:    6.0682725452
  - # 9
    frequency:    6.0711981442
  - # 10
    frequency:    7.0404070495
  - # 11
    frequency:   11.7953251796
  - # 12
    frequency:   15.6319437641
  - # 13
    frequency:   16.7916659918
  - # 14
    frequency:   16.7916940921
  - # 15
    frequency:   28.9532388684
  - # 16
    frequency:   28.9548573653
  - # 17
    frequency:   30.1750821764
  - # 18
    frequency:   34.5886821374

- q-position: [    0.0151515,    0.0000000,    0.0000000 ]
  distance:    0.0057302
  band:
  - # 1
    frequency:    0.0229112757
  - # 2
    frequency:    0.1980239999
  - # 3
    frequency:    0.3957735316
  - # 4
    frequency:    2.6484423926
  - # 5
    frequency:    2.6881751585
  - # 6
    frequency:    4.7728337614
  - # 7
    frequency:    4.7879872276
  - # 8
    frequency:    6.0663617733
  - # 9
    frequency:    6.0728995407
  - # 10
    frequency:    7.0447904096
  - # 11
    frequency:   11.7925506574
  - # 12
    frequency:   15.6307809229
  - # 13
    frequency:   16.7910121130
  - # 14
    frequency:   16.7910751336
  - # 15
    frequency:   28.9541360751
  - # 16
    frequency:   28.9577730695
  - # 17
    frequency:   30.1751507551
  - # 18
    frequency:   34.5877120447

- q-position: [    0.0202020,    0.0000000,    0.0000000 ]
  distance:    0.0076402
  band:
  - # 1
    frequency:    0.0405544654
  - # 2
    frequency:    0.2621706918
  - # 3
    frequency:    0.5273425920
  - # 4
    frequency:    2.6495044472
  - # 5
    frequency:    2.7193441615
  - # 6
    frequency:    4.7755917911
  - # 7
    frequency:    4.8024061197
  - # 8
    frequency:    6.0637670683
  - # 9
    frequency:    6.0752790614
  - # 10
    frequency:    7.0508919251
  - # 11
    frequency:   11.7886629814
  - # 12
    frequency:   15.6291622882
  - # 13
    frequency:   16.7901038258
  - # 14
    frequency:   16.7902153644
  - # 15
    frequency:   28.9553829587
  - # 16
    frequency:   28.9618372397
  - # 17
    frequency:   30.1752483387
  - # 18
    frequency:   34.5863559175

- q-position: [    0.0252525,    0.0000000,    0.0000000 ]
  distance:    0.0095503
  band:
  - # 1
    frequency:    0.0630200541
  - # 2
    frequency:    0.3247007895
  - # 3
    frequency:    0.6586086416
  - # 4
    frequency:    2.6511329092
  - # 5
    frequency:    2.7586906584
  - # 6
    frequency:    4.7791113102
  - # 7
    frequency:    4.8207601925
  - # 8
    frequency:    6.0605669422
  - # 9
    frequency:    6.0783342642
  - # 10
    frequency:    7.0586786535
  - # 11
    frequency:   11.7836589988
  - # 12
    frequency:   15.6270970165
  - # 13
    frequency:   16.7889481944
  - # 14
    frequency:   16.7891215044
  - # 15
    frequency:   28.9569703740
  - # 16
    frequency:   28.9670321686
  - # 17
    frequency:   30.1753765172
  - # 18
    frequency:   34.5846157531

- q-position: [    0.0303030,    0.0000000,    0.0000000 ]
  distance:    0.0114604
  band:
  - # 1
    frequency:    0.0901572330
  - # 2
    frequency:    0.3851854481
  - # 3
    frequency:    0.7894979152
  - # 4
    frequency:    2.6535221682
  - # 5
    frequency:    2.8057165723
  - # 6
    frequency:    4.7833732798
  - # 7
    frequency:    4.8429165154
  - # 8
    frequency:    6.0568599337
  - # 9
    frequency:    6.0820619980
  - # 10
    frequency:    7.0681112084
  - # 11
    frequency:   11.7775349265
  - # 12
    frequency:   15.6245966192
  - # 13
    frequency:   16.7875541888
  - # 14
    frequency:   16.7878021184
  - # 15
    frequency:   28.9588866489
  - # 16
    frequency:   28.9733352421
  - # 17
    frequency:   30.1755373591
  - # 18
    frequency:   34.5824941120

- q-position: [    0.0353535,    0.0000000,    0.0000000 ]
  distance:    0.0133704
  band:
  - # 1
    frequency:    0.1217941555
  - # 2
    frequency:    0.4431823196
  - # 3
    frequency:    0.9199378446
  - # 4
    frequency:    2.6569056721
  - # 5
    frequency:    2.8598593014
  - # 6
    frequency:    4.7883553299
  - # 7
    frequency:    4.8687181492
  - # 8
    frequency:    6.0527632098
  - # 9
    frequency:    6.0864583962
  - # 10
    frequency:    7.0791456053
  - # 11
    frequency:   11.7702865456
  - # 12
    frequency:   15.6216747755
  - # 13
    frequency:   16.7859326028
  - # 14
    frequency:   16.7862675581
  - # 15
    frequency:   28.9611176481
  - # 16
    frequency:   28.9807190514
  - # 17
    frequency:   30.1757334289
  - # 18
    frequency:   34.5799941123

- q-position: [    0.0404040,    0.0000000,    0.0000000 ]
  distance:    0.0152805
  band:
  - # 1
    frequency:    0.1577431324
  - # 2
    frequency:    0.4982360971
  - # 3
    frequency:    1.0498571876
  - # 4
    frequency:    2.6615520759
  - # 5
    frequency:    2.9205112731
  - # 6
    frequency:    4.7940322421
  - # 7
    frequency:    4.8979868013
  - # 8
    frequency:    6.0484112330
  - # 9
    frequency:    6.0915188685
  - # 10
    frequency:    7.0917351721
  - # 11
    frequency:   11.7619094317
  - # 12
    frequency:   15.6183471140
  - # 13
    frequency:   16.7840959548
  - # 14
    frequency:   16.7845298916
  - # 15
    frequency:   28.9636468497
  - # 16
    frequency:   28.9891515266
  - # 17
    frequency:   30.1759678092
  - # 18
    frequency:   34.5771194226

- q-position: [    0.0454545,    0.0000000,    0.0000000 ]
  distance:    0.0171905
  band:
  - # 1
    frequency:    0.1978054010
  - # 2
    frequency:    0.5498810920
  - # 3
    frequency:    1.1791861161
  - # 4
    frequency:    2.6677595168
  - # 5
    frequency:    2.9870378387
  - # 6
    frequency:    4.8003764716
  - # 7
    frequency:    4.9305254539
  - # 8
    frequency:    6.0439546340
  - # 9
    frequency:    6.0972380929
  - # 10
    frequency:    7.1058323998
  - # 11
    frequency:   11.7523992151
  - # 12
    frequency:   15.6146309665
  - # 13
    frequency:   16.7820583731
  - # 14
    frequency:   16.7826028176
  - # 15
    frequency:   28.9664554349
  - # 16
    frequency:   28.9985960904
  - # 17
    frequency:   30.1762441259
  - # 18
    frequency:   34.5738742543

- q-position: [    0.0505051,    0.0000000,    0.0000000 ]
  distance:    0.0191006
  band:
  - # 1
    frequency:    0.2417752972
  - # 2
    frequency:    0.5976462429
  - # 3
    frequency:    1.3078562672
  - # 4
    frequency:    2.6758475917
  - # 5
    frequency:    3.0587926336
  - # 6
    frequency:    4.8073586926
  - # 7
    frequency:    4.9661207996
  - # 8
    frequency:    6.0395594069
  - # 9
    frequency:    6.1036100078
  - # 10
    frequency:    7.1213906364
  - # 11
    frequency:   11.7417518649
  - # 12
    frequency:   15.6105451030
  - # 13
    frequency:   16.7798354670
  - # 14
    frequency:   16.7805015661
  - # 15
    frequency:   28.9695223887
  - # 16
    frequency:   29.0090118308
  - # 17
    frequency:   30.1765665775
  - # 18
    frequency:   34.5702633523

- q-position: [    0.0555556,    0.0000000,    0.0000000 ]
  distance:    0.0210107
  band:
  - # 1
    frequency:    0.2894437765
  - # 2
    frequency:    0.6410627972
  - # 3
    frequency:    1.4358007665
  - # 4
    frequency:    2.6861467576
  - # 5
    frequency:    3.1351299886
  - # 6
    frequency:    4.8149483500
  - # 7
    frequency:    5.0045453439
  - # 8
    frequency:    6.0354065107
  - # 9
    frequency:    6.1106278059
  - # 10
    frequency:    7.1383655588
  - # 11
    frequency:   11.7299639934
  - # 12
    frequency:   15.6061094521
  - # 13
    frequency:   16.7774441848
  - # 14
    frequency:   16.7782427839
  - # 15
    frequency:   28.9728246133
  - # 16
    frequency:   29.0203536898
  - # 17
    frequency:   30.1769399670
  - # 18
    frequency:   34.5662919844

- q-position: [    0.0606061,    0.0000000,    0.0000000 ]
  distance:    0.0229207
  band:
  - # 1
    frequency:    0.3406013003
  - # 2
    frequency:    0.6796745949
  - # 3
    frequency:    1.5629542323
  - # 4
    frequency:    2.6989851677
  - # 5
    frequency:    3.2154143559
  - # 6
    frequency:    4.8231142020
  - # 7
    frequency:    5.0455590659
  - # 8
    frequency:    6.0316919284
  - # 9
    frequency:    6.1182839290
  - # 10
    frequency:    7.1567163862
  - # 11
    frequency:   11.7170331712
  - # 12
    frequency:   15.6013448149
  - # 13
    frequency:   16.7749026606
  - # 14
    frequency:   16.7758444043
  - # 15
    frequency:   28.9763370500
  - # 16
    frequency:   29.0325726671
  - # 17
    frequency:   30.1773697371
  - # 18
    frequency:   34.5619659302

- q-position: [    0.0656566,    0.0000000,    0.0000000 ]
  distance:    0.0248308
  band:
  - # 1
    frequency:    0.3950401514
  - # 2
    frequency:    0.7130504256
  - # 3
    frequency:    1.6892527677
  - # 4
    frequency:    2.7146734037
  - # 5
    frequency:    3.2990269690
  - # 6
    frequency:    4.8318248415
  - # 7
    frequency:    5.0889105670
  - # 8
    frequency:    6.0286271994
  - # 9
    frequency:    6.1265700654
  - # 10
    frequency:    7.1764068250
  - # 11
    frequency:   11.7029582489
  - # 12
    frequency:   15.5962725793
  - # 13
    frequency:   16.7722300504
  - # 14
    frequency:   16.7733255025
  - # 15
    frequency:   28.9800328128
  - # 16
    frequency:   29.0456160365
  - # 17
    frequency:   30.1778620078
  - # 18
    frequency:   34.5572914678

- q-position: [    0.0707071,    0.0000000,    0.0000000 ]
  distance:    0.0267408
  band:
  - # 1
    frequency:    0.4525562496
  - # 2
    frequency:    0.7407973642
  - # 3
    frequency:    1.8146339521
  - # 4
    frequency:    2.7334881041
  - # 5
    frequency:    3.3853701084
  - # 6
    frequency:    4.8410491861
  - # 7
    frequency:    5.1343376869
  - # 8
    frequency:    6.0264403976
  - # 9
    frequency:    6.1354771497
  - # 10
    frequency:    7.1974057524
  - # 11
    frequency:   11.6877396772
  - # 12
    frequency:   15.5909144415
  - # 13
    frequency:   16.7694463602
  - # 14
    frequency:   16.7707061344
  - # 15
    frequency:   28.9838833286
  - # 16
    frequency:   29.0594275733
  - # 17
    frequency:   30.1784236151
  - # 18
    frequency:   34.5522753609

- q-position: [    0.0757576,    0.0000000,    0.0000000 ]
  distance:    0.0286509
  band:
  - # 1
    frequency:    0.5129505423
  - # 2
    frequency:    0.7625734383
  - # 3
    frequency:    1.9390368368
  - # 4
    frequency:    2.7556560055
  - # 5
    frequency:    3.4738694106
  - # 6
    frequency:    4.8507569284
  - # 7
    frequency:    5.1815676280
  - # 8
    frequency:    6.0253774735
  - # 9
    frequency:    6.1449953668
  - # 10
    frequency:    7.2196876572
  - # 11
    frequency:   11.6713798192
  - # 12
    frequency:   15.5852921423
  - # 13
    frequency:   16.7665722679
  - # 14
    frequency:   16.7680071614
  - # 15
    frequency:   28.9878584870
  - # 16
    frequency:   29.0739477919
  - # 17
    frequency:   30.1790621503
  - # 18
    frequency:   34.5469248435

- q-position: [    0.0808081,    0.0000000,    0.0000000 ]
  distance:    0.0305610
  band:
  - # 1
    frequency:    0.5760300368
  - # 2
    frequency:    0.7780976119
  - # 3
    frequency:    2.0624019499
  - # 4
    frequency:    2.7813402331
  - # 5
    frequency:    3.5639746637
  - # 6
    frequency:    4.8609189438
  - # 7
    frequency:    5.2303167203
  - # 8
    frequency:    6.0257037905
  - # 9
    frequency:    6.1551141590
  - # 10
    frequency:    7.2432328628
  - # 11
    frequency:   11.6538832483
  - # 12
    frequency:   15.5794272226
  - # 13
    frequency:   16.7636289391
  - # 14
    frequency:   16.7652500597
  - # 15
    frequency:   28.9919267957
  - # 16
    frequency:   29.0891141911
  - # 17
    frequency:   30.1797859990
  - # 18
    frequency:   34.5412476044

- q-position: [    0.0858586,    0.0000000,    0.0000000 ]
  distance:    0.0324710
  band:
  - # 1
    frequency:    0.6416085309
  - # 2
    frequency:    0.7871550337
  - # 3
    frequency:    2.1846713137
  - # 4
    frequency:    2.8106306378
  - # 5
    frequency:    3.6551595157
  - # 6
    frequency:    4.8715076515
  - # 7
    frequency:    5.2802900957
  - # 8
    frequency:    6.0277055469
  - # 9
    frequency:    6.1658222375
  - # 10
    frequency:    7.2680275551
  - # 11
    frequency:   11.6352570249
  - # 12
    frequency:   15.5733408057
  - # 13
    frequency:   16.7606378414
  - # 14
    frequency:   16.7624567171
  - # 15
    frequency:   28.9960555422
  - # 16
    frequency:   29.1048615074
  - # 17
    frequency:   30.1806043771
  - # 18
    frequency:   34.5352517701

- q-position: [    0.0909091,    0.0000000,    0.0000000 ]
  distance:    0.0343811
  band:
  - # 1
    frequency:    0.7095070903
  - # 2
    frequency:    0.7895958531
  - # 3
    frequency:    2.3057884749
  - # 4
    frequency:    2.8435394955
  - # 5
    frequency:    3.7469204832
  - # 6
    frequency:    4.8824973305
  - # 7
    frequency:    5.3311817513
  - # 8
    frequency:    6.0316905553
  - # 9
    frequency:    6.1771075983
  - # 10
    frequency:    7.2940636383
  - # 11
    frequency:   11.6155109477
  - # 12
    frequency:   15.5670534092
  - # 13
    frequency:   16.7576205561
  - # 14
    frequency:   16.7596492169
  - # 15
    frequency:   29.0002109606
  - # 16
    frequency:   29.1211219757
  - # 17
    frequency:   30.1815273629
  - # 18
    frequency:   34.5289458880

- q-position: [    0.0959596,    0.0000000,    0.0000000 ]
  distance:    0.0362911
  band:
  - # 1
    frequency:    0.7795543158
  - # 2
    frequency:    0.7853265336
  - # 3
    frequency:    2.4256985437
  - # 4
    frequency:    2.8800030615
  - # 5
    frequency:    3.8387756268
  - # 6
    frequency:    4.8938643911
  - # 7
    frequency:    5.3826757904
  - # 8
    frequency:    6.0379875151
  - # 9
    frequency:    6.1889575433
  - # 10
    frequency:    7.3213384340
  - # 11
    frequency:   11.5946577727
  - # 12
    frequency:   15.5605847913
  - # 13
    frequency:   16.7545985906
  - # 14
    frequency:   16.7568496115
  - # 15
    frequency:   29.0043584023
  - # 16
    frequency:   29.1378255976
  - # 17
    frequency:   30.1825659220
  - # 18
    frequency:   34.5223389071

- q-position: [    0.1010101,    0.0000000,    0.0000000 ]
  distance:    0.0382012
  band:
  - # 1
    frequency:    0.7742932186
  - # 2
    frequency:    0.8515864355
  - # 3
    frequency:    2.5443482407
  - # 4
    frequency:    2.9198885103
  - # 5
    frequency:    3.9302632416
  - # 6
    frequency:    4.9055876068
  - # 7
    frequency:    5.4344500480
  - # 8
    frequency:    6.0469424633
  - # 9
    frequency:    6.2013587052
  - # 10
    frequency:    7.3498542351
  - # 11
    frequency:   11.5727133981
  - # 12
    frequency:   15.5539538324
  - # 13
    frequency:   16.7515931939
  - # 14
    frequency:   16.7540796885
  - # 15
    frequency:   29.0084625093
  - # 16
    frequency:   29.1549004178
  - # 17
    frequency:   30.1837319229
  - # 18
    frequency:   34.5154401591

- q-position: [    0.1060606,    0.0000000,    0.0000000 ]
  distance:    0.0401112
  band:
  - # 1
    frequency:    0.7564569189
  - # 2
    frequency:    0.9254472536
  - # 3
    frequency:    2.6616859430
  - # 4
    frequency:    2.9630049820
  - # 5
    frequency:    4.0209409162
  - # 6
    frequency:    4.9176483100
  - # 7
    frequency:    5.4861837606
  - # 8
    frequency:    6.0589105874
  - # 9
    frequency:    6.2142970778
  - # 10
    frequency:    7.3796177190
  - # 11
    frequency:   11.5496970092
  - # 12
    frequency:   15.5471784537
  - # 13
    frequency:   16.7486251749
  - # 14
    frequency:   16.7513607308
  - # 15
    frequency:   29.0124873902
  - # 16
    frequency:   29.1722728110
  - # 17
    frequency:   30.1850381386
  - # 18
    frequency:   34.5082593384

- q-position: [    0.1111111,    0.0000000,    0.0000000 ]
  distance:    0.0420213
  band:
  - # 1
    frequency:    0.7317596584
  - # 2
    frequency:    1.0009879842
  - # 3
    frequency:    2.7776617238
  - # 4
    frequency:    3.0091170007
  - # 5
    frequency:    4.1103853327
  - # 6
    frequency:    4.9300305574
  - # 7
    frequency:    5.5375712012
  - # 8
    frequency:    6.0742412623
  - # 9
    frequency:    6.2277580502
  - # 10
    frequency:    7.4106392225
  - # 11
    frequency:   11.5256311836
  - # 12
    frequency:   15.5402755725
  - # 13
    frequency:   16.7457147270
  - # 14
    frequency:   16.7487132750
  - # 15
    frequency:   29.0163967972
  - # 16
    frequency:   29.1898677807
  - # 17
    frequency:   30.1864982317
  - # 18
    frequency:   34.5008064813

- q-position: [    0.1161616,    0.0000000,    0.0000000 ]
  distance:    0.0439314
  band:
  - # 1
    frequency:    0.7000786190
  - # 2
    frequency:    1.0780669944
  - # 3
    frequency:    2.8922273758
  - # 4
    frequency:    3.0579584921
  - # 5
    frequency:    4.1981932015
  - # 6
    frequency:    4.9427212723
  - # 7
    frequency:    5.5883427793
  - # 8
    frequency:    6.0932545414
  - # 9
    frequency:    6.2417264450
  - # 10
    frequency:    7.4429318761
  - # 11
    frequency:   11.5005419534
  - # 12
    frequency:   15.5332610914
  - # 13
    frequency:   16.7428812598
  - # 14
    frequency:   16.7461568712
  - # 15
    frequency:   29.0201543032
  - # 16
    frequency:   29.2076092735
  - # 17
    frequency:   30.1881267175
  - # 18
    frequency:   34.4930919445

- q-position: [    0.1212121,    0.0000000,    0.0000000 ]
  distance:    0.0458414
  band:
  - # 1
    frequency:    0.6611605851
  - # 2
    frequency:    1.1565494762
  - # 3
    frequency:    3.0053364111
  - # 4
    frequency:    3.1092459329
  - # 5
    frequency:    4.2839837339
  - # 6
    frequency:    4.9557103681
  - # 7
    frequency:    5.6382933128
  - # 8
    frequency:    6.1162090845
  - # 9
    frequency:    6.2561865610
  - # 10
    frequency:    7.4765105964
  - # 11
    frequency:   11.4744588258
  - # 12
    frequency:   15.5261499197
  - # 13
    frequency:   16.7401432388
  - # 14
    frequency:   16.7437098481
  - # 15
    frequency:   29.0237234787
  - # 16
    frequency:   29.2254205117
  - # 17
    frequency:   30.1899388999
  - # 18
    frequency:   34.4851263834

- q-position: [    0.1262626,    0.0000000,    0.0000000 ]
  distance:    0.0477515
  band:
  - # 1
    frequency:    0.6145184297
  - # 2
    frequency:    1.2363070675
  - # 3
    frequency:    3.1169440258
  - # 4
    frequency:    3.1626896435
  - # 5
    frequency:    4.3674030204
  - # 6
    frequency:    4.9689908617
  - # 7
    frequency:    5.6873135918
  - # 8
    frequency:    6.1432651043
  - # 9
    frequency:    6.2711222172
  - # 10
    frequency:    7.5113909370
  - # 11
    frequency:   11.4474147613
  - # 12
    frequency:   15.5189560217
  - # 13
    frequency:   16.7375180360
  - # 14
    frequency:   16.7413890881
  - # 15
    frequency:   29.0270680677
  - # 16
    frequency:   29.2432243485
  - # 17
    frequency:   30.1919507767
  - # 18
    frequency:   34.4769207297

- q-position: [    0.1313131,    0.0000000,    0.0000000 ]
  distance:    0.0496615
  band:
  - # 1
    frequency:    0.5592453848
  - # 2
    frequency:    1.3172174367
  - # 3
    frequency:    3.2180027370
  - # 4
    frequency:    3.2270070202
  - # 5
    frequency:    4.4481305581
  - # 6
    frequency:    4.9825589831
  - # 7
    frequency:    5.7354168012
  - # 8
    frequency:    6.1744505641
  - # 9
    frequency:    6.2865168013
  - # 10
    frequency:    7.5475878051
  - # 11
    frequency:   11.4194461126
  - # 12
    frequency:   15.5116924878
  - # 13
    frequency:   16.7350217909
  - # 14
    frequency:   16.7392098156
  - # 15
    frequency:   29.0301521610
  - # 16
    frequency:   29.2609436506
  - # 17
    frequency:   30.1941789068
  - # 18
    frequency:   34.4684861682

- q-position: [    0.1363636,    0.0000000,    0.0000000 ]
  distance:    0.0515716
  band:
  - # 1
    frequency:    0.4936277434
  - # 2
    frequency:    1.3991638434
  - # 3
    frequency:    3.2749076528
  - # 4
    frequency:    3.3354836661
  - # 5
    frequency:    4.5258879257
  - # 6
    frequency:    4.9964142865
  - # 7
    frequency:    5.7827486213
  - # 8
    frequency:    6.2096418311
  - # 9
    frequency:    6.3023533183
  - # 10
    frequency:    7.5851140575
  - # 11
    frequency:   11.3905925253
  - # 12
    frequency:   15.5043716220
  - # 13
    frequency:   16.7326692843
  - # 14
    frequency:   16.7371854040
  - # 15
    frequency:   29.0329403668
  - # 16
    frequency:   29.2785017109
  - # 17
    frequency:   30.1966402358
  - # 18
    frequency:   34.4598341140

- q-position: [    0.1414141,    0.0000000,    0.0000000 ]
  distance:    0.0534817
  band:
  - # 1
    frequency:    0.4141660619
  - # 2
    frequency:    1.4820346874
  - # 3
    frequency:    3.3331404753
  - # 4
    frequency:    3.4423335094
  - # 5
    frequency:    4.6004492107
  - # 6
    frequency:    5.0105597710
  - # 7
    frequency:    5.8295723341
  - # 8
    frequency:    6.2485678520
  - # 9
    frequency:    6.3186144404
  - # 10
    frequency:    7.6239790038
  - # 11
    frequency:   11.3608968045
  - # 12
    frequency:   15.4970050401
  - # 13
    frequency:   16.7304738250
  - # 14
    frequency:   16.7353272045
  - # 15
    frequency:   29.0353979788
  - # 16
    frequency:   29.2958226956
  - # 17
    frequency:   30.1993518757
  - # 18
    frequency:   34.4509761890

- q-position: [    0.1464646,    0.0000000,    0.0000000 ]
  distance:    0.0553917
  band:
  - # 1
    frequency:    0.3122297479
  - # 2
    frequency:    1.5657230544
  - # 3
    frequency:    3.3924533890
  - # 4
    frequency:    3.5475171022
  - # 5
    frequency:    4.6716522840
  - # 6
    frequency:    5.0250020154
  - # 7
    frequency:    5.8762286254
  - # 8
    frequency:    6.2908390444
  - # 9
    frequency:    6.3352825574
  - # 10
    frequency:    7.6641868557
  - # 11
    frequency:   11.3304047508
  - # 12
    frequency:   15.4896037732
  - # 13
    frequency:   16.7284471508
  - # 14
    frequency:   16.7336444015
  - # 15
    frequency:   29.0374911391
  - # 16
    frequency:   29.3128321284
  - # 17
    frequency:   30.2023308349
  - # 18
    frequency:   34.4419241977

- q-position: [    0.1515152,    0.0000000,    0.0000000 ]
  distance:    0.0573018
  band:
  - # 1
    frequency:    0.1504247359
  - # 2
    frequency:    1.6501262660
  - # 3
    frequency:    3.4526156658
  - # 4
    frequency:    3.6509956555
  - # 5
    frequency:    4.7394094902
  - # 6
    frequency:    5.0397513341
  - # 7
    frequency:    5.9230796412
  - # 8
    frequency:    6.3359927319
  - # 9
    frequency:    6.3523398263
  - # 10
    frequency:    7.7057351764
  - # 11
    frequency:   11.2991649698
  - # 12
    frequency:   15.4821783681
  - # 13
    frequency:   16.7265993444
  - # 14
    frequency:   16.7321438965
  - # 15
    frequency:   29.0391869972
  - # 16
    frequency:   29.3294574109
  - # 17
    frequency:   30.2055936993
  - # 18
    frequency:   34.4326901042

- q-position: [    0.1565657,    0.0000000,    0.0000000 ]
  distance:    0.0592118
  band:
  - # 1
    frequency:   -0.2280266138
  - # 2
    frequency:    1.7351454403
  - # 3
    frequency:    3.5134135594
  - # 4
    frequency:    3.7527306090
  - # 5
    frequency:    4.8037159663
  - # 6
    frequency:    5.0548219570
  - # 7
    frequency:    5.9704520782
  - # 8
    frequency:    6.3697682183
  - # 9
    frequency:    6.3835420668
  - # 10
    frequency:    7.7486133984
  - # 11
    frequency:   11.2672286596
  - # 12
    frequency:   15.4747389823
  - # 13
    frequency:   16.7249387643
  - # 14
    frequency:   16.7308302246
  - # 15
    frequency:   29.0404538638
  - # 16
    frequency:   29.3456283795
  - # 17
    frequency:   30.2091562639
  - # 18
    frequency:   34.4232860077

- q-position: [    0.1616162,    0.0000000,    0.0000000 ]
  distance:    0.0611219
  band:
  - # 1
    frequency:   -0.3541005864
  - # 2
    frequency:    1.8206850682
  - # 3
    frequency:    3.5746494335
  - # 4
    frequency:    3.8526831159
  - # 5
    frequency:    4.8646538070
  - # 6
    frequency:    5.0702322380
  - # 7
    frequency:    6.0185922380
  - # 8
    frequency:    6.3875495651
  - # 9
    frequency:    6.4330172159
  - # 10
    frequency:    7.7928014842
  - # 11
    frequency:   11.2346493808
  - # 12
    frequency:   15.4672954657
  - # 13
    frequency:   16.7234719916
  - # 14
    frequency:   16.7297055050
  - # 15
    frequency:   29.0412613585
  - # 16
    frequency:   29.3612778907
  - # 17
    frequency:   30.2130331215
  - # 18
    frequency:   34.4137241190

- q-position: [    0.1666667,    0.0000000,    0.0000000 ]
  distance:    0.0630320
  band:
  - # 1
    frequency:   -0.4434018294
  - # 2
    frequency:    1.9066526103
  - # 3
    frequency:    3.6361403811
  - # 4
    frequency:    3.9508134478
  - # 5
    frequency:    4.9223907879
  - # 6
    frequency:    5.0860048944
  - # 7
    frequency:    6.0676397458
  - # 8
    frequency:    6.4056656005
  - # 9
    frequency:    6.4839933045
  - # 10
    frequency:    7.8382688134
  - # 11
    frequency:   11.2014828140
  - # 12
    frequency:   15.4598574275
  - # 13
    frequency:   16.7222037926
  - # 14
    frequency:   16.7287694267
  - # 15
    frequency:   29.0415805518
  - # 16
    frequency:   29.3763424284
  - # 17
    frequency:   30.2172372170
  - # 18
    frequency:   34.4040167367

- q-position: [    0.1717172,    0.0000000,    0.0000000 ]
  distance:    0.0649420
  band:
  - # 1
    frequency:   -0.5145549310
  - # 2
    frequency:    1.9929581164
  - # 3
    frequency:    3.6977165370
  - # 4
    frequency:    4.0470803316
  - # 5
    frequency:    4.9771732780
  - # 6
    frequency:    5.1021672760
  - # 7
    frequency:    6.1176202929
  - # 8
    frequency:    6.4240979993
  - # 9
    frequency:    6.5361050321
  - # 10
    frequency:    7.8849733709
  - # 11
    frequency:   11.1677865100
  - # 12
    frequency:   15.4524342826
  - # 13
    frequency:   16.7211370976
  - # 14
    frequency:   16.7280192695
  - # 15
    frequency:   29.0413841007
  - # 16
    frequency:   29.3907627193
  - # 17
    frequency:   30.2217793800
  - # 18
    frequency:   34.3941762237

- q-position: [    0.1767677,    0.0000000,    0.0000000 ]
  distance:    0.0668521
  band:
  - # 1
    frequency:   -0.5736253806
  - # 2
    frequency:    2.0795138722
  - # 3
    frequency:    3.7592192288
  - # 4
    frequency:    4.1414402437
  - # 5
    frequency:    5.0293140617
  - # 6
    frequency:    5.1187516617
  - # 7
    frequency:    6.1684537336
  - # 8
    frequency:    6.4428284110
  - # 9
    frequency:    6.5890508104
  - # 10
    frequency:    7.9328613027
  - # 11
    frequency:   11.1336196349
  - # 12
    frequency:   15.4450352785
  - # 13
    frequency:   16.7202729957
  - # 14