nqpoint: 300    
npath: 3      
segment_nqpoint:
- 100
- 100
- 100
labels:
- [ 'G', 'M' ]
- [ 'M', 'K' ]
- [ 'K', 'G' ]
reciprocal_lattice:
- [   0.30235386,   0.17456408,   0.00000000 ] # a*
- [   0.00000000,   0.34912817,   0.00000000 ] # b*
- [   0.00000000,   0.00000000,   0.04269352 ] # c*
natom: 5      
lattice:
- [     3.307382925884397,     0.000000000000000,     0.000000000000000 ] # a
- [    -1.653691462942199,     2.864277633854082,     0.000000000000000 ] # b
- [     0.000000000000000,     0.000000000000000,    23.422756749942099 ] # c
points:
- symbol: Cl # 1
  coordinates: [  0.666666984744047,  0.333332985985145,  0.384241705452636 ]
  mass: 35.453000
- symbol: N # 2
  coordinates: [  0.000000000000000,  0.000000000000000,  0.519122163137655 ]
  mass: 14.006700
- symbol: O # 3
  coordinates: [  0.333332985432215,  0.666666983183674,  0.615758294547364 ]
  mass: 15.999400
- symbol: Zr # 4
  coordinates: [  0.333332985432215,  0.666666983183674,  0.462470774799776 ]
  mass: 91.224000
- symbol: Zr # 5
  coordinates: [  0.666666984744047,  0.333332985985145,  0.574181522573513 ]
  mass: 91.224000

phonon:
- q-position: [    0.0000000,    0.0000000,    0.0000000 ]
  distance:    0.0000000
  band:
  - # 1
    frequency:   -0.0000136920
  - # 2
    frequency:   -0.0000001136
  - # 3
    frequency:    0.0000104402
  - # 4
    frequency:    2.9459825074
  - # 5
    frequency:    2.9459825074
  - # 6
    frequency:    4.4385245620
  - # 7
    frequency:    5.1412764793
  - # 8
    frequency:    5.1412764793
  - # 9
    frequency:    9.0673384330
  - # 10
    frequency:    9.8024804475
  - # 11
    frequency:    9.8024804475
  - # 12
    frequency:   12.4117002164
  - # 13
    frequency:   14.6086124004
  - # 14
    frequency:   14.6086124004
  - # 15
    frequency:   15.4183546907

- q-position: [    0.0050505,    0.0000000,    0.0000000 ]
  distance:    0.0017633
  band:
  - # 1
    frequency:    0.0014481545
  - # 2
    frequency:    0.0469946923
  - # 3
    frequency:    0.1047446943
  - # 4
    frequency:    2.9458675260
  - # 5
    frequency:    2.9473062916
  - # 6
    frequency:    4.4377313110
  - # 7
    frequency:    5.1419654519
  - # 8
    frequency:    5.1448760843
  - # 9
    frequency:    9.0677126434
  - # 10
    frequency:    9.8024721800
  - # 11
    frequency:    9.8025232522
  - # 12
    frequency:   12.4121330435
  - # 13
    frequency:   14.6083523314
  - # 14
    frequency:   14.6084229039
  - # 15
    frequency:   15.4177344950

- q-position: [    0.0101010,    0.0000000,    0.0000000 ]
  distance:    0.0035265
  band:
  - # 1
    frequency:    0.0057884590
  - # 2
    frequency:    0.0939978632
  - # 3
    frequency:    0.2094479475
  - # 4
    frequency:    2.9455244172
  - # 5
    frequency:    2.9512757486
  - # 6
    frequency:    4.4354480653
  - # 7
    frequency:    5.1440302250
  - # 8
    frequency:    5.1555607540
  - # 9
    frequency:    9.0688266682
  - # 10
    frequency:    9.8024374361
  - # 11
    frequency:    9.8026541429
  - # 12
    frequency:   12.4134419812
  - # 13
    frequency:   14.6075712174
  - # 14
    frequency:   14.6078539692
  - # 15
    frequency:   15.4158767198

- q-position: [    0.0151515,    0.0000000,    0.0000000 ]
  distance:    0.0052898
  band:
  - # 1
    frequency:    0.0130082924
  - # 2
    frequency:    0.1410189836
  - # 3
    frequency:    0.3140673133
  - # 4
    frequency:    2.9449587015
  - # 5
    frequency:    2.9578852332
  - # 6
    frequency:    4.4319454233
  - # 7
    frequency:    5.1474643394
  - # 8
    frequency:    5.1730071895
  - # 9
    frequency:    9.0706547732
  - # 10
    frequency:    9.8023465863
  - # 11
    frequency:    9.8028805101
  - # 12
    frequency:   12.4156581090
  - # 13
    frequency:   14.6062663969
  - # 14
    frequency:   14.6069042798
  - # 15
    frequency:   15.4127897985

- q-position: [    0.0202020,    0.0000000,    0.0000000 ]
  distance:    0.0070531
  band:
  - # 1
    frequency:    0.0230866472
  - # 2
    frequency:    0.1880694693
  - # 3
    frequency:    0.4185583288
  - # 4
    frequency:    2.9441796278
  - # 5
    frequency:    2.9671254741
  - # 6
    frequency:    4.4276189055
  - # 7
    frequency:    5.1522569453
  - # 8
    frequency:    5.1967327511
  - # 9
    frequency:    9.0731543442
  - # 10
    frequency:    9.8021509138
  - # 11
    frequency:    9.8032145432
  - # 12
    frequency:   12.4188322585
  - # 13
    frequency:   14.6044336282
  - # 14
    frequency:   14.6055717062
  - # 15
    frequency:   15.4084877810

- q-position: [    0.0252525,    0.0000000,    0.0000000 ]
  distance:    0.0088164
  band:
  - # 1
    frequency:    0.0359941275
  - # 2
    frequency:    0.2351635635
  - # 3
    frequency:    0.5228734793
  - # 4
    frequency:    2.9432002398
  - # 5
    frequency:    2.9789837648
  - # 6
    frequency:    4.4229272857
  - # 7
    frequency:    5.1583926850
  - # 8
    frequency:    5.2261582021
  - # 9
    frequency:    9.0762662776
  - # 10
    frequency:    9.8017836581
  - # 11
    frequency:    9.8036730400
  - # 12
    frequency:   12.4230335449
  - # 13
    frequency:   14.6020673738
  - # 14
    frequency:   14.6038534011
  - # 15
    frequency:   15.4029903280

- q-position: [    0.0303030,    0.0000000,    0.0000000 ]
  distance:    0.0105796
  band:
  - # 1
    frequency:    0.0516929819
  - # 2
    frequency:    0.2823191123
  - # 3
    frequency:    0.6269611366
  - # 4
    frequency:    2.9420374624
  - # 5
    frequency:    2.9934442072
  - # 6
    frequency:    4.4183359605
  - # 7
    frequency:    5.1658515408
  - # 8
    frequency:    5.2606658492
  - # 9
    frequency:    9.0799154816
  - # 10
    frequency:    9.8011615649
  - # 11
    frequency:    9.8042771436
  - # 12
    frequency:   12.4283472853
  - # 13
    frequency:   14.5991611830
  - # 14
    frequency:   14.6017459304
  - # 15
    frequency:   15.3963227124

- q-position: [    0.0353535,    0.0000000,    0.0000000 ]
  distance:    0.0123429
  band:
  - # 1
    frequency:    0.0701371695
  - # 2
    frequency:    0.3295582030
  - # 3
    frequency:    0.7307644701
  - # 4
    frequency:    2.9407121985
  - # 5
    frequency:    3.0104879882
  - # 6
    frequency:    4.4142754871
  - # 7
    frequency:    5.1746086645
  - # 8
    frequency:    5.2996429423
  - # 9
    frequency:    9.0840114435
  - # 10
    frequency:    9.8001870177
  - # 11
    frequency:    9.8050520120
  - # 12
    frequency:   12.4348722841
  - # 13
    frequency:   14.5957081599
  - # 14
    frequency:   14.5992454368
  - # 15
    frequency:   15.3885158339

- q-position: [    0.0404040,    0.0000000,    0.0000000 ]
  distance:    0.0141062
  band:
  - # 1
    frequency:    0.0912724741
  - # 2
    frequency:    0.3769076393
  - # 3
    frequency:    0.8342203308
  - # 4
    frequency:    2.9392494283
  - # 5
    frequency:    3.0300936682
  - # 6
    frequency:    4.4111172800
  - # 7
    frequency:    5.1846342024
  - # 8
    frequency:    5.3425083280
  - # 9
    frequency:    9.0884488080
  - # 10
    frequency:    9.7987508315
  - # 11
    frequency:    9.8060264230
  - # 12
    frequency:   12.4427174771
  - # 13
    frequency:   14.5917014960
  - # 14
    frequency:   14.5963478334
  - # 15
    frequency:   15.3796062593

- q-position: [    0.0454545,    0.0000000,    0.0000000 ]
  distance:    0.0158695
  band:
  - # 1
    frequency:    0.1150366811
  - # 2
    frequency:    0.4243992314
  - # 3
    frequency:    0.9372581201
  - # 4
    frequency:    2.9376782993
  - # 5
    frequency:    3.0522374691
  - # 6
    frequency:    4.4091634883
  - # 7
    frequency:    5.1958931333
  - # 8
    frequency:    5.3887253042
  - # 9
    frequency:    9.0931079054
  - # 10
    frequency:    9.7967357833
  - # 11
    frequency:    9.8072323216
  - # 12
    frequency:   12.4519979401
  - # 13
    frequency:   14.5871350465
  - # 14
    frequency:   14.5930490233
  - # 15
    frequency:   15.3696363016

- q-position: [    0.0505051,    0.0000000,    0.0000000 ]
  distance:    0.0176327
  band:
  - # 1
    frequency:    0.1413598298
  - # 2
    frequency:    0.4720698848
  - # 3
    frequency:    1.0397986589
  - # 4
    frequency:    2.9360321991
  - # 5
    frequency:    3.0768935437
  - # 6
    frequency:    4.4086465292
  - # 7
    frequency:    5.2083451380
  - # 8
    frequency:    5.4378051502
  - # 9
    frequency:    9.0978551620
  - # 10
    frequency:    9.7940209323
  - # 11
    frequency:    9.8087043168
  - # 12
    frequency:   12.4628302969
  - # 13
    frequency:   14.5820039212
  - # 14
    frequency:   14.5893451413
  - # 15
    frequency:   15.3586541536

- q-position: [    0.0555556,    0.0000000,    0.0000000 ]
  distance:    0.0193960
  band:
  - # 1
    frequency:    0.1701645502
  - # 2
    frequency:    0.5199614809
  - # 3
    frequency:    1.1417530819
  - # 4
    frequency:    2.9343487975
  - # 5
    frequency:    3.1040342199
  - # 6
    frequency:    4.4097342388
  - # 7
    frequency:    5.2219445151
  - # 8
    frequency:    5.4893053052
  - # 9
    frequency:    9.1025433300
  - # 10
    frequency:    9.7904867464
  - # 11
    frequency:    9.8104791337
  - # 12
    frequency:   12.4753275947
  - # 13
    frequency:   14.5763050608
  - # 14
    frequency:   14.5852328120
  - # 15
    frequency:   15.3467140980

- q-position: [    0.0606061,    0.0000000,    0.0000000 ]
  distance:    0.0211593
  band:
  - # 1
    frequency:    0.2013664868
  - # 2
    frequency:    0.5681205447
  - # 3
    frequency:    1.2430217902
  - # 4
    frequency:    2.9326700495
  - # 5
    frequency:    3.1336302016
  - # 6
    frequency:    4.4125377530
  - # 7
    frequency:    5.2366401616
  - # 8
    frequency:    5.5428249987
  - # 9
    frequency:    9.1070114802
  - # 10
    frequency:    9.7860210019
  - # 11
    frequency:    9.8125950302
  - # 12
    frequency:   12.4895937568
  - # 13
    frequency:   14.5700377605
  - # 14
    frequency:   14.5807094217
  - # 15
    frequency:   15.3338768131

- q-position: [    0.0656566,    0.0000000,    0.0000000 ]
  distance:    0.0229226
  band:
  - # 1
    frequency:    0.2348748060
  - # 2
    frequency:    0.6165977080
  - # 3
    frequency:    1.3434935046
  - # 4
    frequency:    2.9310421505
  - # 5
    frequency:    3.1656507136
  - # 6
    frequency:    4.4171203227
  - # 7
    frequency:    5.2523756280
  - # 8
    frequency:    5.5980000357
  - # 9
    frequency:    9.1110847231
  - # 10
    frequency:    9.7805253581
  - # 11
    frequency:    9.8150911866
  - # 12
    frequency:   12.5057177698
  - # 13
    frequency:   14.5632041026
  - # 14
    frequency:   14.5757733969
  - # 15
    frequency:   15.3202098031

- q-position: [    0.0707071,    0.0000000,    0.0000000 ]
  distance:    0.0246858
  band:
  - # 1
    frequency:    0.2705927786
  - # 2
    frequency:    0.6654469796
  - # 3
    frequency:    1.4430444727
  - # 4
    frequency:    2.9295154349
  - # 5
    frequency:    3.2000635571
  - # 6
    frequency:    4.4235060632
  - # 7
    frequency:    5.2690892599
  - # 8
    frequency:    5.6544976367
  - # 9
    frequency:    9.1145736607
  - # 10
    frequency:    9.7739224290
  - # 11
    frequency:    9.8180070762
  - # 12
    frequency:   12.5237678002
  - # 13
    frequency:   14.5558092506
  - # 14
    frequency:   14.5704244855
  - # 15
    frequency:   15.3057879768

- q-position: [    0.0757576,    0.0000000,    0.0000000 ]
  distance:    0.0264491
  band:
  - # 1
    frequency:    0.3084184185
  - # 2
    frequency:    0.7147248435
  - # 3
    frequency:    1.5415378920
  - # 4
    frequency:    2.9281442141
  - # 5
    frequency:    3.2368350367
  - # 6
    frequency:    4.4316881368
  - # 7
    frequency:    5.2867144305
  - # 8
    frequency:    5.7120117387
  - # 9
    frequency:    9.1172736294
  - # 10
    frequency:    9.7661630846
  - # 11
    frequency:    9.8213818272
  - # 12
    frequency:   12.5437854742
  - # 13
    frequency:   14.5478615570
  - # 14
    frequency:   14.5646640360
  - # 15
    frequency:   15.2906944066

- q-position: [    0.0808081,    0.0000000,    0.0000000 ]
  distance:    0.0282124
  band:
  - # 1
    frequency:    0.3482451584
  - # 2
    frequency:    0.7644892105
  - # 3
    frequency:    1.6388236220
  - # 4
    frequency:    2.9269865494
  - # 5
    frequency:    3.2759296964
  - # 6
    frequency:    4.4416361540
  - # 7
    frequency:    5.3051798673
  - # 8
    frequency:    5.7702588828
  - # 9
    frequency:    9.1189638847
  - # 10
    frequency:    9.7572336044
  - # 11
    frequency:    9.8252535856
  - # 12
    frequency:   12.5657805696
  - # 13
    frequency:   14.5393724281
  - # 14
    frequency:   14.5584952682
  - # 15
    frequency:   15.2750212929

- q-position: [    0.0858586,    0.0000000,    0.0000000 ]
  distance:    0.0299757
  band:
  - # 1
    frequency:    0.3899625374
  - # 2
    frequency:    0.8147982566
  - # 3
    frequency:    1.7347382684
  - # 4
    frequency:    2.9261039595
  - # 5
    frequency:    3.3173097852
  - # 6
    frequency:    4.4533027333
  - # 7
    frequency:    5.3244100705
  - # 8
    frequency:    5.8289746761
  - # 9
    frequency:    9.1194070076
  - # 10
    frequency:    9.7471621820
  - # 11
    frequency:    9.8296588878
  - # 12
    frequency:   12.5897263743
  - # 13
    frequency:   14.5303558875
  - # 14
    frequency:   14.5519235329
  - # 15
    frequency:   15.2588711592

- q-position: [    0.0909091,    0.0000000,    0.0000000 ]
  distance:    0.0317389
  band:
  - # 1
    frequency:    0.4334568728
  - # 2
    frequency:    0.8657091814
  - # 3
    frequency:    1.8291057244
  - # 4
    frequency:    2.9255610619
  - # 5
    frequency:    3.3609343587
  - # 6
    frequency:    4.4666292376
  - # 7
    frequency:    5.3443258161
  - # 8
    frequency:    5.8879107574
  - # 9
    frequency:    9.1183489817
  - # 10
    frequency:    9.7360241306
  - # 11
    frequency:    9.8346320531
  - # 12
    frequency:   12.6155559456
  - # 13
    frequency:   14.5208277779
  - # 14
    frequency:   14.5449565537
  - # 15
    frequency:   15.2423582945

- q-position: [    0.0959596,    0.0000000,    0.0000000 ]
  distance:    0.0335022
  band:
  - # 1
    frequency:    0.4786118934
  - # 2
    frequency:    0.9172769264
  - # 3
    frequency:    1.9217382552
  - # 4
    frequency:    2.9254251541
  - # 5
    frequency:    3.4067579095
  - # 6
    frequency:    4.4815507442
  - # 7
    frequency:    5.3648447369
  - # 8
    frequency:    5.9468321818
  - # 9
    frequency:    9.1155205924
  - # 10
    frequency:    9.7239449835
  - # 11
    frequency:    9.8402046065
  - # 12
    frequency:   12.6431594716
  - # 13
    frequency:   14.5108045426
  - # 14
    frequency:   14.5376046480
  - # 15
    frequency:   15.2256104418

- q-position: [    0.1010101,    0.0000000,    0.0000000 ]
  distance:    0.0352655
  band:
  - # 1
    frequency:    0.5253093067
  - # 2
    frequency:    0.9695528900
  - # 3
    frequency:    2.0124381968
  - # 4
    frequency:    2.9257657368
  - # 5
    frequency:    3.4547284248
  - # 6
    frequency:    4.4980003268
  - # 7
    frequency:    5.3858819666
  - # 8
    frequency:    6.0055151429
  - # 9
    frequency:    9.1106409895
  - # 10
    frequency:    9.7111005487
  - # 11
    frequency:    9.8464047394
  - # 12
    frequency:   12.6723828901
  - # 13
    frequency:   14.5003015343
  - # 14
    frequency:   14.5298809227
  - # 15
    frequency:   15.2087707102

- q-position: [    0.1060606,    0.0000000,    0.0000000 ]
  distance:    0.0370287
  band:
  - # 1
    frequency:    0.5734292818
  - # 2
    frequency:    1.0225836760
  - # 3
    frequency:    2.1010003143
  - # 4
    frequency:    2.9266539878
  - # 5
    frequency:    3.5047847849
  - # 6
    frequency:    4.5159127382
  - # 7
    frequency:    5.4073508348
  - # 8
    frequency:    6.0637449686
  - # 9
    frequency:    9.1034243563
  - # 10
    frequency:    9.6977129414
  - # 11
    frequency:    9.8532568194
  - # 12
    frequency:   12.7030278701
  - # 13
    frequency:   14.4893308223
  - # 14
    frequency:   14.5218014411
  - # 15
    frequency:   15.1919996451

- q-position: [    0.1111111,    0.0000000,    0.0000000 ]
  distance:    0.0387920
  band:
  - # 1
    frequency:    0.6228508283
  - # 2
    frequency:    1.0764099112
  - # 3
    frequency:    2.1872148151
  - # 4
    frequency:    2.9281621946
  - # 5
    frequency:    3.5568534533
  - # 6
    frequency:    4.5352275966
  - # 7
    frequency:    5.4291635945
  - # 8
    frequency:    6.1213143435
  - # 9
    frequency:    9.0935904929
  - # 10
    frequency:    9.6840418107
  - # 11
    frequency:    9.8607809555
  - # 12
    frequency:   12.7348532172
  - # 13
    frequency:   14.4778985026
  - # 14
    frequency:   14.5133853573
  - # 15
    frequency:   15.1754773353

- q-position: [    0.1161616,    0.0000000,    0.0000000 ]
  distance:    0.0405553
  band:
  - # 1
    frequency:    0.6734520580
  - # 2
    frequency:    1.1310651601
  - # 3
    frequency:    2.2708709487
  - # 4
    frequency:    2.9303631543
  - # 5
    frequency:    3.6108444695
  - # 6
    frequency:    4.5558921822
  - # 7
    frequency:    5.4512321686
  - # 8
    frequency:    6.1780217316
  - # 9
    frequency:    9.0808796111
  - # 10
    frequency:    9.6703705405
  - # 11
    frequency:    9.8689926279
  - # 12
    frequency:   12.7675777270
  - # 13
    frequency:   14.4660015763
  - # 14
    frequency:   14.5046550153
  - # 15
    frequency:   15.1594053512

- q-position: [    0.1212121,    0.0000000,    0.0000000 ]
  distance:    0.0423186
  band:
  - # 1
    frequency:    0.7251103170
  - # 2
    frequency:    1.1865749633
  - # 3
    frequency:    2.3517610413
  - # 4
    frequency:    2.9333295526
  - # 5
    frequency:    3.6666468273
  - # 6
    frequency:    4.5778639632
  - # 7
    frequency:    5.4734688950
  - # 8
    frequency:    6.2336699929
  - # 9
    frequency:    9.0650706676
  - # 10
    frequency:    9.6569882041
  - # 11
    frequency:    9.8779023890
  - # 12
    frequency:   12.8008844877
  - # 13
    frequency:   14.4536245523
  - # 14
    frequency:   14.4956360101
  - # 15
    frequency:   15.1440082029

- q-position: [    0.1262626,    0.0000000,    0.0000000 ]
  distance:    0.0440818
  band:
  - # 1
    frequency:    0.7777021799
  - # 2
    frequency:    1.2429560172
  - # 3
    frequency:    2.4296847256
  - # 4
    frequency:    2.9371333314
  - # 5
    frequency:    3.7241234054
  - # 6
    frequency:    4.6011129773
  - # 7
    frequency:    5.4957872577
  - # 8
    frequency:    6.2880652071
  - # 9
    frequency:    9.0460012783
  - # 10
    frequency:    9.6441693447
  - # 11
    frequency:    9.8875156406
  - # 12
    frequency:   12.8344266164
  - # 13
    frequency:   14.4407360527
  - # 14
    frequency:   14.4863572089
  - # 15
    frequency:   15.1295338781

- q-position: [    0.1313131,    0.0000000,    0.0000000 ]
  distance:    0.0458451
  band:
  - # 1
    frequency:    0.8311032977
  - # 2
    frequency:    1.3002155077
  - # 3
    frequency:    2.5044530556
  - # 4
    frequency:    2.9418450571
  - # 5
    frequency:    3.7831056927
  - # 6
    frequency:    4.6256241927
  - # 7
    frequency:    5.5181025862
  - # 8
    frequency:    6.3410157403
  - # 9
    frequency:    9.0235861099
  - # 10
    frequency:    9.6321547930
  - # 11
    frequency:    9.8978324937
  - # 12
    frequency:   12.8678343943
  - # 13
    frequency:   14.4272858435
  - # 14
    frequency:   14.4768507300
  - # 15
    frequency:   15.1162528885

- q-position: [    0.1363636,    0.0000000,    0.0000000 ]
  distance:    0.0476084
  band:
  - # 1
    frequency:    0.8851880911
  - # 2
    frequency:    1.3583506050
  - # 3
    frequency:    2.5758921530
  - # 4
    frequency:    2.9475333015
  - # 5
    frequency:    3.8433886053
  - # 6
    frequency:    4.6513999703
  - # 7
    frequency:    5.5403327114
  - # 8
    frequency:    6.3923316117
  - # 9
    frequency:    8.9978302553
  - # 10
    frequency:    9.6211370893
  - # 11
    frequency:    9.9088477119
  - # 12
    frequency:   12.9007237357
  - # 13
    frequency:   14.4132028612
  - # 14
    frequency:   14.4671518792
  - # 15
    frequency:   15.1044551497

- q-position: [    0.1414141,    0.0000000,    0.0000000 ]
  distance:    0.0493717
  band:
  - # 1
    frequency:    0.9398292805
  - # 2
    frequency:    1.4173481198
  - # 3
    frequency:    2.6438460453
  - # 4
    frequency:    2.9542640449
  - # 5
    frequency:    3.9047257146
  - # 6
    frequency:    4.6784627101
  - # 7
    frequency:    5.5623985660
  - # 8
    frequency:    6.4418242420
  - # 9
    frequency:    8.9688348866
  - # 10
    frequency:    9.6112532438
  - # 11
    frequency:    9.9205507415
  - # 12
    frequency:   12.9327058589
  - # 13
    frequency:   14.3983948994
  - # 14
    frequency:   14.4572990413
  - # 15
    frequency:   15.0944440151

- q-position: [    0.1464646,    0.0000000,    0.0000000 ]
  distance:    0.0511349
  band:
  - # 1
    frequency:    0.9948972406
  - # 2
    frequency:    1.4771843166
  - # 3
    frequency:    2.7081784334
  - # 4
    frequency:    2.9621001140
  - # 5
    frequency:    3.9668252186
  - # 6
    frequency:    4.7068576961
  - # 7
    frequency:    5.5842247214
  - # 8
    frequency:    6.4893066890
  - # 9
    frequency:    8.9367942768
  - # 10
    frequency:    9.6025857177
  - # 11
    frequency:    9.9329258287
  - # 12
    frequency:   12.9633979290
  - # 13
    frequency:   14.3827505977
  - # 14
    frequency:   14.4473335283
  - # 15
    frequency:   15.0865269312

- q-position: [    0.1515152,    0.0000000,    0.0000000 ]
  distance:    0.0528982
  band:
  - # 1
    frequency:    1.0502591629
  - # 2
    frequency:    1.5378248751
  - # 3
    frequency:    2.7687732522
  - # 4
    frequency:    2.9711006641
  - # 5
    frequency:    4.0293470051
  - # 6
    frequency:    4.7366560112
  - # 7
    frequency:    5.6057398525
  - # 8
    frequency:    6.5345945016
  - # 9
    frequency:    8.9019853254
  - # 10
    frequency:    9.5951704018
  - # 11
    frequency:    9.9459522204
  - # 12
    frequency:   12.9924342973
  - # 13
    frequency:   14.3661441625
  - # 14
    frequency:   14.4372993824
  - # 15
    frequency:   15.0810025770

- q-position: [    0.1565657,    0.0000000,    0.0000000 ]
  distance:    0.0546615
  band:
  - # 1
    frequency:    1.1057780046
  - # 2
    frequency:    1.5992249887
  - # 3
    frequency:    2.8255340538
  - # 4
    frequency:    2.9813207148
  - # 5
    frequency:    4.0919012593
  - # 6
    frequency:    4.7679571455
  - # 7
    frequency:    5.6268771291
  - # 8
    frequency:    6.5775073413
  - # 9
    frequency:    8.8647521192
  - # 10
    frequency:    9.5890089149
  - # 11
    frequency:    9.9596044467
  - # 12
    frequency:   13.0194777978
  - # 13
    frequency:   14.3484428129
  - # 14
    frequency:   14.4272431370
  - # 15
    frequency:   15.0781449720

- q-position: [    0.1616162,    0.0000000,    0.0000000 ]
  distance:    0.0564248
  band:
  - # 1
    frequency:    1.1613111940
  - # 2
    frequency:    1.6613295855
  - # 3
    frequency:    2.8783824071
  - # 4
    frequency:    2.9928107490
  - # 5
    frequency:    4.1540493029
  - # 6
    frequency:    4.8008905400
  - # 7
    frequency:    5.6475745284
  - # 8
    frequency:    6.6178715341
  - # 9
    frequency:    8.8254883817
  - # 10
    frequency:    9.5840821719
  - # 11
    frequency:    9.9738526786
  - # 12
    frequency:   13.0442304039
  - # 13
    frequency:   14.3295163453
  - # 14
    frequency:   14.4172135353
  - # 15
    frequency:   15.0781858290

- q-position: [    0.1666667,    0.0000000,    0.0000000 ]
  distance:    0.0581880
  band:
  - # 1
    frequency:    1.2167090525
  - # 2
    frequency:    1.7240736573
  - # 3
    frequency:    2.9272556388
  - # 4
    frequency:    3.0056163805
  - # 5
    frequency:    4.2153077614
  - # 6
    frequency:    4.8356147885
  - # 7
    frequency:    5.6677750721
  - # 8
    frequency:    6.6555237097
  - # 9
    frequency:    8.7846200602
  - # 10
    frequency:    9.5803627464
  - # 11
    frequency:    9.9886631546
  - # 12
    frequency:   13.0664424511
  - # 13
    frequency:   14.3092476043
  - # 14
    frequency:   14.4072612093
  - # 15
    frequency:   15.0812971473

- q-position: [    0.1717172,    0.0000000,    0.0000000 ]
  distance:    0.0599513
  band:
  - # 1
    frequency:    1.2718128823
  - # 2
    frequency:    1.7873826802
  - # 3
    frequency:    2.9721043252
  - # 4
    frequency:    3.0197780965
  - # 5
    frequency:    4.2751576449
  - # 6
    frequency:    4.8723126800
  - # 7
    frequency:    5.6874269883
  - # 8
    frequency:    6.6903156513
  - # 9
    frequency:    8.7425892969
  - # 10
    frequency:    9.5778245511
  - # 11
    frequency:   10.0039986662
  - # 12
    frequency:   13.0859196408
  - # 13
    frequency:   14.2875422711
  - # 14
    frequency:   14.3974383229
  - # 15
    frequency:   15.0875764263

- q-position: [    0.1767677,    0.0000000,    0.0000000 ]
  distance:    0.0617146
  band:
  - # 1
    frequency:    1.3264526522
  - # 2
    frequency:    1.8511731141
  - # 3
    frequency:    3.0128899712
  - # 4
    frequency:    3.0353310792
  - # 5
    frequency:    4.3330602059
  - # 6
    frequency:    4.9111799885
  - # 7
    frequency:    5.7064838024
  - # 8
    frequency:    6.7221204066
  - # 9
    frequency:    8.6998401170
  - # 10
    frequency:    9.5764493149
  - # 11
    frequency:   10.0198190925
  - # 12
    frequency:   13.1025271866
  - # 13
    frequency:   14.2643364257
  - # 14
    frequency:   14.3877981809
  - # 15
    frequency:   15.0970366996

- q-position: [    0.1818182,    0.0000000,    0.0000000 ]
  distance:    0.0634778
  band:
  - # 1
    frequency:    1.3804441987
  - # 2
    frequency:    1.9153529675
  - # 3
    frequency:    3.0495832971
  - # 4
    frequency:    3.0523051050
  - # 5
    frequency:    4.3884809556
  - # 6
    frequency:    4.9524064529
  - # 7
    frequency:    5.7249043636
  - # 8
    frequency:    6.7508395874
  - # 9
    frequency:    8.6568055989
  - # 10
    frequency:    9.5762299994
  - # 11
    frequency:   10.0360819733
  - # 12
    frequency:   13.1161907450
  - # 13
    frequency:   14.2396008242
  - # 14
    frequency:   14.3783948102
  - # 15
    frequency:   15.1096028294

- q-position: [    0.1868687,    0.0000000,    0.0000000 ]
  distance:    0.0652411
  band:
  - # 1
    frequency:    1.4335858349
  - # 2
    frequency:    1.9798224174
  - # 3
    frequency:    3.0707245204
  - # 4
    frequency:    3.0821635188
  - # 5
    frequency:    4.4409213848
  - # 6
    frequency:    4.9961492984
  - # 7
    frequency:    5.7426528102
  - # 8
    frequency:    6.7764115946
  - # 9
    frequency:    8.6138961187
  - # 10
    frequency:    9.5771716378
  - # 11
    frequency:   10.0527431051
  - # 12
    frequency:   13.1268941362
  - # 13
    frequency:   14.2133415927
  - # 14
    frequency:   14.3692825171
  - # 15
    frequency:   15.1251143800

- q-position: [    0.1919192,    0.0000000,    0.0000000 ]
  distance:    0.0670044
  band:
  - # 1
    frequency:    1.4856542411
  - # 2
    frequency:    2.0444744792
  - # 3
    frequency:    3.0906082886
  - # 4
    frequency:    3.1106189647
  - # 5
    frequency:    4.4899546733
  - # 6
    frequency:    5.0425029821
  - # 7
    frequency:    5.7596984846
  - # 8
    frequency:    6.7988202701
  - # 9
    frequency:    8.5714883788
  - # 10
    frequency:    9.5792901830
  - # 11
    frequency:   10.0697571493
  - # 12
    frequency:   13.1346742362
  - # 13
    frequency:   14.1855977911
  - # 14
    frequency:   14.3605154261
  - # 15
    frequency:   15.1433342639

- q-position: [    0.1969697,    0.0000000,    0.0000000 ]
  distance:    0.0687677
  band:
  - # 1
    frequency:    1.5363994842
  - # 2
    frequency:    2.1091957232
  - # 3
    frequency:    3.1119700947
  - # 4
    frequency:    3.1349493461
  - # 5
    frequency:    4.5352582082
  - # 6
    frequency:    5.0914723560
  - # 7
    frequency:    5.7760158017
  - # 8
    frequency:    6.8181031985
  - # 9
    frequency:    8.5299152385
  - # 10
    frequency:    9.5826099305
  - # 11
    frequency:   10.0870782378
  - # 12
    frequency:   13.1396137153
  - # 13
    frequency:   14.1564367950
  - # 14
    frequency:   14.3521470080
  - # 15
    frequency:   15.1639615598

- q-position: [    0.2020202,    0.0000000,    0.0000000 ]
  distance:    0.0705309
  band:
  - # 1
    frequency:    1.5855389939
  - # 2
    frequency:    2.1738670416
  - # 3
    frequency:    3.1348184954
  - # 4
    frequency:    3.1551699843
  - # 5
    frequency:    4.5766344706
  - # 6
    frequency:    5.1429577036
  - # 7
    frequency:    5.7915840804
  - # 8
    frequency:    6.8343586343
  - # 9
    frequency:    8.4894567112
  - # 10
    frequency:    9.5871600056
  - # 11
    frequency:   10.1046605606
  - # 12
    frequency:   13.1418324664
  - # 13
    frequency:   14.1259485977
  - # 14
    frequency:   14.3442296024
  - # 15
    frequency:   15.1866465808

- q-position: [    0.2070707,    0.0000000,    0.0000000 ]
  distance:    0.0722942
  band:
  - # 1
    frequency:    1.6327503208
  - # 2
    frequency:    2.2383644743
  - # 3
    frequency:    3.1591570910
  - # 4
    frequency:    3.1713182811
  - # 5
    frequency:    4.6140146929
  - # 6
    frequency:    5.1967572234
  - # 7
    frequency:    5.8063873439
  - # 8
    frequency:    6.8477498641
  - # 9
    frequency:    8.4503327929
  - # 10
    frequency:    9.5929703310
  - # 11
    frequency:   10.1224589248
  - # 12
    frequency:   13.1414785746
  - # 13
    frequency:   14.0942399999
  - # 14
    frequency:   14.3368139439
  - # 15
    frequency:   15.2110063908

- q-position: [    0.2121212,    0.0000000,    0.0000000 ]
  distance:    0.0740575
  band:
  - # 1
    frequency:    1.6776625237