nqpoint: 300    
npath: 3      
segment_nqpoint:
- 100
- 100
- 100
labels:
- [ 'G', 'M' ]
- [ 'M', 'K' ]
- [ 'K', 'G' ]
reciprocal_lattice:
- [   0.28427658,   0.16412716,   0.00000000 ] # a*
- [   0.00000000,   0.32825432,   0.00000000 ] # b*
- [   0.00000000,   0.00000000,   0.03764068 ] # c*
natom: 7      
lattice:
- [     3.517700981218443,     0.000000000000000,     0.000000000000000 ] # a
- [    -1.758850490609222,     3.046418412642410,     0.000000000000000 ] # b
- [     0.000000000000000,     0.000000000000000,    26.567001763971579 ] # c
points:
- symbol: C # 1
  coordinates: [  0.000000000000000,  0.000000000000000,  0.446678311342436 ]
  mass: 12.010700
- symbol: C # 2
  coordinates: [  0.333332985432215,  0.666666983183674,  0.616426930156104 ]
  mass: 12.010700
- symbol: Cl # 3
  coordinates: [  0.666666984744048,  0.333332985985145,  0.338766115949343 ]
  mass: 35.453000
- symbol: N # 4
  coordinates: [  0.333332985432215,  0.666666983183674,  0.661233884050657 ]
  mass: 14.006700
- symbol: S # 5
  coordinates: [  0.333332985432215,  0.666666983183674,  0.553465266590281 ]
  mass: 32.065000
- symbol: Sc # 6
  coordinates: [  0.333332985432215,  0.666666983183674,  0.400608163961207 ]
  mass: 44.955912
- symbol: Sc # 7
  coordinates: [  0.666666984744048,  0.333332985985145,  0.492194975847992 ]
  mass: 44.955912

phonon:
- q-position: [    0.0000000,    0.0000000,    0.0000000 ]
  distance:    0.0000000
  band:
  - # 1
    frequency:   -0.0000189288
  - # 2
    frequency:    0.0000005000
  - # 3
    frequency:    0.0000158024
  - # 4
    frequency:    0.4902034481
  - # 5
    frequency:    0.4902034482
  - # 6
    frequency:    3.3770204197
  - # 7
    frequency:    3.3770204198
  - # 8
    frequency:    5.0205815030
  - # 9
    frequency:    5.3072438853
  - # 10
    frequency:    5.3072438853
  - # 11
    frequency:    6.5830624890
  - # 12
    frequency:    6.5830624891
  - # 13
    frequency:    8.5957430811
  - # 14
    frequency:   10.1470049619
  - # 15
    frequency:   10.1470049620
  - # 16
    frequency:   10.7495861903
  - # 17
    frequency:   10.7495861903
  - # 18
    frequency:   11.5702510611
  - # 19
    frequency:   17.1619881773
  - # 20
    frequency:   21.1236515428
  - # 21
    frequency:   65.1517386845

- q-position: [    0.0050505,    0.0000000,    0.0000000 ]
  distance:    0.0016579
  band:
  - # 1
    frequency:    0.0021216090
  - # 2
    frequency:    0.0350090117
  - # 3
    frequency:    0.1076937115
  - # 4
    frequency:    0.4936849648
  - # 5
    frequency:    0.4984849877
  - # 6
    frequency:    3.3772755659
  - # 7
    frequency:    3.3789004617
  - # 8
    frequency:    5.0176773582
  - # 9
    frequency:    5.3072644464
  - # 10
    frequency:    5.3118746541
  - # 11
    frequency:    6.5830566083
  - # 12
    frequency:    6.5832069299
  - # 13
    frequency:    8.5956707489
  - # 14
    frequency:   10.1467606259
  - # 15
    frequency:   10.1508978740
  - # 16
    frequency:   10.7496307201
  - # 17
    frequency:   10.7514277179
  - # 18
    frequency:   11.5699267595
  - # 19
    frequency:   17.1605635667
  - # 20
    frequency:   21.1235908105
  - # 21
    frequency:   65.1516537849

- q-position: [    0.0101010,    0.0000000,    0.0000000 ]
  distance:    0.0033157
  band:
  - # 1
    frequency:    0.0084743753
  - # 2
    frequency:    0.0693841159
  - # 3
    frequency:    0.2107272845
  - # 4
    frequency:    0.5040626938
  - # 5
    frequency:    0.5243938342
  - # 6
    frequency:    3.3780406805
  - # 7
    frequency:    3.3845226108
  - # 8
    frequency:    5.0094776327
  - # 9
    frequency:    5.3073264320
  - # 10
    frequency:    5.3252166648
  - # 11
    frequency:    6.5830382459
  - # 12
    frequency:    6.5836481218
  - # 13
    frequency:    8.5954541102
  - # 14
    frequency:   10.1460278717
  - # 15
    frequency:   10.1624187475
  - # 16
    frequency:   10.7497648178
  - # 17
    frequency:   10.7570436555
  - # 18
    frequency:   11.5689906412
  - # 19
    frequency:   17.1562922663
  - # 20
    frequency:   21.1234087169
  - # 21
    frequency:   65.1513992197

- q-position: [    0.0151515,    0.0000000,    0.0000000 ]
  distance:    0.0049736
  band:
  - # 1
    frequency:    0.0189758212
  - # 2
    frequency:    0.1025861720
  - # 3
    frequency:    0.3035215561
  - # 4
    frequency:    0.5211270081
  - # 5
    frequency:    0.5709300971
  - # 6
    frequency:    3.3793147933
  - # 7
    frequency:    3.3938335692
  - # 8
    frequency:    4.9972039965
  - # 9
    frequency:    5.3074307455
  - # 10
    frequency:    5.3459371642
  - # 11
    frequency:    6.5830052415
  - # 12
    frequency:    6.5844096171
  - # 13
    frequency:    8.5950942626
  - # 14
    frequency:   10.1448074729
  - # 15
    frequency:   10.1810877298
  - # 16
    frequency:   10.7499899959
  - # 17
    frequency:   10.7667092667
  - # 18
    frequency:   11.5675581101
  - # 19
    frequency:   17.1491818673
  - # 20
    frequency:   21.1231055725
  - # 21
    frequency:   65.1509753884

- q-position: [    0.0202020,    0.0000000,    0.0000000 ]
  distance:    0.0066314
  band:
  - # 1
    frequency:    0.0335146739
  - # 2
    frequency:    0.1342460224
  - # 3
    frequency:    0.3814169554
  - # 4
    frequency:    0.5445082313
  - # 5
    frequency:    0.6406620451
  - # 6
    frequency:    3.3810962887
  - # 7
    frequency:    3.4067465608
  - # 8
    frequency:    4.9821989338
  - # 9
    frequency:    5.3075788829
  - # 10
    frequency:    5.3725139739
  - # 11
    frequency:    6.5829539938
  - # 12
    frequency:    6.5855304914
  - # 13
    frequency:    8.5945931122
  - # 14
    frequency:   10.1431007565
  - # 15
    frequency:   10.2060878456
  - # 16
    frequency:   10.7503087332
  - # 17
    frequency:   10.7808825450
  - # 18
    frequency:   11.5658394835
  - # 19
    frequency:   17.1392450155
  - # 20
    frequency:   21.1226818937
  - # 21
    frequency:   65.1503829565

- q-position: [    0.0252525,    0.0000000,    0.0000000 ]
  distance:    0.0082893
  band:
  - # 1
    frequency:    0.0519586413
  - # 2
    frequency:    0.1642006959
  - # 3
    frequency:    0.4452324159
  - # 4
    frequency:    0.5736744084
  - # 5
    frequency:    0.7309999880
  - # 6
    frequency:    3.3833829091
  - # 7
    frequency:    3.4231442213
  - # 8
    frequency:    4.9655594586
  - # 9
    frequency:    5.3077729165
  - # 10
    frequency:    5.4036094493
  - # 11
    frequency:    6.5828794591
  - # 12
    frequency:    6.5870650985
  - # 13
    frequency:    8.5939534741
  - # 14
    frequency:   10.1409096578
  - # 15
    frequency:   10.2362536339
  - # 16
    frequency:   10.7507244132
  - # 17
    frequency:   10.8001843274
  - # 18
    frequency:   11.5641713437
  - # 19
    frequency:   17.1264994014
  - # 20
    frequency:   21.1221384010
  - # 21
    frequency:   65.1496228530

- q-position: [    0.0303030,    0.0000000,    0.0000000 ]
  distance:    0.0099471
  band:
  - # 1
    frequency:    0.0741613566
  - # 2
    frequency:    0.1924803731
  - # 3
    frequency:    0.5003803721
  - # 4
    frequency:    0.6079615344
  - # 5
    frequency:    0.8350407050
  - # 6
    frequency:    3.3861717588
  - # 7
    frequency:    3.4428822963
  - # 8
    frequency:    4.9480570044
  - # 9
    frequency:    5.3080154744
  - # 10
    frequency:    5.4381604201
  - # 11
    frequency:    6.5827751522
  - # 12
    frequency:    6.5890827633
  - # 13
    frequency:    8.5931791884
  - # 14
    frequency:   10.1382367952
  - # 15
    frequency:   10.2700886651
  - # 16
    frequency:   10.7512412403
  - # 17
    frequency:   10.8253273495
  - # 18
    frequency:   11.5630703592
  - # 19
    frequency:   17.1109677489
  - # 20
    frequency:   21.1214760173
  - # 21
    frequency:   65.1486962684

- q-position: [    0.0353535,    0.0000000,    0.0000000 ]
  distance:    0.0116050
  band:
  - # 1
    frequency:    0.0999649360
  - # 2
    frequency:    0.2192554105
  - # 3
    frequency:    0.5516624474
  - # 4
    frequency:    0.6466331292
  - # 5
    frequency:    0.9467505321
  - # 6
    frequency:    3.3894593098
  - # 7
    frequency:    3.4657938570
  - # 8
    frequency:    4.9301929121
  - # 9
    frequency:    5.3083097131
  - # 10
    frequency:    5.4753339208
  - # 11
    frequency:    6.5826331480
  - # 12
    frequency:    6.5916674297
  - # 13
    frequency:    8.5922752369
  - # 14
    frequency:   10.1350855587
  - # 15
    frequency:   10.3058486056
  - # 16
    frequency:   10.7518641364
  - # 17
    frequency:   10.8569453032
  - # 18
    frequency:   11.5633220456
  - # 19
    frequency:   17.0926778012
  - # 20
    frequency:   21.1206958648
  - # 21
    frequency:   65.1476046521

- q-position: [    0.0404040,    0.0000000,    0.0000000 ]
  distance:    0.0132628
  band:
  - # 1
    frequency:    0.1292012191
  - # 2
    frequency:    0.2447683612
  - # 3
    frequency:    0.6016711797
  - # 4
    frequency:    0.6889484051
  - # 5
    frequency:    1.0625336604
  - # 6
    frequency:    3.3932414088
  - # 7
    frequency:    3.4916937368
  - # 8
    frequency:    4.9122793139
  - # 9
    frequency:    5.3086592844
  - # 10
    frequency:    5.5144581148
  - # 11
    frequency:    6.5824440871
  - # 12
    frequency:    6.5949172635
  - # 13
    frequency:    8.5912478482
  - # 14
    frequency:   10.1314602124
  - # 15
    frequency:   10.3417205688
  - # 16
    frequency:   10.7525986212
  - # 17
    frequency:   10.8952732447
  - # 18
    frequency:   11.5661225694
  - # 19
    frequency:   17.0716623080
  - # 20
    frequency:   21.1197992617
  - # 21
    frequency:   65.1463497086

- q-position: [    0.0454545,    0.0000000,    0.0000000 ]
  distance:    0.0149207
  band:
  - # 1
    frequency:    0.1616933711
  - # 2
    frequency:    0.2692754208
  - # 3
    frequency:    0.6515481888
  - # 4
    frequency:    0.7342172592
  - # 5
    frequency:    1.1804368133
  - # 6
    frequency:    3.3975132856
  - # 7
    frequency:    3.5203829095
  - # 8
    frequency:    4.8945059870
  - # 9
    frequency:    5.3090682978
  - # 10
    frequency:    5.5549671056
  - # 11
    frequency:    6.5821971861
  - # 12
    frequency:    6.5989441753
  - # 13
    frequency:    8.5901045840
  - # 14
    frequency:   10.1273660034
  - # 15
    frequency:   10.3760841565
  - # 16
    frequency:   10.7534506789
  - # 17
    frequency:   10.9396767507
  - # 18
    frequency:   11.5732909483
  - # 19
    frequency:   17.0479590149
  - # 20
    frequency:   21.1187877183
  - # 21
    frequency:   65.1449333935

- q-position: [    0.0505051,    0.0000000,    0.0000000 ]
  distance:    0.0165785
  band:
  - # 1
    frequency:    0.1972581648
  - # 2
    frequency:    0.2930091275
  - # 3
    frequency:    0.7017309125
  - # 4
    frequency:    0.7818319925
  - # 5
    frequency:    1.2993649591
  - # 6
    frequency:    3.4022695642
  - # 7
    frequency:    3.5516525777
  - # 8
    frequency:    4.8769874477
  - # 9
    frequency:    5.3095412766
  - # 10
    frequency:    5.5963647890
  - # 11
    frequency:    6.5818802551
  - # 12
    frequency:    6.6038731841
  - # 13
    frequency:    8.5888544081
  - # 14
    frequency:   10.1228092735
  - # 15
    frequency:   10.4077651764
  - # 16
    frequency:   10.7544266158
  - # 17
    frequency:   10.9881353123
  - # 18
    frequency:   11.5875352590
  - # 19
    frequency:   17.0216106578
  - # 20
    frequency:   21.1176629327
  - # 21
    frequency:   65.1433579084

- q-position: [    0.0555556,    0.0000000,    0.0000000 ]
  distance:    0.0182364
  band:
  - # 1
    frequency:    0.2357086619
  - # 2
    frequency:    0.3161616308
  - # 3
    frequency:    0.7523428468
  - # 4
    frequency:    0.8312775838
  - # 5
    frequency:    1.4186576309
  - # 6
    frequency:    3.4075042744
  - # 7
    frequency:    3.5852877917
  - # 8
    frequency:    4.8597941742
  - # 9
    frequency:    5.3100831099
  - # 10
    frequency:    5.6382035023
  - # 11
    frequency:    6.5814797243
  - # 12
    frequency:    6.6098414810
  - # 13
    frequency:    8.5875077377
  - # 14
    frequency:   10.1177975697
  - # 15
    frequency:   10.4361611483
  - # 16
    frequency:   10.7555329121
  - # 17
    frequency:   11.0369487790
  - # 18
    frequency:   11.6126249417
  - # 19
    frequency:   16.9926649670
  - # 20
    frequency:   21.1164267851
  - # 21
    frequency:   65.1416256964

- q-position: [    0.0606061,    0.0000000,    0.0000000 ]
  distance:    0.0198942
  band:
  - # 1
    frequency:    0.2768569294
  - # 2
    frequency:    0.3388819943
  - # 3
    frequency:    0.8033728364
  - # 4
    frequency:    0.8821278060
  - # 5
    frequency:    1.5378819897
  - # 6
    frequency:    3.4132108671
  - # 7
    frequency:    3.6210704799
  - # 8
    frequency:    4.8429728221
  - # 9
    frequency:    5.3106990000
  - # 10
    frequency:    5.6800725014
  - # 11
    frequency:    6.5809806810
  - # 12
    frequency:    6.6169969947
  - # 13
    frequency:    8.5860764857
  - # 14
    frequency:   10.1123397460
  - # 15
    frequency:   10.4611877530
  - # 16
    frequency:   10.7567760727
  - # 17
    frequency:   11.0811324662
  - # 18
    frequency:   11.6530543593
  - # 19
    frequency:   16.9611746854
  - # 20
    frequency:   21.1150813329
  - # 21
    frequency:   65.1397394354

- q-position: [    0.0656566,    0.0000000,    0.0000000 ]
  distance:    0.0215521
  band:
  - # 1
    frequency:    0.3205165198
  - # 2
    frequency:    0.3612807795
  - # 3
    frequency:    0.8547556604
  - # 4
    frequency:    0.9340343955
  - # 5
    frequency:    1.6567303436
  - # 6
    frequency:    3.4193822301
  - # 7
    frequency:    3.6587818191
  - # 8
    frequency:    4.8265592132
  - # 9
    frequency:    5.3113944057
  - # 10
    frequency:    5.7215926342
  - # 11
    frequency:    6.5803669202
  - # 12
    frequency:    6.6254961967
  - # 13
    frequency:    8.5845740972
  - # 14
    frequency:   10.1064460539
  - # 15
    frequency:   10.4831072584
  - # 16
    frequency:   10.7581624795
  - # 17
    frequency:   11.1159005823
  - # 18
    frequency:   11.7127367749
  - # 19
    frequency:   16.9271976076
  - # 20
    frequency:   21.1136288040
  - # 21
    frequency:   65.1377020322

- q-position: [    0.0707071,    0.0000000,    0.0000000 ]
  distance:    0.0232099
  band:
  - # 1
    frequency:    0.3665045675
  - # 2
    frequency:    0.3834372404
  - # 3
    frequency:    0.9064082085
  - # 4
    frequency:    0.9867141941
  - # 5
    frequency:    1.7749670448
  - # 6
    frequency:    3.4260107075
  - # 7
    frequency:    3.6982039114
  - # 8
    frequency:    4.8105867029
  - # 9
    frequency:    5.3121749818
  - # 10
    frequency:    5.7624149582
  - # 11
    frequency:    6.5796210105
  - # 12
    frequency:    6.6355008564
  - # 13
    frequency:    8.5830155871
  - # 14
    frequency:   10.1001282158
  - # 15
    frequency:   10.5023427654
  - # 16
    frequency:   10.7596982497
  - # 17
    frequency:   11.1386093889
  - # 18
    frequency:   11.7932532850
  - # 19
    frequency:   16.8907966492
  - # 20
    frequency:   21.1120715907
  - # 21
    frequency:   65.1355166153

- q-position: [    0.0757576,    0.0000000,    0.0000000 ]
  distance:    0.0248678
  band:
  - # 1
    frequency:    0.4054065925
  - # 2
    frequency:    0.4146434456
  - # 3
    frequency:    0.9582455269
  - # 4
    frequency:    1.0399368999
  - # 5
    frequency:    1.8923995114
  - # 6
    frequency:    3.4330881203
  - # 7
    frequency:    3.7391207555
  - # 8
    frequency:    4.7950916677
  - # 9
    frequency:    5.3130465158
  - # 10
    frequency:    5.8022220415
  - # 11
    frequency:    6.5787243776
  - # 12
    frequency:    6.6471734723
  - # 13
    frequency:    8.5814175831
  - # 14
    frequency:   10.0933994774
  - # 15
    frequency:   10.5193431297
  - # 16
    frequency:   10.7613891030
  - # 17
    frequency:   11.1494212652
  - # 18
    frequency:   11.8933304384
  - # 19
    frequency:   16.8520399572
  - # 20
    frequency:   21.1104122422
  - # 21
    frequency:   65.1331865276

- q-position: [    0.0808081,    0.0000000,    0.0000000 ]
  distance:    0.0265256
  band:
  - # 1
    frequency:    0.4272262824
  - # 2
    frequency:    0.4647619847
  - # 3
    frequency:    1.0101876142
  - # 4
    frequency:    1.0935145128
  - # 5
    frequency:    2.0088615957
  - # 6
    frequency:    3.4406057902
  - # 7
    frequency:    3.7813185047
  - # 8
    frequency:    4.7801172842
  - # 9
    frequency:    5.3140148621
  - # 10
    frequency:    5.8407312510
  - # 11
    frequency:    6.5776574064
  - # 12
    frequency:    6.6606712155
  - # 13
    frequency:    8.5797983768
  - # 14
    frequency:   10.0862746351
  - # 15
    frequency:   10.5345089696
  - # 16
    frequency:   10.7632402394
  - # 17
    frequency:   11.1502334101
  - # 18
    frequency:   12.0099921395
  - # 19
    frequency:   16.8110010783
  - # 20
    frequency:   21.1086534573
  - # 21
    frequency:   65.1307153185

- q-position: [    0.0858586,    0.0000000,    0.0000000 ]
  distance:    0.0281835
  band:
  - # 1
    frequency:    0.4489209756
  - # 2
    frequency:    0.5166962906
  - # 3
    frequency:    1.0621619414
  - # 4
    frequency:    1.1472927101
  - # 5
    frequency:    2.1242035725
  - # 6
    frequency:    3.4485545648
  - # 7
    frequency:    3.8245849941
  - # 8
    frequency:    4.7657164155
  - # 9
    frequency:    5.3150858734
  - # 10
    frequency:    5.8776995474
  - # 11
    frequency:    6.5763995647
  - # 12
    frequency:    6.6761384364
  - # 13
    frequency:    8.5781779857
  - # 14
    frequency:   10.0787700365
  - # 15
    frequency:   10.5481626292
  - # 16
    frequency:   10.7652562308
  - # 17
    frequency:   11.1433033602
  - # 18
    frequency:   12.1399705415
  - # 19
    frequency:   16.7677592067
  - # 20
    frequency:   21.1067980762
  - # 21
    frequency:   65.1281067352

- q-position: [    0.0909091,    0.0000000,    0.0000000 ]
  distance:    0.0298413
  band:
  - # 1
    frequency:    0.4705063445
  - # 2
    frequency:    0.5702902119
  - # 3
    frequency:    1.1141040275
  - # 4
    frequency:    1.2011440010
  - # 5
    frequency:    2.2382858280
  - # 6
    frequency:    3.4569248453
  - # 7
    frequency:    3.8687084887
  - # 8
    frequency:    4.7519542074
  - # 9
    frequency:    5.3162653316
  - # 10
    frequency:    5.9129292250
  - # 11
    frequency:    6.5749295488
  - # 12
    frequency:    6.6936981239
  - # 13
    frequency:    8.5765782281
  - # 14
    frequency:   10.0709035507
  - # 15
    frequency:   10.5605417766
  - # 16
    frequency:   10.7674409269
  - # 17
    frequency:   11.1305534034
  - # 18
    frequency:   12.2804139390
  - # 19
    frequency:   16.7223995414
  - # 20
    frequency:   21.1048490726
  - # 21
    frequency:   65.1253647146

- q-position: [    0.0959596,    0.0000000,    0.0000000 ]
  distance:    0.0314992
  band:
  - # 1
    frequency:    0.4919918602
  - # 2
    frequency:    0.6253955122
  - # 3
    frequency:    1.1659571761
  - # 4
    frequency:    1.2549623759
  - # 5
    frequency:    2.3509746862
  - # 6
    frequency:    3.4657066163
  - # 7
    frequency:    3.9134755580
  - # 8
    frequency:    4.7389108833
  - # 9
    frequency:    5.3175588775
  - # 10
    frequency:    5.9462737836
  - # 11
    frequency:    6.5732254525
  - # 12
    frequency:    6.7134431004
  - # 13
    frequency:    8.5750228105
  - # 14
    frequency:   10.0626945087
  - # 15
    frequency:   10.5718023048
  - # 16
    frequency:   10.7697973766
  - # 17
    frequency:   11.1134409419
  - # 18
    frequency:   12.4290187472
  - # 19
    frequency:   16.6750137949
  - # 20
    frequency:   21.1028095443
  - # 21
    frequency:   65.1224933734

- q-position: [    0.1010101,    0.0000000,    0.0000000 ]
  distance:    0.0331570
  band:
  - # 1
    frequency:    0.5133828121
  - # 2
    frequency:    0.6818718002
  - # 3
    frequency:    1.2176719036
  - # 4
    frequency:    1.3086591506
  - # 5
    frequency:    2.4621394966
  - # 6
    frequency:    3.4748894770
  - # 7
    frequency:    3.9586679196
  - # 8
    frequency:    4.7266851853
  - # 9
    frequency:    5.3189719395
  - # 10
    frequency:    5.9776428442
  - # 11
    frequency:    6.5712649596
  - # 12
    frequency:    6.7354280849
  - # 13
    frequency:    8.5735374289
  - # 14
    frequency:   10.0541636119
  - # 15
    frequency:   10.5820223534
  - # 16
    frequency:   10.7723277644
  - # 17
    frequency:   11.0930472430
  - # 18
    frequency:   12.5839411372
  - # 19
    frequency:   16.6257009144
  - # 20
    frequency:   21.1006827049
  - # 21
    frequency:   65.1194969987

- q-position: [    0.1060606,    0.0000000,    0.0000000 ]
  distance:    0.0348149
  band:
  - # 1
    frequency:    0.5346817444
  - # 2
    frequency:    0.7395862647
  - # 3
    frequency:    1.2692053099
  - # 4
    frequency:    1.3621597437
  - # 5
    frequency:    2.5716504590
  - # 6
    frequency:    3.4844626740
  - # 7
    frequency:    4.0040580111
  - # 8
    frequency:    4.7153989186
  - # 9
    frequency:    5.3205096644
  - # 10
    frequency:    6.0070049084
  - # 11
    frequency:    6.5690255606
  - # 12
    frequency:    6.7596638914
  - # 13
    frequency:    8.5721498832
  - # 14
    frequency:   10.0453328112
  - # 15
    frequency:   10.5912031488
  - # 16
    frequency:   10.7750333628
  - # 17
    frequency:   11.0702016945
  - # 18
    frequency:   12.7436753685
  - # 19
    frequency:   16.5745681010
  - # 20
    frequency:   21.0984718739
  - # 21
    frequency:   65.1163800386

- q-position: [    0.1111111,    0.0000000,    0.0000000 ]
  distance:    0.0364727
  band:
  - # 1
    frequency:    0.5558894650
  - # 2
    frequency:    0.7984132528
  - # 3
    frequency:    1.3205205074
  - # 4
    frequency:    1.4154011695
  - # 5
    frequency:    2.6793768548
  - # 6
    frequency:    3.4944151356
  - # 7
    frequency:    4.0494029631
  - # 8
    frequency:    4.7052031000
  - # 9
    frequency:    5.3221768474
  - # 10
    frequency:    6.0343869541
  - # 11
    frequency:    6.5664847920
  - # 12
    frequency:    6.7861148359
  - # 13
    frequency:    8.5708902049
  - # 14
    frequency:   10.0362251560
  - # 15
    frequency:   10.5992642494
  - # 16
    frequency:   10.7779144979
  - # 17
    frequency:   11.0455878953
  - # 18
    frequency:   12.9069547521
  - # 19
    frequency:   16.5217322558
  - # 20
    frequency:   21.0961804670
  - # 21
    frequency:   65.1131470914

- q-position: [    0.1161616,    0.0000000,    0.0000000 ]
  distance:    0.0381306
  band:
  - # 1
    frequency:    0.5770057441
  - # 2
    frequency:    0.8582337214
  - # 3
    frequency:    1.3715861611
  - # 4
    frequency:    1.4683300778
  - # 5
    frequency:    2.7851854509
  - # 6
    frequency:    3.5047355066
  - # 7
    frequency:    4.0944365853
  - # 8
    frequency:    4.6962862437
  - # 9
    frequency:    5.3239778646
  - # 10
    frequency:    6.0598703917
  - # 11
    frequency:    6.5636204982
  - # 12
    frequency:    6.8146998852
  - # 13
    frequency:    8.5697907955
  - # 14
    frequency:   10.0268646170
  - # 15
    frequency:   10.6060316054
  - # 16
    frequency:   10.7809705298
  - # 17
    frequency:   11.0198272526
  - # 18
    frequency:   13.0726809866
  - # 19
    frequency:   16.4673220428
  - # 20
    frequency:   21.0938119869
  - # 21
    frequency:   65.1098028953

- q-position: [    0.1212121,    0.0000000,    0.0000000 ]
  distance:    0.0397884
  band:
  - # 1
    frequency:    0.5980297867
  - # 2
    frequency:    0.9189345844
  - # 3
    frequency:    1.4223761580
  - # 4
    frequency:    1.5209012092
  - # 5
    frequency:    2.8889388923
  - # 6
    frequency:    3.5154121839
  - # 7
    frequency:    4.1388590468
  - # 8
    frequency:    4.6888852406
  - # 9
    frequency:    5.3259166080
  - # 10
    frequency:    6.0835836222
  - # 11
    frequency:    6.5604111133
  - # 12
    frequency:    6.8452973386
  - # 13
    frequency:    8.5688865757
  - # 14
    frequency:   10.0172758839
  - # 15
    frequency:   10.6112176569
  - # 16
    frequency:   10.7841998438
  - # 17
    frequency:   10.9935473808
  - # 18
    frequency:   13.2398750958
  - # 19
    frequency:   16.4114808613
  - # 20
    frequency:   21.0913700125
  - # 21
    frequency:   65.1063523179

- q-position: [    0.1262626,    0.0000000,    0.0000000 ]
  distance:    0.0414463
  band:
  - # 1
    frequency:    0.6189605454
  - # 2
    frequency:    0.9804079680
  - # 3
    frequency:    1.4728694170
  - # 4
    frequency:    1.5730761681
  - # 5
    frequency:    2.9904939152
  - # 6
    frequency:    3.5264333518
  - # 7
    frequency:    4.1823243651
  - # 8
    frequency:    4.6832988573
  - # 9
    frequency:    5.3279964228
  - # 10
    frequency:    6.1056921089
  - # 11
    frequency:    6.5568359605
  - # 12
    frequency:    6.8777521520
  - # 13
    frequency:    8.5682151402
  - # 14
    frequency:   10.0074841435
  - # 15
    frequency:   10.6143951059
  - # 16
    frequency:   10.7875998525
  - # 17
    frequency:   10.9674408670
  - # 18
    frequency:   13.4076423714
  - # 19
    frequency:   16.3543711834
  - # 20
    frequency:   21.0888581890
  - # 21
    frequency:   65.1028003452

- q-position: [    0.1313131,    0.0000000,    0.0000000 ]
  distance:    0.0431041
  band:
  - # 1
    frequency:    0.6397969165
  - # 2
    frequency:    1.0425503780
  - # 3
    frequency:    1.5230498431
  - # 4
    frequency:    1.6248224356
  - # 5
    frequency:    3.0896992077
  - # 6
    frequency:    3.5377870178
  - # 7
    frequency:    4.2244271371
  - # 8
    frequency:    4.6799025736
  - # 9
    frequency:    5.3302200478
  - # 10
    frequency:    6.1263872698
  - # 11
    frequency:    6.5528755662
  - # 12
    frequency:    6.9118846006
  - # 13
    frequency:    8.5678169146
  - # 14
    frequency:    9.9975148395
  - # 15
    frequency:   10.6149727743
  - # 16
    frequency:   10.7911670074
  - # 17
    frequency:   10.9423113853
  - # 18
    frequency:   13.5751452648
  - # 19
    frequency:   16.2961809836
  - # 20
    frequency:   21.0862802178
  - # 21
    frequency:   65.0991520703

- q-position: [    0.1363636,    0.0000000,    0.0000000 ]
  distance:    0.0447620
  band:
  - # 1
    frequency:    0.6605378533
  - # 2
    frequency:    1.1052617769
  - # 3
    frequency:    1.5729064326
  - # 4
    frequency:    1.6761125685
  - # 5
    frequency:    3.1863927255
  - # 6
    frequency:    3.5494610466
  - # 7
    frequency:    4.2646930894
  - # 8
    frequency:    4.6791603648
  - # 9
    frequency:    5.3325895607
  - # 10
    frequency:    6.1458755159
  - # 11
    frequency:    6.5485119849
  - # 12
    frequency:    6.9474989521
  - # 13
    frequency:    8.5677353071
  - # 14
    frequency:    9.9873934207
  - # 15
    frequency:   10.6121963215
  - # 16
    frequency:   10.7948968175
  - # 17
    frequency:   10.9190880170
  - # 18
    frequency:   13.7415794806
  - # 19
    frequency:   16.2371334531
  - # 20
    frequency:   21.0836398459
  - # 21
    frequency:   65.0954126826

- q-position: [    0.1414141,    0.0000000,    0.0000000 ]
  distance:    0.0464198
  band:
  - # 1
    frequency:    0.6811824213
  - # 2
    frequency:    1.1684445575
  - # 3
    frequency:    1.6224335435
  - # 4
    frequency:    1.7269235394
  - # 5
    frequency:    3.2803982383
  - # 6
    frequency:    3.5614431941
  - # 7
    frequency:    4.3025840668
  - # 8
    frequency:    4.6816230178
  - # 9
    frequency:    5.3351063267
  - # 10
    frequency:    6.1643684765
  - # 11
    frequency:    6.5437291305
  - # 12
    frequency:    6.9843910971
  - # 13
    frequency:    8.5680168450
  - # 14
    frequency:    9.9771450806
  - # 15
    frequency:   10.6052153031
  - # 16
    frequency:   10.7987838746
  - # 17
    frequency:   10.8987686534
  - # 18
    frequency:   13.9061489813
  - # 19
    frequency:   16.1775020027
  - # 20
    frequency:   21.0809408558
  - # 21
    frequency:   65.0915874561

- q-position: [    0.1464646,    0.0000000,    0.0000000 ]
  distance:    0.0480777
  band:
  - # 1
    frequency:    0.7017298114
  - # 2
    frequency:    1.2320023928
  - # 3
    frequency:    1.6716313465
  - # 4
    frequency:    1.7772361870
  - # 5
    frequency:    3.3715208599
  - # 6
    frequency:    3.5737211389
  - # 7
    frequency:    4.3375363983
  - # 8
    frequency:    4.6878942806
  - # 9
    frequency:    5.3377709527
  - # 10
    frequency:    6.1820750161
  - # 11
    frequency:    6.5385131082
  - # 12
    frequency:    7.0223545250
  - # 13
    frequency:    8.5687112828
  - # 14
    frequency:    9.9667944940
  - # 15
    frequency:   10.5932549310
  - # 16
    frequency:   10.8028218837
  - # 17
    frequency:   10.8822556448
  - # 18
    frequency:   14.0680349921
  - # 19
    frequency:   16.1176340128
  - # 20
    frequency:   21.0781870550
  - # 21
    frequency:   65.0876817382

- q-position: [    0.1515152,    0.0000000,    0.0000000 ]
  distance:    0.0497355
  band:
  - # 1
    frequency:    0.7221793242
  - # 2
    frequency:    1.2958389329
  - # 3
    frequency:    1.7205064852
  - # 4
    frequency:    1.8270347504
  - # 5
    frequency:    3.4595413128
  - # 6
    frequency:    3.5862825126
  - # 7
    frequency:    4.3690548318
  - # 8
    frequency:    4.6985428893
  - # 9
    frequency:    5.3405832458
  - # 10
    frequency:    6.1991952237
  - # 11
    frequency:    6.5328525436
  - # 12
    frequency:    7.0611844569
  - # 13
    frequency:    8.5698716624
  - # 14
    frequency:    9.9563655550
  - # 15
    frequency:   10.5758607330
  - # 16
    frequency:   10.8070036969
  - # 17
    frequency:   10.8701164857
  - # 18
    frequency:   14.2263519460
  - # 19
    frequency:   16.0579894666
  - # 20
    frequency:   21.0753822665
  - # 21