nqpoint: 300    
npath: 3      
segment_nqpoint:
- 100
- 100
- 100
labels:
- [ 'G', 'M' ]
- [ 'M', 'K' ]
- [ 'K', 'G' ]
reciprocal_lattice:
- [   0.29758330,   0.17180980,   0.00000000 ] # a*
- [   0.00000000,   0.34361959,   0.00000000 ] # b*
- [   0.00000000,   0.00000000,   0.03892412 ] # c*
natom: 6      
lattice:
- [     3.360403648407247,     0.000000000000000,     0.000000000000000 ] # a
- [    -1.680201824203624,     2.910194926474700,     0.000000000000000 ] # b
- [     0.000000000000000,     0.000000000000000,    25.691012115809716 ] # c
points:
- symbol: Cl # 1
  coordinates: [  0.666666984744047,  0.333332985985145,  0.350317066506756 ]
  mass: 35.453000
- symbol: N # 2
  coordinates: [  0.000000000000000,  0.000000000000000,  0.466658327938323 ]
  mass: 14.006700
- symbol: O # 3
  coordinates: [  0.333332985432215,  0.666666983183674,  0.649682933493243 ]
  mass: 15.999400
- symbol: P # 4
  coordinates: [  0.333332985432215,  0.666666983183674,  0.591498913053722 ]
  mass: 30.973762
- symbol: Zr # 5
  coordinates: [  0.333332985432215,  0.666666983183674,  0.420904952715615 ]
  mass: 91.224000
- symbol: Zr # 6
  coordinates: [  0.666666984744047,  0.333332985985145,  0.515358738631400 ]
  mass: 91.224000

phonon:
- q-position: [    0.0000000,    0.0000000,    0.0000000 ]
  distance:    0.0000000
  band:
  - # 1
    frequency:   -1.3890549871
  - # 2
    frequency:   -1.3890549870
  - # 3
    frequency:   -0.0000209881
  - # 4
    frequency:    0.0000001946
  - # 5
    frequency:    0.0000186007
  - # 6
    frequency:    3.5827452012
  - # 7
    frequency:    3.5827452013
  - # 8
    frequency:    4.4906703015
  - # 9
    frequency:    4.4906703015
  - # 10
    frequency:    4.9481827871
  - # 11
    frequency:    5.5099620790
  - # 12
    frequency:    5.5099620790
  - # 13
    frequency:    8.4001197383
  - # 14
    frequency:    9.7815092808
  - # 15
    frequency:   11.7189647943
  - # 16
    frequency:   15.4361754830
  - # 17
    frequency:   15.4361754830
  - # 18
    frequency:   33.9593543722

- q-position: [    0.0050505,    0.0000000,    0.0000000 ]
  distance:    0.0017355
  band:
  - # 1
    frequency:   -1.3887333091
  - # 2
    frequency:   -1.3880662957
  - # 3
    frequency:    0.0014943346
  - # 4
    frequency:    0.0456639438
  - # 5
    frequency:    0.1077496402
  - # 6
    frequency:    3.5828710177
  - # 7
    frequency:    3.5838171800
  - # 8
    frequency:    4.4891309780
  - # 9
    frequency:    4.4907194463
  - # 10
    frequency:    4.9493616060
  - # 11
    frequency:    5.5099251465
  - # 12
    frequency:    5.5106523542
  - # 13
    frequency:    8.3999035834
  - # 14
    frequency:    9.7807998115
  - # 15
    frequency:   11.7190648102
  - # 16
    frequency:   15.4361650483
  - # 17
    frequency:   15.4362130580
  - # 18
    frequency:   33.9591889626

- q-position: [    0.0101010,    0.0000000,    0.0000000 ]
  distance:    0.0034709
  band:
  - # 1
    frequency:   -1.3877779752
  - # 2
    frequency:   -1.3851055588
  - # 3
    frequency:    0.0059718155
  - # 4
    frequency:    0.0914457042
  - # 5
    frequency:    0.2155123349
  - # 6
    frequency:    3.5832478699
  - # 7
    frequency:    3.5870242259
  - # 8
    frequency:    4.4845850419
  - # 9
    frequency:    4.4908671784
  - # 10
    frequency:    4.9528202261
  - # 11
    frequency:    5.5098150987
  - # 12
    frequency:    5.5127335060
  - # 13
    frequency:    8.3992542011
  - # 14
    frequency:    9.7786719472
  - # 15
    frequency:   11.7193660682
  - # 16
    frequency:   15.4361339560
  - # 17
    frequency:   15.4363247889
  - # 18
    frequency:   33.9586930030

- q-position: [    0.0151515,    0.0000000,    0.0000000 ]
  distance:    0.0052064
  band:
  - # 1
    frequency:   -1.3862179742
  - # 2
    frequency:   -1.3801868060
  - # 3
    frequency:    0.0134149379
  - # 4
    frequency:    0.1374609008
  - # 5
    frequency:    0.3232919683
  - # 6
    frequency:    3.5838739721
  - # 7
    frequency:    3.5923398041
  - # 8
    frequency:    4.4772358604
  - # 9
    frequency:    4.4911143859
  - # 10
    frequency:    4.9583387336
  - # 11
    frequency:    5.5096341825
  - # 12
    frequency:    5.5162356561
  - # 13
    frequency:    8.3981688632
  - # 14
    frequency:    9.7751273337
  - # 15
    frequency:   11.7198721767
  - # 16
    frequency:   15.4360828415
  - # 17
    frequency:   15.4365076972
  - # 18
    frequency:   33.9578673010

- q-position: [    0.0202020,    0.0000000,    0.0000000 ]
  distance:    0.0069418
  band:
  - # 1
    frequency:   -1.3841012362
  - # 2
    frequency:   -1.3733272786
  - # 3
    frequency:    0.0237953563
  - # 4
    frequency:    0.1838207126
  - # 5
    frequency:    0.4310758237
  - # 6
    frequency:    3.5847463656
  - # 7
    frequency:    3.5997201334
  - # 8
    frequency:    4.4673850461
  - # 9
    frequency:    4.4914625306
  - # 10
    frequency:    4.9655908010
  - # 11
    frequency:    5.5093861333
  - # 12
    frequency:    5.5212061627
  - # 13
    frequency:    8.3966431029
  - # 14
    frequency:    9.7701687625
  - # 15
    frequency:   11.7205890739
  - # 16
    frequency:   15.4360127604
  - # 17
    frequency:   15.4367568306
  - # 18
    frequency:   33.9567132000

- q-position: [    0.0252525,    0.0000000,    0.0000000 ]
  distance:    0.0086773
  band:
  - # 1
    frequency:   -1.3814940037
  - # 2
    frequency:   -1.3645396738
  - # 3
    frequency:    0.0370747047
  - # 4
    frequency:    0.2306295981
  - # 5
    frequency:    0.5388301013
  - # 6
    frequency:    3.5858609456
  - # 7
    frequency:    3.6091048177
  - # 8
    frequency:    4.4553909697
  - # 9
    frequency:    4.4919136211
  - # 10
    frequency:    4.9741894194
  - # 11
    frequency:    5.5090761610
  - # 12
    frequency:    5.5277054101
  - # 13
    frequency:    8.3946708329
  - # 14
    frequency:    9.7638002422
  - # 15
    frequency:   11.7215249170
  - # 16
    frequency:   15.4359251847
  - # 17
    frequency:   15.4370652814
  - # 18
    frequency:   33.9552325762

- q-position: [    0.0303030,    0.0000000,    0.0000000 ]
  distance:    0.0104127
  band:
  - # 1
    frequency:   -1.3784798567
  - # 2
    frequency:   -1.3538236899
  - # 3
    frequency:    0.0532058514
  - # 4
    frequency:    0.2779829704
  - # 5
    frequency:    0.6464988143
  - # 6
    frequency:    3.5872124977
  - # 7
    frequency:    3.6204176627
  - # 8
    frequency:    4.4416306637
  - # 9
    frequency:    4.4924701757
  - # 10
    frequency:    4.9837307713
  - # 11
    frequency:    5.5087109306
  - # 12
    frequency:    5.5358010974
  - # 13
    frequency:    8.3922445062
  - # 14
    frequency:    9.7560270956
  - # 15
    frequency:   11.7226899297
  - # 16
    frequency:   15.4358219966
  - # 17
    frequency:   15.4374242121
  - # 18
    frequency:   33.9534278338

- q-position: [    0.0353535,    0.0000000,    0.0000000 ]
  distance:    0.0121482
  band:
  - # 1
    frequency:   -1.3751583168
  - # 2
    frequency:   -1.3411583041
  - # 3
    frequency:    0.0721344323
  - # 4
    frequency:    0.3259648773
  - # 5
    frequency:    0.7540056685
  - # 6
    frequency:    3.5887947452
  - # 7
    frequency:    3.6335676163
  - # 8
    frequency:    4.4264719112
  - # 9
    frequency:    4.4931351761
  - # 10
    frequency:    4.9938291491
  - # 11
    frequency:    5.5082985355
  - # 12
    frequency:    5.5455613454
  - # 13
    frequency:    8.3893553157
  - # 14
    frequency:    9.7468560786
  - # 15
    frequency:   11.7240962145
  - # 16
    frequency:   15.4357054805
  - # 17
    frequency:   15.4378228882
  - # 18
    frequency:   33.9513018991

- q-position: [    0.0404040,    0.0000000,    0.0000000 ]
  distance:    0.0138836
  band:
  - # 1
    frequency:   -1.3716429657
  - # 2
    frequency:   -1.3264957098
  - # 3
    frequency:    0.0938006112
  - # 4
    frequency:    0.3746457751
  - # 5
    frequency:    0.8612579789
  - # 6
    frequency:    3.5906004061
  - # 7
    frequency:    3.6484497565
  - # 8
    frequency:    4.4102568319
  - # 9
    frequency:    4.4939120111
  - # 10
    frequency:    5.0041410924
  - # 11
    frequency:    5.5078484655
  - # 12
    frequency:    5.5570471631
  - # 13
    frequency:    8.3859934272
  - # 14
    frequency:    9.7362955188
  - # 15
    frequency:   11.7257575313
  - # 16
    frequency:   15.4355783137
  - # 17
    frequency:   15.4382487180
  - # 18
    frequency:   33.9488582131

- q-position: [    0.0454545,    0.0000000,    0.0000000 ]
  distance:    0.0156191
  band:
  - # 1
    frequency:   -1.3680590385
  - # 2
    frequency:   -1.3097571975
  - # 3
    frequency:    0.1181410229
  - # 4
    frequency:    0.4240805237
  - # 5
    frequency:    0.9681514966
  - # 6
    frequency:    3.5926212589
  - # 7
    frequency:    3.6649462429
  - # 8
    frequency:    4.3932949494
  - # 9
    frequency:    4.4948044136
  - # 10
    frequency:    5.0143800319
  - # 11
    frequency:    5.5073715669
  - # 12
    frequency:    5.5703050363
  - # 13
    frequency:    8.3821482406
  - # 14
    frequency:    9.7243554672
  - # 15
    frequency:   11.7276890516
  - # 16
    frequency:   15.4354435558
  - # 17
    frequency:   15.4386873005
  - # 18
    frequency:   33.9461007231

- q-position: [    0.0505051,    0.0000000,    0.0000000 ]
  distance:    0.0173545
  band:
  - # 1
    frequency:   -1.3645405027
  - # 2
    frequency:   -1.2908307070
  - # 3
    frequency:    0.1450908566
  - # 4
    frequency:    0.4743067624
  - # 5
    frequency:    1.0745751643
  - # 6
    frequency:    3.5948482183
  - # 7
    frequency:    3.6829271330
  - # 8
    frequency:    4.3758627220
  - # 9
    frequency:    4.4958163903
  - # 10
    frequency:    5.0243236241
  - # 11
    frequency:    5.5068799956
  - # 12
    frequency:    5.5853605225
  - # 13
    frequency:    8.3778086717
  - # 14
    frequency:    9.7110478611
  - # 15
    frequency:   11.7299070902
  - # 16
    frequency:   15.4353046354
  - # 17
    frequency:   15.4391224803
  - # 18
    frequency:   33.9430338727

- q-position: [    0.0555556,    0.0000000,    0.0000000 ]
  distance:    0.0190900
  band:
  - # 1
    frequency:   -1.3612266952
  - # 2
    frequency:   -1.2695694339
  - # 3
    frequency:    0.1745860494
  - # 4
    frequency:    0.5253438341
  - # 5
    frequency:    1.1804151466
  - # 6
    frequency:    3.5972714182
  - # 7
    frequency:    3.7022509562
  - # 8
    frequency:    4.3582068828
  - # 9
    frequency:    4.4969521458
  - # 10
    frequency:    5.0338156613
  - # 11
    frequency:    5.5063871625
  - # 12
    frequency:    5.6022136895
  - # 13
    frequency:    8.3729634495
  - # 14
    frequency:    9.6963866902
  - # 15
    frequency:   11.7324288244
  - # 16
    frequency:   15.4351653362
  - # 17
    frequency:   15.4395364096
  - # 18
    frequency:   33.9396625911

- q-position: [    0.0606061,    0.0000000,    0.0000000 ]
  distance:    0.0208254
  band:
  - # 1
    frequency:   -1.3582586620
  - # 2
    frequency:   -1.2457907277
  - # 3
    frequency:    0.2065655744
  - # 4
    frequency:    0.5771924068
  - # 5
    frequency:    1.2855578313
  - # 6
    frequency:    3.5998803033
  - # 7
    frequency:    3.7227649180
  - # 8
    frequency:    4.3405497638
  - # 9
    frequency:    4.4982160025
  - # 10
    frequency:    5.0427639006
  - # 11
    frequency:    5.5059076701
  - # 12
    frequency:    5.6208369738
  - # 13
    frequency:    8.3676014211
  - # 14
    frequency:    9.6803881629
  - # 15
    frequency:   11.7352720058
  - # 16
    frequency:   15.4350297815
  - # 17
    frequency:   15.4399096177
  - # 18
    frequency:   33.9359922807

- q-position: [    0.0656566,    0.0000000,    0.0000000 ]
  distance:    0.0225609
  band:
  - # 1
    frequency:   -1.3557754031
  - # 2
    frequency:   -1.2192745206
  - # 3
    frequency:    0.2409738200
  - # 4
    frequency:    0.6298348905
  - # 5
    frequency:    1.3898917742
  - # 6
    frequency:    3.6026637265
  - # 7
    frequency:    3.7443045797
  - # 8
    frequency:    4.3230955686
  - # 9
    frequency:    4.4996123180
  - # 10
    frequency:    5.0511348179
  - # 11
    frequency:    5.5054572403
  - # 12
    frequency:    5.6411756189
  - # 13
    frequency:    8.3617118582
  - # 14
    frequency:    9.6630708656
  - # 15
    frequency:   11.7384546702
  - # 16
    frequency:   15.4349024172
  - # 17
    frequency:   15.4402210882
  - # 18
    frequency:   33.9320288038

- q-position: [    0.0707071,    0.0000000,    0.0000000 ]
  distance:    0.0242963
  band:
  - # 1
    frequency:   -1.3539102650
  - # 2
    frequency:   -1.1897605490
  - # 3
    frequency:    0.2777630753
  - # 4
    frequency:    0.6832366730
  - # 5
    frequency:    1.4933087239
  - # 6
    frequency:    3.6056100528
  - # 7
    frequency:    3.7666928206
  - # 8
    frequency:    4.3060371568
  - # 9
    frequency:    4.5011454013
  - # 10
    frequency:    5.0589461960
  - # 11
    frequency:    5.5050526333
  - # 12
    frequency:    5.6631504035
  - # 13
    frequency:    8.3552847585
  - # 14
    frequency:    9.6444559116
  - # 15
    frequency:   11.7419948544
  - # 16
    frequency:   15.4347879929
  - # 17
    frequency:   15.4404483428
  - # 18
    frequency:   33.9277784682

- q-position: [    0.0757576,    0.0000000,    0.0000000 ]
  distance:    0.0260318
  band:
  - # 1
    frequency:   -1.3527877276
  - # 2
    frequency:   -1.1569435971
  - # 3
    frequency:    0.3168961429
  - # 4
    frequency:    0.7373481041
  - # 5
    frequency:    1.5957039279
  - # 6
    frequency:    3.6087072676
  - # 7
    frequency:    3.7897378286
  - # 8
    frequency:    4.2895633170
  - # 9
    frequency:    4.5028194300
  - # 10
    frequency:    5.0662584610
  - # 11
    frequency:    5.5047115560
  - # 12
    frequency:    5.6866620176
  - # 13
    frequency:    8.3483111366
  - # 14
    frequency:    9.6245670740
  - # 15
    frequency:   11.7459103236
  - # 16
    frequency:   15.4346915427
  - # 17
    frequency:   15.4405675326
  - # 18
    frequency:   33.9232480120

- q-position: [    0.0808081,    0.0000000,    0.0000000 ]
  distance:    0.0277672
  band:
  - # 1
    frequency:   -1.3525207924
  - # 2
    frequency:   -1.1204658022
  - # 3
    frequency:    0.3583490994
  - # 4
    frequency:    0.7921070785
  - # 5
    frequency:    1.6969759215
  - # 6
    frequency:    3.6119430890
  - # 7
    frequency:    3.8132297971
  - # 8
    frequency:    4.2738667783
  - # 9
    frequency:    4.5046383700
  - # 10
    frequency:    5.0731656430
  - # 11
    frequency:    5.5044525613
  - # 12
    frequency:    5.7115962887
  - # 13
    frequency:    8.3407832986
  - # 14
    frequency:    9.6034308977
  - # 15
    frequency:   11.7502183159
  - # 16
    frequency:   15.4346183640
  - # 17
    frequency:   15.4405535360
  - # 18
    frequency:   33.9184445868

- q-position: [    0.0858586,    0.0000000,    0.0000000 ]
  distance:    0.0295027
  band:
  - # 1
    frequency:   -1.3532091168
  - # 2
    frequency:   -1.0799045906
  - # 3
    frequency:    0.4021142025
  - # 4
    frequency:    0.8474419963
  - # 5
    frequency:    1.7970259643
  - # 6
    frequency:    3.6153050815
  - # 7
    frequency:    3.8369359425
  - # 8
    frequency:    4.2591533802
  - # 9
    frequency:    4.5066058986
  - # 10
    frequency:    5.0797867009
  - # 11
    frequency:    5.5042949363
  - # 12
    frequency:    5.7378294990
  - # 13
    frequency:    8.3326950968
  - # 14
    frequency:    9.5810767878
  - # 15
    frequency:   11.7549353069
  - # 16
    frequency:   15.4345739955
  - # 17
    frequency:   15.4403800640
  - # 18
    frequency:   33.9133757405

- q-position: [    0.0909091,    0.0000000,    0.0000000 ]
  distance:    0.0312381
  band:
  - # 1
    frequency:   -1.3549379444
  - # 2
    frequency:   -1.0347538431
  - # 3
    frequency:    0.4482028735
  - # 4
    frequency:    0.9032748593
  - # 5
    frequency:    1.8957572438
  - # 6
    frequency:    3.6187807720
  - # 7
    frequency:    3.8605934742
  - # 8
    frequency:    4.2456528545
  - # 9
    frequency:    4.5087253350
  - # 10
    frequency:    5.0862577204
  - # 11
    frequency:    5.5042585807
  - # 12
    frequency:    5.7652332143
  - # 13
    frequency:    8.3240421594
  - # 14
    frequency:    9.5575370716
  - # 15
    frequency:   11.7600767999
  - # 16
    frequency:   15.4345641937
  - # 17
    frequency:   15.4400197717
  - # 18
    frequency:   33.9080493988

- q-position: [    0.0959596,    0.0000000,    0.0000000 ]
  distance:    0.0329736
  band:
  - # 1
    frequency:   -1.3577778008
  - # 2
    frequency:   -0.9843939185
  - # 3
    frequency:    0.4966485492
  - # 4
    frequency:    0.9595242639
  - # 5
    frequency:    1.9930739253
  - # 6
    frequency:    3.6223577642
  - # 7
    frequency:    3.8839004431
  - # 8
    frequency:    4.2336313999
  - # 9
    frequency:    4.5109995772
  - # 10
    frequency:    5.0927252509
  - # 11
    frequency:    5.5043638756
  - # 12
    frequency:    5.7936782821
  - # 13
    frequency:    8.3148220934
  - # 14
    frequency:    9.5328470304
  - # 15
    frequency:   11.7656571422
  - # 16
    frequency:   15.4345949093
  - # 17
    frequency:   15.4394443761
  - # 18
    frequency:   33.9024738465

- q-position: [    0.1010101,    0.0000000,    0.0000000 ]
  distance:    0.0347090
  band:
  - # 1
    frequency:   -1.3617848485
  - # 2
    frequency:   -0.9280420627
  - # 3
    frequency:    0.5475089375
  - # 4
    frequency:    1.0161080984
  - # 5
    frequency:    2.0888800860
  - # 6
    frequency:    3.6260238514
  - # 7
    frequency:    3.9065054093
  - # 8
    frequency:    4.2234052117
  - # 9
    frequency:    4.5134310489
  - # 10
    frequency:    5.0993408278
  - # 11
    frequency:    5.5046315413
  - # 12
    frequency:    5.8230378712
  - # 13
    frequency:    8.3050346582
  - # 14
    frequency:    9.5070449015
  - # 15
    frequency:   11.7716893701
  - # 16
    frequency:   15.4346722611
  - # 17
    frequency:   15.4386247804
  - # 18
    frequency:   33.8966577071

- q-position: [    0.1060606,    0.0000000,    0.0000000 ]
  distance:    0.0364445
  band:
  - # 1
    frequency:   -1.3670017481
  - # 2
    frequency:   -0.8646656446
  - # 3
    frequency:    0.6008667758
  - # 4
    frequency:    1.0729458080
  - # 5
    frequency:    2.1830785531
  - # 6
    frequency:    3.6297671263
  - # 7
    frequency:    3.9279994727
  - # 8
    frequency:    4.2153515289
  - # 9
    frequency:    4.5160216563
  - # 10
    frequency:    5.1062565760
  - # 11
    frequency:    5.5050824878
  - # 12
    frequency:    5.8531895857
  - # 13
    frequency:    8.2946819077
  - # 14
    frequency:    9.4801718486
  - # 15
    frequency:   11.7781850833
  - # 16
    frequency:   15.4348025110
  - # 17
    frequency:   15.4375312037
  - # 18
    frequency:   33.8906099227

- q-position: [    0.1111111,    0.0000000,    0.0000000 ]
  distance:    0.0381800
  band:
  - # 1
    frequency:   -1.3734588615
  - # 2
    frequency:   -0.7928187874
  - # 3
    frequency:    0.6568275476
  - # 4
    frequency:    1.1299601628
  - # 5
    frequency:    2.2755696435
  - # 6
    frequency:    3.6335760853
  - # 7
    frequency:    3.9479194861
  - # 8
    frequency:    4.2099084617
  - # 9
    frequency:    4.5187727562
  - # 10
    frequency:    5.1136217113
  - # 11
    frequency:    5.5057376553
  - # 12
    frequency:    5.8840167807
  - # 13
    frequency:    8.2837683017
  - # 14
    frequency:    9.4522719019
  - # 15
    frequency:   11.7851543467
  - # 16
    frequency:   15.4349920364
  - # 17
    frequency:   15.4361333161
  - # 18
    frequency:   33.8843397323

- q-position: [    0.1161616,    0.0000000,    0.0000000 ]
  distance:    0.0399154
  band:
  - # 1
    frequency:   -1.3811756345
  - # 2
    frequency:   -0.7103038859
  - # 3
    frequency:    0.7155118385
  - # 4
    frequency:    1.1870785191
  - # 5
    frequency:    2.3662497975
  - # 6
    frequency:    3.6374397274
  - # 7
    frequency:    3.9657787908
  - # 8
    frequency:    4.2075473283
  - # 9
    frequency:    4.5216851369
  - # 10
    frequency:    5.1215797336
  - # 11
    frequency:    5.5066178491
  - # 12
    frequency:    5.9154092463
  - # 13
    frequency:    8.2723007847
  - # 14
    frequency:    9.4233918672
  - # 15
    frequency:   11.7926056207
  - # 16
    frequency:   15.4344003794
  - # 17
    frequency:   15.4352473030
  - # 18
    frequency:   33.8778566502

- q-position: [    0.1212121,    0.0000000,    0.0000000 ]
  distance:    0.0416509
  band:
  - # 1
    frequency:   -1.3901620271
  - # 2
    frequency:   -0.6133707683
  - # 3
    frequency:    0.7770394946
  - # 4
    frequency:    1.2442336122
  - # 5
    frequency:    2.4550100956
  - # 6
    frequency:    3.6413476442
  - # 7
    frequency:    3.9811445958
  - # 8
    frequency:    4.2086984279
  - # 9
    frequency:    4.5247590109
  - # 10
    frequency:    5.1302661221
  - # 11
    frequency:    5.5077435684
  - # 12
    frequency:    5.9472634253
  - # 13
    frequency:    8.2602888342
  - # 14
    frequency:    9.3935812079
  - # 15
    frequency:   11.8005457162
  - # 16
    frequency:   15.4323013916
  - # 17
    frequency:   15.4355748363
  - # 18
    frequency:   33.8711704439

- q-position: [    0.1262626,    0.0000000,    0.0000000 ]
  distance:    0.0433863
  band:
  - # 1
    frequency:   -1.4004198894
  - # 2
    frequency:   -0.4943813214
  - # 3
    frequency:    0.8415033728
  - # 4
    frequency:    1.3013639480
  - # 5
    frequency:    2.5417346565
  - # 6
    frequency:    3.6452901029
  - # 7
    frequency:    3.9937619908
  - # 8
    frequency:    4.2136302650
  - # 9
    frequency:    4.5279940201
  - # 10
    frequency:    5.1398063851
  - # 11
    frequency:    5.5091348309
  - # 12
    frequency:    5.9794823116
  - # 13
    frequency:    8.2477444778
  - # 14
    frequency:    9.3628918993
  - # 15
    frequency:   11.8089797720
  - # 16
    frequency:   15.4298052363
  - # 17
    frequency:   15.4359811933
  - # 18
    frequency:   33.8642911110

- q-position: [    0.1313131,    0.0000000,    0.0000000 ]
  distance:    0.0451218
  band:
  - # 1
    frequency:   -1.4119442174
  - # 2
    frequency:   -0.3315250854
  - # 3
    frequency:    0.9089335615
  - # 4
    frequency:    1.3584138706
  - # 5
    frequency:    2.6262989316
  - # 6
    frequency:    3.6492581177
  - # 7
    frequency:    4.0036754226
  - # 8
    frequency:    4.2223313689
  - # 9
    frequency:    4.5313892530
  - # 10
    frequency:    5.1503143670
  - # 11
    frequency:    5.5108109969
  - # 12
    frequency:    6.0119751501
  - # 13
    frequency:    8.2346822815
  - # 14
    frequency:    9.3313782604
  - # 15
    frequency:   11.8179112527
  - # 16
    frequency:   15.4268808352
  - # 17
    frequency:   15.4364729327
  - # 18
    frequency:   33.8572288564

- q-position: [    0.1363636,    0.0000000,    0.0000000 ]
  distance:    0.0468572
  band:
  - # 1
    frequency:   -1.4247242537
  - # 2
    frequency:    0.1629568158
  - # 3
    frequency:    0.9792590511
  - # 4
    frequency:    1.4153333898
  - # 5
    frequency:    2.7085679467
  - # 6
    frequency:    3.6532435116
  - # 7
    frequency:    4.0112639164
  - # 8
    frequency:    4.2344783353
  - # 9
    frequency:    4.5349432730
  - # 10
    frequency:    5.1618907637
  - # 11
    frequency:    5.5127905925
  - # 12
    frequency:    6.0446570247
  - # 13
    frequency:    8.2211193098
  - # 14
    frequency:    9.2990967644
  - # 15
    frequency:   11.8273419626
  - # 16
    frequency:   15.4234973041
  - # 17
    frequency:   15.4370565855
  - # 18
    frequency:   33.8499940688

- q-position: [    0.1414141,    0.0000000,    0.0000000 ]
  distance:    0.0485927
  band:
  - # 1
    frequency:   -1.4387444197
  - # 2
    frequency:    0.4055224058
  - # 3
    frequency:    1.0522805461
  - # 4
    frequency:    1.4720778393
  - # 5
    frequency:    2.7883945976
  - # 6
    frequency:    3.6572389668
  - # 7
    frequency:    4.0171548832
  - # 8
    frequency:    4.2495250840
  - # 9
    frequency:    4.5386541556
  - # 10
    frequency:    5.1746218446
  - # 11
    frequency:    5.5150911370
  - # 12
    frequency:    6.0774484017
  - # 13
    frequency:    8.2070750597
  - # 14
    frequency:    9.2661058317
  - # 15
    frequency:   11.8372720731
  - # 16
    frequency:   15.4196241118
  - # 17
    frequency:   15.4377386250
  - # 18
    frequency:   33.8425972971

- q-position: [    0.1464646,    0.0000000,    0.0000000 ]
  distance:    0.0503281
  band:
  - # 1
    frequency:   -1.4539850853
  - # 2
    frequency:    0.5509504228
  - # 3
    frequency:    1.1276692858
  - # 4
    frequency:    1.5286074285
  - # 5
    frequency:    2.8656181958
  - # 6
    frequency:    3.6612380620
  - # 7
    frequency:    4.0220764146
  - # 8
    frequency:    4.2668531616
  - # 9
    frequency:    4.5425195346
  - # 10
    frequency:    5.1885784097
  - # 11
    frequency:    5.5177289754
  - # 12
    frequency:    6.1102746716
  - # 13
    frequency:    8.1925713686
  - # 14
    frequency:    9.2324656095
  - # 15
    frequency:   11.8477001603
  - # 16
    frequency:   15.4152312399
  - # 17
    frequency:   15.4385254360
  - # 18
    frequency:   33.8350492269

- q-position: [    0.1515152,    0.0000000,    0.0000000 ]
  distance:    0.0520636
  band:
  - # 1
    frequency:   -1.4704231921
  - # 2
    frequency:    0.6663060681
  - # 3
    frequency:    1.2049975199
  - # 4
    frequency:    1.5848867382
  - # 5
    frequency:    2.9400635927
  - # 6
    frequency:    3.6652352991
  - # 7
    frequency:    4.0267348224
  - # 8
    frequency:    4.2858959251
  - # 9
    frequency:    4.5465366539
  - # 10
    frequency:    5.2038150350
  - # 11
    frequency:    5.5207191195
  - # 12
    frequency:    6.1430657176
  - # 13
    frequency:    8.1776322997
  - # 14
    frequency:    9.1982377397
  - # 15
    frequency:   11.8586232486
  - # 16
    frequency:   15.4102893459
  - # 17
    frequency:   15.4394232847
  - # 18
    frequency:   33.8273606564

- q-position: [    0.1565657,    0.0000000,    0.0000000 ]
  distance:    0.0537990
  band:
  - # 1
    frequency:   -1.4880327482
  - # 2
    frequency:    0.7655798625
  - # 3
    frequency:    1.2837908384
  - # 4
    frequency:    1.6408841967
  - # 5
    frequency:    3.0115413893
  - # 6
    frequency:    3.6692261157
  - # 7
    frequency:    4.0317531898
  - # 8
    frequency:    4.3062002623
  - # 9
    frequency:    4.5507024231
  - # 10
    frequency:    5.2203696610
  - # 11
    frequency:    5.5240750998
  - # 12
    frequency:    6.1757555281
  - # 13
    frequency:    8.1622840039
  - # 14
    frequency:    9.1634851205
  - # 15
    frequency:   11.8700368590
  - # 16
    frequency:   15.4047699256
  - # 17
    frequency:   15.4404382879
  - # 18
    frequency:   33.8195424731

- q-position: [    0.1616162,    0.0000000,    0.0000000 ]
  distance:    0.0555345
  band:
  - # 1
    frequency:   -1.5067852200
  - # 2
    frequency:    0.8547531783
  - # 3
    frequency:    1.3635828090
  - # 4
    frequency:    1.6965715626
  - # 5
    frequency:    3.0798499602
  - # 6
    frequency:    3.6732068872
  - # 7
    frequency:    4.0376573602
  - # 8
    frequency:    4.3274386369
  - # 9
    frequency:    4.5550134754
  - # 10
    frequency:    5.2382635721
  - # 11
    frequency:    5.5278088318
  - # 12
    frequency:    6.2082818621
  - # 13
    frequency:    8.1465545609
  - # 14
    frequency:    9.1282716642
  - # 15
    frequency:   11.8819350589
  - # 16
    frequency:   15.3986454771
  - # 17
    frequency:   15.4415763824
  - # 18
    frequency:   33.8116056300

- q-position: [    0.1666667,    0.0000000,    0.0000000 ]
  distance:    0.0572699
  band:
  - # 1
    frequency:   -1.5266498396
  - # 2
    frequency:    0.9370868863
  - # 3
    frequency:    1.4439552716
  - # 4
    frequency:    1.7519234317
  - # 5
    frequency:    3.1447802337
  - # 6
    frequency:    3.6771749153
  - # 7
    frequency:    4.0448832592
  - # 8
    frequency:    4.3493965935
  - # 9
    frequency:    4.5594662242
  - # 10
    frequency:    5.2575017907
  - # 11
    frequency:    5.5319304982
  - # 12
    frequency:    6.2405859706
  - # 13
    frequency:    8.1304737986
  - # 14
    frequency:    9.0926620543
  - # 15
    frequency:   11.8943105099
  - # 16
    frequency:   15.3918896632
  - # 17
    frequency:   15.4428432937
  - # 18
    frequency:   33.8035611220

- q-position: [    0.1717172,    0.0000000,    0.0000000 ]
  distance:    0.0590054
  band:
  - # 1
    frequency:   -1.5475938483
  - # 2
    frequency:    1.0145878615
  - # 3
    frequency:    1.5245583045
  - # 4
    frequency:    1.8069167796
  - # 5
    frequency:    3.2061242877
  - # 6
    frequency:    3.6811284056
  - # 7
    frequency:    4.0537871536
  - # 8
    frequency:    4.3719530667
  - # 9
    frequency:    4.5640569178
  - # 10
    frequency:    5.2780738814
  - # 11
    frequency:    5.5364484487
  - # 12
    frequency:    6.2726123746
  - # 13
    frequency:    8.1140730926
  - # 14
    frequency:    9.0567215061
  - # 15
    frequency:   11.9071545143
  - # 16
    frequency:   15.3844774742
  - # 17
    frequency:   15.4442445063
  - # 18
    frequency:   33.7954199628

- q-position: [    0.1767677,    0.0000000,    0.0000000 ]
  distance:    0.0607408
  band:
  - # 1
    frequency:   -1.5695826922
  - # 2
    frequency:    1.0885742145
  - # 3
    frequency:    1.6051131152
  - # 4
    frequency:    1.8615305442
  - # 5
    frequency:    3.2636886481
  - # 6
    frequency:    3.6850664345
  - # 7
    frequency:    4.0646501510
  - # 8
    frequency:    4.3950613458
  - # 9
    frequency:    4.5687816891
  - # 10
    frequency:    5.2999551247
  - # 11
    frequency:    5.5413691210
  - # 12
    frequency:    6.3043086971
  - # 13
    frequency:    8.0973851449
  - # 14