nqpoint: 300    
npath: 3      
segment_nqpoint:
- 100
- 100
- 100
labels:
- [ 'G', 'M' ]
- [ 'M', 'K' ]
- [ 'K', 'G' ]
reciprocal_lattice:
- [   0.30142001,   0.17402492,   0.00000000 ] # a*
- [   0.00000000,   0.34804985,   0.00000000 ] # b*
- [   0.00000000,   0.00000000,   0.03508890 ] # c*
natom: 7      
lattice:
- [     3.317629789282305,     0.000000000000000,     0.000000000000000 ] # a
- [    -1.658814894641153,     2.873151677868434,     0.000000000000000 ] # b
- [     0.000000000000000,     0.000000000000000,    28.499042988670396 ] # c
points:
- symbol: C # 1
  coordinates: [  0.000000000000000,  0.000000000000000,  0.481562544419976 ]
  mass: 12.010700
- symbol: Cl # 2
  coordinates: [  0.333332985432215,  0.666666983183674,  0.684199921956050 ]
  mass: 35.453000
- symbol: O # 3
  coordinates: [  0.333332985432215,  0.666666983183674,  0.564184075784154 ]
  mass: 15.999400
- symbol: O # 4
  coordinates: [  0.666666984744047,  0.333332985985145,  0.315800078043950 ]
  mass: 15.999400
- symbol: P # 5
  coordinates: [  0.666666984744047,  0.333332985985145,  0.368151512921874 ]
  mass: 30.973762
- symbol: Zr # 6
  coordinates: [  0.333332985432215,  0.666666983183674,  0.437981675533379 ]
  mass: 91.224000
- symbol: Zr # 7
  coordinates: [  0.666666984744047,  0.333332985985145,  0.533037532257959 ]
  mass: 91.224000

phonon:
- q-position: [    0.0000000,    0.0000000,    0.0000000 ]
  distance:    0.0000000
  band:
  - # 1
    frequency:  -10.7336461842
  - # 2
    frequency:  -10.7336461842
  - # 3
    frequency:   -2.5543615036
  - # 4
    frequency:   -2.5543615036
  - # 5
    frequency:   -0.5669242108
  - # 6
    frequency:   -0.5669242108
  - # 7
    frequency:   -0.0000008843
  - # 8
    frequency:   -0.0000005497
  - # 9
    frequency:    0.0000008455
  - # 10
    frequency:    1.0259586242
  - # 11
    frequency:    3.4185906171
  - # 12
    frequency:    3.4185906171
  - # 13
    frequency:    4.2876149528
  - # 14
    frequency:    4.2876149528
  - # 15
    frequency:    5.6347809055
  - # 16
    frequency:    8.6450194739
  - # 17
    frequency:   13.6102437781
  - # 18
    frequency:   14.6206794774
  - # 19
    frequency:   14.6206794774
  - # 20
    frequency:   17.9997715616
  - # 21
    frequency:   34.2963916115

- q-position: [    0.0050505,    0.0000000,    0.0000000 ]
  distance:    0.0017578
  band:
  - # 1
    frequency:  -10.7254641781
  - # 2
    frequency:  -10.7210186138
  - # 3
    frequency:   -2.5558586799
  - # 4
    frequency:   -2.5493036437
  - # 5
    frequency:   -0.5825903692
  - # 6
    frequency:   -0.5728990692
  - # 7
    frequency:   -0.0411634136
  - # 8
    frequency:    0.0735767229
  - # 9
    frequency:    0.1198543492
  - # 10
    frequency:    1.0266495447
  - # 11
    frequency:    3.4191987496
  - # 12
    frequency:    3.4198954629
  - # 13
    frequency:    4.2879814558
  - # 14
    frequency:    4.2881477775
  - # 15
    frequency:    5.6350638117
  - # 16
    frequency:    8.6448034524
  - # 17
    frequency:   13.6085369618
  - # 18
    frequency:   14.6205056051
  - # 19
    frequency:   14.6209879898
  - # 20
    frequency:   17.9996255913
  - # 21
    frequency:   34.2961774273

- q-position: [    0.0101010,    0.0000000,    0.0000000 ]
  distance:    0.0035157
  band:
  - # 1
    frequency:  -10.7009402114
  - # 2
    frequency:  -10.6831152114
  - # 3
    frequency:   -2.5603965125
  - # 4
    frequency:   -2.5340924505
  - # 5
    frequency:   -0.6293260087
  - # 6
    frequency:   -0.5910314731
  - # 7
    frequency:   -0.0448321852
  - # 8
    frequency:    0.1497036329
  - # 9
    frequency:    0.2361835405
  - # 10
    frequency:    1.0287569201
  - # 11
    frequency:    3.4210239280
  - # 12
    frequency:    3.4238115858
  - # 13
    frequency:    4.2890830941
  - # 14
    frequency:    4.2897461317
  - # 15
    frequency:    5.6359143035
  - # 16
    frequency:    8.6441510449
  - # 17
    frequency:   13.6034483376
  - # 18
    frequency:   14.6199866701
  - # 19
    frequency:   14.6219022742
  - # 20
    frequency:   17.9991866602
  - # 21
    frequency:   34.2955353190

- q-position: [    0.0151515,    0.0000000,    0.0000000 ]
  distance:    0.0052735
  band:
  - # 1
    frequency:  -10.6601409406
  - # 2
    frequency:  -10.6198732525
  - # 3
    frequency:   -2.5681024597
  - # 4
    frequency:   -2.5086119048
  - # 5
    frequency:   -0.7034037271
  - # 6
    frequency:   -0.6213691768
  - # 7
    frequency:   -0.0459754606
  - # 8
    frequency:    0.2294109603
  - # 9
    frequency:    0.3608669512
  - # 10
    frequency:    1.0323985942
  - # 11
    frequency:    3.4240686084
  - # 12
    frequency:    3.4303431029
  - # 13
    frequency:    4.2909260763
  - # 14
    frequency:    4.2924096849
  - # 15
    frequency:    5.6373377521
  - # 16
    frequency:    8.6430493517
  - # 17
    frequency:   13.5950721868
  - # 18
    frequency:   14.6191307278
  - # 19
    frequency:   14.6233896660
  - # 20
    frequency:   17.9984517639
  - # 21
    frequency:   34.2944666179

- q-position: [    0.0202020,    0.0000000,    0.0000000 ]
  distance:    0.0070313
  band:
  - # 1
    frequency:  -10.6031791602
  - # 2
    frequency:  -10.5311860235
  - # 3
    frequency:   -2.5791522877
  - # 4
    frequency:   -2.4726577174
  - # 5
    frequency:   -0.7975962318
  - # 6
    frequency:   -0.6629919330
  - # 7
    frequency:   -0.0405108549
  - # 8
    frequency:    0.3122688689
  - # 9
    frequency:    0.4897651994
  - # 10
    frequency:    1.0378295027
  - # 11
    frequency:    3.4283372719
  - # 12
    frequency:    3.4394948572
  - # 13
    frequency:    4.2935201788
  - # 14
    frequency:    4.2961379909
  - # 15
    frequency:    5.6393432800
  - # 16
    frequency:    8.6414773036
  - # 17
    frequency:   13.5835618368
  - # 18
    frequency:   14.6179512373
  - # 19
    frequency:   14.6253991941
  - # 20
    frequency:   17.9974160803
  - # 21
    frequency:   34.2929735380

- q-position: [    0.0252525,    0.0000000,    0.0000000 ]
  distance:    0.0087891
  band:
  - # 1
    frequency:  -10.5302164483
  - # 2
    frequency:  -10.4168995656
  - # 3
    frequency:   -2.5937203679
  - # 4
    frequency:   -2.4259197744
  - # 5
    frequency:   -0.9050578416
  - # 6
    frequency:   -0.7140668903
  - # 7
    frequency:    0.0077776761
  - # 8
    frequency:    0.3973923622
  - # 9
    frequency:    0.6205126999
  - # 10
    frequency:    1.0455988810
  - # 11
    frequency:    3.4338370404
  - # 12
    frequency:    3.4512697646
  - # 13
    frequency:    4.2968779793
  - # 14
    frequency:    4.3009306603
  - # 15
    frequency:    5.6419440152
  - # 16
    frequency:    8.6394062890
  - # 17
    frequency:   13.5691245071
  - # 18
    frequency:   14.6164671120
  - # 19
    frequency:   14.6278662294
  - # 20
    frequency:   17.9960732391
  - # 21
    frequency:   34.2910591673

- q-position: [    0.0303030,    0.0000000,    0.0000000 ]
  distance:    0.0105470
  band:
  - # 1
    frequency:  -10.4414670664
  - # 2
    frequency:  -10.2768081412
  - # 3
    frequency:   -2.6119204174
  - # 4
    frequency:   -2.3679551760
  - # 5
    frequency:   -1.0209110490
  - # 6
    frequency:   -0.7724563098
  - # 7
    frequency:    0.0614320552
  - # 8
    frequency:    0.4841373181
  - # 9
    frequency:    0.7511307937
  - # 10
    frequency:    1.0570862961
  - # 11
    frequency:    3.4405786174
  - # 12
    frequency:    3.4656657813
  - # 13
    frequency:    4.3010139548
  - # 14
    frequency:    4.3067876361
  - # 15
    frequency:    5.6451574428
  - # 16
    frequency:    8.6368009975
  - # 17
    frequency:   13.5520150579
  - # 18
    frequency:   14.6147027913
  - # 19
    frequency:   14.6307180241
  - # 20
    frequency:   17.9944156869
  - # 21
    frequency:   34.2887274571

- q-position: [    0.0353535,    0.0000000,    0.0000000 ]
  distance:    0.0123048
  band:
  - # 1
    frequency:  -10.3372033210
  - # 2
    frequency:  -10.1106485170
  - # 3
    frequency:   -2.6337457825
  - # 4
    frequency:   -2.2981495477
  - # 5
    frequency:   -1.1419628567
  - # 6
    frequency:   -0.8361830962
  - # 7
    frequency:    0.1016295771
  - # 8
    frequency:    0.5722661553
  - # 9
    frequency:    0.8769199234
  - # 10
    frequency:    1.0768121564
  - # 11
    frequency:    3.4485776487
  - # 12
    frequency:    3.4826730309
  - # 13
    frequency:    4.3059435883
  - # 14
    frequency:    4.3137096160
  - # 15
    frequency:    5.6490058529
  - # 16
    frequency:    8.6336204502
  - # 17
    frequency:   13.5325293161
  - # 18
    frequency:   14.6126883344
  - # 19
    frequency:   14.6338794625
  - # 20
    frequency:   17.9924351317
  - # 21
    frequency:   34.2859832080

- q-position: [    0.0404040,    0.0000000,    0.0000000 ]
  distance:    0.0140626
  band:
  - # 1
    frequency:  -10.2177626715
  - # 2
    frequency:   -9.9180932963
  - # 3
    frequency:   -2.6590182939
  - # 4
    frequency:   -2.2156645187
  - # 5
    frequency:   -1.2661245627
  - # 6
    frequency:   -0.9035812823
  - # 7
    frequency:    0.1433011980
  - # 8
    frequency:    0.6619008913
  - # 9
    frequency:    0.9799884797
  - # 10
    frequency:    1.1225515366
  - # 11
    frequency:    3.4578566692
  - # 12
    frequency:    3.5022716132
  - # 13
    frequency:    4.3116826473
  - # 14
    frequency:    4.3216986911
  - # 15
    frequency:    5.6535168844
  - # 16
    frequency:    8.6298191784
  - # 17
    frequency:   13.5109975517
  - # 18
    frequency:   14.6104595373
  - # 19
    frequency:   14.6372784418
  - # 20
    frequency:   17.9901230543
  - # 21
    frequency:   34.2828320523

- q-position: [    0.0454545,    0.0000000,    0.0000000 ]
  distance:    0.0158204
  band:
  - # 1
    frequency:  -10.0835569532
  - # 2
    frequency:   -9.6987438344
  - # 3
    frequency:   -2.6873523675
  - # 4
    frequency:   -2.1193731988
  - # 5
    frequency:   -1.3919865184
  - # 6
    frequency:   -0.9732445707
  - # 7
    frequency:    0.1874335682
  - # 8
    frequency:    0.7534800555
  - # 9
    frequency:    1.0335464224
  - # 10
    frequency:    1.2209260129
  - # 11
    frequency:    3.4684479026
  - # 12
    frequency:    3.5244305249
  - # 13
    frequency:    4.3182468012
  - # 14
    frequency:    4.3307593168
  - # 15
    frequency:    5.6587241686
  - # 16
    frequency:    8.6253485129
  - # 17
    frequency:   13.4877784948
  - # 18
    frequency:   14.6080580746
  - # 19
    frequency:   14.6408504771
  - # 20
    frequency:   17.9874712671
  - # 21
    frequency:   34.2792804347

- q-position: [    0.0505051,    0.0000000,    0.0000000 ]
  distance:    0.0175783
  band:
  - # 1
    frequency:   -9.9350841849
  - # 2
    frequency:   -9.4521238469
  - # 3
    frequency:   -2.7181369242
  - # 4
    frequency:   -2.0078052889
  - # 5
    frequency:   -1.5185564591
  - # 6
    frequency:   -1.0438505492
  - # 7
    frequency:    0.2339647447
  - # 8
    frequency:    0.8477882686
  - # 9
    frequency:    1.0592990508
  - # 10
    frequency:    1.3499934410
  - # 11
    frequency:    3.4803973792
  - # 12
    frequency:    3.5491079836
  - # 13
    frequency:    4.3256517492
  - # 14
    frequency:    4.3408998032
  - # 15
    frequency:    5.6646680797
  - # 16
    frequency:    8.6201579426
  - # 17
    frequency:   13.4632540799
  - # 18
    frequency:   14.6055316675
  - # 19
    frequency:   14.6445423191
  - # 20
    frequency:   17.9844725034
  - # 21
    frequency:   34.2753355888

- q-position: [    0.0555556,    0.0000000,    0.0000000 ]
  distance:    0.0193361
  band:
  - # 1
    frequency:   -9.7729435326
  - # 2
    frequency:   -9.1776759336
  - # 3
    frequency:   -2.7505332536
  - # 4
    frequency:   -1.8792172624
  - # 5
    frequency:   -1.6451042279
  - # 6
    frequency:   -1.1137654679
  - # 7
    frequency:    0.2825614385
  - # 8
    frequency:    0.9460835844
  - # 9
    frequency:    1.0781524996
  - # 10
    frequency:    1.4885606822
  - # 11
    frequency:    3.4937711798
  - # 12
    frequency:    3.5762532789
  - # 13
    frequency:    4.3339140413
  - # 14
    frequency:    4.3521346463
  - # 15
    frequency:    5.6713966077
  - # 16
    frequency:    8.6141965032
  - # 17
    frequency:   13.4378249221
  - # 18
    frequency:   14.6029342802
  - # 19
    frequency:   14.6483145453
  - # 20
    frequency:   17.9811210193
  - # 21
    frequency:   34.2710055121

- q-position: [    0.0606061,    0.0000000,    0.0000000 ]
  distance:    0.0210939
  band:
  - # 1
    frequency:   -9.5978540946
  - # 2
    frequency:   -8.8747653662
  - # 3
    frequency:   -2.7834836152
  - # 4
    frequency:   -1.7710689156
  - # 5
    frequency:   -1.7324248825
  - # 6
    frequency:   -1.1797463029
  - # 7
    frequency:    0.3328123038
  - # 8
    frequency:    1.0503619329
  - # 9
    frequency:    1.0955469621
  - # 10
    frequency:    1.6308768578
  - # 11
    frequency:    3.5086652786
  - # 12
    frequency:    3.6058101174
  - # 13
    frequency:    4.3430528098
  - # 14
    frequency:    4.3644882533
  - # 15
    frequency:    5.6789663753
  - # 16
    frequency:    8.6074141610
  - # 17
    frequency:   13.4119063975
  - # 18
    frequency:   14.6003263459
  - # 19
    frequency:   14.6521432061
  - # 20
    frequency:   17.9774131900
  - # 21
    frequency:   34.2662989380

- q-position: [    0.0656566,    0.0000000,    0.0000000 ]
  distance:    0.0228518
  band:
  - # 1
    frequency:   -9.4106782383
  - # 2
    frequency:   -8.5426995374
  - # 3
    frequency:   -2.8157240267
  - # 4
    frequency:   -1.8960018382
  - # 5
    frequency:   -1.5730535409
  - # 6
    frequency:   -1.2299536376
  - # 7
    frequency:    0.3842976844
  - # 8
    frequency:    1.1130148697
  - # 9
    frequency:    1.1638321500
  - # 10
    frequency:    1.7750987583
  - # 11
    frequency:    3.5252217786
  - # 12
    frequency:    3.6377212847
  - # 13
    frequency:    4.3530926926
  - # 14
    frequency:    4.3780010639
  - # 15
    frequency:    5.6874438324
  - # 16
    frequency:    8.5997631570
  - # 17
    frequency:   13.3859251085
  - # 18
    frequency:   14.5977750256
  - # 19
    frequency:   14.6560206816
  - # 20
    frequency:   17.9733480837
  - # 21
    frequency:   34.2612253055

- q-position: [    0.0707071,    0.0000000,    0.0000000 ]
  distance:    0.0246096
  band:
  - # 1
    frequency:   -9.2124501762
  - # 2
    frequency:   -8.1807791761
  - # 3
    frequency:   -2.8457953370
  - # 4
    frequency:   -2.0195299917
  - # 5
    frequency:   -1.4589267438
  - # 6
    frequency:   -1.1971599757
  - # 7
    frequency:    0.4366187564
  - # 8
    frequency:    1.1311045304
  - # 9
    frequency:    1.2916808006
  - # 10
    frequency:    1.9203835905
  - # 11
    frequency:    3.5436571072
  - # 12
    frequency:    3.6719343225
  - # 13
    frequency:    4.3640683595
  - # 14
    frequency:    4.3927399607
  - # 15
    frequency:    5.6969066745
  - # 16
    frequency:    8.5911992845
  - # 17
    frequency:   13.3603154746
  - # 18
    frequency:   14.5953544998
  - # 19
    frequency:   14.6599559324
  - # 20
    frequency:   17.9689280006
  - # 21
    frequency:   34.2557947265

- q-position: [    0.0757576,    0.0000000,    0.0000000 ]
  distance:    0.0263674
  band:
  - # 1
    frequency:   -9.0044102362
  - # 2
    frequency:   -7.7884119637
  - # 3
    frequency:   -2.8720489078
  - # 4
    frequency:   -2.1413306999
  - # 5
    frequency:   -1.4712143087
  - # 6
    frequency:   -0.9836650017
  - # 7
    frequency:    0.4894092617
  - # 8
    frequency:    1.1500484854
  - # 9
    frequency:    1.4419872812
  - # 10
    frequency:    2.0662286602
  - # 11
    frequency:    3.5643139620
  - # 12
    frequency:    3.7084077764
  - # 13
    frequency:    4.3760312653
  - # 14
    frequency:    4.4088167477
  - # 15
    frequency:    5.7074455467
  - # 16
    frequency:    8.5816830764
  - # 17
    frequency:   13.3355161738
  - # 18
    frequency:   14.5931462951
  - # 19
    frequency:   14.6639743256
  - # 20
    frequency:   17.9641589620
  - # 21
    frequency:   34.2500179515

- q-position: [    0.0808081,    0.0000000,    0.0000000 ]
  distance:    0.0281252
  band:
  - # 1
    frequency:   -8.7880446551
  - # 2
    frequency:   -7.3653458182
  - # 3
    frequency:   -2.8926469329
  - # 4
    frequency:   -2.2611105755
  - # 5
    frequency:   -1.5281753002
  - # 6
    frequency:   -0.6261066309
  - # 7
    frequency:    0.5423387365
  - # 8
    frequency:    1.1699614501
  - # 9
    frequency:    1.6256917135
  - # 10
    frequency:    2.2122732003
  - # 11
    frequency:    3.5877638382
  - # 12
    frequency:    3.7471173529
  - # 13
    frequency:    4.3890596098
  - # 14
    frequency:    4.4264227705
  - # 15
    frequency:    5.7191661214
  - # 16
    frequency:    8.5711808821
  - # 17
    frequency:   13.3119661662
  - # 18
    frequency:   14.5912396448
  - # 19
    frequency:   14.6681171988
  - # 20
    frequency:   17.9590511390
  - # 21
    frequency:   34.2439063332

- q-position: [    0.0858586,    0.0000000,    0.0000000 ]
  distance:    0.0298831
  band:
  - # 1
    frequency:   -8.5651294191
  - # 2
    frequency:   -6.9121243850
  - # 3
    frequency:   -2.9055642171
  - # 4
    frequency:   -2.3785800205
  - # 5
    frequency:   -1.5939252606
  - # 6
    frequency:    0.3954296251
  - # 7
    frequency:    0.5951117215
  - # 8
    frequency:    1.1909138305
  - # 9
    frequency:    1.8531657916
  - # 10
    frequency:    2.3582164808
  - # 11
    frequency:    3.6150267487
  - # 12
    frequency:    3.7880609066
  - # 13
    frequency:    4.4032730630
  - # 14
    frequency:    4.4458983707
  - # 15
    frequency:    5.7321916618
  - # 16
    frequency:    8.5596658208
  - # 17
    frequency:   13.2901000523
  - # 18
    frequency:   14.5897318831
  - # 19
    frequency:   14.6724412929
  - # 20
    frequency:   17.9536192136
  - # 21
    frequency:   34.2374717884

- q-position: [    0.0909091,    0.0000000,    0.0000000 ]
  distance:    0.0316409
  band:
  - # 1
    frequency:   -8.3377742912
  - # 2
    frequency:   -6.4309297100
  - # 3
    frequency:   -2.9086169725
  - # 4
    frequency:   -2.4934003018
  - # 5
    frequency:   -1.6617331939
  - # 6
    frequency:    0.6474657683
  - # 7
    frequency:    0.7969559481
  - # 8
    frequency:    1.2129651057
  - # 9
    frequency:    2.1280524614
  - # 10
    frequency:    2.5037675009
  - # 11
    frequency:    3.6480914908
  - # 12
    frequency:    3.8312603474
  - # 13
    frequency:    4.4188547356
  - # 14
    frequency:    4.4678850261
  - # 15
    frequency:    5.7466662287
  - # 16
    frequency:    8.5471185962
  - # 17
    frequency:   13.2703425465
  - # 18
    frequency:   14.5887288653
  - # 19
    frequency:   14.6770181560
  - # 20
    frequency:   17.9478826632
  - # 21
    frequency:   34.2307267582

- q-position: [    0.0959596,    0.0000000,    0.0000000 ]
  distance:    0.0333987
  band:
  - # 1
    frequency:   -8.1084592360
  - # 2
    frequency:   -5.9270069920
  - # 3
    frequency:   -2.8996294991
  - # 4
    frequency:   -2.6049998401
  - # 5
    frequency:   -1.7296365698
  - # 6
    frequency:    0.6991703690
  - # 7
    frequency:    1.0214153461
  - # 8
    frequency:    1.2361827034
  - # 9
    frequency:    2.4455255347
  - # 10
    frequency:    2.6485995658
  - # 11
    frequency:    3.6913018821
  - # 12
    frequency:    3.8767569300
  - # 13
    frequency:    4.4360843179
  - # 14
    frequency:    4.4936990517
  - # 15
    frequency:    5.7627587328
  - # 16
    frequency:    8.5335281671
  - # 17
    frequency:   13.2531018899
  - # 18
    frequency:   14.5883454086
  - # 19
    frequency:   14.6819335867
  - # 20
    frequency:   17.9418659644
  - # 21
    frequency:   34.2236841677

- q-position: [    0.1010101,    0.0000000,    0.0000000 ]
  distance:    0.0351566
  band:
  - # 1
    frequency:   -7.8800497940
  - # 2
    frequency:   -5.4106562296
  - # 3
    frequency:   -2.8775715410
  - # 4
    frequency:   -2.7114400997
  - # 5
    frequency:   -1.7968144931
  - # 6
    frequency:    0.7500287685
  - # 7
    frequency:    1.1830306543
  - # 8
    frequency:    1.2606559232
  - # 9
    frequency:    2.7922990448
  - # 10
    frequency:    2.7924416209
  - # 11
    frequency:    3.7554913262
  - # 12
    frequency:    3.9245933854
  - # 13
    frequency:    4.4553883816
  - # 14
    frequency:    4.5263996839
  - # 15
    frequency:    5.7806681007
  - # 16
    frequency:    8.5188922637
  - # 17
    frequency:   13.2387620808
  - # 18
    frequency:   14.5887057348
  - # 19
    frequency:   14.6872871557
  - # 20
    frequency:   17.9355987112
  - # 21
    frequency:   34.2163573838

- q-position: [    0.1060606,    0.0000000,    0.0000000 ]
  distance:    0.0369144
  band:
  - # 1
    frequency:   -7.6557712829
  - # 2
    frequency:   -4.8988716658
  - # 3
    frequency:   -2.8619942472
  - # 4
    frequency:   -2.7900221043
  - # 5
    frequency:   -1.8628277058
  - # 6
    frequency:    0.7998848857
  - # 7
    frequency:    1.2865095173
  - # 8
    frequency:    1.3129086538
  - # 9
    frequency:    2.9343042189
  - # 10
    frequency:    3.1328396047
  - # 11
    frequency:    3.8694358281
  - # 12
    frequency:    3.9747713955
  - # 13
    frequency:    4.4774162223
  - # 14
    frequency:    4.5745066664
  - # 15
    frequency:    5.8006298892
  - # 16
    frequency:    8.5032177469
  - # 17
    frequency:   13.2276738804
  - # 18
    frequency:   14.5899438936
  - # 19
    frequency:   14.6931918158
  - # 20
    frequency:   17.9291156446
  - # 21
    frequency:   34.2087601725

- q-position: [    0.1111111,    0.0000000,    0.0000000 ]
  distance:    0.0386722
  band:
  - # 1
    frequency:   -7.4391167824
  - # 2
    frequency:   -4.4141100666
  - # 3
    frequency:   -2.9383689134
  - # 4
    frequency:   -2.7520515385
  - # 5
    frequency:   -1.9273959219
  - # 6
    frequency:    0.8486382936
  - # 7
    frequency:    1.3139202638
  - # 8
    frequency:    1.4248584276
  - # 9
    frequency:    3.0738369224
  - # 10
    frequency:    3.3895723113
  - # 11
    frequency:    4.0271666868
  - # 12
    frequency:    4.0771376772
  - # 13
    frequency:    4.5031500496
  - # 14
    frequency:    4.6675979092
  - # 15
    frequency:    5.8229247427
  - # 16
    frequency:    8.4865208056
  - # 17
    frequency:   13.2201446536
  - # 18
    frequency:   14.5922041302
  - # 19
    frequency:   14.6997735761
  - # 20
    frequency:   17.9224565917
  - # 21
    frequency:   34.2009066556

- q-position: [    0.1161616,    0.0000000,    0.0000000 ]
  distance:    0.0404300
  band:
  - # 1
    frequency:   -7.2336664237
  - # 2
    frequency:   -3.9780026100
  - # 3
    frequency:   -3.0357321914
  - # 4
    frequency:   -2.6653761043
  - # 5
    frequency:   -1.9903153164
  - # 6
    frequency:    0.8962714567
  - # 7
    frequency:    1.3431404450
  - # 8
    frequency:    1.5259422288
  - # 9
    frequency:    3.2098413562
  - # 10
    frequency:    3.5299411124
  - # 11
    frequency:    4.0813829323
  - # 12
    frequency:    4.3057104832
  - # 13
    frequency:    4.5340485412
  - # 14
    frequency:    4.8978554572
  - # 15
    frequency:    5.8478890961
  - # 16
    frequency:    8.4688269944
  - # 17
    frequency:   13.2164272442
  - # 18
    frequency:   14.5956411433
  - # 19
    frequency:   14.7071711859
  - # 20
    frequency:   17.9156663100
  - # 21
    frequency:   34.1928112669

- q-position: [    0.1212121,    0.0000000,    0.0000000 ]
  distance:    0.0421879
  band:
  - # 1
    frequency:   -7.0428130013
  - # 2
    frequency:   -3.6033219625
  - # 3
    frequency:   -3.1322032664
  - # 4
    frequency:   -2.5491281827
  - # 5
    frequency:   -2.0514209478
  - # 6
    frequency:    0.9428952123
  - # 7
    frequency:    1.3745345442
  - # 8
    frequency:    1.6200863757
  - # 9
    frequency:    3.3409625583
  - # 10
    frequency:    3.6073282076
  - # 11
    frequency:    4.1365519153
  - # 12
    frequency:    4.4276440713
  - # 13
    frequency:    4.5721808601
  - # 14
    frequency:    5.3182651966
  - # 15
    frequency:    5.8759283868
  - # 16
    frequency:    8.4501711123
  - # 17
    frequency:   13.2167082482
  - # 18
    frequency:   14.6004201636
  - # 19
    frequency:   14.7155357298
  - # 20
    frequency:   17.9087942366
  - # 21
    frequency:   34.1844887079

- q-position: [    0.1262626,    0.0000000,    0.0000000 ]
  distance:    0.0439457
  band:
  - # 1
    frequency:   -6.8694245276
  - # 2
    frequency:   -3.2914360099
  - # 3
    frequency:   -3.2259227206
  - # 4
    frequency:   -2.4030895026
  - # 5
    frequency:   -2.1105638892
  - # 6
    frequency:    0.9888204231
  - # 7
    frequency:    1.4086406757
  - # 8
    frequency:    1.7096153036
  - # 9
    frequency:    3.4656139907
  - # 10
    frequency:    3.6599392683
  - # 11
    frequency:    4.1911822702
  - # 12
    frequency:    4.4875200244
  - # 13
    frequency:    4.6202020500
  - # 14
    frequency:    5.8248449731
  - # 15
    frequency:    5.9075325554
  - # 16
    frequency:    8.4305969341
  - # 17
    frequency:   13.2210962489
  - # 18
    frequency:   14.6067167492
  - # 19
    frequency:   14.7250299918
  - # 20
    frequency:   17.9018941380
  - # 21
    frequency:   34.1759539043

- q-position: [    0.1313131,    0.0000000,    0.0000000 ]
  distance:    0.0457035
  band:
  - # 1
    frequency:   -6.7155172583
  - # 2
    frequency:   -3.3164091952
  - # 3
    frequency:   -3.0362793923
  - # 4
    frequency:   -2.2266223729
  - # 5
    frequency:   -2.1675878343
  - # 6
    frequency:    1.0346637966
  - # 7
    frequency:    1.4462782003
  - # 8
    frequency:    1.7959683644
  - # 9
    frequency:    3.5821744763
  - # 10
    frequency:    3.7020714165
  - # 11
    frequency:    4.2433110593
  - # 12
    frequency:    4.5265652647
  - # 13
    frequency:    4.6808877149
  - # 14
    frequency:    5.9432924132
  - # 15
    frequency:    6.3466205294
  - # 16
    frequency:    8.4101568088
  - # 17
    frequency:   13.2296107856
  - # 18
    frequency:   14.6147161644
  - # 19
    frequency:   14.7358273898
  - # 20
    frequency:   17.8950236574
  - # 21
    frequency:   34.1672219614

- q-position: [    0.1363636,    0.0000000,    0.0000000 ]
  distance:    0.0474613
  band:
  - # 1
    frequency:   -6.5820356101
  - # 2
    frequency:   -3.4034421909
  - # 3
    frequency:   -2.8295681494
  - # 4
    frequency:   -2.2222840553
  - # 5
    frequency:   -2.0200255872
  - # 6
    frequency:    1.0814859812
  - # 7
    frequency:    1.4887395381
  - # 8
    frequency:    1.8800578944
  - # 9
    frequency:    3.6892877428
  - # 10
    frequency:    3.7391605127
  - # 11
    frequency:    4.2911685193
  - # 12
    frequency:    4.5574866491
  - # 13
    frequency:    4.7560693153
  - # 14
    frequency:    5.9839129133
  - # 15
    frequency:    6.8565671941
  - # 16
    frequency:    8.3889111509
  - # 17
    frequency:   13.2421730266
  - # 18
    frequency:   14.6246121686
  - # 19
    frequency:   14.7481102242
  - # 20
    frequency:   17.8882437562
  - # 21
    frequency:   34.1583081215

- q-position: [    0.1414141,    0.0000000,    0.0000000 ]
  distance:    0.0492192
  band:
  - # 1
    frequency:   -6.4688120650
  - # 2
    frequency:   -3.4868842213
  - # 3
    frequency:   -2.6639155081
  - # 4
    frequency:   -2.2742509250
  - # 5
    frequency:   -1.7850001017
  - # 6
    frequency:    1.1309130169
  - # 7
    frequency:    1.5381216811
  - # 8
    frequency:    1.9624602615
  - # 9
    frequency:    3.7735366302
  - # 10
    frequency:    3.7861320227
  - # 11
    frequency:    4.3340274193
  - # 12
    frequency:    4.5845903709
  - # 13
    frequency:    4.8454672416
  - # 14
    frequency:    6.0302147126
  - # 15
    frequency:    7.3439204642
  - # 16
    frequency:    8.3669278629
  - # 17
    frequency:   13.2585992702
  - # 18
    frequency:   14.6366049961
  - # 19
    frequency:   14.7620669305
  - # 20
    frequency:   17.8816180450
  - # 21
    frequency:   34.1492277203

- q-position: [    0.1464646,    0.0000000,    0.0000000 ]
  distance:    0.0509770
  band:
  - # 1
    frequency:   -6.3747146525
  - # 2
    frequency:   -3.5666347207
  - # 3
    frequency:   -2.5344135432
  - # 4
    frequency:   -2.3222118124
  - # 5
    frequency:   -1.5253687597
  - # 6
    frequency:    1.1850385602
  - # 7
    frequency:    1.5978193951
  - # 8
    frequency:    2.0435263851
  - # 9
    frequency:    3.8062944308
  - # 10
    frequency:    3.8724935908
  - # 11
    frequency:    4.3724932623
  - # 12
    frequency:    4.6096400557
  - # 13
    frequency:    4.9463710727
  - # 14
    frequency:    6.0831083997
  - # 15
    frequency:    7.8044520369
  - # 16
    frequency:    8.3442817386
  - # 17
    frequency:   13.2785984610
  - # 18
    frequency:   14.6508982653
  - # 19
    frequency:   14.7778879854
  - # 20
    frequency:   17.8752119990
  - # 21
    frequency:   34.1399961451

- q-position: [    0.1515152,    0.0000000,    0.0000000 ]
  distance:    0.0527348
  band:
  - # 1
    frequency:   -6.2979213174
  - # 2
    frequency:   -3.6426143436
  - # 3
    frequency:   -2.4450021040
  - # 4
    frequency:   -2.3575417139
  - # 5
    frequency:   -1.2485419385
  - # 6
    frequency:    1.2455912377
  - # 7
    frequency:    1.6728932715
  - # 8
    frequency:    2.1234523083
  - # 9
    frequency:    3.8379711009
  - # 10
    frequency:    3.9486027711
  - # 11
    frequency:    4.4080810765
  - # 12
    frequency:    4.6334709071
  - # 13
    frequency:    5.0543929166
  - # 14
    frequency:    6.1435187138
  - # 15
    frequency:    8.2368180168
  - # 16
    frequency:    8.3210539176
  - # 17
    frequency:   13.3017748340
  - # 18
    frequency:   14.6676945252
  - # 19
    frequency:   14.7957601237
  - # 20
    frequency:   17.8690920548
  - # 21