nqpoint: 300    
npath: 3      
segment_nqpoint:
- 100
- 100
- 100
labels:
- [ 'G', 'M' ]
- [ 'M', 'K' ]
- [ 'K', 'G' ]
reciprocal_lattice:
- [   0.30130412,   0.17395801,   0.00000000 ] # a*
- [   0.00000000,   0.34791603,   0.00000000 ] # b*
- [   0.00000000,   0.00000000,   0.04195581 ] # c*
natom: 6      
lattice:
- [     3.318905842918086,     0.000000000000000,     0.000000000000000 ] # a
- [    -1.659452921459043,     2.874256772733830,     0.000000000000000 ] # b
- [     0.000000000000000,     0.000000000000000,    23.834602069671227 ] # c
points:
- symbol: F # 1
  coordinates: [  0.333332985432215,  0.666666983183674,  0.622397723541094 ]
  mass: 18.998403
- symbol: H # 2
  coordinates: [  0.666666984744048,  0.333332985985145,  0.377602276458906 ]
  mass: 1.007940
- symbol: Hf # 3
  coordinates: [  0.333332985432215,  0.666666983183674,  0.472777558203134 ]
  mass: 178.490000
- symbol: Hf # 4
  coordinates: [  0.666666984744048,  0.333332985985145,  0.567901454598261 ]
  mass: 178.490000
- symbol: N # 5
  coordinates: [  0.000000000000000,  0.000000000000000,  0.521796386576005 ]
  mass: 14.006700
- symbol: O # 6
  coordinates: [  0.666666984744048,  0.333332985985145,  0.419324890291348 ]
  mass: 15.999400

phonon:
- q-position: [    0.0000000,    0.0000000,    0.0000000 ]
  distance:    0.0000000
  band:
  - # 1
    frequency:   -0.0000067799
  - # 2
    frequency:   -0.0000002548
  - # 3
    frequency:    0.0000052737
  - # 4
    frequency:    2.0980027523
  - # 5
    frequency:    2.0980027523
  - # 6
    frequency:    4.6348223362
  - # 7
    frequency:    4.8133817141
  - # 8
    frequency:    4.8133817141
  - # 9
    frequency:    8.1945982493
  - # 10
    frequency:    8.1945982493
  - # 11
    frequency:   10.7002855659
  - # 12
    frequency:   12.0324609999
  - # 13
    frequency:   14.9075187426
  - # 14
    frequency:   16.4158647120
  - # 15
    frequency:   16.4158647120
  - # 16
    frequency:   18.3906868967
  - # 17
    frequency:   18.3906868967
  - # 18
    frequency:  106.8255016786

- q-position: [    0.0050505,    0.0000000,    0.0000000 ]
  distance:    0.0017572
  band:
  - # 1
    frequency:   -0.1064320202
  - # 2
    frequency:   -0.0648829575
  - # 3
    frequency:   -0.0004263731
  - # 4
    frequency:    2.0976894540
  - # 5
    frequency:    2.0979813417
  - # 6
    frequency:    4.6351412510
  - # 7
    frequency:    4.8142358677
  - # 8
    frequency:    4.8145937301
  - # 9
    frequency:    8.1947621419
  - # 10
    frequency:    8.1948161588
  - # 11
    frequency:   10.7001576787
  - # 12
    frequency:   12.0320604173
  - # 13
    frequency:   14.9067384301
  - # 14
    frequency:   16.4156095057
  - # 15
    frequency:   16.4159758894
  - # 16
    frequency:   18.3854803187
  - # 17
    frequency:   18.3895514756
  - # 18
    frequency:  106.8224928454

- q-position: [    0.0101010,    0.0000000,    0.0000000 ]
  distance:    0.0035143
  band:
  - # 1
    frequency:   -0.2124926388
  - # 2
    frequency:   -0.1299615212
  - # 3
    frequency:   -0.0017057873
  - # 4
    frequency:    2.0967605321
  - # 5
    frequency:    2.0979254215
  - # 6
    frequency:    4.6361099628
  - # 7
    frequency:    4.8167947884
  - # 8
    frequency:    4.8182022838
  - # 9
    frequency:    8.1952515315
  - # 10
    frequency:    8.1954701449
  - # 11
    frequency:   10.6997739363
  - # 12
    frequency:   12.0308588889
  - # 13
    frequency:   14.9043951724
  - # 14
    frequency:   16.4148442216
  - # 15
    frequency:   16.4163072573
  - # 16
    frequency:   18.3698731127
  - # 17
    frequency:   18.3861486008
  - # 18
    frequency:  106.8134742099

- q-position: [    0.0151515,    0.0000000,    0.0000000 ]
  distance:    0.0052715
  band:
  - # 1
    frequency:   -0.3178160763
  - # 2
    frequency:   -0.1954240790
  - # 3
    frequency:   -0.0038378307
  - # 4
    frequency:    2.0952485444
  - # 5
    frequency:    2.0978600356
  - # 6
    frequency:    4.6377613118
  - # 7
    frequency:    4.8210478421
  - # 8
    frequency:    4.8241283668
  - # 9
    frequency:    8.1960595825
  - # 10
    frequency:    8.1965609666
  - # 11
    frequency:   10.6991340919
  - # 12
    frequency:   12.0288571117
  - # 13
    frequency:   14.9004821259
  - # 14
    frequency:   16.4135693520
  - # 15
    frequency:   16.4168523174
  - # 16
    frequency:   18.3439031451
  - # 17
    frequency:   18.3804884408
  - # 18
    frequency:  106.7984693586

- q-position: [    0.0202020,    0.0000000,    0.0000000 ]
  distance:    0.0070286
  band:
  - # 1
    frequency:   -0.4220473701
  - # 2
    frequency:   -0.2614448260
  - # 3
    frequency:   -0.0068211020
  - # 4
    frequency:    2.0932065494
  - # 5
    frequency:    2.0978272234
  - # 6
    frequency:    4.6401409303
  - # 7
    frequency:    4.8269772629
  - # 8
    frequency:    4.8322507521
  - # 9
    frequency:    8.1971749968
  - # 10
    frequency:    8.1980898429
  - # 11
    frequency:   10.6982377220
  - # 12
    frequency:   12.0260563755
  - # 13
    frequency:   14.8949882667
  - # 14
    frequency:   16.4117839691
  - # 15
    frequency:   16.4176002213
  - # 16
    frequency:   18.3076345210
  - # 17
    frequency:   18.3725879558
  - # 18
    frequency:  106.7775175815

- q-position: [    0.0252525,    0.0000000,    0.0000000 ]
  distance:    0.0087858
  band:
  - # 1
    frequency:   -0.5248467964
  - # 2
    frequency:   -0.3281772775
  - # 3
    frequency:   -0.0106518136
  - # 4
    frequency:    2.0907062936
  - # 5
    frequency:    2.0978862582
  - # 6
    frequency:    4.6432968151
  - # 7
    frequency:    4.8345580999
  - # 8
    frequency:    4.8424183637
  - # 9
    frequency:    8.1985821554
  - # 10
    frequency:    8.2000583853
  - # 11
    frequency:   10.6970842079
  - # 12
    frequency:   12.0224587512
  - # 13
    frequency:   14.8878989298
  - # 14
    frequency:   16.4094829541
  - # 15
    frequency:   16.4185357432
  - # 16
    frequency:   18.2611592598
  - # 17
    frequency:   18.3624709153
  - # 18
    frequency:  106.7506738397

- q-position: [    0.0303030,    0.0000000,    0.0000000 ]
  distance:    0.0105429
  band:
  - # 1
    frequency:   -0.6258933087
  - # 2
    frequency:   -0.3957485203
  - # 3
    frequency:   -0.0153220512
  - # 4
    frequency:    2.0878356793
  - # 5
    frequency:    2.0981136226
  - # 6
    frequency:    4.6472694148
  - # 7
    frequency:    4.8437581610
  - # 8
    frequency:    4.8544627472
  - # 9
    frequency:    8.2002613141
  - # 10
    frequency:    8.2024685028
  - # 11
    frequency:   10.6956727122
  - # 12
    frequency:   12.0180673500
  - # 13
    frequency:   14.8791964963
  - # 14
    frequency:   16.4066527817
  - # 15
    frequency:   16.4196392417
  - # 16
    frequency:   18.2046000501
  - # 17
    frequency:   18.3501679247
  - # 18
    frequency:  106.7180087188

- q-position: [    0.0353535,    0.0000000,    0.0000000 ]
  distance:    0.0123001
  band:
  - # 1
    frequency:   -0.7248869329
  - # 2
    frequency:   -0.4642544470
  - # 3
    frequency:   -0.0208176506
  - # 4
    frequency:    2.0846955483
  - # 5
    frequency:    2.0986024896
  - # 6
    frequency:    4.6520841656
  - # 7
    frequency:    4.8545379722
  - # 8
    frequency:    4.8682085647
  - # 9
    frequency:    8.2021888520
  - # 10
    frequency:    8.2053222816
  - # 11
    frequency:   10.6940021508
  - # 12
    frequency:   12.0128866445
  - # 13
    frequency:   14.8688611605
  - # 14
    frequency:   16.4032654216
  - # 15
    frequency:   16.4208866106
  - # 16
    frequency:   18.1381145972
  - # 17
    frequency:   18.3357164594
  - # 18
    frequency:  106.6796083631

- q-position: [    0.0404040,    0.0000000,    0.0000000 ]
  distance:    0.0140572
  band:
  - # 1
    frequency:   -0.8215501910
  - # 2
    frequency:   -0.5337562039
  - # 3
    frequency:   -0.0271157673
  - # 4
    frequency:    2.0813958709
  - # 5
    frequency:    2.0994615367
  - # 6
    frequency:    4.6577471697
  - # 7
    frequency:    4.8668507698
  - # 8
    frequency:    4.8834812612
  - # 9
    frequency:    8.2043375696
  - # 10
    frequency:    8.2086218408
  - # 11
    frequency:   10.6920711628
  - # 12
    frequency:   12.0069228463
  - # 13
    frequency:   14.8568716839
  - # 14
    frequency:   16.3992696057
  - # 15
    frequency:   16.4222492182
  - # 16
    frequency:   18.0619024127
  - # 17
    frequency:   18.3191609071
  - # 18
    frequency:  106.6355743913

- q-position: [    0.0454545,    0.0000000,    0.0000000 ]
  distance:    0.0158144
  band:
  - # 1
    frequency:   -0.9156287136
  - # 2
    frequency:   -0.6042780424
  - # 3
    frequency:   -0.0341822197
  - # 4
    frequency:    2.0780514859
  - # 5
    frequency:    2.1008130094
  - # 6
    frequency:    4.6642437767
  - # 7
    frequency:    4.8806425474
  - # 8
    frequency:    4.9001119782
  - # 9
    frequency:    8.2066770319
  - # 10
    frequency:    8.2123691641
  - # 11
    frequency:   10.6898780792
  - # 12
    frequency:   12.0001843279
  - # 13
    frequency:   14.8432060223
  - # 14
    frequency:   16.3945781859
  - # 15
    frequency:   16.4236938353
  - # 16
    frequency:   17.9762154493
  - # 17
    frequency:   18.3005526185
  - # 18
    frequency:  106.5860237869

- q-position: [    0.0505051,    0.0000000,    0.0000000 ]
  distance:    0.0175715
  band:
  - # 1
    frequency:   -1.0068912381
  - # 2
    frequency:   -0.6758067010
  - # 3
    frequency:   -0.0419686872
  - # 4
    frequency:    2.0747776134
  - # 5
    frequency:    2.1027900449
  - # 6
    frequency:    4.6715393820
  - # 7
    frequency:    4.8958521751
  - # 8
    frequency:    4.9179402492
  - # 9
    frequency:    8.2091739523
  - # 10
    frequency:    8.2165659112
  - # 11
    frequency:   10.6874208937
  - # 12
    frequency:   11.9926820787
  - # 13
    frequency:   14.8278416798
  - # 14
    frequency:   16.3890493689
  - # 15
    frequency:   16.4251825519
  - # 16
    frequency:   17.8813749496
  - # 17
    frequency:   18.2799499679
  - # 18
    frequency:  106.5310887622

- q-position: [    0.0555556,    0.0000000,    0.0000000 ]
  distance:    0.0193287
  band:
  - # 1
    frequency:   -1.0951291958
  - # 2
    frequency:   -0.7482923491
  - # 3
    frequency:   -0.0504098322
  - # 4
    frequency:    2.0716854094
  - # 5
    frequency:    2.1055333436
  - # 6
    frequency:    4.6795816812
  - # 7
    frequency:    4.9124116070
  - # 8
    frequency:    4.9368151016
  - # 9
    frequency:    8.2117926090
  - # 10
    frequency:    8.2212132092
  - # 11
    frequency:   10.6846972369
  - # 12
    frequency:   11.9844301793
  - # 13
    frequency:   14.8107556116
  - # 14
    frequency:   16.3824579490
  - # 15
    frequency:   16.4266726831
  - # 16
    frequency:   17.7777985896
  - # 17
    frequency:   18.2574184208
  - # 18
    frequency:  106.4709165903

- q-position: [    0.0606061,    0.0000000,    0.0000000 ]
  distance:    0.0210858
  band:
  - # 1
    frequency:   -1.1801560620
  - # 2
    frequency:   -0.8216510113
  - # 3
    frequency:   -0.0594203972
  - # 4
    frequency:    2.0688778667
  - # 5
    frequency:    2.1091873331
  - # 6
    frequency:    4.6883037328
  - # 7
    frequency:    4.9302461905
  - # 8
    frequency:    4.9565951029
  - # 9
    frequency:    8.2144952869
  - # 10
    frequency:    8.2263114286
  - # 11
    frequency:   10.6817043553
  - # 12
    frequency:   11.9754462787
  - # 13
    frequency:   14.7919234439
  - # 14
    frequency:   16.3744495876
  - # 15
    frequency:   16.4281166648
  - # 16
    frequency:   17.6660451161
  - # 17
    frequency:   18.2330306106
  - # 18
    frequency:  106.4056693994

- q-position: [    0.0656566,    0.0000000,    0.0000000 ]
  distance:    0.0228430
  band:
  - # 1
    frequency:   -1.2618066127
  - # 2
    frequency:   -0.8957682741
  - # 3
    frequency:   -0.0688922915
  - # 4
    frequency:    2.0664463514
  - # 5
    frequency:    2.1138960007
  - # 6
    frequency:    4.6976273496
  - # 7
    frequency:    4.9492750829
  - # 8
    frequency:    4.9771477506
  - # 9
    frequency:    8.2172427341
  - # 10
    frequency:    8.2318599453
  - # 11
    frequency:   10.6784390983
  - # 12
    frequency:   11.9657520552
  - # 13
    frequency:   14.7713177090
  - # 14
    frequency:   16.3644655263
  - # 15
    frequency:   16.4294619403
  - # 16
    frequency:   17.5468894238
  - # 17
    frequency:   18.2068664223
  - # 18
    frequency:  106.3355239277

- q-position: [    0.0707071,    0.0000000,    0.0000000 ]
  distance:    0.0246001
  band:
  - # 1
    frequency:   -1.3399361981
  - # 2
    frequency:   -0.9705039689
  - # 3
    frequency:   -0.0786916251
  - # 4
    frequency:    2.0644680107
  - # 5
    frequency:    2.1197985827
  - # 6
    frequency:    4.7074664899
  - # 7
    frequency:    4.9694117779
  - # 8
    frequency:    4.9983484812
  - # 9
    frequency:    8.2199946207
  - # 10
    frequency:    8.2378568931
  - # 11
    frequency:   10.6748979129
  - # 12
    frequency:   11.9553736402
  - # 13
    frequency:   14.7489046752
  - # 14
    frequency:   16.3516148282
  - # 15
    frequency:   16.4306508412
  - # 16
    frequency:   17.4214514287
  - # 17
    frequency:   18.1790130804
  - # 18
    frequency:  106.2606712298

- q-position: [    0.0757576,    0.0000000,    0.0000000 ]
  distance:    0.0263573
  band:
  - # 1
    frequency:   -1.4144201138
  - # 2
    frequency:   -1.0456974577
  - # 3
    frequency:   -0.0886555628
  - # 4
    frequency:    2.0630041976
  - # 5
    frequency:    2.1270253029
  - # 6
    frequency:    4.7177304372
  - # 7
    frequency:    4.9905647381
  - # 8
    frequency:    5.0200794820
  - # 9
    frequency:    8.2227099854
  - # 10
    frequency:    8.2442989110
  - # 11
    frequency:   10.6710768485
  - # 12
    frequency:   11.9443419823
  - # 13
    frequency:   14.7246391574
  - # 14
    frequency:   16.3344541495
  - # 15
    frequency:   16.4316204649
  - # 16
    frequency:   17.2914193893
  - # 17
    frequency:   18.1495652381
  - # 18
    frequency:  106.1813163332

- q-position: [    0.0808081,    0.0000000,    0.0000000 ]
  distance:    0.0281144
  band:
  - # 1
    frequency:   -1.4851531332
  - # 2
    frequency:   -1.1211731252
  - # 3
    frequency:   -0.0985887401
  - # 4
    frequency:    2.0620999467
  - # 5
    frequency:    2.1356933381
  - # 6
    frequency:    4.7283266407
  - # 7
    frequency:    5.0126381233
  - # 8
    frequency:    5.0422284307
  - # 9
    frequency:    8.2253476536
  - # 10
    frequency:    8.2511808883
  - # 11
    frequency:   10.6669715715
  - # 12
    frequency:   11.9326931259
  - # 13
    frequency:   14.6984563631
  - # 14
    frequency:   16.3106154977
  - # 15
    frequency:   16.4323025550
  - # 16
    frequency:   17.1594282112
  - # 17
    frequency:   18.1186250630
  - # 18
    frequency:  106.0976778369

- q-position: [    0.0858586,    0.0000000,    0.0000000 ]
  distance:    0.0298716
  band:
  - # 1
    frequency:   -1.5520492533
  - # 2
    frequency:   -1.1967457019
  - # 3
    frequency:   -0.1082587858
  - # 4
    frequency:    2.0617844250
  - # 5
    frequency:    2.1459031785
  - # 6
    frequency:    4.7391631441
  - # 7
    frequency:    5.0355326014
  - # 8
    frequency:    5.0646872466
  - # 9
    frequency:    8.2278666063
  - # 10
    frequency:    8.2584957146
  - # 11
    frequency:   10.6625773904
  - # 12
    frequency:   11.9204683780
  - # 13
    frequency:   14.6702592477
  - # 14
    frequency:   16.2762446577
  - # 15
    frequency:   16.4326233925
  - # 16
    frequency:   17.0296316324
  - # 17
    frequency:   18.0863023098
  - # 18
    frequency:  106.0099874494

- q-position: [    0.0909091,    0.0000000,    0.0000000 ]
  distance:    0.0316287
  band:
  - # 1
    frequency:   -1.6150417009
  - # 2
    frequency:   -1.2722251176
  - # 3
    frequency:   -0.1173901791
  - # 4
    frequency:    2.0620721951
  - # 5
    frequency:    2.1577355195
  - # 6
    frequency:    4.7501505694
  - # 7
    frequency:    5.0591462227
  - # 8
    frequency:    5.0873509121
  - # 9
    frequency:    8.2302262777
  - # 10
    frequency:    8.2662340371
  - # 11
    frequency:   10.6578892913
  - # 12
    frequency:   11.9077143331
  - # 13
    frequency:   14.6398988231
  - # 14
    frequency:   16.2254638653
  - # 15
    frequency:   16.4325037091
  - # 16
    frequency:   16.9082573316
  - # 17
    frequency:   18.0527143700
  - # 18
    frequency:  105.9184894590

- q-position: [    0.0959596,    0.0000000,    0.0000000 ]
  distance:    0.0333859
  band:
  - # 1
    frequency:   -1.6740832510
  - # 2
    frequency:   -1.3474206705
  - # 3
    frequency:   -0.1256551332
  - # 4
    frequency:    2.0629650695
  - # 5
    frequency:    2.1712487974
  - # 6
    frequency:    4.7612036491
  - # 7
    frequency:    5.0833753377
  - # 8
    frequency:    5.1101164023
  - # 9
    frequency:    8.2323867537
  - # 10
    frequency:    8.2743840334
  - # 11
    frequency:   10.6529019811
  - # 12
    frequency:   11.8944827235
  - # 13
    frequency:   14.6071429795
  - # 14
    frequency:   16.1508872726
  - # 15
    frequency:   16.4318586381
  - # 16
    frequency:   16.8031209285
  - # 17
    frequency:   18.0179862825
  - # 18
    frequency:  105.8234401353

- q-position: [    0.1010101,    0.0000000,    0.0000000 ]
  distance:    0.0351430
  band:
  - # 1
    frequency:   -1.7291469162
  - # 2
    frequency:   -1.4221444016
  - # 3
    frequency:   -0.1326592287
  - # 4
    frequency:    2.0644543194
  - # 5
    frequency:    2.1864774353
  - # 6
    frequency:    4.7722423192
  - # 7
    frequency:    5.1081155353
  - # 8
    frequency:    5.1328817468
  - # 9
    frequency:    8.2343088402
  - # 10
    frequency:    8.2829312025
  - # 11
    frequency:   10.6476099397
  - # 12
    frequency:   11.8808300596
  - # 13
    frequency:   14.5716259017
  - # 14
    frequency:   16.0467523869
  - # 15
    frequency:   16.4305977238
  - # 16
    frequency:   16.7205437056
  - # 17
    frequency:   17.9822506837
  - # 18
    frequency:  105.7251070543

- q-position: [    0.1060606,    0.0000000,    0.0000000 ]
  distance:    0.0369002
  band:
  - # 1
    frequency:   -1.7802270771
  - # 2
    frequency:   -1.4962136527
  - # 3
    frequency:   -0.1379175852
  - # 4
    frequency:    2.0665230144
  - # 5
    frequency:    2.2034308274
  - # 6
    frequency:    4.7831923985
  - # 7
    frequency:    5.1332625795
  - # 8
    frequency:    5.1555452290
  - # 9
    frequency:    8.2359539614
  - # 10
    frequency:    8.2918581813
  - # 11
    frequency:   10.6420074756
  - # 12
    frequency:   11.8668170149
  - # 13
    frequency:   14.5327636201
  - # 14
    frequency:   15.9129964716
  - # 15
    frequency:   16.4286250169
  - # 16
    frequency:   16.6613596321
  - # 17
    frequency:   17.9456476702
  - # 18
    frequency:  105.6237683475

- q-position: [    0.1111111,    0.0000000,    0.0000000 ]
  distance:    0.0386573
  band:
  - # 1
    frequency:   -1.8273411450
  - # 2
    frequency:   -1.5694528582
  - # 3
    frequency:   -0.1408131446
  - # 4
    frequency:    2.0691483089
  - # 5
    frequency:    2.2220930400
  - # 6
    frequency:    4.7939858885
  - # 7
    frequency:    5.1587133213
  - # 8
    frequency:    5.1780047193
  - # 9
    frequency:    8.2372838421
  - # 10
    frequency:    8.3011445902
  - # 11
    frequency:   10.6360887829
  - # 12
    frequency:   11.8525075002
  - # 13
    frequency:   14.4896090666
  - # 14
    frequency:   15.7550882914
  - # 15
    frequency:   16.4258392907
  - # 16
    frequency:   16.6212280785
  - # 17
    frequency:   17.9083245384
  - # 18
    frequency:  105.5197118697

- q-position: [    0.1161616,    0.0000000,    0.0000000 ]
  distance:    0.0404145
  band:
  - # 1
    frequency:   -1.8705318684
  - # 2
    frequency:   -1.6416946674
  - # 3
    frequency:   -0.1405182960
  - # 4
    frequency:    2.0723035363
  - # 5
    frequency:    2.2424231664
  - # 6
    frequency:    4.8045609352
  - # 7
    frequency:    5.1843665663
  - # 8
    frequency:    5.2001571227
  - # 9
    frequency:    8.2382599138
  - # 10
    frequency:    8.3107669141
  - # 11
    frequency:   10.6298479951
  - # 12
    frequency:   11.8379673458
  - # 13
    frequency:   14.4405987326
  - # 14
    frequency:   15.5804273137
  - # 15
    frequency:   16.4221344212
  - # 16
    frequency:   16.5944882022
  - # 17
    frequency:   17.8704353576
  - # 18
    frequency:  105.4132342861

- q-position: [    0.1212121,    0.0000000,    0.0000000 ]
  distance:    0.0421716
  band:
  - # 1
    frequency:   -1.9098704266
  - # 2
    frequency:   -1.7127805171
  - # 3
    frequency:   -0.1358317487
  - # 4
    frequency:    2.0759600279
  - # 5
    frequency:    2.2643562333
  - # 6
    frequency:    4.8148614938
  - # 7
    frequency:    5.2101238799
  - # 8
    frequency:    5.2218979128
  - # 9
    frequency:    8.2388423693
  - # 10
    frequency:    8.3206984209
  - # 11
    frequency:   10.6232792280
  - # 12
    frequency:   11.8232624696
  - # 13
    frequency:   14.3831143474
  - # 14
    frequency:   15.3963076218
  - # 15
    frequency:   16.4173999827
  - # 16
    frequency:   16.5766345866
  - # 17
    frequency:   17.8321403259
  - # 18
    frequency:  105.3046400760

- q-position: [    0.1262626,    0.0000000,    0.0000000 ]
  distance:    0.0439288
  band:
  - # 1
    frequency:   -1.9454604855
  - # 2
    frequency:   -1.7825607803
  - # 3
    frequency:   -0.1247801865
  - # 4
    frequency:    2.0800886147
  - # 5
    frequency:    2.2878045295
  - # 6
    frequency:    4.8248367355
  - # 7
    frequency:    5.2358903137
  - # 8
    frequency:    5.2431207127
  - # 9
    frequency:    8.2389887657
  - # 10
    frequency:    8.3309091230
  - # 11
    frequency:   10.6163766030
  - # 12
    frequency:   11.8084563243
  - # 13
    frequency:   14.3127887853
  - # 14
    frequency:   15.2102734830
  - # 15
    frequency:   16.4115221159
  - # 16
    frequency:   16.5646583688
  - # 17
    frequency:   17.7936048489
  - # 18
    frequency:  105.1942404562

- q-position: [    0.1313131,    0.0000000,    0.0000000 ]
  distance:    0.0456859
  band:
  - # 1
    frequency:   -1.9774434374
  - # 2
    frequency:   -1.8508946084
  - # 3
    frequency:   -0.1033343099
  - # 4
    frequency:    2.0846608056
  - # 5
    frequency:    2.3126592113
  - # 6
    frequency:    4.8344402353
  - # 7
    frequency:    5.2615750439
  - # 8
    frequency:    5.2637168719
  - # 9
    frequency:    8.2386520415
  - # 10
    frequency:    8.3413657833
  - # 11
    frequency:   10.6091342367
  - # 12
    frequency:   11.7936062628
  - # 13
    frequency:   14.2227336616
  - # 14
    frequency:   15.0312968517
  - # 15
    frequency:   16.4043847308
  - # 16
    frequency:   16.5566467120
  - # 17
    frequency:   17.7549982813
  - # 18
    frequency:  105.0823522226

- q-position: [    0.1363636,    0.0000000,    0.0000000 ]
  distance:    0.0474431
  band:
  - # 1
    frequency:   -2.0060050897
  - # 2
    frequency:   -1.9176495663
  - # 3
    frequency:   -0.0573494153
  - # 4
    frequency:    2.0896496644
  - # 5
    frequency:    2.3387920318
  - # 6
    frequency:    4.8436289644
  - # 7
    frequency:    5.2835749836
  - # 8
    frequency:    5.2870919101
  - # 9
    frequency:    8.2377777642
  - # 10
    frequency:    8.3520319671
  - # 11
    frequency:   10.6015461766
  - # 12
    frequency:   11.7787581460
  - # 13
    frequency:   14.1038335323
  - # 14
    frequency:   14.8698968263
  - # 15
    frequency:   16.3958711045
  - # 16
    frequency:   16.5513766833
  - # 17
    frequency:   17.7164922694
  - # 18
    frequency:  104.9692965158

- q-position: [    0.1414141,    0.0000000,    0.0000000 ]
  distance:    0.0492002
  band:
  - # 1
    frequency:   -2.0313841223
  - # 2
    frequency:   -1.9827011449
  - # 3
    frequency:    0.0845276960
  - # 4
    frequency:    2.0950304168
  - # 5
    frequency:    2.3660570455
  - # 6
    frequency:    4.8523621081
  - # 7
    frequency:    5.3025802672
  - # 8
    frequency:    5.3123598520
  - # 9
    frequency:    8.2363003484
  - # 10
    frequency:    8.3628681419
  - # 11
    frequency:   10.5936062503
  - # 12
    frequency:   11.7639378702
  - # 13
    frequency:   13.9482611924
  - # 14
    frequency:   14.7349077419
  - # 15
    frequency:   16.3858659198
  - # 16
    frequency:   16.5480441250
  - # 17
    frequency:   17.6782586481
  - # 18
    frequency:  104.8553975132

- q-position: [    0.1464646,    0.0000000,    0.0000000 ]
  distance:    0.0509574
  band:
  - # 1
    frequency:   -2.0538826835
  - # 2
    frequency:   -2.0459322117
  - # 3
    frequency:    0.1457415425
  - # 4
    frequency:    2.1007808328
  - # 5
    frequency:    2.3942921490
  - # 6
    frequency:    4.8605997100
  - # 7
    frequency:    5.3206137353
  - # 8
    frequency:    5.3373032410
  - # 9
    frequency:    8.2341378721
  - # 10
    frequency:    8.3738318233
  - # 11
    frequency:   10.5853077726
  - # 12
    frequency:   11.7491370646
  - # 13
    frequency:   13.7548132194
  - # 14
    frequency:   14.6283268423
  - # 15
    frequency:   16.3742577716
  - # 16
    frequency:   16.5461008095
  - # 17
    frequency:   17.6404668662
  - # 18
    frequency:  104.7409810533

- q-position: [    0.1515152,    0.0000000,    0.0000000 ]
  distance:    0.0527145
  band:
  - # 1
    frequency:   -2.1072324473
  - # 2
    frequency:   -2.0738795401
  - # 3
    frequency:    0.1992256731
  - # 4
    frequency:    2.1068814255
  - # 5
    frequency:    2.4233203334
  - # 6
    frequency:    4.8683011285
  - # 7
    frequency:    5.3375510377
  - # 8
    frequency:    5.3618521078
  - # 9
    frequency:    8.2311849459
  - # 10
    frequency:    8.3848777670
  - # 11
    frequency:   10.5766430162
  - # 12
    frequency:   11.7342868247
  - # 13
    frequency:   13.5291551068
  - # 14
    frequency:   14.5452004240
  - # 15
    frequency:   16.3609421237
  - # 16
    frequency:   16.5451586821
  - # 17
    frequency:   17.6032809548
  - # 18
    frequency:  104.6263732004

- q-position: [    0.1565657,    0.0000000,    0.0000000 ]
  distance:    0.0544717
  band:
  - # 1
    frequency:   -2.1664977974
  - # 2
    frequency:   -2.0918462248
  - # 3
    frequency:    0.2515393835
  - # 4
    frequency:    2.1133155073
  - # 5
    frequency:    2.4529505349
  - # 6
    frequency:    4.8754232645
  - # 7
    frequency:    5.3532608552
  - # 8
    frequency:    5.3859422707
  - # 9
    frequency:    8.2273028193
  - # 10
    frequency:    8.3959582038
  - # 11
    frequency:   10.5676022644
  - # 12
    frequency:   11.7192045708
  - # 13
    frequency:   13.2789965613
  - # 14
    frequency:   14.4785723290
  - # 15
    frequency:   16.3458246511
  - # 16
    frequency:   16.5449330316
  - # 17
    frequency:   17.5668561063
  - # 18
    frequency:  104.5118987564

- q-position: [    0.1616162,    0.0000000,    0.0000000 ]
  distance:    0.0562289
  band:
  - # 1
    frequency:   -2.2236299609
  - # 2
    frequency:   -2.1083666162
  - # 3
    frequency:    0.3047153040
  - # 4
    frequency:    2.1200691406
  - # 5
    frequency:    2.4829779839
  - # 6
    frequency:    4.8819184880
  - # 7
    frequency:    5.3676026770
  - # 8
    frequency:    5.4095153696
  - # 9
    frequency:    8.2223054853
  - # 10
    frequency:    8.4070231140
  - # 11
    frequency:   10.5581720860
  - # 12
    frequency:   11.7034735108
  - # 13
    frequency:   13.0108602413
  - # 14
    frequency:   14.4228906770
  - # 15
    frequency:   16.3288248306
  - # 16
    frequency:   16.5452080665
  - # 17
    frequency:   17.5313349980
  - # 18
    frequency:  104.3978797312

- q-position: [    0.1666667,    0.0000000,    0.0000000 ]
  distance:    0.0579860
  band:
  - # 1
    frequency:   -2.2785359246
  - # 2
    frequency:   -2.1241603307
  - # 3
    frequency:    0.3597124465
  - # 4
    frequency:    2.1271310112
  - # 5
    frequency:    2.5131839612
  - # 6
    frequency:    4.8877321414
  - # 7
    frequency:    5.3804237512
  - # 8
    frequency:    5.4325188131
  - # 9
    frequency:    8.2159398625
  - # 10
    frequency:    8.4180205389
  - # 11
    frequency:   10.5483320614
  - # 12
    frequency:   11.6861275693
  - # 13
    frequency:   12.7299354535
  - # 14
    frequency:   14.3745212421
  - # 15
    frequency:   16.3098795770
  - # 16
    frequency:   16.5458155610
  - # 17
    frequency:   17.4968440652
  - # 18
    frequency:  104.2846337811

- q-position: [    0.1717172,    0.0000000,    0.0000000 ]
  distance:    0.0597432
  band:
  - # 1
    frequency:   -2.3311275496
  - # 2
    frequency:   -2.1401101842
  - # 3
    frequency:    0.4170854549
  - # 4
    frequency:    2.1344922502
  - # 5
    frequency:    2.5433348737
  - # 6
    frequency:    4.8927994246
  - # 7
    frequency:    5.3915549374
  - # 8
    frequency:    5.4549056491
  - # 9
    frequency:    8.2078570354
  - # 10
    frequency:    8.4288969233
  - # 11
    frequency:   10.5380481438
  - # 12
    frequency:   11.6646600255
  - # 13
    frequency:   12.4416472230
  - # 14
    frequency:   14.3312300181
  - # 15
    frequency:   16.2889466583
  - # 16
    frequency:   16.5466212886
  - # 17
    frequency:   17.4634899884
  - # 18
    frequency:  104.1724726288

- q-position: [    0.1767677,    0.0000000,    0.0000000 ]
  distance:    0.0615003
  band:
  - # 1
    frequency:   -2.3813212090
  - # 2
    frequency:   -2.1572937927
  - # 3
    frequency:    0.4771912817
  - # 4
    frequency:    2.1421462223
  - # 5
    frequency:    2.5731805690
  - # 6
    frequency:    4.8970413595
  - # 7
    frequency:    5.4008051141
  - # 8
    frequency:    5.4766343677
  - # 9
    frequency:    8.1975697393
  - # 10
    frequency:    8.4395974842
  - # 11
    frequency:   10.5272579097
  - # 12
    frequency:   11.6310554950
  - # 13
    frequency:   12.1562360891
  - # 14