nqpoint: 300    
npath: 3      
segment_nqpoint:
- 100
- 100
- 100
labels:
- [ 'G', 'M' ]
- [ 'M', 'K' ]
- [ 'K', 'G' ]
reciprocal_lattice:
- [   0.28185750,   0.16273050,   0.00000000 ] # a*
- [   0.00000000,   0.32546101,   0.00000000 ] # b*
- [   0.00000000,   0.00000000,   0.03525068 ] # c*
natom: 9      
lattice:
- [     3.547892096686394,     0.000000000000000,     0.000000000000000 ] # a
- [    -1.773946048343197,     3.072564685599540,     0.000000000000000 ] # b
- [     0.000000000000000,     0.000000000000000,    28.368248697905933 ] # c
points:
- symbol: C # 1
  coordinates: [  0.333332985432215,  0.666666983183674,  0.640281095351934 ]
  mass: 12.010700
- symbol: C # 2
  coordinates: [  0.666666984744047,  0.333332985985145,  0.359156326171049 ]
  mass: 12.010700
- symbol: N # 3
  coordinates: [  0.000000000000000,  0.000000000000000,  0.498657752135912 ]
  mass: 14.006700
- symbol: N # 4
  coordinates: [  0.333332985432215,  0.666666983183674,  0.596316638374666 ]
  mass: 14.006700
- symbol: N # 5
  coordinates: [  0.666666984744047,  0.333332985985145,  0.317256101913135 ]
  mass: 14.006700
- symbol: O # 6
  coordinates: [  0.333332985432215,  0.666666983183674,  0.682743898086865 ]
  mass: 15.999400
- symbol: O # 7
  coordinates: [  0.666666984744047,  0.333332985985145,  0.406212677105042 ]
  mass: 15.999400
- symbol: Y # 8
  coordinates: [  0.333332985432215,  0.666666983183674,  0.452903016760346 ]
  mass: 88.905850
- symbol: Y # 9
  coordinates: [  0.666666984744047,  0.333332985985145,  0.546072470729306 ]
  mass: 88.905850

phonon:
- q-position: [    0.0000000,    0.0000000,    0.0000000 ]
  distance:    0.0000000
  band:
  - # 1
    frequency:   -1.7926408697
  - # 2
    frequency:   -1.7926408696
  - # 3
    frequency:   -1.0145337200
  - # 4
    frequency:   -1.0145337199
  - # 5
    frequency:   -0.0000179621
  - # 6
    frequency:    0.0000004890
  - # 7
    frequency:    0.0000158128
  - # 8
    frequency:    3.7904945576
  - # 9
    frequency:    3.7904945577
  - # 10
    frequency:    4.9004950682
  - # 11
    frequency:    6.3538581473
  - # 12
    frequency:    6.3538581473
  - # 13
    frequency:    6.6671680674
  - # 14
    frequency:    6.6671680674
  - # 15
    frequency:    7.5723570051
  - # 16
    frequency:    8.4829351610
  - # 17
    frequency:   11.2659986797
  - # 18
    frequency:   12.3792393820
  - # 19
    frequency:   12.3792393821
  - # 20
    frequency:   13.8850480535
  - # 21
    frequency:   13.8850480535
  - # 22
    frequency:   17.5203524150
  - # 23
    frequency:   17.5203524151
  - # 24
    frequency:   32.1708680178
  - # 25
    frequency:   38.4773829810
  - # 26
    frequency:   67.9565638330
  - # 27
    frequency:   69.0014246430

- q-position: [    0.0050505,    0.0000000,    0.0000000 ]
  distance:    0.0016437
  band:
  - # 1
    frequency:   -1.7929142770
  - # 2
    frequency:   -1.7922288980
  - # 3
    frequency:   -1.0208594633
  - # 4
    frequency:   -1.0203997590
  - # 5
    frequency:    0.0010290532
  - # 6
    frequency:    0.1374629502
  - # 7
    frequency:    0.1540859809
  - # 8
    frequency:    3.7899962228
  - # 9
    frequency:    3.7905644957
  - # 10
    frequency:    4.9001792304
  - # 11
    frequency:    6.3535536590
  - # 12
    frequency:    6.3540063774
  - # 13
    frequency:    6.6667408277
  - # 14
    frequency:    6.6674070773
  - # 15
    frequency:    7.5718695189
  - # 16
    frequency:    8.4820632568
  - # 17
    frequency:   11.2658685116
  - # 18
    frequency:   12.3780451735
  - # 19
    frequency:   12.3789737522
  - # 20
    frequency:   13.8850381504
  - # 21
    frequency:   13.8851046224
  - # 22
    frequency:   17.5203828315
  - # 23
    frequency:   17.5205518803
  - # 24
    frequency:   32.1703277421
  - # 25
    frequency:   38.4773807363
  - # 26
    frequency:   67.9562827233
  - # 27
    frequency:   69.0002394295

- q-position: [    0.0101010,    0.0000000,    0.0000000 ]
  distance:    0.0032875
  band:
  - # 1
    frequency:   -1.7937240778
  - # 2
    frequency:   -1.7910058513
  - # 3
    frequency:   -1.0379853659
  - # 4
    frequency:   -1.0365057569
  - # 5
    frequency:    0.0041613557
  - # 6
    frequency:    0.2701109878
  - # 7
    frequency:    0.3025286407
  - # 8
    frequency:    3.7885058410
  - # 9
    frequency:    3.7907743444
  - # 10
    frequency:    4.8992333189
  - # 11
    frequency:    6.3526428279
  - # 12
    frequency:    6.3544450559
  - # 13
    frequency:    6.6654650668
  - # 14
    frequency:    6.6681210525
  - # 15
    frequency:    7.5704080278
  - # 16
    frequency:    8.4794495773
  - # 17
    frequency:   11.2654779081
  - # 18
    frequency:   12.3744629648
  - # 19
    frequency:   12.3781758891
  - # 20
    frequency:   13.8850086104
  - # 21
    frequency:   13.8852748960
  - # 22
    frequency:   17.5204739951
  - # 23
    frequency:   17.5211497452
  - # 24
    frequency:   32.1687082953
  - # 25
    frequency:   38.4773739926
  - # 26
    frequency:   67.9554400587
  - # 27
    frequency:   68.9966864196

- q-position: [    0.0151515,    0.0000000,    0.0000000 ]
  distance:    0.0049312
  band:
  - # 1
    frequency:   -1.7950393203
  - # 2
    frequency:   -1.7890103251
  - # 3
    frequency:   -1.0618511840
  - # 4
    frequency:   -1.0594203888
  - # 5
    frequency:    0.0093859164
  - # 6
    frequency:    0.3950606537
  - # 7
    frequency:    0.4422390409
  - # 8
    frequency:    3.7860372798
  - # 9
    frequency:    3.7911241714
  - # 10
    frequency:    4.8976621281
  - # 11
    frequency:    6.3511334265
  - # 12
    frequency:    6.3551556410
  - # 13
    frequency:    6.6633591303
  - # 14
    frequency:    6.6693009660
  - # 15
    frequency:    7.5679754694
  - # 16
    frequency:    8.4751002169
  - # 17
    frequency:   11.2648265593
  - # 18
    frequency:   12.3684940447
  - # 19
    frequency:   12.3768428744
  - # 20
    frequency:   13.8849599418
  - # 21
    frequency:   13.8855605543
  - # 22
    frequency:   17.5206256502
  - # 23
    frequency:   17.5221444190
  - # 24
    frequency:   32.1660138145
  - # 25
    frequency:   38.4773627212
  - # 26
    frequency:   67.9540378302
  - # 27
    frequency:   68.9907734974

- q-position: [    0.0202020,    0.0000000,    0.0000000 ]
  distance:    0.0065750
  band:
  - # 1
    frequency:   -1.7968094747
  - # 2
    frequency:   -1.7863064887
  - # 3
    frequency:   -1.0885848045
  - # 4
    frequency:   -1.0855781797
  - # 5
    frequency:    0.0167087828
  - # 6
    frequency:    0.5115707439
  - # 7
    frequency:    0.5727337404
  - # 8
    frequency:    3.7826136474
  - # 9
    frequency:    3.7916139737
  - # 10
    frequency:    4.8954736105
  - # 11
    frequency:    6.3490379955
  - # 12
    frequency:    6.3561055218
  - # 13
    frequency:    6.6604551880
  - # 14
    frequency:    6.6709322154
  - # 15
    frequency:    7.5645768549
  - # 16
    frequency:    8.4690253189
  - # 17
    frequency:   11.2639139079
  - # 18
    frequency:   12.3601406895
  - # 19
    frequency:   12.3749698539
  - # 20
    frequency:   13.8848929897
  - # 21
    frequency:   13.8859643313
  - # 22
    frequency:   17.5208373736
  - # 23
    frequency:   17.5235332595
  - # 24
    frequency:   32.1622511802
  - # 25
    frequency:   38.4773468742
  - # 26
    frequency:   67.9520793485
  - # 27
    frequency:   68.9825137772

- q-position: [    0.0252525,    0.0000000,    0.0000000 ]
  distance:    0.0082187
  band:
  - # 1
    frequency:   -1.7989660595
  - # 2
    frequency:   -1.7829834030
  - # 3
    frequency:   -1.1155230599
  - # 4
    frequency:   -1.1122176376
  - # 5
    frequency:    0.0261378532
  - # 6
    frequency:    0.6201689222
  - # 7
    frequency:    0.6948647277
  - # 8
    frequency:    3.7782672867
  - # 9
    frequency:    3.7922435062
  - # 10
    frequency:    4.8926788196
  - # 11
    frequency:    6.3463732722
  - # 12
    frequency:    6.3572453926
  - # 13
    frequency:    6.6568016947
  - # 14
    frequency:    6.6729952362
  - # 15
    frequency:    7.5602194402
  - # 16
    frequency:    8.4612390542
  - # 17
    frequency:   11.2627390875
  - # 18
    frequency:   12.3494063537
  - # 19
    frequency:   12.3725500512
  - # 20
    frequency:   13.8848089333
  - # 21
    frequency:   13.8864899179
  - # 22
    frequency:   17.5211085800
  - # 23
    frequency:   17.5253125852
  - # 24
    frequency:   32.1574299959
  - # 25
    frequency:   38.4773263845
  - # 26
    frequency:   67.9495692316
  - # 27
    frequency:   68.9719255650

- q-position: [    0.0303030,    0.0000000,    0.0000000 ]
  distance:    0.0098625
  band:
  - # 1
    frequency:   -1.8014249589
  - # 2
    frequency:   -1.7791531523
  - # 3
    frequency:   -1.1411217020
  - # 4
    frequency:   -1.1374508803
  - # 5
    frequency:    0.0376824761
  - # 6
    frequency:    0.7218448914
  - # 7
    frequency:    0.8098368594
  - # 8
    frequency:    3.7730397638
  - # 9
    frequency:    3.7930120497
  - # 10
    frequency:    4.8892918280
  - # 11
    frequency:    6.3431594799
  - # 12
    frequency:    6.3585054670
  - # 13
    frequency:    6.6524669556
  - # 14
    frequency:    6.6754662701
  - # 15
    frequency:    7.5549129578
  - # 16
    frequency:    8.4517595932
  - # 17
    frequency:   11.2613008316
  - # 18
    frequency:   12.3362959361
  - # 19
    frequency:   12.3695747883
  - # 20
    frequency:   13.8847092823
  - # 21
    frequency:   13.8871418322
  - # 22
    frequency:   17.5214385284
  - # 23
    frequency:   17.5274776932
  - # 24
    frequency:   32.1515625577
  - # 25
    frequency:   38.4773011653
  - # 26
    frequency:   67.9465133893
  - # 27
    frequency:   68.9590323050

- q-position: [    0.0353535,    0.0000000,    0.0000000 ]
  distance:    0.0115062
  band:
  - # 1
    frequency:   -1.8040893864
  - # 2
    frequency:   -1.7749468781
  - # 3
    frequency:   -1.1645866657
  - # 4
    frequency:   -1.1600286495
  - # 5
    frequency:    0.0513529626
  - # 6
    frequency:    0.8176287981
  - # 7
    frequency:    0.9187754246
  - # 8
    frequency:    3.7669818523
  - # 9
    frequency:    3.7939181250
  - # 10
    frequency:    4.8853296230
  - # 11
    frequency:    6.3394195453
  - # 12
    frequency:    6.3597904901
  - # 13
    frequency:    6.6475438524
  - # 14
    frequency:    6.6783182192
  - # 15
    frequency:    7.5486699069
  - # 16
    frequency:    8.4406090707
  - # 17
    frequency:   11.2595973524
  - # 18
    frequency:   12.3208161207
  - # 19
    frequency:   12.3660335113
  - # 20
    frequency:   13.8845958705
  - # 21
    frequency:   13.8879252629
  - # 22
    frequency:   17.5218263309
  - # 23
    frequency:   17.5300228818
  - # 24
    frequency:   32.1446638169
  - # 25
    frequency:   38.4772711105
  - # 26
    frequency:   67.9429190012
  - # 27
    frequency:   68.9438625101

- q-position: [    0.0404040,    0.0000000,    0.0000000 ]
  distance:    0.0131499
  band:
  - # 1
    frequency:   -1.8068533634
  - # 2
    frequency:   -1.7705076609
  - # 3
    frequency:   -1.1855709468
  - # 4
    frequency:   -1.1791072764
  - # 5
    frequency:    0.0671601001
  - # 6
    frequency:    0.9084341776
  - # 7
    frequency:    1.0226032076
  - # 8
    frequency:    3.7601535072
  - # 9
    frequency:    3.7949591601
  - # 10
    frequency:    4.8808119768
  - # 11
    frequency:    6.3351783113
  - # 12
    frequency:    6.3609736198
  - # 13
    frequency:    6.6421556697
  - # 14
    frequency:    6.6815215187
  - # 15
    frequency:    7.5415058921
  - # 16
    frequency:    8.4278135465
  - # 17
    frequency:   11.2576261816
  - # 18
    frequency:   12.3029757922
  - # 19
    frequency:   12.3619138242
  - # 20
    frequency:   13.8844708497
  - # 21
    frequency:   13.8888458907
  - # 22
    frequency:   17.5222709620
  - # 23
    frequency:   17.5329414765
  - # 24
    frequency:   32.1367513335
  - # 25
    frequency:   38.4772360942
  - # 26
    frequency:   67.9387944921
  - # 27
    frequency:   68.9264496787

- q-position: [    0.0454545,    0.0000000,    0.0000000 ]
  distance:    0.0147937
  band:
  - # 1
    frequency:   -1.8096054949
  - # 2
    frequency:   -1.7659793641
  - # 3
    frequency:   -1.2039813749
  - # 4
    frequency:   -1.1940908305
  - # 5
    frequency:    0.0851147314
  - # 6
    frequency:    0.9950230577
  - # 7
    frequency:    1.1220377284
  - # 8
    frequency:    3.7526238273
  - # 9
    frequency:    3.7961311204
  - # 10
    frequency:    4.8757612921
  - # 11
    frequency:    6.3304617964
  - # 12
    frequency:    6.3618895446
  - # 13
    frequency:    6.6364626731
  - # 14
    frequency:    6.6850449722
  - # 15
    frequency:    7.5334400038
  - # 16
    frequency:    8.4134029609
  - # 17
    frequency:   11.2553839687
  - # 18
    frequency:   12.2827865279
  - # 19
    frequency:   12.3572015291
  - # 20
    frequency:   13.8843366795
  - # 21
    frequency:   13.8899096963
  - # 22
    frequency:   17.5227712698
  - # 23
    frequency:   17.5362258610
  - # 24
    frequency:   32.1278452217
  - # 25
    frequency:   38.4771959708
  - # 26
    frequency:   67.9341495015
  - # 27
    frequency:   68.9068321955

- q-position: [    0.0505051,    0.0000000,    0.0000000 ]
  distance:    0.0164374
  band:
  - # 1
    frequency:   -1.8122327671
  - # 2
    frequency:   -1.7614912234
  - # 3
    frequency:   -1.2198647009
  - # 4
    frequency:   -1.2045402604
  - # 5
    frequency:    0.1052274613
  - # 6
    frequency:    1.0780159289
  - # 7
    frequency:    1.2176231531
  - # 8
    frequency:    3.7444709976
  - # 9
    frequency:    3.7974281130
  - # 10
    frequency:    4.8702024242
  - # 11
    frequency:    6.3252965425
  - # 12
    frequency:    6.3623277809
  - # 13
    frequency:    6.6306685110
  - # 14
    frequency:    6.6888565096
  - # 15
    frequency:    7.5244952303
  - # 16
    frequency:    8.3974110892
  - # 17
    frequency:   11.2528662246
  - # 18
    frequency:   12.2602631714
  - # 19
    frequency:   12.3518806735
  - # 20
    frequency:   13.8841961170
  - # 21
    frequency:   13.8911227610
  - # 22
    frequency:   17.5233259879
  - # 23
    frequency:   17.5398675117
  - # 24
    frequency:   32.1179680873
  - # 25
    frequency:   38.4771505749
  - # 26
    frequency:   67.9289948499
  - # 27
    frequency:   68.8850532191

- q-position: [    0.0555556,    0.0000000,    0.0000000 ]
  distance:    0.0180812
  band:
  - # 1
    frequency:   -1.8146240869
  - # 2
    frequency:   -1.7571392691
  - # 3
    frequency:   -1.2333416698
  - # 4
    frequency:   -1.2101274630
  - # 5
    frequency:    0.1275085588
  - # 6
    frequency:    1.1579138015
  - # 7
    frequency:    1.3097661035
  - # 8
    frequency:    3.7357822044
  - # 9
    frequency:    3.7988419730
  - # 10
    frequency:    4.8641624783
  - # 11
    frequency:    6.3197090711
  - # 12
    frequency:    6.3620280633
  - # 13
    frequency:    6.6250245470
  - # 14
    frequency:    6.6929238443
  - # 15
    frequency:    7.5146988914
  - # 16
    frequency:    8.3798754953
  - # 17
    frequency:   11.2500669966
  - # 18
    frequency:   12.2354244969
  - # 19
    frequency:   12.3459336073
  - # 20
    frequency:   13.8840522024
  - # 21
    frequency:   13.8924910679
  - # 22
    frequency:   17.5239337479
  - # 23
    frequency:   17.5438570350
  - # 24
    frequency:   32.1071449574
  - # 25
    frequency:   38.4770997216
  - # 26
    frequency:   67.9233425008
  - # 27
    frequency:   68.8611605545

- q-position: [    0.0606061,    0.0000000,    0.0000000 ]
  distance:    0.0197249
  band:
  - # 1
    frequency:   -1.8166733267
  - # 2
    frequency:   -1.7529673255
  - # 3
    frequency:   -1.2445687486
  - # 4
    frequency:   -1.2106151662
  - # 5
    frequency:    0.1519681143
  - # 6
    frequency:    1.2351203976
  - # 7
    frequency:    1.3987663960
  - # 8
    frequency:    3.7266535102
  - # 9
    frequency:    3.8003618437
  - # 10
    frequency:    4.8576705844
  - # 11
    frequency:    6.3137254570
  - # 12
    frequency:    6.3606810194
  - # 13
    frequency:    6.6198289497
  - # 14
    frequency:    6.6972150184
  - # 15
    frequency:    7.5040830821
  - # 16
    frequency:    8.3608374875
  - # 17
    frequency:   11.2469784565
  - # 18
    frequency:   12.2082939774
  - # 19
    frequency:   12.3393410469
  - # 20
    frequency:   13.8839082430
  - # 21
    frequency:   13.8940203098
  - # 22
    frequency:   17.5245930923
  - # 23
    frequency:   17.5481842077
  - # 24
    frequency:   32.0954032016
  - # 25
    frequency:   38.4770432064
  - # 26
    frequency:   67.9172055184
  - # 27
    frequency:   68.8352065127

- q-position: [    0.0656566,    0.0000000,    0.0000000 ]
  distance:    0.0213687
  band:
  - # 1
    frequency:   -1.8182817198
  - # 2
    frequency:   -1.7489516134
  - # 3
    frequency:   -1.2537157710
  - # 4
    frequency:   -1.2058481673
  - # 5
    frequency:    0.1786165099
  - # 6
    frequency:    1.3099609173
  - # 7
    frequency:    1.4848412917
  - # 8
    frequency:    3.7171896733
  - # 9
    frequency:    3.8019737610
  - # 10
    frequency:    4.8507576507
  - # 11
    frequency:    6.3073710157
  - # 12
    frequency:    6.3579383468
  - # 13
    frequency:    6.6154163394
  - # 14
    frequency:    6.7016988405
  - # 15
    frequency:    7.4926851160
  - # 16
    frequency:    8.3403420788
  - # 17
    frequency:   11.2435903723
  - # 18
    frequency:   12.1789006816
  - # 19
    frequency:   12.3320821490
  - # 20
    frequency:   13.8837677940
  - # 21
    frequency:   13.8957157107
  - # 22
    frequency:   17.5253024872
  - # 23
    frequency:   17.5528380206
  - # 24
    frequency:   32.0827724469
  - # 25
    frequency:   38.4769808059
  - # 26
    frequency:   67.9105980217
  - # 27
    frequency:   68.8072477562

- q-position: [    0.0707071,    0.0000000,    0.0000000 ]
  distance:    0.0230124
  band:
  - # 1
    frequency:   -1.8193595486
  - # 2
    frequency:   -1.7449929249
  - # 3
    frequency:   -1.2609529188
  - # 4
    frequency:   -1.1957457095
  - # 5
    frequency:    0.2074652441
  - # 6
    frequency:    1.3826968765
  - # 7
    frequency:    1.5681440780
  - # 8
    frequency:    3.7075038904
  - # 9
    frequency:    3.8036602489
  - # 10
    frequency:    4.8434560971
  - # 11
    frequency:    6.3006700956
  - # 12
    frequency:    6.3534361432
  - # 13
    frequency:    6.6121343616
  - # 14
    frequency:    6.7063452214
  - # 15
    frequency:    7.4805479550
  - # 16
    frequency:    8.3184379541
  - # 17
    frequency:   11.2398894261
  - # 18
    frequency:   12.1472803328
  - # 19
    frequency:   12.3241345946
  - # 20
    frequency:   13.8836346357
  - # 21
    frequency:   13.8975818647
  - # 22
    frequency:   17.5260603345
  - # 23
    frequency:   17.5578067227
  - # 24
    frequency:   32.0692844834
  - # 25
    frequency:   38.4769122782
  - # 26
    frequency:   67.9035351357
  - # 27
    frequency:   68.7773451323

- q-position: [    0.0757576,    0.0000000,    0.0000000 ]
  distance:    0.0246561
  band:
  - # 1
    frequency:   -1.8198271480
  - # 2
    frequency:   -1.7409185204
  - # 3
    frequency:   -1.2664433193
  - # 4
    frequency:   -1.1802891507
  - # 5
    frequency:    0.2385281329
  - # 6
    frequency:    1.4535374808
  - # 7
    frequency:    1.6487782334
  - # 8
    frequency:    3.6977174349
  - # 9
    frequency:    3.8053999389
  - # 10
    frequency:    4.8357995703
  - # 11
    frequency:    6.2936459600
  - # 12
    frequency:    6.3468312178
  - # 13
    frequency:    6.6103073723
  - # 14
    frequency:    6.7111254240
  - # 15
    frequency:    7.4677206148
  - # 16
    frequency:    8.2951774489
  - # 17
    frequency:   11.2358583232
  - # 18
    frequency:   12.1134765816
  - # 19
    frequency:   12.3154746822
  - # 20
    frequency:   13.8835127485
  - # 21
    frequency:   13.8996225976
  - # 22
    frequency:   17.5268649847
  - # 23
    frequency:   17.5630778685
  - # 24
    frequency:   32.0549731646
  - # 25
    frequency:   38.4768373638
  - # 26
    frequency:   67.8960329384
  - # 27
    frequency:   68.7455634937

- q-position: [    0.0808081,    0.0000000,    0.0000000 ]
  distance:    0.0262999
  band:
  - # 1
    frequency:   -1.8196153160
  - # 2
    frequency:   -1.7364929913
  - # 3
    frequency:   -1.2703390960
  - # 4
    frequency:   -1.1595034382
  - # 5
    frequency:    0.2718228718
  - # 6
    frequency:    1.5226482000
  - # 7
    frequency:    1.7268083109
  - # 8
    frequency:    3.6879591574
  - # 9
    frequency:    3.8071672181
  - # 10
    frequency:    4.8278226431
  - # 11
    frequency:    6.2863207457
  - # 12
    frequency:    6.3378432038
  - # 13
    frequency:    6.6101944307
  - # 14
    frequency:    6.7160122381
  - # 15
    frequency:    7.4542585345
  - # 16
    frequency:    8.2706165436
  - # 17
    frequency:   11.2314746152
  - # 18
    frequency:   12.0775425657
  - # 19
    frequency:   12.3060774311
  - # 20
    frequency:   13.8834062836
  - # 21
    frequency:   13.9018408532
  - # 22
    frequency:   17.5277147471
  - # 23
    frequency:   17.5686383659
  - # 24
    frequency:   32.0398742993
  - # 25
    frequency:   38.4767557865
  - # 26
    frequency:   67.8881084046
  - # 27
    frequency:   68.7119715072

- q-position: [    0.0858586,    0.0000000,    0.0000000 ]
  distance:    0.0279436
  band:
  - # 1
    frequency:   -1.8186652516
  - # 2
    frequency:   -1.7314348141
  - # 3
    frequency:   -1.2727795678
  - # 4
    frequency:   -1.1334342013
  - # 5
    frequency:    0.3073728863
  - # 6
    frequency:    1.5901571528
  - # 7
    frequency:    1.8022684489
  - # 8
    frequency:    3.6783648057
  - # 9
    frequency:    3.8089319183
  - # 10
    frequency:    4.8195604980
  - # 11
    frequency:    6.2787154835
  - # 12
    frequency:    6.3262891064
  - # 13
    frequency:    6.6119549780
  - # 14
    frequency:    6.7209800953
  - # 15
    frequency:    7.4402238989
  - # 16
    frequency:    8.2448148783
  - # 17
    frequency:   11.2267091281
  - # 18
    frequency:   12.0395428645
  - # 19
    frequency:   12.2959166956
  - # 20
    frequency:   13.8833195307
  - # 21
    frequency:   13.9042386065
  - # 22
    frequency:   17.5286078998
  - # 23
    frequency:   17.5744745253
  - # 24
    frequency:   32.0240255379
  - # 25
    frequency:   38.4766672549
  - # 26
    frequency:   67.8797793480
  - # 27
    frequency:   68.6766414517

- q-position: [    0.0909091,    0.0000000,    0.0000000 ]
  distance:    0.0295874
  band:
  - # 1
    frequency:   -1.8169281521
  - # 2
    frequency:   -1.7254343815
  - # 3
    frequency:   -1.2738907831
  - # 4
    frequency:   -1.1021235541
  - # 5
    frequency:    0.3452092996
  - # 6
    frequency:    1.6561597949
  - # 7
    frequency:    1.8751692032
  - # 8
    frequency:    3.6690761127
  - # 9
    frequency:    3.8106590530
  - # 10
    frequency:    4.8110485970
  - # 11
    frequency:    6.2708501692
  - # 12
    frequency:    6.3120977458
  - # 13
    frequency:    6.6156347488
  - # 14
    frequency:    6.7260051343
  - # 15
    frequency:    7.4256859031
  - # 16
    frequency:    8.2178357954
  - # 17
    frequency:   11.2215238371
  - # 18
    frequency:   11.9995560026
  - # 19
    frequency:   12.2849652898
  - # 20
    frequency:   13.8832568831
  - # 21
    frequency:   13.9068168043
  - # 22
    frequency:   17.5295426990
  - # 23
    frequency:   17.5805721094
  - # 24
    frequency:   32.0074662521
  - # 25
    frequency:   38.4765714638
  - # 26
    frequency:   67.8710643587
  - # 27
    frequency:   68.6396490053

- q-position: [    0.0959596,    0.0000000,    0.0000000 ]
  distance:    0.0312311
  band:
  - # 1
    frequency:   -1.8143645947
  - # 2
    frequency:   -1.7181700222
  - # 3
    frequency:   -1.2737858588
  - # 4
    frequency:   -1.0655869486
  - # 5
    frequency:    0.3853726917
  - # 6
    frequency:    1.7207222867
  - # 7
    frequency:    1.9455032290
  - # 8
    frequency:    3.6602395950
  - # 9
    frequency:    3.8123086160
  - # 10
    frequency:    4.8023223370
  - # 11
    frequency:    6.2627438747
  - # 12
    frequency:    6.2953007631
  - # 13
    frequency:    6.6211752543
  - # 14
    frequency:    6.7310652277
  - # 15
    frequency:    7.4107209491
  - # 16
    frequency:    8.1897464190
  - # 17
    frequency:   11.2158689650
  - # 18
    frequency:   11.9576777269
  - # 19
    frequency:   12.2731951215
  - # 20
    frequency:   13.8832227990
  - # 21
    frequency:   13.9095753338
  - # 22
    frequency:   17.5305173849
  - # 23
    frequency:   17.5869163835
  - # 24
    frequency:   31.9902374080
  - # 25
    frequency:   38.4764680958
  - # 26
    frequency:   67.8619827395
  - # 27
    frequency:   68.6010730224

- q-position: [    0.1010101,    0.0000000,    0.0000000 ]
  distance:    0.0328748
  band:
  - # 1
    frequency:   -1.8109438033
  - # 2
    frequency:   -1.7093201223
  - # 3
    frequency:   -1.2725657825
  - # 4
    frequency:   -1.0237913704
  - # 5
    frequency:    0.4279140842
  - # 6
    frequency:    1.7838838201
  - # 7
    frequency:    2.0132502153
  - # 8
    frequency:    3.6520049953
  - # 9
    frequency:    3.8138354525
  - # 10
    frequency:    4.7934166902
  - # 11
    frequency:    6.2544148912
  - # 12
    frequency:    6.2760076555
  - # 13
    frequency:    6.6284393719
  - # 14
    frequency:    6.7361399752
  - # 15
    frequency:    7.3954127635
  - # 16
    frequency:    8.1606177819
  - # 17
    frequency:   11.2096789768
  - # 18
    frequency:   11.9140253765
  - # 19
    frequency:   12.2605773375
  - # 20
    frequency:   13.8832217604
  - # 21
    frequency:   13.9125130159
  - # 22
    frequency:   17.5315301882
  - # 23
    frequency:   17.5934921658
  - # 24
    frequency:   31.9723814345
  - # 25
    frequency:   38.4763568239
  - # 26
    frequency:   67.8525544389
  - # 27
    frequency:   68.5609953027

- q-position: [    0.1060606,    0.0000000,    0.0000000 ]
  distance:    0.0345186
  band:
  - # 1
    frequency:   -1.8066428818
  - # 2
    frequency:   -1.6985710097
  - # 3
    frequency:   -1.2703204494
  - # 4
    frequency:   -0.9766324965
  - # 5
    frequency:    0.4728942381
  - # 6
    frequency:    1.8456581060
  - # 7
    frequency:    2.0783813866
  - # 8
    frequency:    3.6445233027
  - # 9
    frequency:    3.8151892249
  - # 10
    frequency:    4.7843658274
  - # 11
    frequency:    6.2458808982
  - # 12
    frequency:    6.2543767674
  - # 13
    frequency:    6.6372411110
  - # 14
    frequency:    6.7412106721
  - # 15
    frequency:    7.3798524256
  - # 16
    frequency:    8.1305250130
  - # 17
    frequency:   11.2028670107
  - # 18
    frequency:   11.8687438106
  - # 19
    frequency:   12.2470824774
  - # 20
    frequency:   13.8832582299
  - # 21
    frequency:   13.9156276246
  - # 22
    frequency:   17.5325793331
  - # 23
    frequency:   17.6002838779
  - # 24
    frequency:   31.9539420862
  - # 25
    frequency:   38.4762373136
  - # 26
    frequency:   67.8427999823
  - # 27
    frequency:   68.5195003514

- q-position: [    0.1111111,    0.0000000,    0.0000000 ]
  distance:    0.0361623
  band:
  - # 1
    frequency:   -1.8014460696
  - # 2
    frequency:   -1.6856212558
  - # 3
    frequency:   -1.2671297856
  - # 4
    frequency:   -0.9239050394
  - # 5
    frequency:    0.5203799146
  - # 6
    frequency:    1.9060341691
  - # 7
    frequency:    2.1408638112
  - # 8
    frequency:    3.6379442862
  - # 9
    frequency:    3.8163144925
  - # 10
    frequency:    4.7752027199
  - # 11
    frequency:    6.2305912866
  - # 12
    frequency:    6.2371591544
  - # 13
    frequency:    6.6473705020
  - # 14
    frequency:    6.7462602541
  - # 15
    frequency:    7.3641382882
  - # 16
    frequency:    8.0995476041
  - # 17
    frequency:   11.1953170885
  - # 18
    frequency:   11.8220135419
  - # 19
    frequency:   12.2326806367
  - # 20
    frequency:   13.8833366056
  - # 21
    frequency:   13.9189159269
  - # 22
    frequency:   17.5336630393
  - # 23
    frequency:   17.6072755954
  - # 24
    frequency:   31.9349643010
  - # 25
    frequency:   38.4761092253
  - # 26
    frequency:   67.8327404001
  - # 27
    frequency:   68.4766751326

- q-position: [    0.1161616,    0.0000000,    0.0000000 ]
  distance:    0.0378061
  band:
  - # 1
    frequency:   -1.7953440550
  - # 2
    frequency:   -1.6701834440
  - # 3
    frequency:   -1.2630648645
  - # 4
    frequency:   -0.8652551079
  - # 5
    frequency:    0.5704353369
  - # 6
    frequency:    1.9649765478
  - # 7
    frequency:    2.2006646953
  - # 8
    frequency:    3.6324134995
  - # 9
    frequency:    3.8171509407
  - # 10
    frequency:    4.7659587187
  - # 11
    frequency:    6.2048437315
  - # 12
    frequency:    6.2282667041
  - # 13
    frequency:    6.6586101151
  - # 14
    frequency:    6.7512732243
  - # 15
    frequency:    7.3483757719
  - # 16
    frequency:    8.0677697774
  - # 17
    frequency:   11.1868732198
  - # 18
    frequency:   11.7740619626
  - # 19
    frequency:   12.2173416385
  - # 20
    frequency:   13.8834611749
  - # 21
    frequency:   13.9223737432
  - # 22
    frequency:   17.5347795224
  - # 23
    frequency:   17.6144510975
  - # 24
    frequency:   31.9154940545
  - # 25
    frequency:   38.4759722175
  - # 26
    frequency:   67.8223971531
  - # 27
    frequency:   68.4326088175

- q-position: [    0.1212121,    0.0000000,    0.0000000 ]
  distance:    0.0394498
  band:
  - # 1
    frequency:   -1.7883333669
  - # 2
    frequency:   -1.6519844519
  - # 3
    frequency:   -1.2581889589
  - # 4
    frequency:   -0.8000927515
  - # 5
    frequency:    0.6231070157
  - # 6
    frequency:    2.0224249677
  - # 7
    frequency:    2.2577557732
  - # 8
    frequency:    3.6280687407
  - # 9
    frequency:    3.8176337980
  - # 10
    frequency:    4.7566631022