nqpoint: 300    
npath: 3      
segment_nqpoint:
- 100
- 100
- 100
labels:
- [ 'G', 'M' ]
- [ 'M', 'K' ]
- [ 'K', 'G' ]
reciprocal_lattice:
- [   0.29402425,   0.16975498,   0.00000000 ] # a*
- [   0.00000000,   0.33950996,   0.00000000 ] # b*
- [   0.00000000,   0.00000000,   0.03865880 ] # c*
natom: 7      
lattice:
- [     3.401080060625555,     0.000000000000000,     0.000000000000000 ] # a
- [    -1.700540030312777,     2.945421732799916,     0.000000000000000 ] # b
- [     0.000000000000000,     0.000000000000000,    25.867334914307111 ] # c
points:
- symbol: C # 1
  coordinates: [  0.000000000000000,  0.000000000000000,  0.500000031453355 ]
  mass: 12.010700
- symbol: C # 2
  coordinates: [  0.333332985432215,  0.666666983183674,  0.605517811209227 ]
  mass: 12.010700
- symbol: C # 3
  coordinates: [  0.666666984744047,  0.333332985985145,  0.394482189256748 ]
  mass: 12.010700
- symbol: N # 4
  coordinates: [  0.333332985432215,  0.666666983183674,  0.652070844181859 ]
  mass: 14.006700
- symbol: N # 5
  coordinates: [  0.666666984744047,  0.333332985985145,  0.347929155818141 ]
  mass: 14.006700
- symbol: Zr # 6
  coordinates: [  0.333332985432215,  0.666666983183674,  0.451843336983986 ]
  mass: 91.224000
- symbol: Zr # 7
  coordinates: [  0.666666984744047,  0.333332985985145,  0.548156663016006 ]
  mass: 91.224000

phonon:
- q-position: [    0.0000000,    0.0000000,    0.0000000 ]
  distance:    0.0000000
  band:
  - # 1
    frequency:   -7.1378910932
  - # 2
    frequency:   -7.1378910932
  - # 3
    frequency:   -3.9938581262
  - # 4
    frequency:   -3.9938581262
  - # 5
    frequency:   -0.0000018000
  - # 6
    frequency:    0.0000007868
  - # 7
    frequency:    0.0000018212
  - # 8
    frequency:    4.1190032541
  - # 9
    frequency:    4.1190032541
  - # 10
    frequency:    4.7879625604
  - # 11
    frequency:    4.7879625604
  - # 12
    frequency:    5.7222383842
  - # 13
    frequency:    6.2294649809
  - # 14
    frequency:    6.2294649809
  - # 15
    frequency:    6.8827125420
  - # 16
    frequency:    8.5100810422
  - # 17
    frequency:   14.5173857633
  - # 18
    frequency:   14.5173857633
  - # 19
    frequency:   16.2729054004
  - # 20
    frequency:   60.6760192334
  - # 21
    frequency:   60.9172220770

- q-position: [    0.0050505,    0.0000000,    0.0000000 ]
  distance:    0.0017147
  band:
  - # 1
    frequency:   -7.1320604243
  - # 2
    frequency:   -7.1310365041
  - # 3
    frequency:   -3.9895334619
  - # 4
    frequency:   -3.9891427065
  - # 5
    frequency:   -0.0454143252
  - # 6
    frequency:    0.0876300903
  - # 7
    frequency:    0.1319503815
  - # 8
    frequency:    4.1207495210
  - # 9
    frequency:    4.1213157711
  - # 10
    frequency:    4.7889876729
  - # 11
    frequency:    4.7891073348
  - # 12
    frequency:    5.7240996425
  - # 13
    frequency:    6.2320606198
  - # 14
    frequency:    6.2321154612
  - # 15
    frequency:    6.8847555409
  - # 16
    frequency:    8.5100652088
  - # 17
    frequency:   14.5202155986
  - # 18
    frequency:   14.5203831647
  - # 19
    frequency:   16.2729717868
  - # 20
    frequency:   60.6762227112
  - # 21
    frequency:   60.9170836277

- q-position: [    0.0101010,    0.0000000,    0.0000000 ]
  distance:    0.0034294
  band:
  - # 1
    frequency:   -7.1145808589
  - # 2
    frequency:   -7.1104906446
  - # 3
    frequency:   -3.9766093006
  - # 4
    frequency:   -3.9750485631
  - # 5
    frequency:   -0.0904109263
  - # 6
    frequency:    0.1751891007
  - # 7
    frequency:    0.2639124324
  - # 8
    frequency:    4.1259924310
  - # 9
    frequency:    4.1282445003
  - # 10
    frequency:    4.7920620691
  - # 11
    frequency:    4.7925591011
  - # 12
    frequency:    5.7296296080
  - # 13
    frequency:    6.2398210570
  - # 14
    frequency:    6.2400465940
  - # 15
    frequency:    6.8909171516
  - # 16
    frequency:    8.5100166950
  - # 17
    frequency:   14.5286836938
  - # 18
    frequency:   14.5293595596
  - # 19
    frequency:   16.2731685912
  - # 20
    frequency:   60.6768315085
  - # 21
    frequency:   60.9166687751

- q-position: [    0.0151515,    0.0000000,    0.0000000 ]
  distance:    0.0051441
  band:
  - # 1
    frequency:   -7.0854900432
  - # 2
    frequency:   -7.0763077259
  - # 3
    frequency:   -3.9552342717
  - # 4
    frequency:   -3.9517314839
  - # 5
    frequency:   -0.1345722837
  - # 6
    frequency:    0.2626062014
  - # 7
    frequency:    0.3958933047
  - # 8
    frequency:    4.1347438714
  - # 9
    frequency:    4.1397618572
  - # 10
    frequency:    4.7971835001
  - # 11
    frequency:    4.7983716091
  - # 12
    frequency:    5.7386681192
  - # 13
    frequency:    6.2526693858
  - # 14
    frequency:    6.2531974234
  - # 15
    frequency:    6.9012920479
  - # 16
    frequency:    8.5099324752
  - # 17
    frequency:   14.5427259922
  - # 18
    frequency:   14.5442674228
  - # 19
    frequency:   16.2734887549
  - # 20
    frequency:   60.6778407305
  - # 21
    frequency:   60.9159790002

- q-position: [    0.0202020,    0.0000000,    0.0000000 ]
  distance:    0.0068588
  band:
  - # 1
    frequency:   -7.0448518007
  - # 2
    frequency:   -7.0285797420
  - # 3
    frequency:   -3.9256532131
  - # 4
    frequency:   -3.9194491862
  - # 5
    frequency:   -0.1774810108
  - # 6
    frequency:    0.3498110210
  - # 7
    frequency:    0.5278909348
  - # 8
    frequency:    4.1470221306
  - # 9
    frequency:    4.1558179969
  - # 10
    frequency:    4.8043501782
  - # 11
    frequency:    4.8066392690
  - # 12
    frequency:    5.7509525682
  - # 13
    frequency:    6.2704858528
  - # 14
    frequency:    6.2714662786
  - # 15
    frequency:    6.9160273348
  - # 16
    frequency:    8.5098075603
  - # 17
    frequency:   14.5622363161
  - # 18
    frequency:   14.5650272326
  - # 19
    frequency:   16.2739205326
  - # 20
    frequency:   60.6792422632
  - # 21
    frequency:   60.9150167585

- q-position: [    0.0252525,    0.0000000,    0.0000000 ]
  distance:    0.0085735
  band:
  - # 1
    frequency:   -6.9927577710
  - # 2
    frequency:   -6.9674389782
  - # 3
    frequency:   -3.8882028837
  - # 4
    frequency:   -3.8785581987
  - # 5
    frequency:   -0.2187192235
  - # 6
    frequency:    0.4367337734
  - # 7
    frequency:    0.6598890224
  - # 8
    frequency:    4.1628494104
  - # 9
    frequency:    4.1763345287
  - # 10
    frequency:    4.8135638820
  - # 11
    frequency:    4.8175047211
  - # 12
    frequency:    5.7661248023
  - # 13
    frequency:    6.2931202511
  - # 14
    frequency:    6.2947107407
  - # 15
    frequency:    6.9353062366
  - # 16
    frequency:    8.5096350776
  - # 17
    frequency:   14.5870672369
  - # 18
    frequency:   14.5915270399
  - # 19
    frequency:   16.2744475229
  - # 20
    frequency:   60.6810248393
  - # 21
    frequency:   60.9137854600

- q-position: [    0.0303030,    0.0000000,    0.0000000 ]
  distance:    0.0102882
  band:
  - # 1
    frequency:   -6.9293297427
  - # 2
    frequency:   -6.8930616124
  - # 3
    frequency:   -3.8433060242
  - # 4
    frequency:   -3.8295090644
  - # 5
    frequency:   -0.2578670575
  - # 6
    frequency:    0.5233052677
  - # 7
    frequency:    0.7918516228
  - # 8
    frequency:    4.1822479220
  - # 9
    frequency:    4.2011948093
  - # 10
    frequency:    4.8248346479
  - # 11
    frequency:    4.8311700381
  - # 12
    frequency:    5.7837416786
  - # 13
    frequency:    6.3204082346
  - # 14
    frequency:    6.3227477578
  - # 15
    frequency:    6.9593251905
  - # 16
    frequency:    8.5094063800
  - # 17
    frequency:   14.6170312825
  - # 18
    frequency:   14.6236219372
  - # 19
    frequency:   16.2750487127
  - # 20
    frequency:   60.6831741299
  - # 21
    frequency:   60.9122894424

- q-position: [    0.0353535,    0.0000000,    0.0000000 ]
  distance:    0.0120029
  band:
  - # 1
    frequency:   -6.8547227141
  - # 2
    frequency:   -6.8056724854
  - # 3
    frequency:   -3.7914638475
  - # 4
    frequency:   -3.7728394781
  - # 5
    frequency:   -0.2945000012
  - # 6
    frequency:    0.6094567716
  - # 7
    frequency:    0.9237174144
  - # 8
    frequency:    4.2052340901
  - # 9
    frequency:    4.2302300841
  - # 10
    frequency:    4.8381874346
  - # 11
    frequency:    4.8479120039
  - # 12
    frequency:    5.8032902078
  - # 13
    frequency:    6.3521894644
  - # 14
    frequency:    6.3553540530
  - # 15
    frequency:    6.9882653122
  - # 16
    frequency:    8.5091111865
  - # 17
    frequency:   14.6519024726
  - # 18
    frequency:   14.6611334996
  - # 19
    frequency:   16.2756985403
  - # 20
    frequency:   60.6856728608
  - # 21
    frequency:   60.9105339362

- q-position: [    0.0404040,    0.0000000,    0.0000000 ]
  distance:    0.0137176
  band:
  - # 1
    frequency:   -6.7691287228
  - # 2
    frequency:   -6.7055511204
  - # 3
    frequency:   -3.7332470802
  - # 4
    frequency:   -3.7091649383
  - # 5
    frequency:   -0.3281846429
  - # 6
    frequency:    0.6951197094
  - # 7
    frequency:    1.0553938668
  - # 8
    frequency:    4.2318101931
  - # 9
    frequency:    4.2632009473
  - # 10
    frequency:    4.8536713128
  - # 11
    frequency:    4.8681016333
  - # 12
    frequency:    5.8242082471
  - # 13
    frequency:    6.3883240799
  - # 14
    frequency:    6.3922669883
  - # 15
    frequency:    7.0222605966
  - # 16
    frequency:    8.5087377498
  - # 17
    frequency:   14.6914181702
  - # 18
    frequency:   14.7038492800
  - # 19
    frequency:   16.2763669780
  - # 20
    frequency:   60.6885009540
  - # 21
    frequency:   60.9085250230

- q-position: [    0.0454545,    0.0000000,    0.0000000 ]
  distance:    0.0154323
  band:
  - # 1
    frequency:   -6.6727814795
  - # 2
    frequency:   -6.5930390514
  - # 3
    frequency:   -3.6692857259
  - # 4
    frequency:   -3.6391665462
  - # 5
    frequency:   -0.3584722857
  - # 6
    frequency:    0.7802251875
  - # 7
    frequency:    1.1867517398
  - # 8
    frequency:    4.2619525250
  - # 9
    frequency:    4.2997744207
  - # 10
    frequency:    4.8713719247
  - # 11
    frequency:    4.8922271985
  - # 12
    frequency:    5.8459111733
  - # 13
    frequency:    6.4287030422
  - # 14
    frequency:    6.4331860472
  - # 15
    frequency:    7.0613667065
  - # 16
    frequency:    8.5082730511
  - # 17
    frequency:   14.7352812352
  - # 18
    frequency:   14.7515224519
  - # 19
    frequency:   16.2770196397
  - # 20
    frequency:   60.6916356915
  - # 21
    frequency:   60.9062695875

- q-position: [    0.0505051,    0.0000000,    0.0000000 ]
  distance:    0.0171470
  band:
  - # 1
    frequency:   -6.5659618304
  - # 2
    frequency:   -6.4685484700
  - # 3
    frequency:   -3.6002577777
  - # 4
    frequency:   -3.5635757438
  - # 5
    frequency:   -0.3848896245
  - # 6
    frequency:    0.8647033600
  - # 7
    frequency:    1.3176205481
  - # 8
    frequency:    4.2955949255
  - # 9
    frequency:    4.3394989295
  - # 10
    frequency:    4.8914281477
  - # 11
    frequency:    4.9209179745
  - # 12
    frequency:    5.8678236411
  - # 13
    frequency:    6.4732483511
  - # 14
    frequency:    6.4777750801
  - # 15
    frequency:    7.1055351103
  - # 16
    frequency:    8.5077030219
  - # 17
    frequency:   14.7831624654
  - # 18
    frequency:   14.8038716983
  - # 19
    frequency:   16.2776179176
  - # 20
    frequency:   60.6950519021
  - # 21
    frequency:   60.9037752621

- q-position: [    0.0555556,    0.0000000,    0.0000000 ]
  distance:    0.0188617
  band:
  - # 1
    frequency:   -6.4490040402
  - # 2
    frequency:   -6.3325721017
  - # 3
    frequency:   -3.5268771610
  - # 4
    frequency:   -3.4831560784
  - # 5
    frequency:   -0.4069252110
  - # 6
    frequency:    0.9484826659
  - # 7
    frequency:    1.4477857945
  - # 8
    frequency:    4.3326063829
  - # 9
    frequency:    4.3817831296
  - # 10
    frequency:    4.9140539753
  - # 11
    frequency:    4.9549621716
  - # 12
    frequency:    5.8894136043
  - # 13
    frequency:    6.5219014745
  - # 14
    frequency:    6.5256654142
  - # 15
    frequency:    7.1545969769
  - # 16
    frequency:    8.5070127909
  - # 17
    frequency:   14.8347033078
  - # 18
    frequency:   14.8605814424
  - # 19
    frequency:   16.2781191520
  - # 20
    frequency:   60.6987221691
  - # 21
    frequency:   60.9010503666

- q-position: [    0.0606061,    0.0000000,    0.0000000 ]
  distance:    0.0205764
  band:
  - # 1
    frequency:   -6.3223028293
  - # 2
    frequency:   -6.1856940599
  - # 3
    frequency:   -3.4498812345
  - # 4
    frequency:   -3.3986825020
  - # 5
    frequency:   -0.4240095672
  - # 6
    frequency:    1.0314889963
  - # 7
    frequency:    1.5769888305
  - # 8
    frequency:    4.3727616401
  - # 9
    frequency:    4.4258897909
  - # 10
    frequency:    4.9395663388
  - # 11
    frequency:    4.9953072121
  - # 12
    frequency:    5.9102239469
  - # 13
    frequency:    6.5746020029
  - # 14
    frequency:    6.5764598698
  - # 15
    frequency:    7.2082594424
  - # 16
    frequency:    8.5061869570
  - # 17
    frequency:   14.8895188212
  - # 18
    frequency:   14.9213025071
  - # 19
    frequency:   16.2784768403
  - # 20
    frequency:   60.7026170565
  - # 21
    frequency:   60.8981038422

- q-position: [    0.0656566,    0.0000000,    0.0000000 ]
  distance:    0.0222911
  band:
  - # 1
    frequency:   -6.1863210098
  - # 2
    frequency:   -6.0286011799
  - # 3
    frequency:   -3.3700182154
  - # 4
    frequency:   -3.3109192129
  - # 5
    frequency:   -0.4354851853
  - # 6
    frequency:    1.1136448727
  - # 7
    frequency:    1.7049300902
  - # 8
    frequency:    4.4157048857
  - # 9
    frequency:    4.4709604138
  - # 10
    frequency:    4.9684183782
  - # 11
    frequency:    5.0430260130
  - # 12
    frequency:    5.9298964206
  - # 13
    frequency:    6.6297376535
  - # 14
    frequency:    6.6312619100
  - # 15
    frequency:    7.2661141910
  - # 16
    frequency:    8.5052098878
  - # 17
    frequency:   14.9472008683
  - # 18
    frequency:   14.9856532806
  - # 19
    frequency:   16.2786408905
  - # 20
    frequency:   60.7067053539
  - # 21
    frequency:   60.8949451802

- q-position: [    0.0707071,    0.0000000,    0.0000000 ]
  distance:    0.0240058
  band:
  - # 1
    frequency:   -6.0415974280
  - # 2
    frequency:   -5.8620940064
  - # 3
    frequency:   -3.2880349114
  - # 4
    frequency:   -3.2205975214
  - # 5
    frequency:   -0.4405594015
  - # 6
    frequency:    1.1948687450
  - # 7
    frequency:    1.8312761049
  - # 8
    frequency:    4.4609096907
  - # 9
    frequency:    4.5160839653
  - # 10
    frequency:    5.0012345432
  - # 11
    frequency:    5.0992352679
  - # 12
    frequency:    5.9481838065
  - # 13
    frequency:    6.6850600196
  - # 14
    frequency:    6.6917421070
  - # 15
    frequency:    7.3276557876
  - # 16
    frequency:    8.5040660471
  - # 17
    frequency:   15.0073215129
  - # 18
    frequency:   15.0532214399
  - # 19
    frequency:   16.2785579257
  - # 20
    frequency:   60.7109543370
  - # 21
    frequency:   60.8915843478

- q-position: [    0.0757576,    0.0000000,    0.0000000 ]
  distance:    0.0257205
  band:
  - # 1
    frequency:   -5.8887547353
  - # 2
    frequency:   -5.6870961906
  - # 3
    frequency:   -3.2046651471
  - # 4
    frequency:   -3.1283955439
  - # 5
    frequency:   -0.4382261729
  - # 6
    frequency:    1.2750745290
  - # 7
    frequency:    1.9556701756
  - # 8
    frequency:    4.5076446022
  - # 9
    frequency:    4.5604071093
  - # 10
    frequency:    5.0388376490
  - # 11
    frequency:    5.1649678976
  - # 12
    frequency:    5.9649490272
  - # 13
    frequency:    6.7419765156
  - # 14
    frequency:    6.7558366127
  - # 15
    frequency:    7.3923057614
  - # 16
    frequency:    8.5027403519
  - # 17
    frequency:   15.0694365921
  - # 18
    frequency:   15.1235662652
  - # 19
    frequency:   16.2781716460
  - # 20
    frequency:   60.7153300409
  - # 21
    frequency:   60.8880317090

- q-position: [    0.0808081,    0.0000000,    0.0000000 ]
  distance:    0.0274351
  band:
  - # 1
    frequency:   -5.7285062781
  - # 2
    frequency:   -5.5046606136
  - # 3
    frequency:   -3.1206192484
  - # 4
    frequency:   -3.0349215636
  - # 5
    frequency:   -0.4271263792
  - # 6
    frequency:    1.3541715099
  - # 7
    frequency:    2.0777459390
  - # 8
    frequency:    4.5549633259
  - # 9
    frequency:    4.6032560686
  - # 10
    frequency:    5.0822485399
  - # 11
    frequency:    5.2410294127
  - # 12
    frequency:    5.9801530777
  - # 13
    frequency:    6.8000315728
  - # 14
    frequency:    6.8232665791
  - # 15
    frequency:    7.4594383470
  - # 16
    frequency:    8.5012185656
  - # 17
    frequency:   15.1330894299
  - # 18
    frequency:   15.1962215490
  - # 19
    frequency:   16.2774232568
  - # 20
    frequency:   60.7197975463
  - # 21
    frequency:   60.8842979445

- q-position: [    0.0858586,    0.0000000,    0.0000000 ]
  distance:    0.0291498
  band:
  - # 1
    frequency:   -5.5616611353
  - # 2
    frequency:   -5.3159701719
  - # 3
    frequency:   -3.0365749174
  - # 4
    frequency:   -2.9407025856
  - # 5
    frequency:   -0.4052724389
  - # 6
    frequency:    1.4320647212
  - # 7
    frequency:    2.1971424930
  - # 8
    frequency:    4.6017466333
  - # 9
    frequency:    4.6442221430
  - # 10
    frequency:    5.1326309720
  - # 11
    frequency:    5.3278866212
  - # 12
    frequency:    5.9938357870
  - # 13
    frequency:    6.8587711636
  - # 14
    frequency:    6.8936833285
  - # 15
    frequency:    7.5284047000
  - # 16
    frequency:    8.4994877327
  - # 17
    frequency:   15.1978146507
  - # 18
    frequency:   15.2706990772
  - # 19
    frequency:   16.2762519725
  - # 20
    frequency:   60.7243212728
  - # 21
    frequency:   60.8803939689

- q-position: [    0.0909091,    0.0000000,    0.0000000 ]
  distance:    0.0308645
  band:
  - # 1
    frequency:   -5.3891260805
  - # 2
    frequency:   -5.1223310103
  - # 3
    frequency:   -2.9531697704
  - # 4
    frequency:   -2.8461789908
  - # 5
    frequency:   -0.3694236474
  - # 6
    frequency:    1.5086558739
  - # 7
    frequency:    2.3135194047
  - # 8
    frequency:    4.6468171465
  - # 9
    frequency:    4.6831765057
  - # 10
    frequency:    5.1911605970
  - # 11
    frequency:    5.4256243161
  - # 12
    frequency:    6.0060939239
  - # 13
    frequency:    6.9177492394
  - # 14
    frequency:    6.9666777065
  - # 15
    frequency:    7.5985536980
  - # 16
    frequency:    8.4975366659
  - # 17
    frequency:   15.2631420446
  - # 18
    frequency:   15.3464926323
  - # 19
    frequency:   16.2745956099
  - # 20
    frequency:   60.7288652797
  - # 21
    frequency:   60.8763308488

- q-position: [    0.0959596,    0.0000000,    0.0000000 ]
  distance:    0.0325792
  band:
  - # 1
    frequency:   -5.2119030781
  - # 2
    frequency:   -4.9251562556
  - # 3
    frequency:   -2.8709957397
  - # 4
    frequency:   -2.7517053998
  - # 5
    frequency:   -0.3133208658
  - # 6
    frequency:    1.5838448535
  - # 7
    frequency:    2.4265699481
  - # 8
    frequency:    4.6891141611
  - # 9
    frequency:    4.7202185817
  - # 10
    frequency:    5.2588313848
  - # 11
    frequency:    5.5339678405
  - # 12
    frequency:    6.0170603861
  - # 13
    frequency:    6.9765336847
  - # 14
    frequency:    7.0417926703
  - # 15
    frequency:    7.6692486162
  - # 16
    frequency:    8.4953565009
  - # 17
    frequency:   15.3286004275
  - # 18
    frequency:   15.4230824457
  - # 19
    frequency:   16.2723912877
  - # 20
    frequency:   60.7333935676
  - # 21
    frequency:   60.8721197214

- q-position: [    0.1010101,    0.0000000,    0.0000000 ]
  distance:    0.0342939
  band:
  - # 1
    frequency:   -5.0310809357
  - # 2
    frequency:   -4.7259391678
  - # 3
    frequency:   -2.7905954452
  - # 4
    frequency:   -2.6575570937
  - # 5
    frequency:   -0.2200742509
  - # 6
    frequency:    1.6575317358
  - # 7
    frequency:    2.5360312925
  - # 8
    frequency:    4.7278651788
  - # 9
    frequency:    4.7555925222
  - # 10
    frequency:    5.3362639025
  - # 11
    frequency:    5.6523399395
  - # 12
    frequency:    6.0268870369
  - # 13
    frequency:    7.0347115630
  - # 14
    frequency:    7.1185365936
  - # 15
    frequency:    7.7398797887
  - # 16
    frequency:    8.4929413400
  - # 17
    frequency:   15.3937214263
  - # 18
    frequency:   15.4999400088
  - # 19
    frequency:   16.2695762584
  - # 20
    frequency:   60.7378703796
  - # 21
    frequency:   60.8677717176

- q-position: [    0.1060606,    0.0000000,    0.0000000 ]
  distance:    0.0360086
  band:
  - # 1
    frequency:   -4.8478200319
  - # 2
    frequency:   -4.5262161318
  - # 3
    frequency:   -2.7124605284
  - # 4
    frequency:   -2.5639407756
  - # 5
    frequency:    0.1165515852
  - # 6
    frequency:    1.7296192001
  - # 7
    frequency:    2.6416909844
  - # 8
    frequency:    4.7626732164
  - # 9
    frequency:    4.7896076531
  - # 10
    frequency:    5.4235981568
  - # 11
    frequency:    5.7799180662
  - # 12
    frequency:    6.0357339342
  - # 13
    frequency:    7.0918934947
  - # 14
    frequency:    7.1963956525
  - # 15
    frequency:    7.8098738050
  - # 16
    frequency:    8.4902890162
  - # 17
    frequency:   15.4580431056
  - # 18
    frequency:   15.5765331359
  - # 19
    frequency:   16.2660889106
  - # 20
    frequency:   60.7422604954
  - # 21
    frequency:   60.8632978911

- q-position: [    0.1111111,    0.0000000,    0.0000000 ]
  distance:    0.0377233
  band:
  - # 1
    frequency:   -4.6633297018
  - # 2
    frequency:   -4.3275218722
  - # 3
    frequency:   -2.6370318143
  - # 4
    frequency:   -2.4710082024
  - # 5
    frequency:    0.2977696236
  - # 6
    frequency:    1.8000151623
  - # 7
    frequency:    2.7433897335
  - # 8
    frequency:    4.7934873203
  - # 9
    frequency:    4.8225815204
  - # 10
    frequency:    5.5205059482
  - # 11
    frequency:    5.9156594796
  - # 12
    frequency:    6.0437827862
  - # 13
    frequency:    7.1477170741
  - # 14
    frequency:    7.2748444232
  - # 15
    frequency:    7.8786999531
  - # 16
    frequency:    8.4874020225
  - # 17
    frequency:   15.5211133283
  - # 18
    frequency:   15.6523311701
  - # 19
    frequency:   16.2618700008
  - # 20
    frequency:   60.7465295128
  - # 21
    frequency:   60.8587091587

- q-position: [    0.1161616,    0.0000000,    0.0000000 ]
  distance:    0.0394380
  band:
  - # 1
    frequency:   -4.4788388825
  - # 2
    frequency:   -4.1313412071
  - # 3
    frequency:   -2.5647010327
  - # 4
    frequency:   -2.3788712578
  - # 5
    frequency:    0.4213490447
  - # 6
    frequency:    1.8686354204
  - # 7
    frequency:    2.8410210593
  - # 8
    frequency:    4.8204951572
  - # 9
    frequency:    4.8548073764
  - # 10
    frequency:    5.6262865773
  - # 11
    frequency:    6.0491234311
  - # 12
    frequency:    6.0604457575
  - # 13
    frequency:    7.2018493064
  - # 14
    frequency:    7.3533543256
  - # 15
    frequency:    7.9458746147
  - # 16
    frequency:    8.4842886725
  - # 17
    frequency:   15.5824927070
  - # 18
    frequency:   15.7268102188
  - # 19
    frequency:   16.2568642102
  - # 20
    frequency:   60.7506441083
  - # 21
    frequency:   60.8540162576

- q-position: [    0.1212121,    0.0000000,    0.0000000 ]
  distance:    0.0411527
  band:
  - # 1
    frequency:   -4.2955618531
  - # 2
    frequency:   -3.9390629466
  - # 3
    frequency:   -2.4958137032
  - # 4
    frequency:   -2.2876173140
  - # 5
    frequency:    0.5299412857
  - # 6
    frequency:    1.9354061056
  - # 7
    frequency:    2.9345286543
  - # 8
    frequency:    4.8440035924
  - # 9
    frequency:    4.8865398941
  - # 10
    frequency:    5.7399825467
  - # 11
    frequency:    6.0574859568
  - # 12
    frequency:    6.2073804549
  - # 13
    frequency:    7.2539881068
  - # 14
    frequency:    7.4313998126
  - # 15
    frequency:    8.0109642384
  - # 16
    frequency:    8.4809645842
  - # 17
    frequency:   15.6417569441
  - # 18
    frequency:   15.7994583131
  - # 19
    frequency:   16.2510221798
  - # 20
    frequency:   60.7545722644
  - # 21
    frequency:   60.8492297302

- q-position: [    0.1262626,    0.0000000,    0.0000000 ]
  distance:    0.0428674
  band:
  - # 1
    frequency:   -4.1146620896
  - # 2
    frequency:   -3.7519416062
  - # 3
    frequency:   -2.4306726815
  - # 4
    frequency:   -2.1973241111
  - # 5
    frequency:    0.6317789691
  - # 6
    frequency:    2.0002657673
  - # 7
    frequency:    3.0239023712
  - # 8
    frequency:    4.8643498372
  - # 9
    frequency:    4.9179917936
  - # 10
    frequency:    5.8604744728
  - # 11
    frequency:    6.0637251441
  - # 12
    frequency:    6.3603382050
  - # 13
    frequency:    7.3038629595
  - # 14
    frequency:    7.5084622970
  - # 15
    frequency:    8.0735874175
  - # 16
    frequency:    8.4774546236
  - # 17
    frequency:   15.6984982521
  - # 18
    frequency:   15.8697803946
  - # 19
    frequency:   16.2443032872
  - # 20
    frequency:   60.7582834469
  - # 21
    frequency:   60.8443599516

- q-position: [    0.1313131,    0.0000000,    0.0000000 ]
  distance:    0.0445821
  band:
  - # 1
    frequency:   -3.9372180369
  - # 2
    frequency:   -3.5710712927
  - # 3
    frequency:   -2.3695417859
  - # 4
    frequency:   -2.1080737835
  - # 5
    frequency:    0.7300250884
  - # 6
    frequency:    2.0631669822
  - # 7
    frequency:    3.1091735963
  - # 8
    frequency:    4.8818519253
  - # 9
    frequency:    4.9493358673
  - # 10
    frequency:    5.9865469226
  - # 11
    frequency:    6.0695069504
  - # 12
    frequency:    6.5163165301
  - # 13
    frequency:    7.3512348789
  - # 14
    frequency:    7.5840318148
  - # 15
    frequency:    8.1334165072
  - # 16
    frequency:    8.4737955033
  - # 17
    frequency:   15.7523253606
  - # 18
    frequency:   15.9373030463
  - # 19
    frequency:   16.2366796151
  - # 20
    frequency:   60.7617487031
  - # 21
    frequency:   60.8394172254

- q-position: [    0.1363636,    0.0000000,    0.0000000 ]
  distance:    0.0462968
  band:
  - # 1
    frequency:   -3.7641947100
  - # 2
    frequency:   -3.3973737486
  - # 3
    frequency:   -2.3126488759
  - # 4
    frequency:   -2.0199659915
  - # 5
    frequency:    0.8261918813
  - # 6
    frequency:    2.1240774403
  - # 7
    frequency:    3.1904105303
  - # 8
    frequency:    4.8967889979
  - # 9
    frequency:    4.9807090340
  - # 10
    frequency:    6.0749144507
  - # 11
    frequency:    6.1169335652
  - # 12
    frequency:    6.6738704728
  - # 13
    frequency:    7.3958958449
  - # 14
    frequency:    7.6576063967
  - # 15
    frequency:    8.1901791284
  - # 16
    frequency:    8.4700393261
  - # 17
    frequency:   15.8028612657
  - # 18
    frequency:   16.0015789004
  - # 19
    frequency:   16.2281419175
  - # 20
    frequency:   60.7649406355
  - # 21
    frequency:   60.8344119928

- q-position: [    0.1414141,    0.0000000,    0.0000000 ]
  distance:    0.0480115
  band:
  - # 1
    frequency:   -3.5964243964
  - # 2
    frequency:   -3.2315998576
  - # 3
    frequency:   -2.2601877189
  - # 4
    frequency:   -1.9331303254
  - # 5
    frequency:    0.9210729654
  - # 6
    frequency:    2.1829805296
  - # 7
    frequency:    3.2677136573
  - # 8
    frequency:    4.9093987700
  - # 9
    frequency:    5.0122166569
  - # 10
    frequency:    6.0799890295
  - # 11
    frequency:    6.2503516357
  - # 12
    frequency:    6.8316100535
  - # 13
    frequency:    7.4376679221
  - # 14
    frequency:    7.7286891142
  - # 15
    frequency:    8.2436597691
  - # 16
    frequency:    8.4662585326
  - # 17
    frequency:   15.8497372161
  - # 18
    frequency:   16.0621906693
  - # 19
    frequency:   16.2187090520
  - # 20
    frequency:   60.7678331698
  - # 21
    frequency:   60.8293552346

- q-position: [    0.1464646,    0.0000000,    0.0000000 ]
  distance:    0.0497262
  band:
  - # 1
    frequency:   -3.4345985382
  - # 2
    frequency:   -3.0743417275
  - # 3
    frequency:   -2.2123179339
  - # 4
    frequency:   -1.8477382222
  - # 5
    frequency:    1.0150901865
  - # 6
    frequency:    2.2398754800
  - # 7
    frequency:    3.3412114902
  - # 8
    frequency:    4.9198828483
  - # 9
    frequency:    5.0439363393
  - # 10
    frequency:    6.0847494745
  - # 11
    frequency:    6.3855314226
  - # 12
    frequency:    6.9882136386
  - # 13
    frequency:    7.4764023111
  - # 14
    frequency:    7.7967828829
  - # 15
    frequency:    8.2937013118
  - # 16
    frequency:    8.4625531187
  - # 17
    frequency:   15.8925801647
  - # 18
    frequency:   16.1187547670
  - # 19
    frequency:   16.2084436185
  - # 20
    frequency:   60.7704009678
  - # 21
    frequency:   60.8242592123

- q-position: [    0.1515152,    0.0000000,    0.0000000 ]
  distance:    0.0514409
  band:
  - # 1
    frequency:   -3.2792715392
  - # 2
    frequency:   -2.9260513422
  - # 3
    frequency:   -2.1691621729
  - # 4
    frequency:   -1.7640145589
  - # 5
    frequency:    1.1084480171
  - # 6
    frequency:    2.2947771538
  - # 7
    frequency:    3.4110565689
  - # 8
    frequency:    4.9284145361
  - # 9
    frequency:    5.0759209476
  - # 10
    frequency:    6.0891961647
  - # 11
    frequency:    6.5212422351
  - # 12
    frequency:    7.1424465965
  - # 13
    frequency:    7.5119786600
  - # 14
    frequency:    7.8613835364
  - # 15
    frequency:    8.3402046626
  - # 16
    frequency:    8.4590625481
  - # 17
    frequency:   15.9309885245
  - # 18
    frequency:   16.1709244947
  - # 19
    frequency:   16.1974789400
  - # 20
    frequency:   60.7726181951
  - # 21
    frequency:   60.8191388377