nqpoint: 300    
npath: 3      
segment_nqpoint:
- 100
- 100
- 100
labels:
- [ 'G', 'M' ]
- [ 'M', 'K' ]
- [ 'K', 'G' ]
reciprocal_lattice:
- [   0.27311164,   0.15768108,   0.00000000 ] # a*
- [   0.00000000,   0.31536216,   0.00000000 ] # b*
- [   0.00000000,   0.00000000,   0.03403802 ] # c*
natom: 9      
lattice:
- [     3.661506327244207,     0.000000000000000,     0.000000000000000 ] # a
- [    -1.830753163622103,     3.170957495514026,     0.000000000000000 ] # b
- [     0.000000000000000,     0.000000000000000,    29.378911755224802 ] # c
points:
- symbol: C # 1
  coordinates: [  0.333332985432215,  0.666666983183674,  0.640619953479817 ]
  mass: 12.010700
- symbol: C # 2
  coordinates: [  0.666666984744047,  0.333332985985145,  0.346848811531319 ]
  mass: 12.010700
- symbol: N # 3
  coordinates: [  0.000000000000000,  0.000000000000000,  0.508667542175503 ]
  mass: 14.006700
- symbol: N # 4
  coordinates: [  0.333332985432215,  0.666666983183674,  0.598084630547920 ]
  mass: 14.006700
- symbol: N # 5
  coordinates: [  0.666666984744047,  0.333332985985145,  0.306342184318635 ]
  mass: 14.006700
- symbol: S # 6
  coordinates: [  0.333332985432215,  0.666666983183674,  0.693657815681365 ]
  mass: 32.065000
- symbol: S # 7
  coordinates: [  0.666666984744047,  0.333332985985145,  0.403974360319598 ]
  mass: 32.065000
- symbol: Y # 8
  coordinates: [  0.333332985432215,  0.666666983183674,  0.462964678099564 ]
  mass: 88.905850
- symbol: Y # 9
  coordinates: [  0.666666984744047,  0.333332985985145,  0.551921706908730 ]
  mass: 88.905850

phonon:
- q-position: [    0.0000000,    0.0000000,    0.0000000 ]
  distance:    0.0000000
  band:
  - # 1
    frequency:   -0.0000068497
  - # 2
    frequency:   -0.0000002568
  - # 3
    frequency:    0.0000056909
  - # 4
    frequency:    0.3960391389
  - # 5
    frequency:    0.3960391390
  - # 6
    frequency:    0.8797374385
  - # 7
    frequency:    0.8797374385
  - # 8
    frequency:    2.9022253955
  - # 9
    frequency:    2.9022253955
  - # 10
    frequency:    3.9037635642
  - # 11
    frequency:    5.6400841545
  - # 12
    frequency:    5.6400841545
  - # 13
    frequency:    6.0704532053
  - # 14
    frequency:    6.1234566187
  - # 15
    frequency:    6.1234566187
  - # 16
    frequency:    7.5047215954
  - # 17
    frequency:    9.4832372726
  - # 18
    frequency:    9.9121365978
  - # 19
    frequency:    9.9121365978
  - # 20
    frequency:   10.6593697934
  - # 21
    frequency:   10.6593697934
  - # 22
    frequency:   14.4531268888
  - # 23
    frequency:   14.4531268888
  - # 24
    frequency:   20.5058305141
  - # 25
    frequency:   26.8234144735
  - # 26
    frequency:   58.3394577170
  - # 27
    frequency:   65.1246526642

- q-position: [    0.0050505,    0.0000000,    0.0000000 ]
  distance:    0.0015927
  band:
  - # 1
    frequency:   -0.0489794736
  - # 2
    frequency:   -0.0283172523
  - # 3
    frequency:    0.0008170068
  - # 4
    frequency:    0.4010612386
  - # 5
    frequency:    0.4037836460
  - # 6
    frequency:    0.8811089375
  - # 7
    frequency:    0.8821972007
  - # 8
    frequency:    2.9022925313
  - # 9
    frequency:    2.9025775333
  - # 10
    frequency:    3.9039038111
  - # 11
    frequency:    5.6397571075
  - # 12
    frequency:    5.6399597556
  - # 13
    frequency:    6.0638797752
  - # 14
    frequency:    6.1235399940
  - # 15
    frequency:    6.1293283719
  - # 16
    frequency:    7.5043126841
  - # 17
    frequency:    9.4829059619
  - # 18
    frequency:    9.9123520990
  - # 19
    frequency:    9.9124314981
  - # 20
    frequency:   10.6580098075
  - # 21
    frequency:   10.6591679885
  - # 22
    frequency:   14.4532064124
  - # 23
    frequency:   14.4533377779
  - # 24
    frequency:   20.5057638785
  - # 25
    frequency:   26.8233504038
  - # 26
    frequency:   58.3384983435
  - # 27
    frequency:   65.1245902378

- q-position: [    0.0101010,    0.0000000,    0.0000000 ]
  distance:    0.0031855
  band:
  - # 1
    frequency:   -0.0913136095
  - # 2
    frequency:   -0.0528863673
  - # 3
    frequency:    0.0034037020
  - # 4
    frequency:    0.4151071660
  - # 5
    frequency:    0.4247617665
  - # 6
    frequency:    0.8852764217
  - # 7
    frequency:    0.8895053259
  - # 8
    frequency:    2.9024961219
  - # 9
    frequency:    2.9036350792
  - # 10
    frequency:    3.9043219026
  - # 11
    frequency:    5.6387775776
  - # 12
    frequency:    5.6395875766
  - # 13
    frequency:    6.0489272904
  - # 14
    frequency:    6.1237894898
  - # 15
    frequency:    6.1421735304
  - # 16
    frequency:    7.5030882511
  - # 17
    frequency:    9.4819120138
  - # 18
    frequency:    9.9129975978
  - # 19
    frequency:    9.9133146086
  - # 20
    frequency:   10.6539349931
  - # 21
    frequency:   10.6585618040
  - # 22
    frequency:   14.4534447989
  - # 23
    frequency:   14.4539698953
  - # 24
    frequency:   20.5055640296
  - # 25
    frequency:   26.8231583503
  - # 26
    frequency:   58.3356220431
  - # 27
    frequency:   65.1244030415

- q-position: [    0.0151515,    0.0000000,    0.0000000 ]
  distance:    0.0047782
  band:
  - # 1
    frequency:   -0.1236651411
  - # 2
    frequency:   -0.0711093237
  - # 3
    frequency:    0.0081746898
  - # 4
    frequency:    0.4357842149
  - # 5
    frequency:    0.4545577148
  - # 6
    frequency:    0.8923946588
  - # 7
    frequency:    0.9014573121
  - # 8
    frequency:    2.9028426868
  - # 9
    frequency:    2.9054012293
  - # 10
    frequency:    3.9050099623
  - # 11
    frequency:    5.6371501243
  - # 12
    frequency:    5.6389706639
  - # 13
    frequency:    6.0305249478
  - # 14
    frequency:    6.1242032188
  - # 15
    frequency:    6.1570563243
  - # 16
    frequency:    7.5010551722
  - # 17
    frequency:    9.4802552768
  - # 18
    frequency:    9.9140700678
  - # 19
    frequency:    9.9147811694
  - # 20
    frequency:   10.6471608834
  - # 21
    frequency:   10.6575489359
  - # 22
    frequency:   14.4538414963
  - # 23
    frequency:   14.4550215906
  - # 24
    frequency:   20.5052311407
  - # 25
    frequency:   26.8228387792
  - # 26
    frequency:   58.3308342709
  - # 27
    frequency:   65.1240913239

- q-position: [    0.0202020,    0.0000000,    0.0000000 ]
  distance:    0.0063710
  band:
  - # 1
    frequency:   -0.1453201750
  - # 2
    frequency:   -0.0815559686
  - # 3
    frequency:    0.0158850948
  - # 4
    frequency:    0.4604858521
  - # 5
    frequency:    0.4896011346
  - # 6
    frequency:    0.9027056769
  - # 7
    frequency:    0.9177400890
  - # 8
    frequency:    2.9033429897
  - # 9
    frequency:    2.9078806465
  - # 10
    frequency:    3.9059550941
  - # 11
    frequency:    5.6348814215
  - # 12
    frequency:    5.6381140734
  - # 13
    frequency:    6.0104267528
  - # 14
    frequency:    6.1247780491
  - # 15
    frequency:    6.1722128572
  - # 16
    frequency:    7.4982248157
  - # 17
    frequency:    9.4779351530
  - # 18
    frequency:    9.9155644255
  - # 19
    frequency:    9.9168232832
  - # 20
    frequency:   10.6377137156
  - # 21
    frequency:   10.6561255619
  - # 22
    frequency:   14.4543955848
  - # 23
    frequency:   14.4564901132
  - # 24
    frequency:   20.5047655015
  - # 25
    frequency:   26.8223924644
  - # 26
    frequency:   58.3241441021
  - # 27
    frequency:   65.1236554985

- q-position: [    0.0252525,    0.0000000,    0.0000000 ]
  distance:    0.0079637
  band:
  - # 1
    frequency:   -0.1564689977
  - # 2
    frequency:   -0.0831597971
  - # 3
    frequency:    0.0277958213
  - # 4
    frequency:    0.4870223877
  - # 5
    frequency:    0.5277610211
  - # 6
    frequency:    0.9165090099
  - # 7
    frequency:    0.9379668830
  - # 8
    frequency:    2.9040118865
  - # 9
    frequency:    2.9110784943
  - # 10
    frequency:    3.9071397174
  - # 11
    frequency:    5.6319788176
  - # 12
    frequency:    5.6370248379
  - # 13
    frequency:    5.9892472179
  - # 14
    frequency:    6.1255096241
  - # 15
    frequency:    6.1870170591
  - # 16
    frequency:    7.4946129045
  - # 17
    frequency:    9.4749500822
  - # 18
    frequency:    9.9174734606
  - # 19
    frequency:    9.9194299681
  - # 20
    frequency:   10.6256309618
  - # 21
    frequency:   10.6542863691
  - # 22
    frequency:   14.4551057791
  - # 23
    frequency:   14.4583716122
  - # 24
    frequency:   20.5041675191
  - # 25
    frequency:   26.8218204840
  - # 26
    frequency:   58.3155642069
  - # 27
    frequency:   65.1230961434

- q-position: [    0.0303030,    0.0000000,    0.0000000 ]
  distance:    0.0095564
  band:
  - # 1
    frequency:   -0.1576087016
  - # 2
    frequency:   -0.0739051593
  - # 3
    frequency:    0.0460234235
  - # 4
    frequency:    0.5137352670
  - # 5
    frequency:    0.5678858909
  - # 6
    frequency:    0.9341120947
  - # 7
    frequency:    0.9617149824
  - # 8
    frequency:    2.9048681128
  - # 9
    frequency:    2.9149991461
  - # 10
    frequency:    3.9085420119
  - # 11
    frequency:    5.6284482071
  - # 12
    frequency:    5.6357119215
  - # 13
    frequency:    5.9672512179
  - # 14
    frequency:    6.1263923919
  - # 15
    frequency:    6.2011932621
  - # 16
    frequency:    7.4902393209
  - # 17
    frequency:    9.4712968215
  - # 18
    frequency:    9.9197877194
  - # 19
    frequency:    9.9225872293
  - # 20
    frequency:   10.6109620967
  - # 21
    frequency:   10.6520245929
  - # 22
    frequency:   14.4559704298
  - # 23
    frequency:   14.4606611384
  - # 24
    frequency:   20.5034377193
  - # 25
    frequency:   26.8211242144
  - # 26
    frequency:   58.3051108158
  - # 27
    frequency:   65.1224139998

- q-position: [    0.0353535,    0.0000000,    0.0000000 ]
  distance:    0.0111492
  band:
  - # 1
    frequency:   -0.1503652450
  - # 2
    frequency:   -0.0459550790
  - # 3
    frequency:    0.0738622746
  - # 4
    frequency:    0.5394393038
  - # 5
    frequency:    0.6093592168
  - # 6
    frequency:    0.9557625531
  - # 7
    frequency:    0.9885599790
  - # 8
    frequency:    2.9059340117
  - # 9
    frequency:    2.9196446208
  - # 10
    frequency:    3.9101364509
  - # 11
    frequency:    5.6242910798
  - # 12
    frequency:    5.6341861595
  - # 13
    frequency:    5.9445803692
  - # 14
    frequency:    6.1274196429
  - # 15
    frequency:    6.2145931728
  - # 16
    frequency:    7.4851278512
  - # 17
    frequency:    9.4669695230
  - # 18
    frequency:    9.9224953203
  - # 19
    frequency:    9.9262781479
  - # 20
    frequency:   10.5937696214
  - # 21
    frequency:   10.6493320683
  - # 22
    frequency:   14.4569875260
  - # 23
    frequency:   14.4633526468
  - # 24
    frequency:   20.5025767483
  - # 25
    frequency:   26.8203053234
  - # 26
    frequency:   58.2928036752
  - # 27
    frequency:   65.1216099708

- q-position: [    0.0404040,    0.0000000,    0.0000000 ]
  distance:    0.0127419
  band:
  - # 1
    frequency:   -0.1395427675
  - # 2
    frequency:    0.0563555650
  - # 3
    frequency:    0.1142485963
  - # 4
    frequency:    0.5633623231
  - # 5
    frequency:    0.6518379125
  - # 6
    frequency:    0.9815764236
  - # 7
    frequency:    1.0181023574
  - # 8
    frequency:    2.9072352038
  - # 9
    frequency:    2.9250128117
  - # 10
    frequency:    3.9118943969
  - # 11
    frequency:    5.6195005445
  - # 12
    frequency:    5.6324601846
  - # 13
    frequency:    5.9213290913
  - # 14
    frequency:    6.1285835581
  - # 15
    frequency:    6.2271242952
  - # 16
    frequency:    7.4793058698
  - # 17
    frequency:    9.4619586114
  - # 18
    frequency:    9.9255816709
  - # 19
    frequency:    9.9304829835
  - # 20
    frequency:   10.5741303814
  - # 21
    frequency:   10.6461992951
  - # 22
    frequency:   14.4581546991
  - # 23
    frequency:   14.4664390040
  - # 24
    frequency:   20.5015853743
  - # 25
    frequency:   26.8193657618
  - # 26
    frequency:   58.2786659928
  - # 27
    frequency:   65.1206851194

- q-position: [    0.0454545,    0.0000000,    0.0000000 ]
  distance:    0.0143346
  band:
  - # 1
    frequency:   -0.1315884194
  - # 2
    frequency:    0.1017620770
  - # 3
    frequency:    0.1651811340
  - # 4
    frequency:    0.5851013990
  - # 5
    frequency:    0.6951159598
  - # 6
    frequency:    1.0114872144
  - # 7
    frequency:    1.0499849519
  - # 8
    frequency:    2.9088002011
  - # 9
    frequency:    2.9310955740
  - # 10
    frequency:    3.9137847336
  - # 11
    frequency:    5.6140560282
  - # 12
    frequency:    5.6305483376
  - # 13
    frequency:    5.8975768194
  - # 14
    frequency:    6.1298752676
  - # 15
    frequency:    6.2387236439
  - # 16
    frequency:    7.4728039594
  - # 17
    frequency:    9.4562494606
  - # 18
    frequency:    9.9290290430
  - # 19
    frequency:    9.9351792867
  - # 20
    frequency:   10.5521372266
  - # 21
    frequency:   10.6426155183
  - # 22
    frequency:   14.4594692264
  - # 23
    frequency:   14.4699119984
  - # 24
    frequency:   20.5004644893
  - # 25
    frequency:   26.8183077537
  - # 26
    frequency:   58.2627243739
  - # 27
    frequency:   65.1196406669

- q-position: [    0.0505051,    0.0000000,    0.0000000 ]
  distance:    0.0159274
  band:
  - # 1
    frequency:   -0.1283455908
  - # 2
    frequency:    0.1390169494
  - # 3
    frequency:    0.2211494394
  - # 4
    frequency:    0.6045703820
  - # 5
    frequency:    0.7390559759
  - # 6
    frequency:    1.0452377278
  - # 7
    frequency:    1.0839018755
  - # 8
    frequency:    2.9106599662
  - # 9
    frequency:    2.9378767413
  - # 10
    frequency:    3.9157745057
  - # 11
    frequency:    5.6079162386
  - # 12
    frequency:    5.6284665641
  - # 13
    frequency:    5.8734062988
  - # 14
    frequency:    6.1312849190
  - # 15
    frequency:    6.2493472430
  - # 16
    frequency:    7.4656554671
  - # 17
    frequency:    9.4498208736
  - # 18
    frequency:    9.9328159420
  - # 19
    frequency:    9.9403420200
  - # 20
    frequency:   10.5279010825
  - # 21
    frequency:   10.6385688249
  - # 22
    frequency:   14.4609280364
  - # 23
    frequency:   14.4737623563
  - # 24
    frequency:   20.4992151112
  - # 25
    frequency:   26.8171337854
  - # 26
    frequency:   58.2450087489
  - # 27
    frequency:   65.1184779901

- q-position: [    0.0555556,    0.0000000,    0.0000000 ]
  distance:    0.0175201
  band:
  - # 1
    frequency:   -0.1280048043
  - # 2
    frequency:    0.1730591499
  - # 3
    frequency:    0.2788075364
  - # 4
    frequency:    0.6219251145
  - # 5
    frequency:    0.7835558432
  - # 6
    frequency:    1.0824171751
  - # 7
    frequency:    1.1196006615
  - # 8
    frequency:    2.9128474212
  - # 9
    frequency:    2.9453301302
  - # 10
    frequency:    3.9178295406
  - # 11
    frequency:    5.6010098771
  - # 12
    frequency:    5.6262322951
  - # 13
    frequency:    5.8489180137
  - # 14
    frequency:    6.1328017585
  - # 15
    frequency:    6.2589658861
  - # 16
    frequency:    7.4578959956
  - # 17
    frequency:    9.4426433679
  - # 18
    frequency:    9.9369161727
  - # 19
    frequency:    9.9459436782
  - # 20
    frequency:   10.5015535341
  - # 21
    frequency:   10.6340462604
  - # 22
    frequency:   14.4625277151
  - # 23
    frequency:   14.4779797644
  - # 24
    frequency:   20.4978383846
  - # 25
    frequency:   26.8158465940
  - # 26
    frequency:   58.2255522908
  - # 27
    frequency:   65.1171986188

- q-position: [    0.0606061,    0.0000000,    0.0000000 ]
  distance:    0.0191129
  band:
  - # 1
    frequency:   -0.1285916658
  - # 2
    frequency:    0.2050975834
  - # 3
    frequency:    0.3370091916
  - # 4
    frequency:    0.6374764132
  - # 5
    frequency:    0.8285332657
  - # 6
    frequency:    1.1225246109
  - # 7
    frequency:    1.1568796520
  - # 8
    frequency:    2.9153969102
  - # 9
    frequency:    2.9534175884
  - # 10
    frequency:    3.9199150275
  - # 11
    frequency:    5.5932236084
  - # 12
    frequency:    5.6238643122
  - # 13
    frequency:    5.8242447799
  - # 14
    frequency:    6.1344142218
  - # 15
    frequency:    6.2675636362
  - # 16
    frequency:    7.4495628322
  - # 17
    frequency:    9.4346772782
  - # 18
    frequency:    9.9412974512
  - # 19
    frequency:    9.9519544076
  - # 20
    frequency:   10.4732500713
  - # 21
    frequency:   10.6290339669
  - # 22
    frequency:   14.4642645127
  - # 23
    frequency:   14.4825528993
  - # 24
    frequency:   20.4963355825
  - # 25
    frequency:   26.8144491542
  - # 26
    frequency:   58.2043913246
  - # 27
    frequency:   65.1158042331

- q-position: [    0.0656566,    0.0000000,    0.0000000 ]
  distance:    0.0207056
  band:
  - # 1
    frequency:   -0.1286253725
  - # 2
    frequency:    0.2355680835
  - # 3
    frequency:    0.3953945601
  - # 4
    frequency:    0.6516107773
  - # 5
    frequency:    0.8739194115
  - # 6
    frequency:    1.1650329187
  - # 7
    frequency:    1.1955824386
  - # 8
    frequency:    2.9183436198
  - # 9
    frequency:    2.9620871266
  - # 10
    frequency:    3.9219960320
  - # 11
    frequency:    5.5843872475
  - # 12
    frequency:    5.6213825985
  - # 13
    frequency:    5.7995680273
  - # 14
    frequency:    6.1361100367
  - # 15
    frequency:    6.2751376015
  - # 16
    frequency:    7.4406943194
  - # 17
    frequency:    9.4258707015
  - # 18
    frequency:    9.9459193173
  - # 19
    frequency:    9.9583421138
  - # 20
    frequency:   10.4431742207
  - # 21
    frequency:   10.6235173472
  - # 22
    frequency:   14.4661343521
  - # 23
    frequency:   14.4874694648
  - # 24
    frequency:   20.4947081065
  - # 25
    frequency:   26.8129446647
  - # 26
    frequency:   58.1815652279
  - # 27
    frequency:   65.1142966599

- q-position: [    0.0707071,    0.0000000,    0.0000000 ]
  distance:    0.0222983
  band:
  - # 1
    frequency:   -0.1268541058
  - # 2
    frequency:    0.2646450439
  - # 3
    frequency:    0.4538043041
  - # 4
    frequency:    0.6647322309
  - # 5
    frequency:    0.9196570387
  - # 6
    frequency:    1.2094363241
  - # 7
    frequency:    1.2355907257
  - # 8
    frequency:    2.9217229667
  - # 9
    frequency:    2.9712711569
  - # 10
    frequency:    3.9240379287
  - # 11
    frequency:    5.5742576551
  - # 12
    frequency:    5.6188081739
  - # 13
    frequency:    5.7751349803
  - # 14
    frequency:    6.1378763373
  - # 15
    frequency:    6.2816983068
  - # 16
    frequency:    7.4313291732
  - # 17
    frequency:    9.4161573330
  - # 18
    frequency:    9.9507299448
  - # 19
    frequency:    9.9650725535
  - # 20
    frequency:   10.4115429265
  - # 21
    frequency:   10.6174812600
  - # 22
    frequency:   14.4681328385
  - # 23
    frequency:   14.4927162378
  - # 24
    frequency:   20.4929574868
  - # 25
    frequency:   26.8113365345
  - # 26
    frequency:   58.1571163233
  - # 27
    frequency:   65.1126778697

- q-position: [    0.0757576,    0.0000000,    0.0000000 ]
  distance:    0.0238911
  band:
  - # 1
    frequency:   -0.1219377455
  - # 2
    frequency:    0.2923923884
  - # 3
    frequency:    0.5121116564
  - # 4
    frequency:    0.6772271637
  - # 5
    frequency:    0.9657006613
  - # 6
    frequency:    1.2552773051
  - # 7
    frequency:    1.2768165401
  - # 8
    frequency:    2.9255699581
  - # 9
    frequency:    2.9808848491
  - # 10
    frequency:    3.9260067367
  - # 11
    frequency:    5.5625065531
  - # 12
    frequency:    5.6161629168
  - # 13
    frequency:    5.7512719060
  - # 14
    frequency:    6.1396997873
  - # 15
    frequency:    6.2872703042
  - # 16
    frequency:    7.4215057609
  - # 17
    frequency:    9.4054542825
  - # 18
    frequency:    9.9556611660
  - # 19
    frequency:    9.9721093997
  - # 20
    frequency:   10.3786137775
  - # 21
    frequency:   10.6109102505
  - # 22
    frequency:   14.4702552701
  - # 23
    frequency:   14.4982791221
  - # 24
    frequency:   20.4910853819
  - # 25
    frequency:   26.8096283677
  - # 26
    frequency:   58.1310897633
  - # 27
    frequency:   65.1109499726

- q-position: [    0.0808081,    0.0000000,    0.0000000 ]
  distance:    0.0254838
  band:
  - # 1
    frequency:   -0.1120308655
  - # 2
    frequency:    0.3188218672
  - # 3
    frequency:    0.5701787977
  - # 4
    frequency:    0.6894466934
  - # 5
    frequency:    1.0120174030
  - # 6
    frequency:    1.3021569154
  - # 7
    frequency:    1.3191943590
  - # 8
    frequency:    2.9299185372
  - # 9
    frequency:    2.9908245998
  - # 10
    frequency:    3.9278693458
  - # 11
    frequency:    5.5487240706
  - # 12
    frequency:    5.6134693731
  - # 13
    frequency:    5.7283818631
  - # 14
    frequency:    6.1415667129
  - # 15
    frequency:    6.2918928091
  - # 16
    frequency:    7.4112613497
  - # 17
    frequency:    9.3936600248
  - # 18
    frequency:    9.9606205299
  - # 19
    frequency:    9.9794142723
  - # 20
    frequency:   10.3446951112
  - # 21
    frequency:   10.6037888262
  - # 22
    frequency:   14.4724966504
  - # 23
    frequency:   14.5041432108
  - # 24
    frequency:   20.4890935762
  - # 25
    frequency:   26.8078239487
  - # 26
    frequency:   58.1035334069
  - # 27
    frequency:   65.1091152146

- q-position: [    0.0858586,    0.0000000,    0.0000000 ]
  distance:    0.0270765
  band:
  - # 1
    frequency:   -0.0937456061
  - # 2
    frequency:    0.3439209828
  - # 3
    frequency:    0.6278474825
  - # 4
    frequency:    0.7016993814
  - # 5
    frequency:    1.0585877227
  - # 6
    frequency:    1.3497347564
  - # 7
    frequency:    1.3626734752
  - # 8
    frequency:    2.9348009247
  - # 9
    frequency:    3.0009665965
  - # 10
    frequency:    3.9295936271
  - # 11
    frequency:    5.5324561791
  - # 12
    frequency:    5.6107505524
  - # 13
    frequency:    5.7069089723
  - # 14
    frequency:    6.1434632441
  - # 15
    frequency:    6.2956202083
  - # 16
    frequency:    7.4006313459
  - # 17
    frequency:    9.3806527258
  - # 18
    frequency:    9.9654783233
  - # 19
    frequency:    9.9869467201
  - # 20
    frequency:   10.3101608237
  - # 21
    frequency:   10.5961017862
  - # 22
    frequency:   14.4748517021
  - # 23
    frequency:   14.5102928563
  - # 24
    frequency:   20.4869839784
  - # 25
    frequency:   26.8059272273
  - # 26
    frequency:   58.0744976899
  - # 27
    frequency:   65.1071759730

- q-position: [    0.0909091,    0.0000000,    0.0000000 ]
  distance:    0.0286693
  band:
  - # 1
    frequency:   -0.0565703589
  - # 2
    frequency:    0.3676696935
  - # 3
    frequency:    0.6849392938
  - # 4
    frequency:    0.7142486248
  - # 5
    frequency:    1.1054054550
  - # 6
    frequency:    1.3977237858
  - # 7
    frequency:    1.4072107555
  - # 8
    frequency:    2.9402469708
  - # 9
    frequency:    3.0111654567
  - # 10
    frequency:    3.9311484211
  - # 11
    frequency:    5.5132882979
  - # 12
    frequency:    5.6080297153
  - # 13
    frequency:    5.6872570872
  - # 14
    frequency:    6.1453754627
  - # 15
    frequency:    6.2985223221
  - # 16
    frequency:    7.3896485408
  - # 17
    frequency:    9.3662893123
  - # 18
    frequency:    9.9700459293
  - # 19
    frequency:    9.9946641394
  - # 20
    frequency:   10.2754731373
  - # 21
    frequency:   10.5878346178
  - # 22
    frequency:   14.4773148817
  - # 23
    frequency:   14.5167117472
  - # 24
    frequency:   20.4847586172
  - # 25
    frequency:   26.8039423031
  - # 26
    frequency:   58.0440354879
  - # 27
    frequency:   65.1051347525

- q-position: [    0.0959596,    0.0000000,    0.0000000 ]
  distance:    0.0302620
  band:
  - # 1
    frequency:    0.0680102525
  - # 2
    frequency:    0.3900526311
  - # 3
    frequency:    0.7273113752
  - # 4
    frequency:    0.7412588988
  - # 5
    frequency:    1.1524767471
  - # 6
    frequency:    1.4458832810
  - # 7
    frequency:    1.4527638384
  - # 8
    frequency:    2.9462835327
  - # 9
    frequency:    3.0212529242
  - # 10
    frequency:    3.9325034027
  - # 11
    frequency:    5.4909554668
  - # 12
    frequency:    5.6053301514
  - # 13
    frequency:    5.6696826059
  - # 14
    frequency:    6.1472895539
  - # 15
    frequency:    6.3006843117
  - # 16
    frequency:    7.3783423884
  - # 17
    frequency:    9.3504057979
  - # 18
    frequency:    9.9740394467
  - # 19
    frequency:   10.0025216111
  - # 20
    frequency:   10.2412188860
  - # 21
    frequency:   10.5789739775
  - # 22
    frequency:   14.4798803967
  - # 23
    frequency:   14.5233829916
  - # 24
    frequency:   20.4824196374
  - # 25
    frequency:   26.8018734106
  - # 26
    frequency:   58.0122019734
  - # 27
    frequency:   65.1029941799

- q-position: [    0.1010101,    0.0000000,    0.0000000 ]
  distance:    0.0318548
  band:
  - # 1
    frequency:    0.1230093684
  - # 2
    frequency:    0.4110690566
  - # 3
    frequency:    0.7410568934
  - # 4
    frequency:    0.7965985973
  - # 5
    frequency:    1.1998176091
  - # 6
    frequency:    1.4940117288
  - # 7
    frequency:    1.4992847324
  - # 8
    frequency:    2.9529338954
  - # 9
    frequency:    3.0310366230
  - # 10
    frequency:    3.9336288243
  - # 11
    frequency:    5.4654196093
  - # 12
    frequency:    5.6026749518
  - # 13
    frequency:    5.6542210358
  - # 14
    frequency:    6.1491919622
  - # 15
    frequency:    6.3022061415
  - # 16
    frequency:    7.3667383357
  - # 17
    frequency:    9.3328195297
  - # 18
    frequency:    9.9770199226
  - # 19
    frequency:   10.0104716305
  - # 20
    frequency:   10.2081672871
  - # 21
    frequency:   10.5695082775
  - # 22
    frequency:   14.4825422231
  - # 23
    frequency:   14.5302892055
  - # 24
    frequency:   20.4799692942
  - # 25
    frequency:   26.7997249039
  - # 26
    frequency:   57.9790544668
  - # 27
    frequency:   65.1007569997

- q-position: [    0.1060606,    0.0000000,    0.0000000 ]
  distance:    0.0334475
  band:
  - # 1
    frequency:    0.1696709310
  - # 2
    frequency:    0.4307407895
  - # 3
    frequency:    0.7556056982
  - # 4
    frequency:    0.8507437151
  - # 5
    frequency:    1.2474499771
  - # 6
    frequency:    1.5419404176
  - # 7
    frequency:    1.5467137050
  - # 8
    frequency:    2.9602172531
  - # 9
    frequency:    3.0402989025
  - # 10
    frequency:    3.9344951430
  - # 11
    frequency:    5.4368630883
  - # 12
    frequency:    5.6000867774
  - # 13
    frequency:    5.6406982183
  - # 14
    frequency:    6.1510695470
  - # 15
    frequency:    6.3032015160
  - # 16
    frequency:    7.3548572281
  - # 17
    frequency:    9.3133341179
  - # 18
    frequency:    9.9783052957
  - # 19
    frequency:   10.0184637007
  - # 20
    frequency:   10.1773533249
  - # 21
    frequency:   10.5594284097
  - # 22
    frequency:   14.4852941248
  - # 23
    frequency:   14.5374126049
  - # 24
    frequency:   20.4774099464
  - # 25
    frequency:   26.7975012426
  - # 26
    frequency:   57.9446522820
  - # 27
    frequency:   65.0984260688

- q-position: [    0.1111111,    0.0000000,    0.0000000 ]
  distance:    0.0350402
  band:
  - # 1
    frequency:    0.2146884648
  - # 2
    frequency:    0.4491174769
  - # 3
    frequency:    0.7710296436
  - # 4
    frequency:    0.9034785217
  - # 5
    frequency:    1.2953964575
  - # 6
    frequency:    1.5895279694
  - # 7
    frequency:    1.5949732805
  - # 8
    frequency:    2.9681482712
  - # 9
    frequency:    3.0487958744
  - # 10
    frequency:    3.9350725455
  - # 11
    frequency:    5.4056131354
  - # 12
    frequency:    5.5975876268
  - # 13
    frequency:    5.6288117065
  - # 14
    frequency:    6.1529097362
  - # 15
    frequency:    6.3037962396
  - # 16
    frequency:    7.3427148118
  - # 17
    frequency:    9.2917477684
  - # 18
    frequency:    9.9768857464
  - # 19
    frequency:   10.0264437460
  - # 20
    frequency:   10.1501543092
  - # 21
    frequency:   10.5487286443
  - # 22
    frequency:   14.4881296745
  - # 23
    frequency:   14.5447351005
  - # 24
    frequency:   20.4747440495
  - # 25
    frequency:   26.7952069765
  - # 26
    frequency:   57.9090565678
  - # 27
    frequency:   65.0960043514

- q-position: [    0.1161616,    0.0000000,    0.0000000 ]
  distance:    0.0366330
  band:
  - # 1
    frequency:    0.2599130146
  - # 2
    frequency:    0.4662784544
  - # 3
    frequency:    0.7873541545
  - # 4
    frequency:    0.9545920859
  - # 5
    frequency:    1.3436742587
  - # 6
    frequency:    1.6366557847
  - # 7
    frequency:    1.6439621036
  - # 8
    frequency:    2.9767367450
  - # 9
    frequency:    3.0562568415
  - # 10
    frequency:    3.9353303888
  - # 11
    frequency:    5.3720563211
  - # 12
    frequency:    5.5951986055
  - # 13
    frequency:    5.6182231441
  - # 14
    frequency:    6.1547006757
  - # 15
    frequency:    6.3041259731
  - # 16
    frequency:    7.3303213509
  - # 17
    frequency:    9.2678654423
  - # 18
    frequency:    9.9714999401
  - # 19
    frequency:   10.0343532942
  - # 20
    frequency:   10.1282016735
  - # 21
    frequency:   10.5374077561
  - # 22
    frequency:   14.4910422755
  - # 23
    frequency:   14.5522383942
  - # 24
    frequency:   20.4719741468
  - # 25
    frequency:   26.7928467329
  - # 26
    frequency:   57.8723301436
  - # 27
    frequency:   65.0934949134

- q-position: [    0.1212121,    0.0000000,    0.0000000 ]
  distance:    0.0382257
  band:
  - # 1
    frequency:    0.3061182738
  - # 2
    frequency:    0.4823309019
  - # 3
    frequency:    0.8045631649
  - # 4
    frequency:    1.0038831004
  - # 5
    frequency:    1.3922891345
  - # 6
    frequency:    1.6832242756
  - # 7
    frequency:    1.6935483570
  - # 8
    frequency:    2.9859873743
  - # 9
    frequency:    3.0623844806
  - # 10
    frequency:    3.9352365937