nqpoint: 300    
npath: 3      
segment_nqpoint:
- 100
- 100
- 100
labels:
- [ 'G', 'M' ]
- [ 'M', 'K' ]
- [ 'K', 'G' ]
reciprocal_lattice:
- [   0.27358374,   0.15795365,   0.00000000 ] # a*
- [   0.00000000,   0.31590730,   0.00000000 ] # b*
- [   0.00000000,   0.00000000,   0.04228696 ] # c*
natom: 5      
lattice:
- [     3.655187939022909,     0.000000000000000,     0.000000000000000 ] # a
- [    -1.827593969511455,     3.165485610818497,     0.000000000000000 ] # b
- [     0.000000000000000,     0.000000000000000,    23.647950284004096 ] # c
points:
- symbol: C # 1
  coordinates: [  0.000000000000000,  0.000000000000000,  0.513227359548608 ]
  mass: 12.010700
- symbol: Cl # 2
  coordinates: [  0.666666984744048,  0.333332985985145,  0.380582667500268 ]
  mass: 35.453000
- symbol: F # 3
  coordinates: [  0.333332985432215,  0.666666983183674,  0.619417332499732 ]
  mass: 18.998403
- symbol: Y # 4
  coordinates: [  0.333332985432215,  0.666666983183674,  0.456020829108932 ]
  mass: 88.905850
- symbol: Y # 5
  coordinates: [  0.666666984744048,  0.333332985985145,  0.571186476960753 ]
  mass: 88.905850

phonon:
- q-position: [    0.0000000,    0.0000000,    0.0000000 ]
  distance:    0.0000000
  band:
  - # 1
    frequency:   -0.0000172188
  - # 2
    frequency:   -0.0000000389
  - # 3
    frequency:    0.0000220017
  - # 4
    frequency:    3.3709150965
  - # 5
    frequency:    3.3709150966
  - # 6
    frequency:    4.6307837030
  - # 7
    frequency:    4.6307837031
  - # 8
    frequency:    5.3764984217
  - # 9
    frequency:    5.8206056620
  - # 10
    frequency:    5.8206056620
  - # 11
    frequency:    8.3313020488
  - # 12
    frequency:    9.7912224886
  - # 13
    frequency:    9.9682937062
  - # 14
    frequency:    9.9682937064
  - # 15
    frequency:   16.6820505070

- q-position: [    0.0050505,    0.0000000,    0.0000000 ]
  distance:    0.0015955
  band:
  - # 1
    frequency:    0.0013969772
  - # 2
    frequency:    0.0575279342
  - # 3
    frequency:    0.0975689268
  - # 4
    frequency:    3.3708393257
  - # 5
    frequency:    3.3718750904
  - # 6
    frequency:    4.6307719700
  - # 7
    frequency:    4.6318649199
  - # 8
    frequency:    5.3766713643
  - # 9
    frequency:    5.8205033253
  - # 10
    frequency:    5.8235714200
  - # 11
    frequency:    8.3308595372
  - # 12
    frequency:    9.7857803099
  - # 13
    frequency:    9.9680450632
  - # 14
    frequency:    9.9777759695
  - # 15
    frequency:   16.6809109019

- q-position: [    0.0101010,    0.0000000,    0.0000000 ]
  distance:    0.0031910
  band:
  - # 1
    frequency:    0.0055825515
  - # 2
    frequency:    0.1150259601
  - # 3
    frequency:    0.1951224486
  - # 4
    frequency:    3.3706125851
  - # 5
    frequency:    3.3747473013
  - # 6
    frequency:    4.6307370174
  - # 7
    frequency:    4.6350565487
  - # 8
    frequency:    5.3771922875
  - # 9
    frequency:    5.8201970828
  - # 10
    frequency:    5.8324136054
  - # 11
    frequency:    8.3295324585
  - # 12
    frequency:    9.7719036050
  - # 13
    frequency:    9.9672999022
  - # 14
    frequency:   10.0037862522
  - # 15
    frequency:   16.6774938660

- q-position: [    0.0151515,    0.0000000,    0.0000000 ]
  distance:    0.0047865
  band:
  - # 1
    frequency:    0.0125406527
  - # 2
    frequency:    0.1724642247
  - # 3
    frequency:    0.2926448363
  - # 4
    frequency:    3.3702365890
  - # 5
    frequency:    3.3795088496
  - # 6
    frequency:    4.6306795838
  - # 7
    frequency:    4.6402084119
  - # 8
    frequency:    5.3780670977
  - # 9
    frequency:    5.8196892330
  - # 10
    frequency:    5.8469665772
  - # 11
    frequency:    8.3273221839
  - # 12
    frequency:    9.7537330414
  - # 13
    frequency:    9.9660605260
  - # 14
    frequency:   10.0422220526
  - # 15
    frequency:   16.6718047373

- q-position: [    0.0202020,    0.0000000,    0.0000000 ]
  distance:    0.0063820
  band:
  - # 1
    frequency:    0.0222447705
  - # 2
    frequency:    0.2298129944
  - # 3
    frequency:    0.3901197094
  - # 4
    frequency:    3.3697141858
  - # 5
    frequency:    3.3861229760
  - # 6
    frequency:    4.6306008953
  - # 7
    frequency:    4.6470887575
  - # 8
    frequency:    5.3793045047
  - # 9
    frequency:    5.8189835950
  - # 10
    frequency:    5.8669536113
  - # 11
    frequency:    8.3242310069
  - # 12
    frequency:    9.7339132019
  - # 13
    frequency:    9.9643307646
  - # 14
    frequency:   10.0904964552
  - # 15
    frequency:   16.6638524118

- q-position: [    0.0252525,    0.0000000,    0.0000000 ]
  distance:    0.0079775
  band:
  - # 1
    frequency:    0.0346583353
  - # 2
    frequency:    0.2870427114
  - # 3
    frequency:    0.4875297354
  - # 4
    frequency:    3.3690493466
  - # 5
    frequency:    3.3945408913
  - # 6
    frequency:    4.6305026587
  - # 7
    frequency:    4.6554085522
  - # 8
    frequency:    5.3809147150
  - # 9
    frequency:    5.8180854896
  - # 10
    frequency:    5.8919878342
  - # 11
    frequency:    8.3202621534
  - # 12
    frequency:    9.7136284526
  - # 13
    frequency:    9.9621159633
  - # 14
    frequency:   10.1474936398
  - # 15
    frequency:   16.6536493421

- q-position: [    0.0303030,    0.0000000,    0.0000000 ]
  distance:    0.0095729
  band:
  - # 1
    frequency:    0.0497352576
  - # 2
    frequency:    0.3441240536
  - # 3
    frequency:    0.5848563479
  - # 4
    frequency:    3.3682471481
  - # 5
    frequency:    3.4047039986
  - # 6
    frequency:    4.6303870522
  - # 7
    frequency:    4.6648493300
  - # 8
    frequency:    5.3829081790
  - # 9
    frequency:    5.8170017140
  - # 10
    frequency:    5.9215767947
  - # 11
    frequency:    8.3154197927
  - # 12
    frequency:    9.6932974138
  - # 13
    frequency:    9.9594229660
  - # 14
    frequency:   10.2128629462
  - # 15
    frequency:   16.6412115383

- q-position: [    0.0353535,    0.0000000,    0.0000000 ]
  distance:    0.0111684
  band:
  - # 1
    frequency:    0.0674206059
  - # 2
    frequency:    0.4010279948
  - # 3
    frequency:    0.6820794881
  - # 4
    frequency:    3.3673137517
  - # 5
    frequency:    3.4165462385
  - # 6
    frequency:    4.6302567127
  - # 7
    frequency:    4.6750902439
  - # 8
    frequency:    5.3852946335
  - # 9
    frequency:    5.8157405085
  - # 10
    frequency:    5.9551326866
  - # 11
    frequency:    8.3097090459
  - # 12
    frequency:    9.6729944307
  - # 13
    frequency:    9.9562600936
  - # 14
    frequency:   10.2865837550
  - # 15
    frequency:   16.6265585696

- q-position: [    0.0404040,    0.0000000,    0.0000000 ]
  distance:    0.0127639
  band:
  - # 1
    frequency:    0.0876514078
  - # 2
    frequency:    0.4577258656
  - # 3
    frequency:    0.7791773708
  - # 4
    frequency:    3.3662563789
  - # 5
    frequency:    3.4299963423
  - # 6
    frequency:    4.6301147215
  - # 7
    frequency:    4.6858307289
  - # 8
    frequency:    5.3880825131
  - # 9
    frequency:    5.8143115166
  - # 10
    frequency:    5.9919893419
  - # 11
    frequency:    8.3031359889
  - # 12
    frequency:    9.6526500369
  - # 13
    frequency:    9.9526371174
  - # 14
    frequency:   10.3687500680
  - # 15
    frequency:   16.6097135707

- q-position: [    0.0454545,    0.0000000,    0.0000000 ]
  distance:    0.0143594
  band:
  - # 1
    frequency:    0.1103575479
  - # 2
    frequency:    0.5141894149
  - # 3
    frequency:    0.8761262719
  - # 4
    frequency:    3.3650832821
  - # 5
    frequency:    3.4449798532
  - # 6
    frequency:    4.6299645869
  - # 7
    frequency:    4.6968065927
  - # 8
    frequency:    5.3912786806
  - # 9
    frequency:    5.8127257372
  - # 10
    frequency:    6.0314257305
  - # 11
    frequency:    8.2957076484
  - # 12
    frequency:    9.6321430450
  - # 13
    frequency:    9.9485652274
  - # 14
    frequency:   10.4594632279
  - # 15
    frequency:   16.5907032540

- q-position: [    0.0505051,    0.0000000,    0.0000000 ]
  distance:    0.0159549
  band:
  - # 1
    frequency:    0.1354627337
  - # 2
    frequency:    0.5703908727
  - # 3
    frequency:    0.9729003337
  - # 4
    frequency:    3.3638037134
  - # 5
    frequency:    3.4614208410
  - # 6
    frequency:    4.6298102250
  - # 7
    frequency:    4.7077989338
  - # 8
    frequency:    5.3948883656
  - # 9
    frequency:    5.8109954698
  - # 10
    frequency:    6.0726942604
  - # 11
    frequency:    8.2874319898
  - # 12
    frequency:    9.6113428660
  - # 13
    frequency:    9.9440569948
  - # 14
    frequency:   10.5587753744
  - # 15
    frequency:   16.5695579311

- q-position: [    0.0555556,    0.0000000,    0.0000000 ]
  distance:    0.0175504
  band:
  - # 1
    frequency:    0.1628854942
  - # 2
    frequency:    0.6263030130
  - # 3
    frequency:    1.0694713862
  - # 4
    frequency:    3.3624278903
  - # 5
    frequency:    3.4792433018
  - # 6
    frequency:    4.6296559383
  - # 7
    frequency:    4.7186366245
  - # 8
    frequency:    5.3989152018
  - # 9
    frequency:    5.8091342522
  - # 10
    frequency:    6.1150511408
  - # 11
    frequency:    8.2783178956
  - # 12
    frequency:    9.5901285484
  - # 13
    frequency:    9.9391263302
  - # 14
    frequency:   10.6666583478
  - # 15
    frequency:   16.5463115475

- q-position: [    0.0606061,    0.0000000,    0.0000000 ]
  distance:    0.0191459
  band:
  - # 1
    frequency:    0.1925401785
  - # 2
    frequency:    0.6818992178
  - # 3
    frequency:    1.1658087793
  - # 4
    frequency:    3.3609669586
  - # 5
    frequency:    3.4983722664
  - # 6
    frequency:    4.6295063923
  - # 7
    frequency:    4.7291939035
  - # 8
    frequency:    5.4033612781
  - # 9
    frequency:    5.8071567919
  - # 10
    frequency:    6.1577856911
  - # 11
    frequency:    8.2683751354
  - # 12
    frequency:    9.5683966178
  - # 13
    frequency:    9.9337884354
  - # 14
    frequency:   10.7829870228
  - # 15
    frequency:   16.5210017352

- q-position: [    0.0656566,    0.0000000,    0.0000000 ]
  distance:    0.0207414
  band:
  - # 1
    frequency:    0.2243379239
  - # 2
    frequency:    0.7371535419
  - # 3
    frequency:    1.2618792253
  - # 4
    frequency:    3.3594329539
  - # 5
    frequency:    3.5187346656
  - # 6
    frequency:    4.6293665907
  - # 7
    frequency:    4.7393848823
  - # 8
    frequency:    5.4082271587
  - # 9
    frequency:    5.8050788892
  - # 10
    frequency:    6.2002457830
  - # 11
    frequency:    8.2576143301
  - # 12
    frequency:    9.5460634538
  - # 13
    frequency:    9.9280597499
  - # 14
    frequency:   10.9075321037
  - # 15
    frequency:   16.4936698901

- q-position: [    0.0707071,    0.0000000,    0.0000000 ]
  distance:    0.0223369
  band:
  - # 1
    frequency:    0.2581875657
  - # 2
    frequency:    0.7920407778
  - # 3
    frequency:    1.3576466489
  - # 4
    frequency:    3.3578387626
  - # 5
    frequency:    3.5402599980
  - # 6
    frequency:    4.6292418484
  - # 7
    frequency:    4.7491566034
  - # 8
    frequency:    5.4135118497
  - # 9
    frequency:    5.8029173545
  - # 10
    frequency:    6.2418574038
  - # 11
    frequency:    8.2460469096
  - # 12
    frequency:    9.5230650442
  - # 13
    frequency:    9.9219578923
  - # 14
    frequency:   11.0399598993
  - # 15
    frequency:   16.4643612830

- q-position: [    0.0757576,    0.0000000,    0.0000000 ]
  distance:    0.0239324
  band:
  - # 1
    frequency:    0.2939964704
  - # 2
    frequency:    0.8465365204
  - # 3
    frequency:    1.4530720450
  - # 4
    frequency:    3.3561980801
  - # 5
    frequency:    3.5628808458
  - # 6
    frequency:    4.6291377646
  - # 7
    frequency:    4.7584818910
  - # 8
    frequency:    5.4192127120
  - # 9
    frequency:    5.8006899180
  - # 10
    frequency:    6.2821373441
  - # 11
    frequency:    8.2336850697
  - # 12
    frequency:    9.4993555600
  - # 13
    frequency:    9.9155015951
  - # 14
    frequency:   11.1798375384
  - # 15
    frequency:   16.4331252148

- q-position: [    0.0808081,    0.0000000,    0.0000000 ]
  distance:    0.0255279
  band:
  - # 1
    frequency:    0.3316712783
  - # 2
    frequency:    0.9006172319
  - # 3
    frequency:    1.5481133449
  - # 4
    frequency:    3.3545253702
  - # 5
    frequency:    3.5865332711
  - # 6
    frequency:    4.6290601930
  - # 7
    frequency:    4.7673527934
  - # 8
    frequency:    5.4253253310
  - # 9
    frequency:    5.7984151334
  - # 10
    frequency:    6.3206990017
  - # 11
    frequency:    8.2205417291
  - # 12
    frequency:    9.4749054907
  - # 13
    frequency:    9.9087106351
  - # 14
    frequency:   11.3266423546
  - # 15
    frequency:   16.4000152311

- q-position: [    0.0858586,    0.0000000,    0.0000000 ]
  distance:    0.0271234
  band:
  - # 1
    frequency:    0.3711185482
  - # 2
    frequency:    0.9542603061
  - # 3
    frequency:    1.6427252905
  - # 4
    frequency:    3.3528358231
  - # 5
    frequency:    3.6111571172
  - # 6
    frequency:    4.6290152132
  - # 7
    frequency:    4.7757750231
  - # 8
    frequency:    5.4318433556
  - # 9
    frequency:    5.7961122754
  - # 10
    frequency:    6.3572520648
  - # 11
    frequency:    8.2066304895
  - # 12
    frequency:    9.4496997109
  - # 13
    frequency:    9.9016057567
  - # 14
    frequency:   11.4797742112
  - # 15
    frequency:   16.3650894166

- q-position: [    0.0909091,    0.0000000,    0.0000000 ]
  distance:    0.0287188
  band:
  - # 1
    frequency:    0.4122453028
  - # 2
    frequency:    1.0074441318
  - # 3
    frequency:    1.7368593186
  - # 4
    frequency:    3.3511453136
  - # 5
    frequency:    3.6366962322
  - # 6
    frequency:    4.6290091001
  - # 7
    frequency:    4.7837635234
  - # 8
    frequency:    5.4387583249
  - # 9
    frequency:    5.7938012303
  - # 10
    frequency:    6.3915973192
  - # 11
    frequency:    8.1919656043
  - # 12
    frequency:    9.4237356555
  - # 13
    frequency:    9.8942085916
  - # 14
    frequency:   11.6385695394
  - # 15
    frequency:   16.3284107961

- q-position: [    0.0959596,    0.0000000,    0.0000000 ]
  distance:    0.0303143
  band:
  - # 1
    frequency:    0.4549594783
  - # 2
    frequency:    1.0601481535
  - # 3
    frequency:    1.8304634573
  - # 4
    frequency:    3.3494703593
  - # 5
    frequency:    3.6630986253
  - # 6
    frequency:    4.6290482940
  - # 7
    frequency:    4.7913391088
  - # 8
    frequency:    5.4460594965
  - # 9
    frequency:    5.7915023825
  - # 10
    frequency:    6.4236180191
  - # 11
    frequency:    8.1765619567
  - # 12
    frequency:    9.3970216745
  - # 13
    frequency:    9.8865415717
  - # 14
    frequency:   11.8023159311
  - # 15
    frequency:   16.2900478789

- q-position: [    0.1010101,    0.0000000,    0.0000000 ]
  distance:    0.0319098
  band:
  - # 1
    frequency:    0.4991702823
  - # 2
    frequency:    1.1123529317
  - # 3
    frequency:    1.9234822351
  - # 4
    frequency:    3.3478280786
  - # 5
    frequency:    3.6903165640
  - # 6
    frequency:    4.6291393699
  - # 7
    frequency:    4.7985260392
  - # 8
    frequency:    5.4537336925
  - # 9
    frequency:    5.7892364947
  - # 10
    frequency:    6.4532692185
  - # 11
    frequency:    8.1604350530
  - # 12
    frequency:    9.3695755869
  - # 13
    frequency:    9.8786278380
  - # 14
    frequency:   11.9702662668
  - # 15
    frequency:   16.2500753987

- q-position: [    0.1060606,    0.0000000,    0.0000000 ]
  distance:    0.0335053
  band:
  - # 1
    frequency:    0.5447884706
  - # 2
    frequency:    1.1640401992
  - # 3
    frequency:    2.0158566071
  - # 4
    frequency:    3.3462361486
  - # 5
    frequency:    3.7183066162
  - # 6
    frequency:    4.6292890076
  - # 7
    frequency:    4.8053503533
  - # 8
    frequency:    5.4617651766
  - # 9
    frequency:    5.7870245843
  - # 10
    frequency:    6.4805662627
  - # 11
    frequency:    8.1436010337
  - # 12
    frequency:    9.3414234229
  - # 13
    frequency:    9.8704911443
  - # 14
    frequency:   12.1416515547
  - # 15
    frequency:   16.2085753220

- q-position: [    0.1111111,    0.0000000,    0.0000000 ]
  distance:    0.0351008
  band:
  - # 1
    frequency:    0.5917265510
  - # 2
    frequency:    1.2151929147
  - # 3
    frequency:    2.1075238985
  - # 4
    frequency:    3.3447127620
  - # 5
    frequency:    3.7470296419
  - # 6
    frequency:    4.6295039618
  - # 7
    frequency:    4.8118387899
  - # 8
    frequency:    5.4701355741
  - # 9
    frequency:    5.7848877952
  - # 10
    frequency:    6.5055733659
  - # 11
    frequency:    8.1260767073
  - # 12
    frequency:    9.3125983349
  - # 13
    frequency:    9.8621557573
  - # 14
    frequency:   12.3156918653
  - # 15
    frequency:   16.1656382280

- q-position: [    0.1161616,    0.0000000,    0.0000000 ]
  distance:    0.0366963
  band:
  - # 1
    frequency:    0.6398989247
  - # 2
    frequency:    1.2657953117
  - # 3
    frequency:    2.1984177715
  - # 4
    frequency:    3.3432765841
  - # 5
    frequency:    3.7764507353
  - # 6
    frequency:    4.6297910332
  - # 7
    frequency:    4.8180181474
  - # 8
    frequency:    5.4788238467
  - # 9
    frequency:    5.7828472668
  - # 10
    frequency:    6.5283929132
  - # 11
    frequency:    8.1078796108
  - # 12
    frequency:    9.2831396499
  - # 13
    frequency:    9.8536463528
  - # 14
    frequency:   12.4916049287
  - # 15
    frequency:   16.1213652108

- q-position: [    0.1212121,    0.0000000,    0.0000000 ]
  distance:    0.0382918
  band:
  - # 1
    frequency:    0.6892219757
  - # 2
    frequency:    1.3158329434
  - # 3
    frequency:    2.2884682184
  - # 4
    frequency:    3.3419467070
  - # 5
    frequency:    3.8065391194
  - # 6
    frequency:    4.6301570399
  - # 7
    frequency:    4.8239149563
  - # 8
    frequency:    5.4878063311
  - # 9
    frequency:    5.7809240008
  - # 10
    frequency:    6.5491558607
  - # 11
    frequency:    8.0890281020
  - # 12
    frequency:    9.2530920396
  - # 13
    frequency:    9.8449879080
  - # 14
    frequency:   12.6686120840
  - # 15
    frequency:   16.0758705273

- q-position: [    0.1262626,    0.0000000,    0.0000000 ]
  distance:    0.0398873
  band:
  - # 1
    frequency:    0.7396141174
  - # 2
    frequency:    1.3652927221
  - # 3
    frequency:    2.3776015876
  - # 4
    frequency:    3.3407426029
  - # 5
    frequency:    3.8372679912
  - # 6
    frequency:    4.6306087899
  - # 7
    frequency:    4.8295553698
  - # 8
    frequency:    5.4970568488
  - # 9
    frequency:    5.7791387258
  - # 10
    frequency:    6.5680134036
  - # 11
    frequency:    8.0695414874
  - # 12
    frequency:    9.2225047830
  - # 13
    frequency:    9.8362055932
  - # 14
    frequency:   12.8459413074
  - # 15
    frequency:   16.0292853229

- q-position: [    0.1313131,    0.0000000,    0.0000000 ]
  distance:    0.0414828
  band:
  - # 1
    frequency:    0.7909958061
  - # 2
    frequency:    1.4141629520
  - # 3
    frequency:    2.4657406491
  - # 4
    frequency:    3.3396840732
  - # 5
    frequency:    3.8686143141
  - # 6
    frequency:    4.6311530549
  - # 7
    frequency:    4.8349652028
  - # 8
    frequency:    5.5065468951
  - # 9
    frequency:    5.7775117617
  - # 10
    frequency:    6.5851299228
  - # 11
    frequency:    8.0494401924
  - # 12
    frequency:    9.1914311026
  - # 13
    frequency:    9.8273246595
  - # 14
    frequency:   13.0228269676
  - # 15
    frequency:   15.9817629450

- q-position: [    0.1363636,    0.0000000,    0.0000000 ]
  distance:    0.0430783
  band:
  - # 1
    frequency:    0.8432895285
  - # 2
    frequency:    1.4624333561
  - # 3
    frequency:    2.5528047098
  - # 4
    frequency:    3.3387911951
  - # 5
    frequency:    3.9005585504
  - # 6
    frequency:    4.6317965442
  - # 7
    frequency:    4.8401700675
  - # 8
    frequency:    5.5162459109
  - # 9
    frequency:    5.7760628844
  - # 10
    frequency:    6.6006771216
  - # 11
    frequency:    8.0287459780
  - # 12
    frequency:    9.1599275548
  - # 13
    frequency:    9.8183703279
  - # 14
    frequency:   13.1985057268
  - # 15
    frequency:   15.9334866386

- q-position: [    0.1414141,    0.0000000,    0.0000000 ]
  distance:    0.0446738
  band:
  - # 1
    frequency:    0.8964197710
  - # 2
    frequency:    1.5100950953
  - # 3
    frequency:    2.6387097906
  - # 4
    frequency:    3.3380842624
  - # 5
    frequency:    3.9330843226
  - # 6
    frequency:    4.6325458806
  - # 7
    frequency:    4.8451955764
  - # 8
    frequency:    5.5261216390
  - # 9
    frequency:    5.7748111922
  - # 10
    frequency:    6.6148292084
  - # 11
    frequency:    8.0074822097
  - # 12
    frequency:    9.1280534617
  - # 13
    frequency:    9.8093676764
  - # 14
    frequency:   13.3722075655
  - # 15
    frequency:   15.8846808814

- q-position: [    0.1464646,    0.0000000,    0.0000000 ]
  distance:    0.0462693
  band:
  - # 1
    frequency:    0.9503129769
  - # 2
    frequency:    1.5571407802
  - # 3
    frequency:    2.7233688801
  - # 4
    frequency:    3.3375837209
  - # 5
    frequency:    3.9661779873
  - # 6
    frequency:    4.6334075766
  - # 7
    frequency:    4.8500675925
  - # 8
    frequency:    5.5361405674
  - # 9
    frequency:    5.7737749743
  - # 10
    frequency:    6.6277589513
  - # 11
    frequency:    7.9856741844
  - # 12
    frequency:    9.0958703724
  - # 13
    frequency:    9.8003415292
  - # 14
    frequency:   13.5431401263
  - # 15
    frequency:   15.8356283945

- q-position: [    0.1515152,    0.0000000,    0.0000000 ]
  distance:    0.0478647
  band:
  - # 1
    frequency:    1.0048974955
  - # 2
    frequency:    1.6035644740
  - # 3
    frequency:    2.8066922829
  - # 4
    frequency:    3.3373100973
  - # 5
    frequency:    3.9998280977
  - # 6
    frequency:    4.6343880120
  - # 7
    frequency:    4.8548125225
  - # 8
    frequency:    5.5462684544
  - # 9
    frequency:    5.7729715841
  - # 10
    frequency:    6.6396344344
  - # 11
    frequency:    7.9633495205
  - # 12
    frequency:    9.0634415445
  - # 13
    frequency:    9.7913163473
  - # 14
    frequency:   13.7104632493
  - # 15
    frequency:   15.7866961709

- q-position: [    0.1565657,    0.0000000,    0.0000000 ]
  distance:    0.0494602
  band:
  - # 1
    frequency:    1.0601035292
  - # 2
    frequency:    1.6493616878
  - # 3
    frequency:    2.8885880859
  - # 4
    frequency:    3.3372839198
  - # 5
    frequency:    4.0340247248
  - # 6
    frequency:    4.6354934111
  - # 7
    frequency:    4.8594576560
  - # 8
    frequency:    5.5564709305
  - # 9
    frequency:    5.7724173161
  - # 10
    frequency:    6.6506163504
  - # 11
    frequency:    7.9405386166
  - # 12
    frequency:    9.0308314406
  - # 13
    frequency:    9.7823161221
  - # 14
    frequency:   13.8732483373
  - # 15
    frequency:   15.7383760694

- q-position: [    0.1616162,    0.0000000,    0.0000000 ]
  distance:    0.0510557
  band:
  - # 1
    frequency:    1.1158630796
  - # 2
    frequency:    1.6945293664
  - # 3
    frequency:    2.9689627648
  - # 4
    frequency:    3.3375256304
  - # 5
    frequency:    4.0687586000
  - # 6
    frequency:    4.6367298219
  - # 7
    frequency:    4.8640315640
  - # 8
    frequency:    5.5667141670
  - # 9
    frequency:    5.7721272910
  - # 10
    frequency:    6.6608556912
  - # 11
    frequency:    7.9172751843
  - # 12
    frequency:    8.9981052360
  - # 13
    frequency:    9.7733642719
  - # 14
    frequency:   14.0304135131
  - # 15
    frequency:   15.6913491746

- q-position: [    0.1666667,    0.0000000,    0.0000000 ]
  distance:    0.0526512
  band:
  - # 1
    frequency:    1.1721098972
  - # 2
    frequency:    1.7390658652
  - # 3
    frequency:    3.0477219584
  - # 4
    frequency:    3.3380554880
  - # 5
    frequency:    4.1040200312
  - # 6
    frequency:    4.6381030945
  - # 7
    frequency:    4.8685645769
  - # 8
    frequency:    5.5769655960
  - # 9
    frequency:    5.7721153461
  - # 10
    frequency:    6.6704917172
  - # 11
    frequency:    7.8935968592
  - # 12
    frequency:    8.9653283370
  - # 13
    frequency:    9.7644835445
  - # 14
    frequency:   14.1806199054
  - # 15
    frequency:   15.6465887111

- q-position: [    0.1717172,    0.0000000,    0.0000000 ]
  distance:    0.0542467
  band:
  - # 1
    frequency:    1.2287794354
  - # 2
    frequency:    1.7829709183
  - # 3
    frequency:    3.1247714358
  - # 4
    frequency:    3.3388934610
  - # 5
    frequency:    4.1397975378
  - # 6
    frequency:    4.6396188601
  - # 7
    frequency:    4.8730893760
  - # 8
    frequency:    5.5871946635
  - # 9
    frequency:    5.7723939361
  - # 10
    frequency:    6.6796501117
  - # 11
    frequency:    7.8695458941
  - # 12
    frequency:    8.9325659094
  - # 13
    frequency:    9.7556959236
  - # 14
    frequency:   14.3221077321
  - # 15
    frequency:   15.6055229527

- q-position: [    0.1767677,    0.0000000,    0.0000000 ]
  distance:    0.0558422
  band:
  - # 1
    frequency:    1.2858088105
  - # 2
    frequency:    1.8262455976
  - # 3
    frequency:    3.2000182779
  - # 4
    frequency:    3.3400591096
  - # 5
    frequency:    4.1760761449
  - # 6
    frequency:    4.6412825092
  - # 7
    frequency:    4.8776417379
  - # 8
    frequency:    5.5973735910
  - # 9
    frequency:    5.7729740423
  - # 10
    frequency:    6.6884412542
  - # 11
    frequency:    7.8451699393
  - # 12
    frequency:    8.8998824221
  - # 13
    frequency:    9.7470225434
  - # 14
    frequency:   14.4524511466
  - # 15
    frequency:   15.5702792369

- q-position: [    0.1818182,    0.0000000,    0.0000000 ]
  distance:    0.0574377
  band:
  - # 1
    frequency:    1.3431367683
  - # 2
    frequency:    1.8688922632
  - # 3
    frequency:    3.2733722835
  - # 4
    frequency:    3.3415714580
  - # 5
    frequency:    4.2128352677
  - # 6
    frequency:    4.6430991698
  - # 7
    frequency:    4.8822614908
  - # 8
    frequency:    5.6074781177
  - # 9
    frequency:    5.7738650933
  - # 10
    frequency:    6.6969585628
  - # 11
    frequency:    7.8205229093
  - # 12
    frequency:    8.8673412090
  - # 13
    frequency:    9.7384836090
  - # 14
    frequency:   14.5682516058
  - # 15
    frequency:   15.5439893909

- q-position: [    0.1868687,    0.0000000,    0.0000000 ]
  distance:    0.0590332
  band:
  - # 1
    frequency:    1.4007036592
  - # 2
    frequency:    1.9109145050
  - # 3
    frequency:    3.3434488553
  - # 4
    frequency:    3.3447475978
  - # 5
    frequency:    4.2500461165
  - # 6
    frequency:    4.6450736851
  - # 7
    frequency:    4.8869937571
  - # 8
    frequency:    5.6174881917
  - # 9
    frequency:    5.7750748967
  - # 10
    frequency:    6.7052768818
  - # 11
    frequency:    7.7956659372
  - # 12
    frequency:    8.8350040565
  - # 13
    frequency:    9.7300983254
  - # 14
    frequency:   14.6649635257
  - # 15
    frequency:   15.5309628472

- q-position: [    0.1919192,    0.0000000,    0.0000000 ]
  distance:    0.0606287
  band:
  - # 1
    frequency:    1.4584514195
  - # 2
    frequency:    1.9523170768
  - # 3
    frequency:    3.3457088274
  - # 4
    frequency:    3.4140645317
  - # 5
    frequency:    4.2876685527
  - # 6
    frequency:    4.6472105887
  - # 7
    frequency:    4.8918905807
  - # 8
    frequency:    5.6273885761
  - # 9
    frequency:    5.7766095834
  - # 10
    frequency:    6.7134509051
  - # 11
    frequency:    7.7706684134
  - # 12
    frequency:    8.8029308238
  - # 13
    frequency:    9.7218848346
  - # 14
    frequency:   14.7374417940
  - # 15
    frequency:   15.5361379116

- q-position: [    0.1969697,    0.0000000,    0.0000000 ]
  distance:    0.0622242
  band:
  - # 1
    frequency:    1.5163235612
  - # 2
    frequency:    1.9931058222
  - # 3
    frequency:    3.3483679192
  - # 4
    frequency:    3.4812515149
  - # 5
    frequency:    4.3256473219
  - # 6
    frequency:    4.6495140807
  - # 7
    frequency:    4.8970130677
  - # 8
    frequency:    5.6371693382
  - # 9
    frequency:    5.7784735645
  - # 10
    frequency:    6.7215136440
  - # 11
    frequency:    7.7456090958
  - # 12
    frequency:    8.7711791029
  - # 13
    frequency:    9.7138601623
  - # 14
    frequency:   14.7819283700
  - # 15
    frequency:   15.5630939778

- q-position: [    0.2020202,    0.0000000,    0.0000000 ]
  distance:    0.0638197
  band:
  - # 1
    frequency:    1.5742651687
  - # 2
    frequency:    2.0332875942
  - # 3
    frequency:    3.3514415294
  - # 4
    frequency:    3.5462470853
  - # 5
    frequency:    4.3639075942
  - # 6
    frequency:    4.6519880005
  - # 7
    frequency:    4.9024342020
  - # 8
    frequency:    5.6468261888
  - # 9
    frequency:    5.7806695018
  - # 10
    frequency:    6.7294749659
  - # 11
    frequency:    7.7205772744
  - # 12
    frequency:    8.7398039278
  - # 13
    frequency:    9.7060401728
  - # 14
    frequency:   14.7986039761
  - # 15
    frequency:   15.6114986978

- q-position: [    0.2070707,    0.0000000,    0.0000000 ]
  distance:    0.0654151
  band:
  - # 1
    frequency:    1.6322229028
  - # 2
    frequency:    2.0728701673
  - # 3
    frequency:    3.3549437383
  - # 4
    frequency:    3.6090017852
  - # 5
    frequency:    4.4023497379
  - # 6
    frequency:    4.6546357989
  - # 7
    frequency:    4.9082425348
  - # 8
    frequency:    5.6563606478
  - # 9
    frequency:    5.7831982921
  - # 10
    frequency:    6.7373202466
  - # 11
    frequency:    7.6956739517
  - # 12
    frequency:    8.7088575394
  - # 13
    frequency:    9.6984395341
  - # 14
    frequency:   14.7918207318
  - # 15
    frequency:   15.6768742670

- q-position: [    0.2121212,    0.0000000,    0.0000000 ]
  distance:    0.0670106
  band:
  - # 1
    frequency:    1.6901450109
  - # 2