nqpoint: 300    
npath: 3      
segment_nqpoint:
- 100
- 100
- 100
labels:
- [ 'G', 'M' ]
- [ 'M', 'K' ]
- [ 'K', 'G' ]
reciprocal_lattice:
- [   0.27668933,   0.15974666,   0.00000000 ] # a*
- [   0.00000000,   0.31949331,   0.00000000 ] # b*
- [   0.00000000,   0.00000000,   0.04096879 ] # c*
natom: 6      
lattice:
- [     3.614161830138304,     0.000000000000000,     0.000000000000000 ] # a
- [    -1.807080915069152,     3.129955958298549,     0.000000000000000 ] # b
- [     0.000000000000000,     0.000000000000000,    24.408823081534738 ] # c
points:
- symbol: C # 1
  coordinates: [  0.000000000000000,  0.000000000000000,  0.472297997120296 ]
  mass: 12.010700
- symbol: N # 2
  coordinates: [  0.333332985432215,  0.666666983183674,  0.578834548203725 ]
  mass: 14.006700
- symbol: O # 3
  coordinates: [  0.333332985432215,  0.666666983183674,  0.631280870448502 ]
  mass: 15.999400
- symbol: O # 4
  coordinates: [  0.666666984744047,  0.333332985985145,  0.368719129551498 ]
  mass: 15.999400
- symbol: Y # 5
  coordinates: [  0.333332985432215,  0.666666983183674,  0.396939844543122 ]
  mass: 88.905850
- symbol: Y # 6
  coordinates: [  0.666666984744047,  0.333332985985145,  0.521531673289144 ]
  mass: 88.905850

phonon:
- q-position: [    0.0000000,    0.0000000,    0.0000000 ]
  distance:    0.0000000
  band:
  - # 1
    frequency:   -0.0000174797
  - # 2
    frequency:    0.0000002873
  - # 3
    frequency:    0.0000178975
  - # 4
    frequency:    1.8456084012
  - # 5
    frequency:    1.8456084012
  - # 6
    frequency:    2.6871919488
  - # 7
    frequency:    2.6871919489
  - # 8
    frequency:    3.9003980899
  - # 9
    frequency:    6.0471492876
  - # 10
    frequency:    7.0221292417
  - # 11
    frequency:    7.0221292417
  - # 12
    frequency:   10.7018703493
  - # 13
    frequency:   10.7018703493
  - # 14
    frequency:   11.7589065023
  - # 15
    frequency:   12.3160102492
  - # 16
    frequency:   12.3160102493
  - # 17
    frequency:   13.8002773078
  - # 18
    frequency:   45.7887300557

- q-position: [    0.0050505,    0.0000000,    0.0000000 ]
  distance:    0.0016136
  band:
  - # 1
    frequency:    0.0016539659
  - # 2
    frequency:    0.0467066868
  - # 3
    frequency:    0.0901257238
  - # 4
    frequency:    1.8459710119
  - # 5
    frequency:    1.8469359646
  - # 6
    frequency:    2.6878761249
  - # 7
    frequency:    2.6892188469
  - # 8
    frequency:    3.9005675183
  - # 9
    frequency:    6.0463397953
  - # 10
    frequency:    7.0218699686
  - # 11
    frequency:    7.0231531183
  - # 12
    frequency:   10.7017589734
  - # 13
    frequency:   10.7029640389
  - # 14
    frequency:   11.7547681968
  - # 15
    frequency:   12.3157895530
  - # 16
    frequency:   12.3184684676
  - # 17
    frequency:   13.8011750562
  - # 18
    frequency:   45.7879990426

- q-position: [    0.0101010,    0.0000000,    0.0000000 ]
  distance:    0.0032272
  band:
  - # 1
    frequency:    0.0065996440
  - # 2
    frequency:    0.0934013208
  - # 3
    frequency:    0.1801474552
  - # 4
    frequency:    1.8470590115
  - # 5
    frequency:    1.8509112975
  - # 6
    frequency:    2.6899254313
  - # 7
    frequency:    2.6952765021
  - # 8
    frequency:    3.9010783409
  - # 9
    frequency:    6.0439217381
  - # 10
    frequency:    7.0210927766
  - # 11
    frequency:    7.0262142792
  - # 12
    frequency:   10.7014259719
  - # 13
    frequency:   10.7062429529
  - # 14
    frequency:   11.7426148621
  - # 15
    frequency:   12.3151277903
  - # 16
    frequency:   12.3255835047
  - # 17
    frequency:   13.8038684385
  - # 18
    frequency:   45.7858069832

- q-position: [    0.0151515,    0.0000000,    0.0000000 ]
  distance:    0.0048408
  band:
  - # 1
    frequency:    0.0147890216
  - # 2
    frequency:    0.1400717061
  - # 3
    frequency:    0.2699611186
  - # 4
    frequency:    1.8488728814
  - # 5
    frequency:    1.8575125954
  - # 6
    frequency:    2.6933302514
  - # 7
    frequency:    2.7052965766
  - # 8
    frequency:    3.9019381913
  - # 9
    frequency:    6.0399258240
  - # 10
    frequency:    7.0197995525
  - # 11
    frequency:    7.0312818385
  - # 12
    frequency:   10.7008747142
  - # 13
    frequency:   10.7117006380
  - # 14
    frequency:   11.7231497233
  - # 15
    frequency:   12.3140259386
  - # 16
    frequency:   12.3366583191
  - # 17
    frequency:   13.8083575749
  - # 18
    frequency:   45.7821568163

- q-position: [    0.0202020,    0.0000000,    0.0000000 ]
  distance:    0.0064544
  band:
  - # 1
    frequency:    0.0261444730
  - # 2
    frequency:    0.1867053762
  - # 3
    frequency:    0.3594624530
  - # 4
    frequency:    1.8514133594
  - # 5
    frequency:    1.8667043814
  - # 6
    frequency:    2.6980747184
  - # 7
    frequency:    2.7191677007
  - # 8
    frequency:    3.9031598615
  - # 9
    frequency:    6.0344014684
  - # 10
    frequency:    7.0179934605
  - # 11
    frequency:    7.0383059892
  - # 12
    frequency:   10.7001107850
  - # 13
    frequency:   10.7193263767
  - # 14
    frequency:   11.6973270955
  - # 15
    frequency:   12.3124856239
  - # 16
    frequency:   12.3507498537
  - # 17
    frequency:   13.8146417166
  - # 18
    frequency:   45.7770534332

- q-position: [    0.0252525,    0.0000000,    0.0000000 ]
  distance:    0.0080680
  band:
  - # 1
    frequency:    0.0405620557
  - # 2
    frequency:    0.2332894611
  - # 3
    frequency:    0.4485468995
  - # 4
    frequency:    1.8546813454
  - # 5
    frequency:    1.8784387190
  - # 6
    frequency:    2.7041369515
  - # 7
    frequency:    2.7367390412
  - # 8
    frequency:    3.9047614035
  - # 9
    frequency:    6.0274143743
  - # 10
    frequency:    7.0156789701
  - # 11
    frequency:    7.0472202826
  - # 12
    frequency:   10.6991419382
  - # 13
    frequency:   10.7291052410
  - # 14
    frequency:   11.6661585511
  - # 15
    frequency:   12.3105091161
  - # 16
    frequency:   12.3668642106
  - # 17
    frequency:   13.8227179080
  - # 18
    frequency:   45.7705036686

- q-position: [    0.0303030,    0.0000000,    0.0000000 ]
  distance:    0.0096816
  band:
  - # 1
    frequency:    0.0579156859
  - # 2
    frequency:    0.2798105647
  - # 3
    frequency:    0.5371094633
  - # 4
    frequency:    1.8586777807
  - # 5
    frequency:    1.8926567564
  - # 6
    frequency:    2.7114893721
  - # 7
    frequency:    2.7578248866
  - # 8
    frequency:    3.9067662671
  - # 9
    frequency:    6.0190435513
  - # 10
    frequency:    7.0128618946
  - # 11
    frequency:    7.0579444188
  - # 12
    frequency:   10.6979780332
  - # 13
    frequency:   10.7410181611
  - # 14
    frequency:   11.6305838629
  - # 15
    frequency:   12.3080993234
  - # 16
    frequency:   12.3840874266
  - # 17
    frequency:   13.8325792809
  - # 18
    frequency:   45.7625162876

- q-position: [    0.0353535,    0.0000000,    0.0000000 ]
  distance:    0.0112952
  band:
  - # 1
    frequency:    0.0780618128
  - # 2
    frequency:    0.3262546529
  - # 3
    frequency:    0.6250445560
  - # 4
    frequency:    1.8634035062
  - # 5
    frequency:    1.9092904736
  - # 6
    frequency:    2.7200990910
  - # 7
    frequency:    2.7822099182
  - # 8
    frequency:    3.9092034672
  - # 9
    frequency:    6.0093780791
  - # 10
    frequency:    7.0095494384
  - # 11
    frequency:    7.0703872491
  - # 12
    frequency:   10.6966309541
  - # 13
    frequency:   10.7550420011
  - # 14
    frequency:   11.5914139810
  - # 15
    frequency:   12.3052597837
  - # 16
    frequency:   12.4016444393
  - # 17
    frequency:   13.8442131357
  - # 18
    frequency:   45.7531019685

- q-position: [    0.0404040,    0.0000000,    0.0000000 ]
  distance:    0.0129088
  band:
  - # 1
    frequency:    0.1008442282
  - # 2
    frequency:    0.3726069526
  - # 3
    frequency:    0.7122458282
  - # 4
    frequency:    1.8688591093
  - # 5
    frequency:    1.9282644965
  - # 6
    frequency:    2.7299283518
  - # 7
    frequency:    2.8096548283
  - # 8
    frequency:    3.9121077730
  - # 9
    frequency:    5.9985139010
  - # 10
    frequency:    7.0057502522
  - # 11
    frequency:    7.0844497107
  - # 12
    frequency:   10.6951145130
  - # 13
    frequency:   10.7711496277
  - # 14
    frequency:   11.5493224745
  - # 15
    frequency:   12.3019946556
  - # 16
    frequency:   12.4189096436
  - # 17
    frequency:   13.8575989918
  - # 18
    frequency:   45.7422732826

- q-position: [    0.0454545,    0.0000000,    0.0000000 ]
  distance:    0.0145224
  band:
  - # 1
    frequency:    0.1260986963
  - # 2
    frequency:    0.4188518645
  - # 3
    frequency:    0.7986060127
  - # 4
    frequency:    1.8750447697
  - # 5
    frequency:    1.9494978451
  - # 6
    frequency:    2.7409350171
  - # 7
    frequency:    2.8399019838
  - # 8
    frequency:    3.9155199059
  - # 9
    frequency:    5.9865508748
  - # 10
    frequency:    7.0014744948
  - # 11
    frequency:    7.1000274774
  - # 12
    frequency:   10.6934443372
  - # 13
    frequency:   10.7893099478
  - # 14
    frequency:   11.5048603521
  - # 15
    frequency:   12.2983087071
  - # 16
    frequency:   12.4353939551
  - # 17
    frequency:   13.8727067973
  - # 18
    frequency:   45.7300446700

- q-position: [    0.0505051,    0.0000000,    0.0000000 ]
  distance:    0.0161360
  band:
  - # 1
    frequency:    0.1536571592
  - # 2
    frequency:    0.4649728892
  - # 3
    frequency:    0.8840168125
  - # 4
    frequency:    1.8819601119
  - # 5
    frequency:    1.9729054914
  - # 6
    frequency:    2.7530730820
  - # 7
    frequency:    2.8726808902
  - # 8
    frequency:    3.9194867289
  - # 9
    frequency:    5.9735902357
  - # 10
    frequency:    6.9967338979
  - # 11
    frequency:    7.1170131798
  - # 12
    frequency:   10.6916377439
  - # 13
    frequency:   10.8094878696
  - # 14
    frequency:   11.4584782211
  - # 15
    frequency:   12.2942073034
  - # 16
    frequency:   12.4507242816
  - # 17
    frequency:   13.8894954784
  - # 18
    frequency:   45.7164324117

- q-position: [    0.0555556,    0.0000000,    0.0000000 ]
  distance:    0.0177496
  band:
  - # 1
    frequency:    0.1833513588
  - # 2
    frequency:    0.5109525678
  - # 3
    frequency:    0.9683688809
  - # 4
    frequency:    1.8896040741
  - # 5
    frequency:    1.9983996145
  - # 6
    frequency:    2.7662932032
  - # 7
    frequency:    2.9077132917
  - # 8
    frequency:    3.9240614035
  - # 9
    frequency:    5.9597325475
  - # 10
    frequency:    6.9915418343
  - # 11
    frequency:    7.1352981328
  - # 12
    frequency:   10.6897136015
  - # 13
    frequency:   10.8316440942
  - # 14
    frequency:   11.4105481067
  - # 15
    frequency:   12.2896963925
  - # 16
    frequency:   12.4646230235
  - # 17
    frequency:   13.9079119779
  - # 18
    frequency:   45.7014545990

- q-position: [    0.0606061,    0.0000000,    0.0000000 ]
  distance:    0.0193632
  band:
  - # 1
    frequency:    0.2150157993
  - # 2
    frequency:    0.5567724376
  - # 3
    frequency:    1.0515519548
  - # 4
    frequency:    1.8979747982
  - # 5
    frequency:    2.0258904508
  - # 6
    frequency:    2.7805432283
  - # 7
    frequency:    2.9447178148
  - # 8
    frequency:    3.9293034789
  - # 9
    frequency:    5.9450761580
  - # 10
    frequency:    6.9859133845
  - # 11
    frequency:    7.1547735637
  - # 12
    frequency:   10.6876921796
  - # 13
    frequency:   10.8557345301
  - # 14
    frequency:   11.3613823302
  - # 15
    frequency:   12.2847824904
  - # 16
    frequency:   12.4768903067
  - # 17
    frequency:   13.9278908791
  - # 18
    frequency:   45.6851310981

- q-position: [    0.0656566,    0.0000000,    0.0000000 ]
  distance:    0.0209768
  band:
  - # 1
    frequency:    0.2484900375
  - # 2
    frequency:    0.6024130013
  - # 3
    frequency:    1.1334552187
  - # 4
    frequency:    1.9070695475
  - # 5
    frequency:    2.0552866461
  - # 6
    frequency:    2.7957687185
  - # 7
    frequency:    2.9834141389
  - # 8
    frequency:    3.9352788718
  - # 9
    frequency:    5.9297161278
  - # 10
    frequency:    6.9798654015
  - # 11
    frequency:    7.1753313880
  - # 12
    frequency:   10.6855949907
  - # 13
    frequency:   10.8817088034
  - # 14
    frequency:   11.3112495124
  - # 15
    frequency:   12.2794726651
  - # 16
    frequency:   12.4873893704
  - # 17
    frequency:   13.9493546544
  - # 18
    frequency:   45.6674835130

- q-position: [    0.0707071,    0.0000000,    0.0000000 ]
  distance:    0.0225904
  band:
  - # 1
    frequency:    0.2836203412
  - # 2
    frequency:    0.6478537105
  - # 3
    frequency:    1.2139679876
  - # 4
    frequency:    1.9168846553
  - # 5
    frequency:    2.0864950263
  - # 6
    frequency:    2.8119134521
  - # 7
    frequency:    3.0235267315
  - # 8
    frequency:    3.9420596771
  - # 9
    frequency:    5.9137435749
  - # 10
    frequency:    6.9734165691
  - # 11
    frequency:    7.1968646039
  - # 12
    frequency:   10.6834446231
  - # 13
    frequency:   10.9095063416
  - # 14
    frequency:   11.2603896599
  - # 15
    frequency:   12.2737745184
  - # 16
    frequency:   12.4960346969
  - # 17
    frequency:   13.9722145092
  - # 18
    frequency:   45.6485351437

- q-position: [    0.0757576,    0.0000000,    0.0000000 ]
  distance:    0.0242040
  band:
  - # 1
    frequency:    0.3202607876
  - # 2
    frequency:    0.6930729611
  - # 3
    frequency:    1.2929807989
  - # 4
    frequency:    1.9274155037
  - # 5
    frequency:    2.1194197165
  - # 6
    frequency:    2.8289199054
  - # 7
    frequency:    3.0647882336
  - # 8
    frequency:    3.9497237383
  - # 9
    frequency:    5.8972453633
  - # 10
    frequency:    6.9665874524
  - # 11
    frequency:    7.2192673888
  - # 12
    frequency:   10.6812645688
  - # 13
    frequency:   10.9390446862
  - # 14
    frequency:   11.2090343363
  - # 15
    frequency:   12.2676961684
  - # 16
    frequency:   12.5027823038
  - # 17
    frequency:   13.9963717374
  - # 18
    frequency:   45.6283109422

- q-position: [    0.0808081,    0.0000000,    0.0000000 ]
  distance:    0.0258176
  band:
  - # 1
    frequency:    0.3582738881
  - # 2
    frequency:    0.7380481014
  - # 3
    frequency:    1.3703869980
  - # 4
    frequency:    1.9386565353
  - # 5
    frequency:    2.1539605614
  - # 6
    frequency:    2.8467297048
  - # 7
    frequency:    3.1069426077
  - # 8
    frequency:    3.9583538902
  - # 9
    frequency:    5.8803040648
  - # 10
    frequency:    6.9594005370
  - # 11
    frequency:    7.2424349859
  - # 12
    frequency:   10.6790790468
  - # 13
    frequency:   10.9701752253
  - # 14
    frequency:   11.1574573552
  - # 15
    frequency:   12.2612462301
  - # 16
    frequency:   12.5076216954
  - # 17
    frequency:   14.0217194632
  - # 18
    frequency:   45.6068374651

- q-position: [    0.0858586,    0.0000000,    0.0000000 ]
  distance:    0.0274312
  band:
  - # 1
    frequency:    0.3975308315
  - # 2
    frequency:    0.7827554505
  - # 3
    frequency:    1.4460848719
  - # 4
    frequency:    1.9506012930
  - # 5
    frequency:    2.1900108443
  - # 6
    frequency:    2.8652840482
  - # 7
    frequency:    3.1497481768
  - # 8
    frequency:    3.9680367753
  - # 9
    frequency:    5.8629981271
  - # 10
    frequency:    6.9518802534
  - # 11
    frequency:    7.2662634582
  - # 12
    frequency:   10.6769128251
  - # 13
    frequency:   11.0024183247
  - # 14
    frequency:   11.1062445224
  - # 15
    frequency:   12.2544337951
  - # 16
    frequency:   12.5105691072
  - # 17
    frequency:   14.0481446201
  - # 18
    frequency:   45.5841428234

- q-position: [    0.0909091,    0.0000000,    0.0000000 ]
  distance:    0.0290448
  band:
  - # 1
    frequency:    0.4379114334
  - # 2
    frequency:    0.8271703264
  - # 3
    frequency:    1.5199803321
  - # 4
    frequency:    1.9632424874
  - # 5
    frequency:    2.2274543670
  - # 6
    frequency:    2.8845240939
  - # 7
    frequency:    3.1929806782
  - # 8
    frequency:    3.9788611304
  - # 9
    frequency:    5.8454021931
  - # 10
    frequency:    6.9440529853
  - # 11
    frequency:    7.2906493803
  - # 12
    frequency:   10.6747910415
  - # 13
    frequency:   11.0297317697
  - # 14
    frequency:   11.0615289068
  - # 15
    frequency:   12.2472684118
  - # 16
    frequency:   12.5116617971
  - # 17
    frequency:   14.0755300212
  - # 18
    frequency:   45.5602566291

- q-position: [    0.0959596,    0.0000000,    0.0000000 ]
  distance:    0.0306584
  band:
  - # 1
    frequency:    0.4793038689
  - # 2
    frequency:    0.8712670837
  - # 3
    frequency:    1.5919900662
  - # 4
    frequency:    1.9765720851
  - # 5
    frequency:    2.2661620527
  - # 6
    frequency:    2.9043913190
  - # 7
    frequency:    3.2364364300
  - # 8
    frequency:    3.9909154496
  - # 9
    frequency:    5.8275875229
  - # 10
    frequency:    6.9359470573
  - # 11
    frequency:    7.3154895251
  - # 12
    frequency:   10.6727390270
  - # 13
    frequency:   10.9969738172
  - # 14
    frequency:   11.0785306308
  - # 15
    frequency:   12.2397600638
  - # 16
    frequency:   12.5109532217
  - # 17
    frequency:   14.1037563860
  - # 18
    frequency:   45.5352099398

- q-position: [    0.1010101,    0.0000000,    0.0000000 ]
  distance:    0.0322721
  band:
  - # 1
    frequency:    0.5216042558
  - # 2
    frequency:    0.9150191593
  - # 3
    frequency:    1.6620449692
  - # 4
    frequency:    1.9905814150
  - # 5
    frequency:    2.3059883534
  - # 6
    frequency:    2.9248278474
  - # 7
    frequency:    3.2799356566
  - # 8
    frequency:    4.0042849605
  - # 9
    frequency:    5.8096224848
  - # 10
    frequency:    6.9275927012
  - # 11
    frequency:    7.3406805907
  - # 12
    frequency:   10.6707821323
  - # 13
    frequency:   10.9463688025
  - # 14
    frequency:   11.1150934449
  - # 15
    frequency:   12.2319191485
  - # 16
    frequency:   12.5085089894
  - # 17
    frequency:   14.1327042190
  - # 18
    frequency:   45.5090352004

- q-position: [    0.1060606,    0.0000000,    0.0000000 ]
  distance:    0.0338857
  band:
  - # 1
    frequency:    0.5647161426
  - # 2
    frequency:    0.9583991267
  - # 3
    frequency:    1.7300935502
  - # 4
    frequency:    2.0052612866
  - # 5
    frequency:    2.3467678793
  - # 6
    frequency:    2.9457767494
  - # 7
    frequency:    3.3233259321
  - # 8
    frequency:    4.0190479151
  - # 9
    frequency:    5.7915730884
  - # 10
    frequency:    6.9190219968
  - # 11
    frequency:    7.3661190025
  - # 12
    frequency:   10.6689455590
  - # 13
    frequency:   10.8950681350
  - # 14
    frequency:   11.1541254063
  - # 15
    frequency:   12.2237564556
  - # 16
    frequency:   12.5044035064
  - # 17
    frequency:   14.1622554678
  - # 18
    frequency:   45.4817661823

- q-position: [    0.1111111,    0.0000000,    0.0000000 ]
  distance:    0.0354993
  band:
  - # 1
    frequency:    0.6085499445
  - # 2
    frequency:    1.0013787585
  - # 3
    frequency:    1.7961049124
  - # 4
    frequency:    2.0206021141
  - # 5
    frequency:    2.3883127783
  - # 6
    frequency:    2.9671823176
  - # 7
    frequency:    3.3664855828
  - # 8
    frequency:    4.0352712875
  - # 9
    frequency:    5.7735035405
  - # 10
    frequency:    6.9102687871
  - # 11
    frequency:    7.3917008145
  - # 12
    frequency:   10.6672541984
  - # 13
    frequency:   10.8439382260
  - # 14
    frequency:   11.1948122294
  - # 15
    frequency:   12.2152831443
  - # 16
    frequency:   12.4987172417
  - # 17
    frequency:   14.1922949163
  - # 18
    frequency:   45.4534379206

- q-position: [    0.1161616,    0.0000000,    0.0000000 ]
  distance:    0.0371129
  band:
  - # 1
    frequency:    0.6530223597
  - # 2
    frequency:    1.0439290985
  - # 3
    frequency:    1.8600708624
  - # 4
    frequency:    2.0365940409
  - # 5
    frequency:    2.4304114481
  - # 6
    frequency:    2.9889903192
  - # 7
    frequency:    3.4093267397
  - # 8
    frequency:    4.0530061038
  - # 9
    frequency:    5.7554768121
  - # 10
    frequency:    6.9013685643
  - # 11
    frequency:    7.4173217272
  - # 12
    frequency:   10.6657324776
  - # 13
    frequency:   10.7932284968
  - # 14
    frequency:   11.2369502376
  - # 15
    frequency:   12.2065107213
  - # 16
    frequency:   12.4915345447
  - # 17
    frequency:   14.2227113039
  - # 18
    frequency:   45.4240866495

- q-position: [    0.1212121,    0.0000000,    0.0000000 ]
  distance:    0.0387265
  band:
  - # 1
    frequency:    0.6980557910
  - # 2
    frequency:    1.0860205435
  - # 3
    frequency:    1.9220067470
  - # 4
    frequency:    2.0532270589
  - # 5
    frequency:    2.4728291224
  - # 6
    frequency:    3.0111482296
  - # 7
    frequency:    3.4517975875
  - # 8
    frequency:    4.0722827625
  - # 9
    frequency:    5.7375552094
  - # 10
    frequency:    6.8923583271
  - # 11
    frequency:    7.4428772300
  - # 12
    frequency:   10.6644042153
  - # 13
    frequency:   10.7430880888
  - # 14
    frequency:   11.2804303546
  - # 15
    frequency:   12.1974510180
  - # 16
    frequency:   12.4829419450
  - # 17
    frequency:   14.2533981752
  - # 18
    frequency:   45.3937497347

- q-position: [    0.1262626,    0.0000000,    0.0000000 ]
  distance:    0.0403401
  band:
  - # 1
    frequency:    0.7435777894
  - # 2
    frequency:    1.1276229374
  - # 3
    frequency:    1.9819507599
  - # 4
    frequency:    2.0704911162
  - # 5
    frequency:    2.5153107193
  - # 6
    frequency:    3.0336054490
  - # 7
    frequency:    3.4938832375
  - # 8
    frequency:    4.0931068273
  - # 9
    frequency:    5.7198009443
  - # 10
    frequency:    6.8832764081
  - # 11
    frequency:    7.4682628711
  - # 12
    frequency:   10.6632924879
  - # 13
    frequency:   10.6936359321
  - # 14
    frequency:   11.3251685154
  - # 15
    frequency:   12.1881161679
  - # 16
    frequency:   12.4730268690
  - # 17
    frequency:   14.2842544859
  - # 18
    frequency:   45.3624656057

- q-position: [    0.1313131,    0.0000000,    0.0000000 ]
  distance:    0.0419537
  band:
  - # 1
    frequency:    0.7895205315
  - # 2
    frequency:    1.1687056782
  - # 3
    frequency:    2.0399616771
  - # 4
    frequency:    2.0883762078
  - # 5
    frequency:    2.5575860828
  - # 6
    frequency:    3.0563135046
  - # 7
    frequency:    3.5356046337
  - # 8
    frequency:    4.1154558279
  - # 9
    frequency:    5.7022767044
  - # 10
    frequency:    6.8741622709
  - # 11
    frequency:    7.4933746538
  - # 12
    frequency:   10.6449778608
  - # 13
    frequency:   10.6624195066
  - # 14
    frequency:   11.3710888389
  - # 15
    frequency:   12.1785185837
  - # 16
    frequency:   12.4618767145
  - # 17
    frequency:   14.3151849962
  - # 18
    frequency:   45.3302736855

- q-position: [    0.1363636,    0.0000000,    0.0000000 ]
  distance:    0.0435673
  band:
  - # 1
    frequency:    0.8358203375
  - # 2
    frequency:    1.2092378410
  - # 3
    frequency:    2.0961152181
  - # 4
    frequency:    2.1068724451
  - # 5
    frequency:    2.5993774437
  - # 6
    frequency:    3.0792262394
  - # 7
    frequency:    3.5770150054
  - # 8
    frequency:    4.1392775591
  - # 9
    frequency:    5.6850462222
  - # 10
    frequency:    6.8650562778
  - # 11
    frequency:    7.5181095513
  - # 12
    frequency:   10.5972122774
  - # 13
    frequency:   10.6618065068
  - # 14
    frequency:   11.4181180728
  - # 15
    frequency:   12.1686709345
  - # 16
    frequency:   12.4495782276
  - # 17
    frequency:   14.3461004882
  - # 18
    frequency:   45.2972143190

- q-position: [    0.1414141,    0.0000000,    0.0000000 ]
  distance:    0.0451809
  band:
  - # 1
    frequency:    0.8824172346
  - # 2
    frequency:    1.2491883186
  - # 3
    frequency:    2.1259700981
  - # 4
    frequency:    2.1504994331
  - # 5
    frequency:    2.6404086215
  - # 6
    frequency:    3.1022999901
  - # 7
    frequency:    3.6181936473
  - # 8
    frequency:    4.1644902043
  - # 9
    frequency:    5.6681748460
  - # 10
    frequency:    6.8559994295
  - # 11
    frequency:    7.5423661312
  - # 12
    frequency:   10.5504323872
  - # 13
    frequency:   10.6614736491
  - # 14
    frequency:   11.4661832975
  - # 15
    frequency:   12.1585861223
  - # 16
    frequency:   12.4362171437
  - # 17
    frequency:   14.3769178428
  - # 18
    frequency:   45.2633287006

- q-position: [    0.1464646,    0.0000000,    0.0000000 ]
  distance:    0.0467945
  band:
  - # 1
    frequency:    0.9292545665
  - # 2
    frequency:    1.2885259820
  - # 3
    frequency:    2.1456596073
  - # 4
    frequency:    2.2032096139
  - # 5
    frequency:    2.6804152570
  - # 6
    frequency:    3.1254937524
  - # 7
    frequency:    3.6592371978
  - # 8
    frequency:    4.1909843490
  - # 9
    frequency:    5.6517301119
  - # 10
    frequency:    6.8470330783
  - # 11
    frequency:    7.5660452758
  - # 12
    frequency:   10.5047271463
  - # 13
    frequency:   10.6614399325
  - # 14
    frequency:   11.5152107345
  - # 15
    frequency:   12.1482772597
  - # 16
    frequency:   12.4218780665
  - # 17
    frequency:   14.4075600101
  - # 18
    frequency:   45.2286588007

- q-position: [    0.1515152,    0.0000000,    0.0000000 ]
  distance:    0.0484081
  band:
  - # 1
    frequency:    0.9762786492
  - # 2
    frequency:    1.3272198617
  - # 3
    frequency:    2.1659315625
  - # 4
    frequency:    2.2543432200
  - # 5
    frequency:    2.7191552272
  - # 6
    frequency:    3.1487693366
  - # 7
    frequency:    3.7002490206
  - # 8
    frequency:    4.2186266587
  - # 9
    frequency:    5.6357823179
  - # 10
    frequency:    6.8381986186
  - # 11
    frequency:    7.5890509828
  - # 12
    frequency:   10.4601816310
  - # 13
    frequency:   10.6617231212
  - # 14
    frequency:   11.5651249267
  - # 15
    frequency:   12.1377576462
  - # 16
    frequency:   12.4066445858
  - # 17
    frequency:   14.4379559027
  - # 18
    frequency:   45.1932472916

- q-position: [    0.1565657,    0.0000000,    0.0000000 ]
  distance:    0.0500217
  band:
  - # 1
    frequency:    1.0234384711
  - # 2
    frequency:    1.3652393508
  - # 3
    frequency:    2.1867766462
  - # 4
    frequency:    2.3039952062
  - # 5
    frequency:    2.7564183723
  - # 6
    frequency:    3.1720915092
  - # 7
    frequency:    3.7413276723
  - # 8
    frequency:    4.2472647484
  - # 9
    frequency:    5.6204050967
  - # 10
    frequency:    6.8295371562
  - # 11
    frequency:    7.6112912293
  - # 12
    frequency:   10.4168771027
  - # 13
    frequency:   10.6623396816
  - # 14
    frequency:   11.6158479546
  - # 15
    frequency:   12.1270407452
  - # 16
    frequency:   12.3905996720
  - # 17
    frequency:   14.4680402372
  - # 18
    frequency:   45.1571374724

- q-position: [    0.1616162,    0.0000000,    0.0000000 ]
  distance:    0.0516353
  band:
  - # 1
    frequency:    1.0706854353
  - # 2
    frequency:    1.4025544302
  - # 3
    frequency:    2.2081855417
  - # 4
    frequency:    2.3522539817
  - # 5
    frequency:    2.7920347502
  - # 6
    frequency:    3.1954281221
  - # 7
    frequency:    3.7825556450
  - # 8
    frequency:    4.2767326361
  - # 9
    frequency:    5.6056759779
  - # 10
    frequency:    6.8210891623
  - # 11
    frequency:    7.6326788774
  - # 12
    frequency:   10.3748908918
  - # 13
    frequency:   10.6633047319
  - # 14
    frequency:   11.6672984480
  - # 15
    frequency:   12.1161401609
  - # 16
    frequency:   12.3738264517
  - # 17
    frequency:   14.4977533445
  - # 18
    frequency:   45.1203731942

- q-position: [    0.1666667,    0.0000000,    0.0000000 ]
  distance:    0.0532489
  band:
  - # 1
    frequency:    1.1179731414
  - # 2
    frequency:    1.4391359127
  - # 3
    frequency:    2.2301488064
  - # 4
    frequency:    2.3991980656
  - # 5
    frequency:    2.8258808166
  - # 6
    frequency:    3.2187502255
  - # 7
    frequency:    3.8239895610
  - # 8
    frequency:    4.3068561725
  - # 9
    frequency:    5.5916769274
  - # 10
    frequency:    6.8128941164
  - # 11
    frequency:    7.6531326018
  - # 12
    frequency:   10.3342961612
  - # 13
    frequency:   10.6646320033
  - # 14
    frequency:   11.7193900925
  - # 15
    frequency:   12.1050696144
  - # 16
    frequency:   12.3564095952
  - # 17
    frequency:   14.5270409652
  - # 18
    frequency:   45.0829987848

- q-position: [    0.1717172,    0.0000000,    0.0000000 ]
  distance:    0.0548625
  band:
  - # 1
    frequency:    1.1652572026
  - # 2
    frequency:    1.4749557035
  - # 3
    frequency:    2.2526567156
  - # 4
    frequency:    2.4448933679
  - # 5
    frequency:    2.8578831909
  - # 6
    frequency:    3.2420321631
  - # 7
    frequency:    3.8656527556
  - # 8
    frequency:    4.3374579612
  - # 9
    frequency:    5.5784948371
  - # 10
    frequency:    6.8049901422
  - # 11
    frequency:    7.6725778146
  - # 12
    frequency:   10.2951615882
  - # 13
    frequency:   10.6663338101
  - # 14
    frequency:   11.7720290912
  - # 15
    frequency:   12.0938429212
  - # 16
    frequency:   12.3384378134
  - # 17
    frequency:   14.5558540419
  - # 18
    frequency:   45.0450589733

- q-position: [    0.1767677,    0.0000000,    0.0000000 ]
  distance:    0.0564761
  band:
  - # 1
    frequency:    1.2124950945
  - # 2
    frequency:    1.5099870708
  - # 3
    frequency:    2.2756990796
  - # 4
    frequency:    2.4893909253
  - # 5
    frequency:    2.8880199847
  - # 6
    frequency:    3.2652516466
  - # 7
    frequency:    3.9075307953
  - # 8
    frequency:    4.3683614691
  - # 9
    frequency:    5.5662219303
  - # 10
    frequency:    6.7974136446
  - # 11
    frequency:    7.6909475632
  - # 12
    frequency:   10.2575509922
  - # 13
    frequency:   10.6684210303
  - # 14