nqpoint: 300    
npath: 3      
segment_nqpoint:
- 100
- 100
- 100
labels:
- [ 'G', 'M' ]
- [ 'M', 'K' ]
- [ 'K', 'G' ]
reciprocal_lattice:
- [   0.30545599,   0.17635510,   0.00000000 ] # a*
- [   0.00000000,   0.35271020,   0.00000000 ] # b*
- [   0.00000000,   0.00000000,   0.04424957 ] # c*
natom: 5      
lattice:
- [     3.273794048669159,     0.000000000000000,     0.000000000000000 ] # a
- [    -1.636897024334580,     2.835188812868137,     0.000000000000000 ] # b
- [     0.000000000000000,     0.000000000000000,    22.599091213310306 ] # c
points:
- symbol: C # 1
  coordinates: [  0.000000000000000,  0.000000000000000,  0.500000038568231 ]
  mass: 12.010700
- symbol: Hf # 2
  coordinates: [  0.333332985432215,  0.666666983183674,  0.439064810094307 ]
  mass: 178.490000
- symbol: Hf # 3
  coordinates: [  0.666666984744047,  0.333332985985144,  0.560935189330037 ]
  mass: 178.490000
- symbol: O # 4
  coordinates: [  0.333332985432215,  0.666666983183674,  0.601753897311622 ]
  mass: 15.999400
- symbol: O # 5
  coordinates: [  0.666666984744047,  0.333332985985144,  0.398246102688378 ]
  mass: 15.999400

phonon:
- q-position: [    0.0000000,    0.0000000,    0.0000000 ]
  distance:    0.0000000
  band:
  - # 1
    frequency:   -0.0000396553
  - # 2
    frequency:    0.0000000906
  - # 3
    frequency:    0.0000292542
  - # 4
    frequency:    2.5394386707
  - # 5
    frequency:    2.5394386710
  - # 6
    frequency:    5.2545854599
  - # 7
    frequency:    9.4530267596
  - # 8
    frequency:    9.4530267599
  - # 9
    frequency:   12.2725602841
  - # 10
    frequency:   12.2725602843
  - # 11
    frequency:   14.8922266368
  - # 12
    frequency:   15.2736216930
  - # 13
    frequency:   15.3339831640
  - # 14
    frequency:   15.3339831642
  - # 15
    frequency:   21.2141147575

- q-position: [    0.0050505,    0.0000000,    0.0000000 ]
  distance:    0.0017814
  band:
  - # 1
    frequency:    0.0078317655
  - # 2
    frequency:    0.0691381128
  - # 3
    frequency:    0.1107784012
  - # 4
    frequency:    2.5393466240
  - # 5
    frequency:    2.5408553333
  - # 6
    frequency:    5.2543123937
  - # 7
    frequency:    9.4534083284
  - # 8
    frequency:    9.4651523613
  - # 9
    frequency:   12.2710333549
  - # 10
    frequency:   12.2724654794
  - # 11
    frequency:   14.8921889666
  - # 12
    frequency:   15.2597357332
  - # 13
    frequency:   15.3339092397
  - # 14
    frequency:   15.3467741726
  - # 15
    frequency:   21.2136989997

- q-position: [    0.0101010,    0.0000000,    0.0000000 ]
  distance:    0.0035627
  band:
  - # 1
    frequency:    0.0168104133
  - # 2
    frequency:    0.1382025896
  - # 3
    frequency:    0.2214898015
  - # 4
    frequency:    2.5390720882
  - # 5
    frequency:    2.5451006251
  - # 6
    frequency:    5.2534934324
  - # 7
    frequency:    9.4545551900
  - # 8
    frequency:    9.5013701281
  - # 9
    frequency:   12.2664597221
  - # 10
    frequency:   12.2721805230
  - # 11
    frequency:   14.8920730148
  - # 12
    frequency:   15.2319755657
  - # 13
    frequency:   15.3336871733
  - # 14
    frequency:   15.3712671798
  - # 15
    frequency:   21.2124522432

- q-position: [    0.0151515,    0.0000000,    0.0000000 ]
  distance:    0.0053441
  band:
  - # 1
    frequency:    0.0278336905
  - # 2
    frequency:    0.2071199604
  - # 3
    frequency:    0.3320693919
  - # 4
    frequency:    2.5386198701
  - # 5
    frequency:    2.5521602487
  - # 6
    frequency:    5.2521292919
  - # 7
    frequency:    9.4564737737
  - # 8
    frequency:    9.5612082961
  - # 9
    frequency:   12.2588610986
  - # 10
    frequency:   12.2717038036
  - # 11
    frequency:   14.8918697895
  - # 12
    frequency:   15.1999164111
  - # 13
    frequency:   15.3333160903
  - # 14
    frequency:   15.3979405553
  - # 15
    frequency:   21.2103760284

- q-position: [    0.0202020,    0.0000000,    0.0000000 ]
  distance:    0.0071255
  band:
  - # 1
    frequency:    0.0414730848
  - # 2
    frequency:    0.2758171879
  - # 3
    frequency:    0.4424563957
  - # 4
    frequency:    2.5379979597
  - # 5
    frequency:    2.5620097560
  - # 6
    frequency:    5.2502211796
  - # 7
    frequency:    9.4591746735
  - # 8
    frequency:    9.6438977646
  - # 9
    frequency:   12.2482745599
  - # 10
    frequency:   12.2710326836
  - # 11
    frequency:   14.8915636277
  - # 12
    frequency:   15.1656417834
  - # 13
    frequency:   15.3327945451
  - # 14
    frequency:   15.4248019313
  - # 15
    frequency:   21.2074728915

- q-position: [    0.0252525,    0.0000000,    0.0000000 ]
  distance:    0.0089068
  band:
  - # 1
    frequency:    0.0580359326
  - # 2
    frequency:    0.3442218472
  - # 3
    frequency:    0.5525953575
  - # 4
    frequency:    2.5372174980
  - # 5
    frequency:    2.5746139034
  - # 6
    frequency:    5.2477708166
  - # 7
    frequency:    9.4626724683
  - # 8
    frequency:    9.7483956274
  - # 9
    frequency:   12.2347541044
  - # 10
    frequency:   12.2701635700
  - # 11
    frequency:   14.8911306687
  - # 12
    frequency:   15.1297299539
  - # 13
    frequency:   15.3321205395
  - # 14
    frequency:   15.4514050509
  - # 15
    frequency:   21.2037463181

- q-position: [    0.0303030,    0.0000000,    0.0000000 ]
  distance:    0.0106882
  band:
  - # 1
    frequency:    0.0776567312
  - # 2
    frequency:    0.4122623364
  - # 3
    frequency:    0.6624366803
  - # 4
    frequency:    2.5362927309
  - # 5
    frequency:    2.5899262240
  - # 6
    frequency:    5.2447804679
  - # 7
    frequency:    9.4669854745
  - # 8
    frequency:    9.8734139099
  - # 9
    frequency:   12.2183733939
  - # 10
    frequency:   12.2690920118
  - # 11
    frequency:   14.8905351550
  - # 12
    frequency:   15.0924161569
  - # 13
    frequency:   15.3312915483
  - # 14
    frequency:   15.4776938812
  - # 15
    frequency:   21.1992006804

- q-position: [    0.0353535,    0.0000000,    0.0000000 ]
  distance:    0.0124696
  band:
  - # 1
    frequency:    0.1003648739
  - # 2
    frequency:    0.4798680872
  - # 3
    frequency:    0.7719363700
  - # 4
    frequency:    2.5352409482
  - # 5
    frequency:    2.6078891149
  - # 6
    frequency:    5.2412529835
  - # 7
    frequency:    9.4721354353
  - # 8
    frequency:   10.0174497201
  - # 9
    frequency:   12.1992305019
  - # 10
    frequency:   12.2678128212
  - # 11
    frequency:   14.8897197720
  - # 12
    frequency:   15.0538492391
  - # 13
    frequency:   15.3303045505
  - # 14
    frequency:   15.5037592017
  - # 15
    frequency:   21.1938411598

- q-position: [    0.0404040,    0.0000000,    0.0000000 ]
  distance:    0.0142509
  band:
  - # 1
    frequency:    0.1261252949
  - # 2
    frequency:    0.5469697783
  - # 3
    frequency:    0.8810550429
  - # 4
    frequency:    2.5340824081
  - # 5
    frequency:    2.6284346469
  - # 6
    frequency:    5.2371918490
  - # 7
    frequency:    9.4781471509
  - # 8
    frequency:   10.1788121429
  - # 9
    frequency:   12.1774563382
  - # 10
    frequency:   12.2663202175
  - # 11
    frequency:   14.8885765974
  - # 12
    frequency:   15.0141918561
  - # 13
    frequency:   15.3291560668
  - # 14
    frequency:   15.5297721683
  - # 15
    frequency:   21.1876736564

- q-position: [    0.0454545,    0.0000000,    0.0000000 ]
  distance:    0.0160323
  band:
  - # 1
    frequency:    0.1548615444
  - # 2
    frequency:    0.6134995521
  - # 3
    frequency:    0.9897563240
  - # 4
    frequency:    2.5328402438
  - # 5
    frequency:    2.6514861695
  - # 6
    frequency:    5.2326012467
  - # 7
    frequency:    9.4850480579
  - # 8
    frequency:   10.3556396202
  - # 9
    frequency:   12.1532302684
  - # 10
    frequency:   12.2646079888
  - # 11
    frequency:   14.8868366185
  - # 12
    frequency:   14.9737567646
  - # 13
    frequency:   15.3278422013
  - # 14
    frequency:   15.5559645718
  - # 15
    frequency:   21.1807046888

- q-position: [    0.0505051,    0.0000000,    0.0000000 ]
  distance:    0.0178136
  band:
  - # 1
    frequency:    0.1864692997
  - # 2
    frequency:    0.6793912334
  - # 3
    frequency:    1.0980048029
  - # 4
    frequency:    2.5315403531
  - # 5
    frequency:    2.6769606559
  - # 6
    frequency:    5.2274861289
  - # 7
    frequency:    9.4928677628
  - # 8
    frequency:   10.5458975675
  - # 9
    frequency:   12.1268109264
  - # 10
    frequency:   12.2626696706
  - # 11
    frequency:   14.8834440190
  - # 12
    frequency:   14.9336439313
  - # 13
    frequency:   15.3263586884
  - # 14
    frequency:   15.5826251523
  - # 15
    frequency:   21.1729412875

- q-position: [    0.0555556,    0.0000000,    0.0000000 ]
  distance:    0.0195950
  band:
  - # 1
    frequency:    0.2208249480
  - # 2
    frequency:    0.7445805513
  - # 3
    frequency:    1.2057637133
  - # 4
    frequency:    2.5302112688
  - # 5
    frequency:    2.7047716364
  - # 6
    frequency:    5.2218523028
  - # 7
    frequency:    9.5016375371
  - # 8
    frequency:   10.7473345829
  - # 9
    frequency:   12.0986021760
  - # 10
    frequency:   12.2604987366
  - # 11
    frequency:   14.8711390242
  - # 12
    frequency:   14.9011639001
  - # 13
    frequency:   15.3247009420
  - # 14
    frequency:   15.6101030904
  - # 15
    frequency:   21.1643908837

- q-position: [    0.0606061,    0.0000000,    0.0000000 ]
  distance:    0.0213764
  band:
  - # 1
    frequency:    0.2577915859
  - # 2
    frequency:    0.8090053625
  - # 3
    frequency:    1.3129924761
  - # 4
    frequency:    2.5288840087
  - # 5
    frequency:    2.7348325188
  - # 6
    frequency:    5.2157065304
  - # 7
    frequency:    9.5113897847
  - # 8
    frequency:   10.9573400632
  - # 9
    frequency:   12.0693102792
  - # 10
    frequency:   12.2580887984
  - # 11
    frequency:   14.8362443481
  - # 12
    frequency:   14.8900556955
  - # 13
    frequency:   15.3228641073
  - # 14
    frequency:   15.6388157508
  - # 15
    frequency:   21.1550611992

- q-position: [    0.0656566,    0.0000000,    0.0000000 ]
  distance:    0.0231577
  band:
  - # 1
    frequency:    0.2972235492
  - # 2
    frequency:    0.8726058758
  - # 3
    frequency:    1.4196442074
  - # 4
    frequency:    2.5275919042
  - # 5
    frequency:    2.7670600932
  - # 6
    frequency:    5.2090566429
  - # 7
    frequency:    9.5221574859
  - # 8
    frequency:   11.1725192766
  - # 9
    frequency:   12.0403755831
  - # 10
    frequency:   12.2554338115
  - # 11
    frequency:   14.7930459548
  - # 12
    frequency:   14.8861100159
  - # 13
    frequency:   15.3208431141
  - # 14
    frequency:   15.6692596481
  - # 15
    frequency:   21.1449601398

- q-position: [    0.0707071,    0.0000000,    0.0000000 ]
  distance:    0.0249391
  band:
  - # 1
    frequency:    0.3389699765
  - # 2
    frequency:    0.9353248764
  - # 3
    frequency:    1.5256632504
  - # 4
    frequency:    2.5263704067
  - # 5
    frequency:    2.8013780508
  - # 6
    frequency:    5.2019116740
  - # 7
    frequency:    9.5339736303
  - # 8
    frequency:   11.3872593778
  - # 9
    frequency:   12.0154050266
  - # 10
    frequency:   12.2525282829
  - # 11
    frequency:   14.7478256160
  - # 12
    frequency:   14.8831410959
  - # 13
    frequency:   15.3186327300
  - # 14
    frequency:   15.7020241690
  - # 15
    frequency:   21.1340956966

- q-position: [    0.0757576,    0.0000000,    0.0000000 ]
  distance:    0.0267205
  band:
  - # 1
    frequency:    0.3828776383
  - # 2
    frequency:    0.9971079488
  - # 3
    frequency:    1.6309827561
  - # 4
    frequency:    2.5252568710
  - # 5
    frequency:    2.8377203880
  - # 6
    frequency:    5.1942820145
  - # 7
    frequency:    9.5468706445
  - # 8
    frequency:   11.5878144321
  - # 9
    frequency:   12.0060776024
  - # 10
    frequency:   12.2493674782
  - # 11
    frequency:   14.7016207841
  - # 12
    frequency:   14.8802324771
  - # 13
    frequency:   15.3162276136
  - # 14
    frequency:   15.7378075423
  - # 15
    frequency:   21.1224758605

- q-position: [    0.0808081,    0.0000000,    0.0000000 ]
  distance:    0.0285018
  band:
  - # 1
    frequency:    0.4287931444
  - # 2
    frequency:    1.0579036964
  - # 3
    frequency:    1.7355223149
  - # 4
    frequency:    2.5242903142
  - # 5
    frequency:    2.8760346186
  - # 6
    frequency:    5.1861795920
  - # 7
    frequency:    9.5608798247
  - # 8
    frequency:   11.7311268517
  - # 9
    frequency:   12.0533060705
  - # 10
    frequency:   12.2459476241
  - # 11
    frequency:   14.6548222624
  - # 12
    frequency:   14.8771471404
  - # 13
    frequency:   15.3136223650
  - # 14
    frequency:   15.7774340113
  - # 15
    frequency:   21.1101085525

- q-position: [    0.0858586,    0.0000000,    0.0000000 ]
  distance:    0.0302832
  band:
  - # 1
    frequency:    0.4765646072
  - # 2
    frequency:    1.1176639572
  - # 3
    frequency:    1.8391856449
  - # 4
    frequency:    2.5235111522
  - # 5
    frequency:    2.9162847370
  - # 6
    frequency:    5.1776180830
  - # 7
    frequency:    9.5760307811
  - # 8
    frequency:   11.7707658873
  - # 9
    frequency:   12.2012756864
  - # 10
    frequency:   12.2422661048
  - # 11
    frequency:   14.6077173212
  - # 12
    frequency:   14.8737957661
  - # 13
    frequency:   15.3108115750
  - # 14
    frequency:   15.8218700382
  - # 15
    frequency:   21.0970015764

- q-position: [    0.0909091,    0.0000000,    0.0000000 ]
  distance:    0.0320646
  band:
  - # 1
    frequency:    0.5260428237
  - # 2
    frequency:    1.1763440113
  - # 3
    frequency:    1.9418583615
  - # 4
    frequency:    2.5229609116
  - # 5
    frequency:    2.9584538816
  - # 6
    frequency:    5.1686131626
  - # 7
    frequency:    9.5923509033
  - # 8
    frequency:   11.7538997261
  - # 9
    frequency:   12.2383216480
  - # 10
    frequency:   12.4004457626
  - # 11
    frequency:   14.5606045357
  - # 12
    frequency:   14.8701391589
  - # 13
    frequency:   15.3077898704
  - # 14
    frequency:   15.8722354830
  - # 15
    frequency:   21.0831625978

- q-position: [    0.0959596,    0.0000000,    0.0000000 ]
  distance:    0.0338459
  band:
  - # 1
    frequency:    0.5770820440
  - # 2
    frequency:    1.2339027816
  - # 3
    frequency:    2.0434059156
  - # 4
    frequency:    2.5226819186
  - # 5
    frequency:    3.0025466038
  - # 6
    frequency:    5.1591828053
  - # 7
    frequency:    9.6098648519
  - # 8
    frequency:   11.7188330003
  - # 9
    frequency:   12.2341144991
  - # 10
    frequency:   12.6099856588
  - # 11
    frequency:   14.5138468970
  - # 12
    frequency:   14.8661622620
  - # 13
    frequency:   15.3045519555
  - # 14
    frequency:   15.9298029698
  - # 15
    frequency:   21.0685991556

- q-position: [    0.1010101,    0.0000000,    0.0000000 ]
  distance:    0.0356273
  band:
  - # 1
    frequency:    0.6295403907
  - # 2
    frequency:    1.2903030222
  - # 3
    frequency:    2.1436718834
  - # 4
    frequency:    2.5227169669
  - # 5
    frequency:    3.0485905619
  - # 6
    frequency:    5.1493476465
  - # 7
    frequency:    9.6285940858
  - # 8
    frequency:   11.6763888330
  - # 9
    frequency:   12.2296465819
  - # 10
    frequency:   12.8163696388
  - # 11
    frequency:   14.4679242181
  - # 12
    frequency:   14.8618656931
  - # 13
    frequency:   15.3010926492
  - # 14
    frequency:   15.9959754165
  - # 15
    frequency:   21.0533187110

- q-position: [    0.1060606,    0.0000000,    0.0000000 ]
  distance:    0.0374087
  band:
  - # 1
    frequency:    0.6832799968
  - # 2
    frequency:    1.3455114953
  - # 3
    frequency:    2.2424769426
  - # 4
    frequency:    2.5231089646
  - # 5
    frequency:    3.0966373105
  - # 6
    frequency:    5.1391314265
  - # 7
    frequency:    9.6485564279
  - # 8
    frequency:   11.6300069829
  - # 9
    frequency:   12.2249216432
  - # 10
    frequency:   13.0132597110
  - # 11
    frequency:   14.4235090610
  - # 12
    frequency:   14.8572627781
  - # 13
    frequency:   15.2974069171
  - # 14
    frequency:   16.0722292723
  - # 15
    frequency:   21.0373287424

- q-position: [    0.1111111,    0.0000000,    0.0000000 ]
  distance:    0.0391900
  band:
  - # 1
    frequency:    0.7381669208
  - # 2
    frequency:    1.3994991329
  - # 3
    frequency:    2.3396190746
  - # 4
    frequency:    2.5239005633
  - # 5
    frequency:    3.1467616493
  - # 6
    frequency:    5.1285615394
  - # 7
    frequency:    9.6697656775
  - # 8
    frequency:   11.5811282845
  - # 9
    frequency:   12.2199453793
  - # 10
    frequency:   13.1960973397
  - # 11
    frequency:   14.3815901937
  - # 12
    frequency:   14.8523786226
  - # 13
    frequency:   15.2934898986
  - # 14
    frequency:   16.1600121688
  - # 15
    frequency:   21.0206368939

- q-position: [    0.1161616,    0.0000000,    0.0000000 ]
  distance:    0.0409714
  band:
  - # 1
    frequency:    0.7940708964
  - # 2
    frequency:    1.4522411825
  - # 3
    frequency:    2.4348757696
  - # 4
    frequency:    2.5251337717
  - # 5
    frequency:    3.1990587470
  - # 6
    frequency:    5.1176697214
  - # 7
    frequency:    9.6922312714
  - # 8
    frequency:   11.5305165534
  - # 9
    frequency:   12.2147255453
  - # 10
    frequency:   13.3607265000
  - # 11
    frequency:   14.3436740564
  - # 12
    frequency:   14.8472500277
  - # 13
    frequency:   15.2893369282
  - # 14
    frequency:   16.2605923190
  - # 15
    frequency:   21.0032511862

- q-position: [    0.1212121,    0.0000000,    0.0000000 ]
  distance:    0.0427528
  band:
  - # 1
    frequency:    0.8508649647
  - # 2
    frequency:    1.5037173346
  - # 3
    frequency:    2.5268495568
  - # 4
    frequency:    2.5280092244
  - # 5
    frequency:    3.2536380285
  - # 6
    frequency:    5.1064929235
  - # 7
    frequency:    9.7159579982
  - # 8
    frequency:   11.4786619663
  - # 9
    frequency:   12.2092720435
  - # 10
    frequency:   13.5028731863
  - # 11
    frequency:   14.3120801759
  - # 12
    frequency:   14.8419257658
  - # 13
    frequency:   15.2849435519
  - # 14
    frequency:   16.3748752873
  - # 15
    frequency:   20.9851803058

- q-position: [    0.1262626,    0.0000000,    0.0000000 ]
  distance:    0.0445341
  band:
  - # 1
    frequency:    0.9084250307
  - # 2
    frequency:    1.5539118304
  - # 3
    frequency:    2.5290874365
  - # 4
    frequency:    2.6187755672
  - # 5
    frequency:    3.3106127493
  - # 6
    frequency:    5.0950744330
  - # 7
    frequency:    9.7409457688
  - # 8
    frequency:   11.4259291029
  - # 9
    frequency:   12.2035969913
  - # 10
    frequency:   13.6178993029
  - # 11
    frequency:   14.2902107983
  - # 12
    frequency:   14.8364669761
  - # 13
    frequency:   15.2803055387
  - # 14
    frequency:   16.5032271300
  - # 15
    frequency:   20.9664339860

- q-position: [    0.1313131,    0.0000000,    0.0000000 ]
  distance:    0.0463155
  band:
  - # 1
    frequency:    0.9666293804
  - # 2
    frequency:    1.6028135497
  - # 3
    frequency:    2.5318850675
  - # 4
    frequency:    2.7069388192
  - # 5
    frequency:    3.3700844734
  - # 6
    frequency:    5.0834653307
  - # 7
    frequency:    9.7671894438
  - # 8
    frequency:   11.3726192293
  - # 9
    frequency:   12.1977147685
  - # 10
    frequency:   13.7012078392
  - # 11
    frequency:   14.2821950176
  - # 12
    frequency:   14.8309474891
  - # 13
    frequency:   15.2754188859
  - # 14
    frequency:   16.6453574250
  - # 15
    frequency:   20.9470235037

- q-position: [    0.1363636,    0.0000000,    0.0000000 ]
  distance:    0.0480968
  band:
  - # 1
    frequency:    1.0253581870
  - # 2
    frequency:    1.6504160751
  - # 3
    frequency:    2.5352778337
  - # 4
    frequency:    2.7922893778
  - # 5
    frequency:    3.4321225594
  - # 6
    frequency:    5.0717264076
  - # 7
    frequency:    9.7946787190
  - # 8
    frequency:   11.3189992361
  - # 9
    frequency:   12.1916420415
  - # 10
    frequency:   13.7503349546
  - # 11
    frequency:   14.2907761587
  - # 12
    frequency:   14.8254538454
  - # 13
    frequency:   15.2702798220
  - # 14
    frequency:   16.8003056847
  - # 15
    frequency:   20.9269623221

- q-position: [    0.1414141,    0.0000000,    0.0000000 ]
  distance:    0.0498782
  band:
  - # 1
    frequency:    1.0844930350
  - # 2
    frequency:    1.6967177338
  - # 3
    frequency:    2.5392984396
  - # 4
    frequency:    2.8746652462
  - # 5
    frequency:    3.4967402618
  - # 6
    frequency:    5.0599307159
  - # 7
    frequency:    9.8233980696
  - # 8
    frequency:   11.2653160446
  - # 9
    frequency:   12.1853977666
  - # 10
    frequency:   13.7679660964
  - # 11
    frequency:   14.3141790719
  - # 12
    frequency:   14.8200846561
  - # 13
    frequency:   15.2648848036
  - # 14
    frequency:   16.9665389238
  - # 15
    frequency:   20.9062669204

- q-position: [    0.1464646,    0.0000000,    0.0000000 ]
  distance:    0.0516596
  band:
  - # 1
    frequency:    1.1439164806
  - # 2
    frequency:    1.7417216142
  - # 3
    frequency:    2.5439765159
  - # 4
    frequency:    2.9539724168
  - # 5
    frequency:    3.5638707960
  - # 6
    frequency:    5.0481670008
  - # 7
    frequency:    9.8533267503
  - # 8
    frequency:   11.2118040768
  - # 9
    frequency:   12.1790031692
  - # 10
    frequency:   13.7615540371
  - # 11
    frequency:   14.3463058084
  - # 12
    frequency:   14.8149487820
  - # 13
    frequency:   15.2592305108
  - # 14
    frequency:   17.1421269325
  - # 15
    frequency:   20.8849578683

- q-position: [    0.1515152,    0.0000000,    0.0000000 ]
  distance:    0.0534409
  band:
  - # 1
    frequency:    1.2035116699
  - # 2
    frequency:    1.7854355559
  - # 3
    frequency:    2.5493382420
  - # 4
    frequency:    3.0301996501
  - # 5
    frequency:    3.6333477709
  - # 6
    frequency:    5.0365443691
  - # 7
    frequency:    9.8844388525
  - # 8
    frequency:   11.1586891541
  - # 9
    frequency:   12.1724817015
  - # 10
    frequency:   13.7392387955
  - # 11
    frequency:   14.3806117356
  - # 12
    frequency:   14.8101616626
  - # 13
    frequency:   15.2533138391
  - # 14
    frequency:   17.3249404764
  - # 15
    frequency:   20.8630612289

- q-position: [    0.1565657,    0.0000000,    0.0000000 ]
  distance:    0.0552223
  band:
  - # 1
    frequency:    1.2631620325
  - # 2
    frequency:    1.8278721106
  - # 3
    frequency:    2.5554059937
  - # 4
    frequency:    3.1034233839
  - # 5
    frequency:    3.7048937433
  - # 6
    frequency:    5.0251987004
  - # 7
    frequency:    9.9167034124
  - # 8
    frequency:   11.1061904372
  - # 9
    frequency:   12.1658589764
  - # 10
    frequency:   13.7071006712
  - # 11
    frequency:   14.4126778196
  - # 12
    frequency:   14.8058391414
  - # 13
    frequency:   15.2471318901
  - # 14
    frequency:   17.5128244010
  - # 15
    frequency:   20.8406104076

- q-position: [    0.1616162,    0.0000000,    0.0000000 ]
  distance:    0.0570037
  band:
  - # 1
    frequency:    1.3227510639
  - # 2
    frequency:    1.8690484716
  - # 3
    frequency:    2.5621980238
  - # 4
    frequency:    3.1738009644
  - # 5
    frequency:    3.7781179787
  - # 6
    frequency:    5.0143015206
  - # 7
    frequency:    9.9500845710
  - # 8
    frequency:   11.0545212284
  - # 9
    frequency:   12.1591626791
  - # 10
    frequency:   13.6689973484
  - # 11
    frequency:   14.4402524718
  - # 12
    frequency:   14.8020885626
  - # 13
    frequency:   15.2406819612
  - # 14
    frequency:   17.7037205263
  - # 15
    frequency:   20.8176486202

- q-position: [    0.1666667,    0.0000000,    0.0000000 ]
  distance:    0.0587850
  band:
  - # 1
    frequency:    1.3821622128
  - # 2
    frequency:    1.9089863685
  - # 3
    frequency:    2.5697281836
  - # 4
    frequency:    3.2415538358
  - # 5
    frequency:    3.8525207667
  - # 6
    frequency:    5.0040723457
  - # 7
    frequency:    9.9845417789
  - # 8
    frequency:   11.0038890817
  - # 9
    frequency:   12.1524224551
  - # 10
    frequency:   13.6272712563
  - # 11
    frequency:   14.4624781443
  - # 12
    frequency:   14.7989979493
  - # 13
    frequency:   15.2339615357
  - # 14
    frequency:   17.8957374532
  - # 15
    frequency:   20.7942322337

- q-position: [    0.1717172,    0.0000000,    0.0000000 ]
  distance:    0.0605664
  band:
  - # 1
    frequency:    1.4412788846
  - # 2
    frequency:    1.9477119218
  - # 3
    frequency:    2.5780056943
  - # 4
    frequency:    3.3069450327
  - # 5
    frequency:    3.9274985909
  - # 6
    frequency:    4.9947958420
  - # 7
    frequency:   10.0200300441
  - # 8
    frequency:   10.9544954720
  - # 9
    frequency:   12.1456697766
  - # 10
    frequency:   13.5833641563
  - # 11
    frequency:   14.4792528540
  - # 12
    frequency:   14.7966255943
  - # 13
    frequency:   15.2269682734
  - # 14
    frequency:   18.0871771646
  - # 15
    frequency:   20.7704353624

- q-position: [    0.1767677,    0.0000000,    0.0000000 ]
  distance:    0.0623478
  band:
  - # 1
    frequency:    1.4999845715
  - # 2
    frequency:    1.9852554540
  - # 3
    frequency:    2.5870349773
  - # 4
    frequency:    3.3702560726
  - # 5
    frequency:    4.0023434031
  - # 6
    frequency:    4.9868454462
  - # 7
    frequency:   10.0565002174
  - # 8
    frequency:   10.9065351747
  - # 9
    frequency:   12.1389377856
  - # 10
    frequency:   13.5381972008
  - # 11
    frequency:   14.4908508405
  - # 12
    frequency:   14.7949935888
  - # 13
    frequency:   15.2197000039
  - # 14
    frequency:   18.2765317190
  - # 15
    frequency:   20.7463562956

- q-position: [    0.1818182,    0.0000000,    0.0000000 ]
  distance:    0.0641291
  band:
  - # 1
    frequency:    1.5581631193
  - # 2
    frequency:    2.0216512515
  - # 3
    frequency:    2.5968155527
  - # 4
    frequency:    3.4317672081
  - # 5
    frequency:    4.0762304914
  - # 6
    frequency:    4.9807149891
  - # 7
    frequency:   10.0938993113
  - # 8
    frequency:   10.8601954512
  - # 9
    frequency:   12.1322611153
  - # 10
    frequency:   13.4923862858
  - # 11
    frequency:   14.4977171323
  - # 12
    frequency:   14.7940884638
  - # 13
    frequency:   15.2121547217
  - # 14
    frequency:   18.4624612831
  - # 15
    frequency:   20.7221266422

- q-position: [    0.1868687,    0.0000000,    0.0000000 ]
  distance:    0.0659105
  band:
  - # 1
    frequency:    1.6156991330
  - # 2
    frequency:    2.0569372730
  - # 3
    frequency:    2.6073420134
  - # 4
    frequency:    3.4917429867
  - # 5
    frequency:    4.1481928436
  - # 6
    frequency:    4.9770584619
  - # 7
    frequency:   10.1321708469
  - # 8
    frequency:   10.8156551037
  - # 9
    frequency:   12.1256756904
  - # 10
    frequency:   13.4463629245
  - # 11
    frequency:   14.5003563846
  - # 12
    frequency:   14.7938696606
  - # 13
    frequency:   15.2043305857
  - # 14
    frequency:   18.6437607554
  - # 15
    frequency:   20.6979245681

- q-position: [    0.1919192,    0.0000000,    0.0000000 ]
  distance:    0.0676919
  band:
  - # 1
    frequency:    1.6724785268
  - # 2
    frequency:    2.0911547999
  - # 3
    frequency:    2.6186040806
  - # 4
    frequency:    3.5504232539
  - # 5
    frequency:    4.2170865167
  - # 6
    frequency:    4.9767332736
  - # 7
    frequency:   10.1712552252
  - # 8
    frequency:   10.7730834456
  - # 9
    frequency:   12.1192185059
  - # 10
    frequency:   13.4004434022
  - # 11
    frequency:   14.4992705165
  - # 12
    frequency:   14.7942831809
  - # 13
    frequency:   15.1962259221
  - # 14
    frequency:   18.8193181617
  - # 15
    frequency:   20.6739942647

- q-position: [    0.1969697,    0.0000000,    0.0000000 ]
  distance:    0.0694732
  band:
  - # 1
    frequency:    1.7283892122
  - # 2
    frequency:    2.1243480289
  - # 3
    frequency:    2.6305867455
  - # 4
    frequency:    3.6080186320
  - # 5
    frequency:    4.2815643827
  - # 6
    frequency:    4.9808305935
  - # 7
    frequency:   10.2110901174
  - # 8
    frequency:   10.7326392218
  - # 9
    frequency:   12.1129273860
  - # 10
    frequency:   13.3548695182
  - # 11
    frequency:   14.4949235950
  - # 12
    frequency:   14.7952757402
  - # 13
    frequency:   15.1878392327
  - # 14
    frequency:   18.9880643889
  - # 15
    frequency:   20.6506749677

- q-position: [    0.2020202,    0.0000000,    0.0000000 ]
  distance:    0.0712546
  band:
  - # 1
    frequency:    1.7833219179
  - # 2
    frequency:    2.1565636070
  - # 3
    frequency:    2.6432704962
  - # 4
    frequency:    3.6647091251
  - # 5
    frequency:    4.3400976239
  - # 6
    frequency:    4.9906547531
  - # 7
    frequency:   10.2516108688
  - # 8
    frequency:   10.6944695092
  - # 9
    frequency:   12.1068407240
  - # 10
    frequency:   13.3098333708
  - # 11
    frequency:   14.4877242884
  - # 12
    frequency:   14.7968052990
  - # 13
    frequency:   15.1791692086
  - # 14
    frequency:   19.1489105771
  - # 15
    frequency:   20.6284445315

- q-position: [    0.2070707,    0.0000000,    0.0000000 ]
  distance:    0.0730359
  band:
  - # 1
    frequency:    1.8371711265
  - # 2
    frequency:    2.1878501136
  - # 3
    frequency:    2.6566316254
  - # 4
    frequency:    3.7206445615
  - # 5
    frequency:    4.3911070791
  - # 6
    frequency:    5.0075908983
  - # 7
    frequency:   10.2927509143
  - # 8
    frequency:   10.6587086222
  - # 9
    frequency:   12.1009972036
  - # 10
    frequency:   13.2654929214
  - # 11
    frequency:   14.4780205369
  - # 12
    frequency:   14.7988461407
  - # 13
    frequency:   15.1702147488
  - # 14
    frequency:   19.3006666118
  - # 15
    frequency:   20.6079845388

- q-position: [    0.2121212,    0.0000000,    0.0000000 ]
  distance:    0.0748173
  band:
  - # 1
    frequency:    1.8898361080