nqpoint: 300    
npath: 3      
segment_nqpoint:
- 100
- 100
- 100
labels:
- [ 'G', 'M' ]
- [ 'M', 'K' ]
- [ 'K', 'G' ]
reciprocal_lattice:
- [   0.29889703,   0.17256828,   0.00000000 ] # a*
- [   0.00000000,   0.34513656,   0.00000000 ] # b*
- [   0.00000000,   0.00000000,   0.03971900 ] # c*
natom: 7      
lattice:
- [     3.345633751831850,     0.000000000000000,     0.000000000000000 ] # a
- [    -1.672816875915925,     2.897403820834672,     0.000000000000000 ] # b
- [     0.000000000000000,     0.000000000000000,    25.176865522810804 ] # c
points:
- symbol: C # 1
  coordinates: [  0.000000000000000,  0.000000000000000,  0.493202466624735 ]
  mass: 12.010700
- symbol: H # 2
  coordinates: [  0.666666984744047,  0.333332985985145,  0.357471027989795 ]
  mass: 1.007940
- symbol: Hf # 3
  coordinates: [  0.333332985432215,  0.666666983183674,  0.448664437945932 ]
  mass: 178.490000
- symbol: Hf # 4
  coordinates: [  0.666666984744047,  0.333332985985145,  0.551407548813143 ]
  mass: 178.490000
- symbol: N # 5
  coordinates: [  0.333332985432215,  0.666666983183674,  0.589043898740310 ]
  mass: 14.006700
- symbol: O # 6
  coordinates: [  0.333332985432215,  0.666666983183674,  0.642528972010205 ]
  mass: 15.999400
- symbol: O # 7
  coordinates: [  0.666666984744047,  0.333332985985145,  0.396794299853606 ]
  mass: 15.999400

phonon:
- q-position: [    0.0000000,    0.0000000,    0.0000000 ]
  distance:    0.0000000
  band:
  - # 1
    frequency:   -6.2299874648
  - # 2
    frequency:   -6.2299874648
  - # 3
    frequency:   -0.0000167516
  - # 4
    frequency:    0.0000003953
  - # 5
    frequency:    0.0000143573
  - # 6
    frequency:    2.6715218493
  - # 7
    frequency:    2.6715218494
  - # 8
    frequency:    4.5980807213
  - # 9
    frequency:    6.8186567911
  - # 10
    frequency:    6.8186567912
  - # 11
    frequency:    8.5128625462
  - # 12
    frequency:   10.7638883104
  - # 13
    frequency:   10.7638883104
  - # 14
    frequency:   11.7679231416
  - # 15
    frequency:   15.7575548108
  - # 16
    frequency:   15.7575548109
  - # 17
    frequency:   17.2214733987
  - # 18
    frequency:   19.1682657550
  - # 19
    frequency:   19.1682657551
  - # 20
    frequency:   37.0149623627
  - # 21
    frequency:  110.4702992129

- q-position: [    0.0050505,    0.0000000,    0.0000000 ]
  distance:    0.0017431
  band:
  - # 1
    frequency:   -6.2309741396
  - # 2
    frequency:   -6.2298685349
  - # 3
    frequency:    0.0012584674
  - # 4
    frequency:    0.0521444466
  - # 5
    frequency:    0.0882053021
  - # 6
    frequency:    2.6719416902
  - # 7
    frequency:    2.6725995731
  - # 8
    frequency:    4.5977573854
  - # 9
    frequency:    6.8187199368
  - # 10
    frequency:    6.8188778255
  - # 11
    frequency:    8.5111074091
  - # 12
    frequency:   10.7634638436
  - # 13
    frequency:   10.7651338665
  - # 14
    frequency:   11.7674832340
  - # 15
    frequency:   15.7574276548
  - # 16
    frequency:   15.7576986292
  - # 17
    frequency:   17.2216978633
  - # 18
    frequency:   19.1628637949
  - # 19
    frequency:   19.1660381828
  - # 20
    frequency:   37.0143459259
  - # 21
    frequency:  110.4683882932

- q-position: [    0.0101010,    0.0000000,    0.0000000 ]
  distance:    0.0034862
  band:
  - # 1
    frequency:   -6.2339315396
  - # 2
    frequency:   -6.2295082204
  - # 3
    frequency:    0.0050308520
  - # 4
    frequency:    0.1042646995
  - # 5
    frequency:    0.1763352412
  - # 6
    frequency:    2.6731996180
  - # 7
    frequency:    2.6758263230
  - # 8
    frequency:    4.5967903574
  - # 9
    frequency:    6.8189096672
  - # 10
    frequency:    6.8195410795
  - # 11
    frequency:    8.5058689685
  - # 12
    frequency:   10.7621943072
  - # 13
    frequency:   10.7688500353
  - # 14
    frequency:   11.7661647049
  - # 15
    frequency:   15.7570428235
  - # 16
    frequency:   15.7581290800
  - # 17
    frequency:   17.2223639849
  - # 18
    frequency:   19.1466779116
  - # 19
    frequency:   19.1593615336
  - # 20
    frequency:   37.0124974577
  - # 21
    frequency:  110.4626620748

- q-position: [    0.0151515,    0.0000000,    0.0000000 ]
  distance:    0.0052293
  band:
  - # 1
    frequency:   -6.2388517880
  - # 2
    frequency:   -6.2288959574
  - # 3
    frequency:    0.0113000893
  - # 4
    frequency:    0.1563367413
  - # 5
    frequency:    0.2643144413
  - # 6
    frequency:    2.6752908607
  - # 7
    frequency:    2.6811829875
  - # 8
    frequency:    4.5951885345
  - # 9
    frequency:    6.8192268563
  - # 10
    frequency:    6.8206469967
  - # 11
    frequency:    8.4972270104
  - # 12
    frequency:   10.7600912598
  - # 13
    frequency:   10.7749763365
  - # 14
    frequency:   11.7639711902
  - # 15
    frequency:   15.7563898657
  - # 16
    frequency:   15.7588431592
  - # 17
    frequency:   17.2234498048
  - # 18
    frequency:   19.1197686161
  - # 19
    frequency:   19.1482540025
  - # 20
    frequency:   37.0094194833
  - # 21
    frequency:  110.4531401567

- q-position: [    0.0202020,    0.0000000,    0.0000000 ]
  distance:    0.0069725
  band:
  - # 1
    frequency:   -6.2457217456
  - # 2
    frequency:   -6.2280141766
  - # 3
    frequency:    0.0200395359
  - # 4
    frequency:    0.2083368971
  - # 5
    frequency:    0.3520675127
  - # 6
    frequency:    2.6782075083
  - # 7
    frequency:    2.6886382137
  - # 8
    frequency:    4.5929666093
  - # 9
    frequency:    6.8196729428
  - # 10
    frequency:    6.8221962851
  - # 11
    frequency:    8.4853108731
  - # 12
    frequency:   10.7571738536
  - # 13
    frequency:   10.7834152468
  - # 14
    frequency:   11.7609089323
  - # 15
    frequency:   15.7554501394
  - # 16
    frequency:   15.7598358889
  - # 17
    frequency:   17.2249182217
  - # 18
    frequency:   19.0822385431
  - # 19
    frequency:   19.1327458913
  - # 20
    frequency:   37.0051162070
  - # 21
    frequency:  110.4398551302

- q-position: [    0.0252525,    0.0000000,    0.0000000 ]
  distance:    0.0087156
  band:
  - # 1
    frequency:   -6.2545229951
  - # 2
    frequency:   -6.2268383605
  - # 3
    frequency:    0.0312127840
  - # 4
    frequency:    0.2602419979
  - # 5
    frequency:    0.4395190564
  - # 6
    frequency:    2.6819385773
  - # 7
    frequency:    2.6981491268
  - # 8
    frequency:    4.5901448665
  - # 9
    frequency:    6.8202499026
  - # 10
    frequency:    6.8241898698
  - # 11
    frequency:    8.4702943697
  - # 12
    frequency:   10.7534686688
  - # 13
    frequency:   10.7940367311
  - # 14
    frequency:   11.7569870603
  - # 15
    frequency:   15.7541949081
  - # 16
    frequency:   15.7611003604
  - # 17
    frequency:   17.2267161142
  - # 18
    frequency:   19.0342353182
  - # 19
    frequency:   19.1128795735
  - # 20
    frequency:   36.9995935046
  - # 21
    frequency:  110.4228524674

- q-position: [    0.0303030,    0.0000000,    0.0000000 ]
  distance:    0.0104587
  band:
  - # 1
    frequency:   -6.2652318214
  - # 2
    frequency:   -6.2253371257
  - # 3
    frequency:    0.0447744887
  - # 4
    frequency:    0.3120295321
  - # 5
    frequency:    0.5265936855
  - # 6
    frequency:    2.6864701018
  - # 7
    frequency:    2.7096622791
  - # 8
    frequency:    4.5867489037
  - # 9
    frequency:    6.8209602110
  - # 10
    frequency:    6.8266288285
  - # 11
    frequency:    8.4523893674
  - # 12
    frequency:   10.7490094830
  - # 13
    frequency:   10.8066838871
  - # 14
    frequency:   11.7522179935
  - # 15
    frequency:   15.7525825301
  - # 16
    frequency:   15.7626277919
  - # 17
    frequency:   17.2287728476
  - # 18
    frequency:   18.9759559866
  - # 19
    frequency:   19.0887094439
  - # 20
    frequency:   36.9928589141
  - # 21
    frequency:  110.4021903662

- q-position: [    0.0353535,    0.0000000,    0.0000000 ]
  distance:    0.0122018
  band:
  - # 1
    frequency:   -6.2778191912
  - # 2
    frequency:   -6.2234723349
  - # 3
    frequency:    0.0606713450
  - # 4
    frequency:    0.3636777812
  - # 5
    frequency:    0.6132160681
  - # 6
    frequency:    2.6917852507
  - # 7
    frequency:    2.7231147781
  - # 8
    frequency:    4.5828092785
  - # 9
    frequency:    6.8218067953
  - # 10
    frequency:    6.8295143081
  - # 11
    frequency:    8.4318385654
  - # 12
    frequency:   10.7438369801
  - # 13
    frequency:   10.8211791495
  - # 14
    frequency:   11.7466179826
  - # 15
    frequency:   15.7505545716
  - # 16
    frequency:   15.7644076016
  - # 17
    frequency:   17.2309978312
  - # 18
    frequency:   18.9076535129
  - # 19
    frequency:   19.0603018551
  - # 20
    frequency:   36.9849216229
  - # 21
    frequency:  110.3779395508

- q-position: [    0.0404040,    0.0000000,    0.0000000 ]
  distance:    0.0139449
  band:
  - # 1
    frequency:   -6.2922507337
  - # 2
    frequency:   -6.2211992391
  - # 3
    frequency:    0.0788431615
  - # 4
    frequency:    0.4151659396
  - # 5
    frequency:    0.6993109953
  - # 6
    frequency:    2.6978644724
  - # 7
    frequency:    2.7384355374
  - # 8
    frequency:    4.5783610880
  - # 9
    frequency:    6.8227929779
  - # 10
    frequency:    6.8328474245
  - # 11
    frequency:    8.4089080017
  - # 12
    frequency:   10.7379984000
  - # 13
    frequency:   10.8373305048
  - # 14
    frequency:   11.7402078075
  - # 15
    frequency:   15.7480305869
  - # 16
    frequency:   15.7664274918
  - # 17
    frequency:   17.2332765825
  - # 18
    frequency:   18.8296461545
  - # 19
    frequency:   19.0277350376
  - # 20
    frequency:   36.9757924524
  - # 21
    frequency:  110.3501830296

- q-position: [    0.0454545,    0.0000000,    0.0000000 ]
  distance:    0.0156880
  band:
  - # 1
    frequency:   -6.3084867267
  - # 2
    frequency:   -6.2184666560
  - # 3
    frequency:    0.0992239780
  - # 4
    frequency:    0.4664742133
  - # 5
    frequency:    0.7848034791
  - # 6
    frequency:    2.7046856648
  - # 7
    frequency:    2.7555465915
  - # 8
    frequency:    4.5734434873
  - # 9
    frequency:    6.8239224110
  - # 10
    frequency:    6.8366291466
  - # 11
    frequency:    8.3838797481
  - # 12
    frequency:   10.7315471355
  - # 13
    frequency:   10.8549372309
  - # 14
    frequency:   11.7330136598
  - # 15
    frequency:   15.7449011942
  - # 16
    frequency:   15.7686735444
  - # 17
    frequency:   17.2354643952
  - # 18
    frequency:   18.7423309935
  - # 19
    frequency:   18.9910990055
  - # 20
    frequency:   36.9654838401
  - # 21
    frequency:  110.3190158085

- q-position: [    0.0505051,    0.0000000,    0.0000000 ]
  distance:    0.0174311
  band:
  - # 1
    frequency:   -6.3264820912
  - # 2
    frequency:   -6.2152171859
  - # 3
    frequency:    0.1217431781
  - # 4
    frequency:    0.5175838980
  - # 5
    frequency:    0.8696188843
  - # 6
    frequency:    2.7122243720
  - # 7
    frequency:    2.7743644214
  - # 8
    frequency:    4.5680991548
  - # 9
    frequency:    6.8251990036
  - # 10
    frequency:    6.8408601646
  - # 11
    frequency:    8.3570451393
  - # 12
    frequency:   10.7245422779
  - # 13
    frequency:   10.8737947794
  - # 14
    frequency:   11.7250682480
  - # 15
    frequency:   15.7410189062
  - # 16
    frequency:   15.7711303234
  - # 17
    frequency:   17.2373760873
  - # 18
    frequency:   18.6462036971
  - # 19
    frequency:   18.9504954460
  - # 20
    frequency:   36.9540098184
  - # 21
    frequency:  110.2845445628

- q-position: [    0.0555556,    0.0000000,    0.0000000 ]
  distance:    0.0191743
  band:
  - # 1
    frequency:   -6.3461863994
  - # 2
    frequency:   -6.2113874695
  - # 3
    frequency:    0.1463265520
  - # 4
    frequency:    0.5684774343
  - # 5
    frequency:    0.9536830967
  - # 6
    frequency:    2.7204540053
  - # 7
    frequency:    2.7948012416
  - # 8
    frequency:    4.5623737126
  - # 9
    frequency:    6.8266268428
  - # 10
    frequency:    6.8455407457
  - # 11
    frequency:    8.3286987584
  - # 12
    frequency:   10.7170481186
  - # 13
    frequency:   10.8936985235
  - # 14
    frequency:   11.7164121779
  - # 15
    frequency:   15.7361859484
  - # 16
    frequency:   15.7737809835
  - # 17
    frequency:   17.2387691761
  - # 18
    frequency:   18.5418879374
  - # 19
    frequency:   18.9060375919
  - # 20
    frequency:   36.9413859912
  - # 21
    frequency:  110.2468872663

- q-position: [    0.0606061,    0.0000000,    0.0000000 ]
  distance:    0.0209174
  band:
  - # 1
    frequency:   -6.3675438998
  - # 2
    frequency:   -6.2069084896
  - # 3
    frequency:    0.1728972787
  - # 4
    frequency:    0.6191384392
  - # 5
    frequency:    1.0369227301
  - # 6
    frequency:    2.7293460884
  - # 7
    frequency:    2.8167662090
  - # 8
    frequency:    4.5563151132
  - # 9
    frequency:    6.8282101086
  - # 10
    frequency:    6.8506705774
  - # 11
    frequency:    8.2991332904
  - # 12
    frequency:   10.7091336105
  - # 13
    frequency:   10.9144461920
  - # 14
    frequency:   11.7070956813
  - # 15
    frequency:   15.7301379824
  - # 16
    frequency:   15.7766073811
  - # 17
    frequency:   17.2393157382
  - # 18
    frequency:   18.4301803041
  - # 19
    frequency:   18.8578500781
  - # 20
    frequency:   36.9276295073
  - # 21
    frequency:  110.2061727793

- q-position: [    0.0656566,    0.0000000,    0.0000000 ]
  distance:    0.0226605
  band:
  - # 1
    frequency:   -6.3904935630
  - # 2
    frequency:   -6.2017059187
  - # 3
    frequency:    0.2013768011
  - # 4
    frequency:    0.6695517149
  - # 5
    frequency:    1.1192653748
  - # 6
    frequency:    2.7388705231
  - # 7
    frequency:    2.8401665252
  - # 8
    frequency:    4.5499730038
  - # 9
    frequency:    6.8299529857
  - # 10
    frequency:    6.8562486020
  - # 11
    frequency:    8.2686352572
  - # 12
    frequency:   10.7008717966
  - # 13
    frequency:   10.9358388752
  - # 14
    frequency:   11.6971807880
  - # 15
    frequency:   15.7225222431
  - # 16
    frequency:   15.7795901855
  - # 17
    frequency:   17.2385542542
  - # 18
    frequency:   18.3121209122
  - # 19
    frequency:   18.8060687800
  - # 20
    frequency:   36.9127590321
  - # 21
    frequency:  110.1625403959

- q-position: [    0.0707071,    0.0000000,    0.0000000 ]
  distance:    0.0244036
  band:
  - # 1
    frequency:   -6.4149691538
  - # 2
    frequency:   -6.1957005131
  - # 3
    frequency:    0.2316855801
  - # 4
    frequency:    0.7197032347
  - # 5
    frequency:    1.2006398857
  - # 6
    frequency:    2.7489958732
  - # 7
    frequency:    2.8649084105
  - # 8
    frequency:    4.5433980789
  - # 9
    frequency:    6.8318595727
  - # 10
    frequency:    6.8622728439
  - # 11
    frequency:    8.2374815892
  - # 12
    frequency:   10.6923392102
  - # 13
    frequency:   10.9576805232
  - # 14
    frequency:   11.6867440694
  - # 15
    frequency:   15.7128681041
  - # 16
    frequency:   15.7827089876
  - # 17
    frequency:   17.2358052690
  - # 18
    frequency:   18.1891078716
  - # 19
    frequency:   18.7508406332
  - # 20
    frequency:   36.8967947151
  - # 21
    frequency:  110.1161393522

- q-position: [    0.0757576,    0.0000000,    0.0000000 ]
  distance:    0.0261467
  band:
  - # 1
    frequency:   -6.4408993306
  - # 2
    frequency:   -6.1888085541
  - # 3
    frequency:    0.2637437230
  - # 4
    frequency:    0.7695801065
  - # 5
    frequency:    1.2809767102
  - # 6
    frequency:    2.7596896634
  - # 7
    frequency:    2.8908979402
  - # 8
    frequency:    4.5366414358
  - # 9
    frequency:    6.8339337906
  - # 10
    frequency:    6.8687402324
  - # 11
    frequency:    8.2059369408
  - # 12
    frequency:   10.6836152542
  - # 13
    frequency:   10.9797758606
  - # 14
    frequency:   11.6758801154
  - # 15
    frequency:   15.7005476013
  - # 16
    frequency:   15.7859424028
  - # 17
    frequency:   17.2300214165
  - # 18
    frequency:   18.0630875524
  - # 19
    frequency:   18.6923234347
  - # 20
    frequency:   36.8797581563
  - # 21
    frequency:  110.0671282951

- q-position: [    0.0808081,    0.0000000,    0.0000000 ]
  distance:    0.0278898
  band:
  - # 1
    frequency:   -6.4682077790
  - # 2
    frequency:   -6.1809423322
  - # 3
    frequency:    0.2974714853
  - # 4
    frequency:    0.8191705176
  - # 5
    frequency:    1.3602082532
  - # 6
    frequency:    2.7709186885
  - # 7
    frequency:    2.9180417400
  - # 8
    frequency:    4.5297539455
  - # 9
    frequency:    6.8361792908
  - # 10
    frequency:    6.8756464240
  - # 11
    frequency:    8.1742516454
  - # 12
    frequency:   10.6747815658
  - # 13
    frequency:   11.0019266246
  - # 14
    frequency:   11.6647059429
  - # 15
    frequency:   15.6847232792
  - # 16
    frequency:   15.7892681662
  - # 17
    frequency:   17.2195241795
  - # 18
    frequency:   17.9368709234
  - # 19
    frequency:   18.6306856240
  - # 20
    frequency:   36.8616723689
  - # 21
    frequency:  110.0156747149

- q-position: [    0.0858586,    0.0000000,    0.0000000 ]
  distance:    0.0296329
  band:
  - # 1
    frequency:   -6.4968133785
  - # 2
    frequency:   -6.1720106744
  - # 3
    frequency:    0.3327896569
  - # 4
    frequency:    0.8684636601
  - # 5
    frequency:    1.4382692749
  - # 6
    frequency:    2.7826493276
  - # 7
    frequency:    2.9462475445
  - # 8
    frequency:    4.5227856518
  - # 9
    frequency:    6.8385993675
  - # 10
    frequency:    6.8829856244
  - # 11
    frequency:    8.1426601968
  - # 12
    frequency:   10.6659213729
  - # 13
    frequency:   11.0239260138
  - # 14
    frequency:   11.6533665522
  - # 15
    frequency:   15.6642816690
  - # 16
    frequency:   15.7926632172
  - # 17
    frequency:   17.2015858234
  - # 18
    frequency:   17.8146192356
  - # 19
    frequency:   18.5661060439
  - # 20
    frequency:   36.8425617407
  - # 21
    frequency:  109.9619543415

- q-position: [    0.0909091,    0.0000000,    0.0000000 ]
  distance:    0.0313761
  band:
  - # 1
    frequency:   -6.5266304076
  - # 2
    frequency:   -6.1619195073
  - # 3
    frequency:    0.3696198397
  - # 4
    frequency:    0.9174496419
  - # 5
    frequency:    1.5150973152
  - # 6
    frequency:    2.7948478590
  - # 7
    frequency:    2.9754246292
  - # 8
    frequency:    4.5157852123
  - # 9
    frequency:    6.8411968723
  - # 10
    frequency:    6.8907504157
  - # 11
    frequency:    8.1113801534
  - # 12
    frequency:   10.6571188497
  - # 13
    frequency:   11.0455512561
  - # 14
    frequency:   11.6420418214
  - # 15
    frequency:   15.6377545261
  - # 16
    frequency:   15.7961037705
  - # 17
    frequency:   17.1720035882
  - # 18
    frequency:   17.7023498517
  - # 19
    frequency:   18.4987736801
  - # 20
    frequency:   36.8224519915
  - # 21
    frequency:  109.9061505063

- q-position: [    0.0959596,    0.0000000,    0.0000000 ]
  distance:    0.0331192
  band:
  - # 1
    frequency:   -6.5575687867
  - # 2
    frequency:   -6.1505724510
  - # 3
    frequency:    0.4078846338
  - # 4
    frequency:    0.9661193830
  - # 5
    frequency:    1.5906331368
  - # 6
    frequency:    2.8074807699
  - # 7
    frequency:    3.0054841268
  - # 8
    frequency:    4.5087993928
  - # 9
    frequency:    6.8439741355
  - # 10
    frequency:    6.8989315879
  - # 11
    frequency:    8.0806113743
  - # 12
    frequency:   10.6484584769
  - # 13
    frequency:   11.0665543284
  - # 14
    frequency:   11.6309547832
  - # 15
    frequency:   15.6032399529
  - # 16
    frequency:   15.7995653722
  - # 17
    frequency:   17.1255927782
  - # 18
    frequency:   17.6075234831
  - # 19
    frequency:   18.4288873784
  - # 20
    frequency:   36.8013701295
  - # 21
    frequency:  109.8484534716

- q-position: [    0.1010101,    0.0000000,    0.0000000 ]
  distance:    0.0348623
  band:
  - # 1
    frequency:   -6.5895343604
  - # 2
    frequency:   -6.1378714376
  - # 3
    frequency:    0.4475077464
  - # 4
    frequency:    1.0144645030
  - # 5
    frequency:    1.6648211787
  - # 6
    frequency:    2.8205150538
  - # 7
    frequency:    3.0363392460
  - # 8
    frequency:    4.5018726269
  - # 9
    frequency:    6.8469328942
  - # 10
    frequency:    6.9075179773
  - # 11
    frequency:    8.0505355102
  - # 12
    frequency:   10.6400244131
  - # 13
    frequency:   11.0866512275
  - # 14
    frequency:   11.6203809486
  - # 15
    frequency:   15.5583560990
  - # 16
    frequency:   15.8030229367
  - # 17
    frequency:   17.0593618704
  - # 18
    frequency:   17.5359170453
  - # 19
    frequency:   18.3566555403
  - # 20
    frequency:   36.7793444044
  - # 21
    frequency:  109.7890597294

- q-position: [    0.1060606,    0.0000000,    0.0000000 ]
  distance:    0.0366054
  band:
  - # 1
    frequency:   -6.6224292188
  - # 2
    frequency:   -6.1237173434
  - # 3
    frequency:    0.4884140376
  - # 4
    frequency:    1.0624771994
  - # 5
    frequency:    1.7376100069
  - # 6
    frequency:    2.8339184922
  - # 7
    frequency:    3.0679054079
  - # 8
    frequency:    4.4950466492
  - # 9
    frequency:    6.8500742298
  - # 10
    frequency:    6.9164963104
  - # 11
    frequency:    8.0213156875
  - # 12
    frequency:   10.6318998851
  - # 13
    frequency:   11.1055109898
  - # 14
    frequency:   11.6106575156
  - # 15
    frequency:   15.5002918984
  - # 16
    frequency:   15.8064507651
  - # 17
    frequency:   16.9767879568
  - # 18
    frequency:   17.4872993931
  - # 19
    frequency:   18.2822957944
  - # 20
    frequency:   36.7564042592
  - # 21
    frequency:  109.7281712718

- q-position: [    0.1111111,    0.0000000,    0.0000000 ]
  distance:    0.0383485
  band:
  - # 1
    frequency:   -6.6561520565
  - # 2
    frequency:   -6.1080106275
  - # 3
    frequency:    0.5305295196
  - # 4
    frequency:    1.1101501226
  - # 5
    frequency:    1.8089527530
  - # 6
    frequency:    2.8476599130
  - # 7
    frequency:    3.1001003188
  - # 8
    frequency:    4.4883602093
  - # 9
    frequency:    6.8533985150
  - # 10
    frequency:    6.9258510507
  - # 11
    frequency:    7.9930963406
  - # 12
    frequency:   10.6241666002
  - # 13
    frequency:   11.1227471278
  - # 14
    frequency:   11.6021898096
  - # 15
    frequency:   15.4260447481
  - # 16
    frequency:   15.8098225399
  - # 17
    frequency:   16.8868757163
  - # 18
    frequency:   17.4561368792
  - # 19
    frequency:   18.2060346457
  - # 20
    frequency:   36.7325802784
  - # 21
    frequency:  109.6659948349

- q-position: [    0.1161616,    0.0000000,    0.0000000 ]
  distance:    0.0400916
  band:
  - # 1
    frequency:   -6.6905985687
  - # 2
    frequency:   -6.0906519663
  - # 3
    frequency:    0.5737813219
  - # 4
    frequency:    1.1574762480
  - # 5
    frequency:    1.8788075237
  - # 6
    frequency:    2.8617094214
  - # 7
    frequency:    3.1328439952
  - # 8
    frequency:    4.4818488738
  - # 9
    frequency:    6.8569053720
  - # 10
    frequency:    6.9355642452
  - # 11
    frequency:    7.9660031565
  - # 12
    frequency:   10.6169041877
  - # 13
    frequency:   11.1379163574
  - # 14
    frequency:   11.5954500693
  - # 15
    frequency:   15.3329021640
  - # 16
    frequency:   15.8131112958
  - # 17
    frequency:   16.7990591316
  - # 18
    frequency:   17.4362125464
  - # 19
    frequency:   18.1281070994
  - # 20
    frequency:   36.7079041359
  - # 21
    frequency:  109.6027411192

- q-position: [    0.1212121,    0.0000000,    0.0000000 ]
  distance:    0.0418347
  band:
  - # 1
    frequency:   -6.7256618800
  - # 2
    frequency:   -6.0715428727
  - # 3
    frequency:    0.6180976352
  - # 4
    frequency:    1.2044487492
  - # 5
    frequency:    1.9471377720
  - # 6
    frequency:    2.8760385988
  - # 7
    frequency:    3.1660587596
  - # 8
    frequency:    4.4755449156
  - # 9
    frequency:    6.8605936443
  - # 10
    frequency:    6.9456153602
  - # 11
    frequency:    7.9401431102
  - # 12
    frequency:   10.6101896737
  - # 13
    frequency:   11.1505317632
  - # 14
    frequency:   11.5909613818
  - # 15
    frequency:   15.2190779376
  - # 16
    frequency:   15.8162893650
  - # 17
    frequency:   16.7201376412
  - # 18
    frequency:   17.4230568237
  - # 19
    frequency:   18.0487562616
  - # 20
    frequency:   36.6824085393
  - # 21
    frequency:  109.5386239885

- q-position: [    0.1262626,    0.0000000,    0.0000000 ]
  distance:    0.0435778
  band:
  - # 1
    frequency:   -6.7612330050
  - # 2
    frequency:   -6.0505862895
  - # 3
    frequency:    0.6634076453
  - # 4
    frequency:    1.2510608747
  - # 5
    frequency:    2.0139126126
  - # 6
    frequency:    2.8906206653
  - # 7
    frequency:    3.1996692195
  - # 8
    frequency:    4.4694772937
  - # 9
    frequency:    6.8644613796
  - # 10
    frequency:    6.9559810992
  - # 11
    frequency:    7.9156045775
  - # 12
    frequency:   10.6040969936
  - # 13
    frequency:   11.1600977036
  - # 14
    frequency:   11.5892593756
  - # 15
    frequency:   15.0842180363
  - # 16
    frequency:   15.8193282941
  - # 17
    frequency:   16.6538048376
  - # 18
    frequency:   17.4139164930
  - # 19
    frequency:   17.9682329142
  - # 20
    frequency:   36.6561271732
  - # 21
    frequency:  109.4738596512

- q-position: [    0.1313131,    0.0000000,    0.0000000 ]
  distance:    0.0453210
  band:
  - # 1
    frequency:   -6.7972013341
  - # 2
    frequency:   -6.0276871470
  - # 3
    frequency:    0.7096414663
  - # 4
    frequency:    1.2973058308
  - # 5
    frequency:    2.0791070741
  - # 6
    frequency:    2.9054306042
  - # 7
    frequency:    3.2336022444
  - # 8
    frequency:    4.4636717178
  - # 9
    frequency:    6.8685058278
  - # 10
    frequency:    6.9666351850
  - # 11
    frequency:    7.8924575180
  - # 12
    frequency:   10.5986965453
  - # 13
    frequency:   11.1661681562
  - # 14
    frequency:   11.5908298160
  - # 15
    frequency:   14.9294788532
  - # 16
    frequency:   15.8221987331
  - # 17
    frequency:   16.6011811654
  - # 18
    frequency:   17.4071480383
  - # 19
    frequency:   17.8867950649
  - # 20
    frequency:   36.6290946403
  - # 21
    frequency:  109.4086658259

- q-position: [    0.1363636,    0.0000000,    0.0000000 ]
  distance:    0.0470641
  band:
  - # 1
    frequency:   -6.8334551428
  - # 2
    frequency:   -6.0027528749
  - # 3
    frequency:    0.7567300824
  - # 4
    frequency:    1.3431766718
  - # 5
    frequency:    2.1427022734
  - # 6
    frequency:    2.9204452444
  - # 7
    frequency:    3.2677869502
  - # 8
    frequency:    4.4581507943
  - # 9
    frequency:    6.8727234517
  - # 10
    frequency:    6.9775480915
  - # 11
    frequency:    7.8707537306
  - # 12
    frequency:   10.5940547863
  - # 13
    frequency:   11.1684170882
  - # 14
    frequency:   11.5960332698
  - # 15
    frequency:   14.7571541932
  - # 16
    frequency:   15.8248702949
  - # 17
    frequency:   16.5616567817
  - # 18
    frequency:   17.4017530942
  - # 19
    frequency:   17.8047074707
  - # 20
    frequency:   36.6013464016
  - # 21
    frequency:  109.3432608956

- q-position: [    0.1414141,    0.0000000,    0.0000000 ]
  distance:    0.0488072
  band:
  - # 1
    frequency:   -6.8698821180
  - # 2
    frequency:   -5.9756938569
  - # 3
    frequency:    0.8046053053
  - # 4
    frequency:    1.3886662017
  - # 5
    frequency:    2.2046855088
  - # 6
    frequency:    2.9356433020
  - # 7
    frequency:    3.3021547017
  - # 8
    frequency:    4.4529342456
  - # 9
    frequency:    6.8771099524
  - # 10
    frequency:    6.9886867013
  - # 11
    frequency:    7.8505271833
  - # 12
    frequency:   10.5902338770
  - # 13
    frequency:   11.1666950892
  - # 14
    frequency:   11.6050422032
  - # 15
    frequency:   14.5701149262
  - # 16
    frequency:   15.8273113878
  - # 17
    frequency:   16.5337319672
  - # 18
    frequency:   17.3971050753
  - # 19
    frequency:   17.7222411321
  - # 20
    frequency:   36.5729187136
  - # 21
    frequency:  109.2778630531

- q-position: [    0.1464646,    0.0000000,    0.0000000 ]
  distance:    0.0505503
  band:
  - # 1
    frequency:   -6.9063698961
  - # 2
    frequency:   -5.9464238221
  - # 3
    frequency:    0.8531997550
  - # 4
    frequency:    1.4337668876
  - # 5
    frequency:    2.2650502648
  - # 6
    frequency:    2.9510053794
  - # 7
    frequency:    3.3366391365
  - # 8
    frequency:    4.4480391911
  - # 9
    frequency:    6.8816603067
  - # 10
    frequency:    7.0000138672
  - # 11
    frequency:    7.8317944272
  - # 12
    frequency:   10.5872913701
  - # 13
    frequency:   11.1610451176
  - # 14
    frequency:   11.6178170097
  - # 15
    frequency:   14.3713435627
  - # 16
    frequency:   15.8294890223
  - # 17
    frequency:   16.5156430314
  - # 18
    frequency:   17.3927974368
  - # 19
    frequency:   17.6396727554
  - # 20
    frequency:   36.5438485655
  - # 21
    frequency:  109.2126894420

- q-position: [    0.1515152,    0.0000000,    0.0000000 ]
  distance:    0.0522934
  band:
  - # 1
    frequency:   -6.9428066088
  - # 2
    frequency:   -5.9148601643
  - # 3
    frequency:    0.9024468701
  - # 4
    frequency:    1.4784707866
  - # 5
    frequency:    2.3237961292
  - # 6
    frequency:    2.9665139245
  - # 7
    frequency:    3.3711762190
  - # 8
    frequency:    4.4434804797
  - # 9
    frequency:    6.8863688184
  - # 10
    frequency:    7.0114878504
  - # 11
    frequency:    7.8145551024
  - # 12
    frequency:   10.5852799484
  - # 13
    frequency:   11.1516687796
  - # 14
    frequency:   11.6341284621
  - # 15
    frequency:   14.1636756616
  - # 16
    frequency:   15.8313685992
  - # 17
    frequency:   16.5057172854
  - # 18
    frequency:   17.3885591580
  - # 19
    frequency:   17.5572841773
  - # 20
    frequency:   36.5141736143
  - # 21