nqpoint: 300    
npath: 3      
segment_nqpoint:
- 100
- 100
- 100
labels:
- [ 'G', 'M' ]
- [ 'M', 'K' ]
- [ 'K', 'G' ]
reciprocal_lattice:
- [   0.26727483,   0.15431120,  -0.00000000 ] # a*
- [   0.00000000,   0.30862239,  -0.00000000 ] # b*
- [   0.00000000,   0.00000000,   0.04016014 ] # c*
natom: 5      
lattice:
- [     3.741467111489586,     0.000000000000000,     0.000000000000000 ] # a
- [    -1.870733555744793,     3.240205566019025,     0.000000000000000 ] # b
- [     0.000000000000001,     0.000000000000003,    24.900310596216379 ] # c
points:
- symbol: C # 1
  coordinates: [  0.000000000000000,  0.000000000000000,  0.498379052031961 ]
  mass: 12.010700
- symbol: Br # 2
  coordinates: [  0.666666984744048,  0.333332985985145,  0.630056106361042 ]
  mass: 79.904000
- symbol: Cl # 3
  coordinates: [  0.333332985432215,  0.666666983183674,  0.374883035272557 ]
  mass: 35.453000
- symbol: Y # 4
  coordinates: [  0.333332985432215,  0.666666983183674,  0.552070116172858 ]
  mass: 88.905850
- symbol: Y # 5
  coordinates: [  0.666666984744048,  0.333332985985145,  0.444512440538442 ]
  mass: 88.905850

phonon:
- q-position: [    0.0000000,    0.0000000,    0.0000000 ]
  distance:    0.0000000
  band:
  - # 1
    frequency:   -0.0000239588
  - # 2
    frequency:   -0.0000001344
  - # 3
    frequency:    0.0000287237
  - # 4
    frequency:    2.4623942537
  - # 5
    frequency:    2.4623942539
  - # 6
    frequency:    3.7499988906
  - # 7
    frequency:    3.7499988907
  - # 8
    frequency:    4.0640995697
  - # 9
    frequency:    4.6015397483
  - # 10
    frequency:    4.6015397484
  - # 11
    frequency:    6.7288575894
  - # 12
    frequency:    8.4911470708
  - # 13
    frequency:    8.9287284880
  - # 14
    frequency:    8.9287284883
  - # 15
    frequency:   15.6271780309

- q-position: [    0.0050505,    0.0000000,    0.0000000 ]
  distance:    0.0015587
  band:
  - # 1
    frequency:   -0.0023375748
  - # 2
    frequency:    0.0506588243
  - # 3
    frequency:    0.0936401919
  - # 4
    frequency:    2.4625812425
  - # 5
    frequency:    2.4636631134
  - # 6
    frequency:    3.7499798884
  - # 7
    frequency:    3.7500343873
  - # 8
    frequency:    4.0650783591
  - # 9
    frequency:    4.6016056717
  - # 10
    frequency:    4.6023925972
  - # 11
    frequency:    6.7286491820
  - # 12
    frequency:    8.4891214884
  - # 13
    frequency:    8.9283652097
  - # 14
    frequency:    8.9357954968
  - # 15
    frequency:   15.6259177165

- q-position: [    0.0101010,    0.0000000,    0.0000000 ]
  distance:    0.0031174
  band:
  - # 1
    frequency:    0.0046532904
  - # 2
    frequency:    0.1012882271
  - # 3
    frequency:    0.1871441971
  - # 4
    frequency:    2.4631420646
  - # 5
    frequency:    2.4674615438
  - # 6
    frequency:    3.7499051011
  - # 7
    frequency:    3.7501409649
  - # 8
    frequency:    4.0680081867
  - # 9
    frequency:    4.6018033814
  - # 10
    frequency:    4.6049467607
  - # 11
    frequency:    6.7280244837
  - # 12
    frequency:    8.4833195135
  - # 13
    frequency:    8.9272767598
  - # 14
    frequency:    8.9566923659
  - # 15
    frequency:   15.6221387075

- q-position: [    0.0151515,    0.0000000,    0.0000000 ]
  distance:    0.0046761
  band:
  - # 1
    frequency:    0.0118398482
  - # 2
    frequency:    0.1518588422
  - # 3
    frequency:    0.2805021348
  - # 4
    frequency:    2.4640762883
  - # 5
    frequency:    2.4737653612
  - # 6
    frequency:    3.7497243135
  - # 7
    frequency:    3.7503188849
  - # 8
    frequency:    4.0728677558
  - # 9
    frequency:    4.6021326957
  - # 10
    frequency:    4.6091891746
  - # 11
    frequency:    6.7269850665
  - # 12
    frequency:    8.4744231210
  - # 13
    frequency:    8.9254672908
  - # 14
    frequency:    8.9906490642
  - # 15
    frequency:   15.6158468050

- q-position: [    0.0202020,    0.0000000,    0.0000000 ]
  distance:    0.0062348
  band:
  - # 1
    frequency:    0.0213941721
  - # 2
    frequency:    0.2023414329
  - # 3
    frequency:    0.3736249988
  - # 4
    frequency:    2.4653831952
  - # 5
    frequency:    2.4825351106
  - # 6
    frequency:    3.7493634891
  - # 7
    frequency:    3.7505685803
  - # 8
    frequency:    4.0796166168
  - # 9
    frequency:    4.6025933076
  - # 10
    frequency:    4.6150983383
  - # 11
    frequency:    6.7255335496
  - # 12
    frequency:    8.4632270898
  - # 13
    frequency:    8.9229437097
  - # 14
    frequency:    9.0367244037
  - # 15
    frequency:   15.6070516734

- q-position: [    0.0252525,    0.0000000,    0.0000000 ]
  distance:    0.0077935
  band:
  - # 1
    frequency:    0.0334698777
  - # 2
    frequency:    0.2527069495
  - # 3
    frequency:    0.4664310887
  - # 4
    frequency:    2.4670617814
  - # 5
    frequency:    2.4937172799
  - # 6
    frequency:    3.7487368175
  - # 7
    frequency:    3.7508906503
  - # 8
    frequency:    4.0881897113
  - # 9
    frequency:    4.6031847787
  - # 10
    frequency:    4.6226446955
  - # 11
    frequency:    6.7236736001
  - # 12
    frequency:    8.4504102255
  - # 13
    frequency:    8.9197156577
  - # 14
    frequency:    9.0940354602
  - # 15
    frequency:   15.5957668348

- q-position: [    0.0303030,    0.0000000,    0.0000000 ]
  distance:    0.0093522
  band:
  - # 1
    frequency:    0.0480403722
  - # 2
    frequency:    0.3029265920
  - # 3
    frequency:    0.5588395794
  - # 4
    frequency:    2.4691107605
  - # 5
    frequency:    2.5072458821
  - # 6
    frequency:    3.7477594842
  - # 7
    frequency:    3.7512858542
  - # 8
    frequency:    4.0984929763
  - # 9
    frequency:    4.6039065314
  - # 10
    frequency:    4.6317911191
  - # 11
    frequency:    6.7214099337
  - # 12
    frequency:    8.4364498062
  - # 13
    frequency:    8.9157954819
  - # 14
    frequency:    9.1618442306
  - # 15
    frequency:   15.5820096609

- q-position: [    0.0353535,    0.0000000,    0.0000000 ]
  distance:    0.0109109
  band:
  - # 1
    frequency:    0.0650376541
  - # 2
    frequency:    0.3529718716
  - # 3
    frequency:    0.6507694701
  - # 4
    frequency:    2.4715285658
  - # 5
    frequency:    2.5230443026
  - # 6
    frequency:    3.7463586098
  - # 7
    frequency:    3.7517551031
  - # 8
    frequency:    4.1104018383
  - # 9
    frequency:    4.6047578382
  - # 10
    frequency:    4.6424934674
  - # 11
    frequency:    6.7187483192
  - # 12
    frequency:    8.4216344272
  - # 13
    frequency:    8.9111981987
  - # 14
    frequency:    9.2395465043
  - # 15
    frequency:   15.5658013645

- q-position: [    0.0404040,    0.0000000,    0.0000000 ]
  distance:    0.0124696
  band:
  - # 1
    frequency:    0.0843753078
  - # 2
    frequency:    0.4028146727
  - # 3
    frequency:    0.7421391942
  - # 4
    frequency:    2.4743133541
  - # 5
    frequency:    2.5410272971
  - # 6
    frequency:    3.7444806636
  - # 7
    frequency:    3.7522994514
  - # 8
    frequency:    4.1237635347
  - # 9
    frequency:    4.6057378088
  - # 10
    frequency:    4.6547011927
  - # 11
    frequency:    6.7156955845
  - # 12
    frequency:    8.4061128643
  - # 13
    frequency:    8.9059414480
  - # 14
    frequency:    9.3266254623
  - # 15
    frequency:   15.5471669903

- q-position: [    0.0454545,    0.0000000,    0.0000000 ]
  distance:    0.0140283
  band:
  - # 1
    frequency:    0.1059559695
  - # 2
    frequency:    0.4524273140
  - # 3
    frequency:    0.8328663755
  - # 4
    frequency:    2.4774630099
  - # 5
    frequency:    2.5611030281
  - # 6
    frequency:    3.7420948185
  - # 7
    frequency:    3.7529200854
  - # 8
    frequency:    4.1384030760
  - # 9
    frequency:    4.6068453754
  - # 10
    frequency:    4.6683579923
  - # 11
    frequency:    6.7122596281
  - # 12
    frequency:    8.3899434879
  - # 13
    frequency:    8.9000454401
  - # 14
    frequency:    9.4226055562
  - # 15
    frequency:   15.5261354066

- q-position: [    0.0505051,    0.0000000,    0.0000000 ]
  distance:    0.0155870
  band:
  - # 1
    frequency:    0.1296751588
  - # 2
    frequency:    0.5017826088
  - # 3
    frequency:    0.9228676406
  - # 4
    frequency:    2.4809751503
  - # 5
    frequency:    2.5831750311
  - # 6
    frequency:    3.7391927479
  - # 7
    frequency:    3.7536183136
  - # 8
    frequency:    4.1541317517
  - # 9
    frequency:    4.6080792759
  - # 10
    frequency:    4.6834025097
  - # 11
    frequency:    6.7084494336
  - # 12
    frequency:    8.3731322075
  - # 13
    frequency:    8.8935328936
  - # 14
    frequency:    9.5270187072
  - # 15
    frequency:   15.5027392995

- q-position: [    0.0555556,    0.0000000,    0.0000000 ]
  distance:    0.0171457
  band:
  - # 1
    frequency:    0.1554239183
  - # 2
    frequency:    0.5508539247
  - # 3
    frequency:    1.0120584778
  - # 4
    frequency:    2.4848471302
  - # 5
    frequency:    2.6071440205
  - # 6
    frequency:    3.7357859554
  - # 7
    frequency:    3.7543955541
  - # 8
    frequency:    4.1707566514
  - # 9
    frequency:    4.6094380353
  - # 10
    frequency:    4.6997690992
  - # 11
    frequency:    6.7042750896
  - # 12
    frequency:    8.3556580998
  - # 13
    frequency:    8.8864289637
  - # 14
    frequency:    9.6393836140
  - # 15
    frequency:   15.4770151708

- q-position: [    0.0606061,    0.0000000,    0.0000000 ]
  distance:    0.0187044
  band:
  - # 1
    frequency:    0.1830909013
  - # 2
    frequency:    0.5996152426
  - # 3
    frequency:    1.1003531536
  - # 4
    frequency:    2.4890760489
  - # 5
    frequency:    2.6329094606
  - # 6
    frequency:    3.7319018540
  - # 7
    frequency:    3.7552533239
  - # 8
    frequency:    4.1880897400
  - # 9
    frequency:    4.6109199456
  - # 10
    frequency:    4.7173886657
  - # 11
    frequency:    6.6997478133
  - # 12
    frequency:    8.3374894004
  - # 13
    frequency:    8.8787611635
  - # 14
    frequency:    9.7591953630
  - # 15
    frequency:   15.4490033438

- q-position: [    0.0656566,    0.0000000,    0.0000000 ]
  distance:    0.0202631
  band:
  - # 1
    frequency:    0.2125641000
  - # 2
    frequency:    0.6480412141
  - # 3
    frequency:    1.1876647039
  - # 4
    frequency:    2.4936587569
  - # 5
    frequency:    2.6603708448
  - # 6
    frequency:    3.7275795930
  - # 7
    frequency:    3.7561932271
  - # 8
    frequency:    4.2059554256
  - # 9
    frequency:    4.6125230444
  - # 10
    frequency:    4.7361895828
  - # 11
    frequency:    6.6948799790
  - # 12
    frequency:    8.3185928633
  - # 13
    frequency:    8.8705592745
  - # 14
    frequency:    9.8859221518
  - # 15
    frequency:   15.4187479779

- q-position: [    0.0707071,    0.0000000,    0.0000000 ]
  distance:    0.0218218
  band:
  - # 1
    frequency:    0.2437322785
  - # 2
    frequency:    0.6961072180
  - # 3
    frequency:    1.2739050188
  - # 4
    frequency:    2.4985918632
  - # 5
    frequency:    2.6894286459
  - # 6
    frequency:    3.7228662913
  - # 7
    frequency:    3.7572169437
  - # 8
    frequency:    4.2241960635
  - # 9
    frequency:    4.6142450926
  - # 10
    frequency:    4.7560986716
  - # 11
    frequency:    6.6896851505
  - # 12
    frequency:    8.2989388675
  - # 13
    frequency:    8.8618552490
  - # 14
    frequency:   10.0190065269
  - # 15
    frequency:   15.3862970982

- q-position: [    0.0757576,    0.0000000,    0.0000000 ]
  distance:    0.0233805
  band:
  - # 1
    frequency:    0.2764861410
  - # 2
    frequency:    0.7437894144
  - # 3
    frequency:    1.3589850417
  - # 4
    frequency:    2.5038717442
  - # 5
    frequency:    2.7199849128
  - # 6
    frequency:    3.7178140047
  - # 7
    frequency:    3.7583262198
  - # 8
    frequency:    4.2426752951
  - # 9
    frequency:    4.6160835516
  - # 10
    frequency:    4.7770422049
  - # 11
    frequency:    6.6841781173
  - # 12
    frequency:    8.2785039281
  - # 13
    frequency:    8.8526831032
  - # 14
    frequency:   10.1578692497
  - # 15
    frequency:   15.3517026454

- q-position: [    0.0808081,    0.0000000,    0.0000000 ]
  distance:    0.0249392
  band:
  - # 1
    frequency:    0.3107192564
  - # 2
    frequency:    0.7910647977
  - # 3
    frequency:    1.4428150977
  - # 4
    frequency:    2.5094945523
  - # 5
    frequency:    2.7519435015
  - # 6
    frequency:    3.7124775196
  - # 7
    frequency:    3.7595228572
  - # 8
    frequency:    4.2612794334
  - # 9
    frequency:    4.6180355603
  - # 10
    frequency:    4.7989468869
  - # 11
    frequency:    6.6783749347
  - # 12
    frequency:    8.2572716871
  - # 13
    frequency:    8.8430788009
  - # 14
    frequency:   10.3019144926
  - # 15
    frequency:   15.3150205525

- q-position: [    0.0858586,    0.0000000,    0.0000000 ]
  distance:    0.0264979
  band:
  - # 1
    frequency:    0.3463287617
  - # 2
    frequency:    0.8379112470
  - # 3
    frequency:    1.5253053688
  - # 4
    frequency:    2.5154562264
  - # 5
    frequency:    2.7852099346
  - # 6
    frequency:    3.7069129265
  - # 7
    frequency:    3.7608087055
  - # 8
    frequency:    4.2799172821
  - # 9
    frequency:    4.6200979127
  - # 10
    frequency:    4.8217407468
  - # 11
    frequency:    6.6722929666
  - # 12
    frequency:    8.2352330565
  - # 13
    frequency:    8.8330801278
  - # 14
    frequency:   10.4505354981
  - # 15
    frequency:   15.2763108599

- q-position: [    0.0909091,    0.0000000,    0.0000000 ]
  distance:    0.0280566
  band:
  - # 1
    frequency:    0.3832158707
  - # 2
    frequency:    0.8843075730
  - # 3
    frequency:    1.6063665237
  - # 4
    frequency:    2.5217525022
  - # 5
    frequency:    2.8196908882
  - # 6
    frequency:    3.7011768694
  - # 7
    frequency:    3.7621856536
  - # 8
    frequency:    4.2985188291
  - # 9
    frequency:    4.6222670365
  - # 10
    frequency:    4.8453538899
  - # 11
    frequency:    6.6659509318
  - # 12
    frequency:    8.2123859192
  - # 13
    frequency:    8.8227265564
  - # 14
    frequency:   10.6031201377
  - # 15
    frequency:   15.2356378811

- q-position: [    0.0959596,    0.0000000,    0.0000000 ]
  distance:    0.0296153
  band:
  - # 1
    frequency:    0.4212862118
  - # 2
    frequency:    0.9302335636
  - # 3
    frequency:    1.6859105072
  - # 4
    frequency:    2.5283789237
  - # 5
    frequency:    2.8552933062
  - # 6
    frequency:    3.6953263601
  - # 7
    frequency:    3.7636556236
  - # 8
    frequency:    4.3170332312
  - # 9
    frequency:    4.6245389733
  - # 10
    frequency:    4.8697190584
  - # 11
    frequency:    6.6593689522
  - # 12
    frequency:    8.1887346277
  - # 13
    frequency:    8.8120591021
  - # 14
    frequency:   10.7590560121
  - # 15
    frequency:   15.1930704385

- q-position: [    0.1010101,    0.0000000,    0.0000000 ]
  distance:    0.0311740
  band:
  - # 1
    frequency:    0.4604500229
  - # 2
    frequency:    0.9756700243
  - # 3
    frequency:    1.7638514838
  - # 4
    frequency:    2.5353308559
  - # 5
    frequency:    2.8919231394
  - # 6
    frequency:    3.6894190676
  - # 7
    frequency:    3.7652205647
  - # 8
    frequency:    4.3354264401
  - # 9
    frequency:    4.6269093611
  - # 10
    frequency:    4.8947719722
  - # 11
    frequency:    6.6525686034
  - # 12
    frequency:    8.1642894332
  - # 13
    frequency:    8.8011201692
  - # 14
    frequency:   10.9177348764
  - # 15
    frequency:   15.1486821949

- q-position: [    0.1060606,    0.0000000,    0.0000000 ]
  distance:    0.0327327
  band:
  - # 1
    frequency:    0.5006222283
  - # 2
    frequency:    1.0205988161
  - # 3
    frequency:    1.8401069197
  - # 4
    frequency:    2.5426034976
  - # 5
    frequency:    2.9294837003
  - # 6
    frequency:    3.6835140308
  - # 7
    frequency:    3.7668824483
  - # 8
    frequency:    4.3536787352
  - # 9
    frequency:    4.6293734199
  - # 10
    frequency:    4.9204514391
  - # 11
    frequency:    6.6455729652
  - # 12
    frequency:    8.1390659214
  - # 13
    frequency:    8.7899533886
  - # 14
    frequency:   11.0785562624
  - # 15
    frequency:   15.1025521164

- q-position: [    0.1111111,    0.0000000,    0.0000000 ]
  distance:    0.0342914
  band:
  - # 1
    frequency:    0.5417224204
  - # 2
    frequency:    1.0650028885
  - # 3
    frequency:    1.9145987720
  - # 4
    frequency:    2.5501918954
  - # 5
    frequency:    2.9678736136
  - # 6
    frequency:    3.6776727924
  - # 7
    frequency:    3.7686432636
  - # 8
    frequency:    4.3717823458
  - # 9
    frequency:    4.6319259412
  - # 10
    frequency:    4.9466992421
  - # 11
    frequency:    6.6384066731
  - # 12
    frequency:    8.1130844907
  - # 13
    frequency:    8.7786034459
  - # 14
    frequency:   11.2409302257
  - # 15
    frequency:   15.0547651197

- q-position: [    0.1161616,    0.0000000,    0.0000000 ]
  distance:    0.0358501
  band:
  - # 1
    frequency:    0.5836747675
  - # 2
    frequency:    1.1088663082
  - # 3
    frequency:    1.9872547399
  - # 4
    frequency:    2.5580909578
  - # 5
    frequency:    3.0069843139
  - # 6
    frequency:    3.6719610058
  - # 7
    frequency:    3.7705050137
  - # 8
    frequency:    4.3897392705
  - # 9
    frequency:    4.6345612813
  - # 10
    frequency:    4.9734598264
  - # 11
    frequency:    6.6310959670
  - # 12
    frequency:    8.0863698893
  - # 13
    frequency:    8.7671159019
  - # 14
    frequency:   11.4042791646
  - # 15
    frequency:   15.0054129762

- q-position: [    0.1212121,    0.0000000,    0.0000000 ]
  distance:    0.0374088
  band:
  - # 1
    frequency:    0.6264078644
  - # 2
    frequency:    1.1521742823
  - # 3
    frequency:    2.0580095143
  - # 4
    frequency:    2.5662954709
  - # 5
    frequency:    3.0466970029
  - # 6
    frequency:    3.6664506439
  - # 7
    frequency:    3.7724697118
  - # 8
    frequency:    4.4075593489
  - # 9
    frequency:    4.6372733604
  - # 10
    frequency:    5.0006798207
  - # 11
    frequency:    6.6236687364
  - # 12
    frequency:    8.0589508173
  - # 13
    frequency:    8.7555370040
  - # 14
    frequency:   11.5680386531
  - # 15
    frequency:   14.9545955853

- q-position: [    0.1262626,    0.0000000,    0.0000000 ]
  distance:    0.0389675
  band:
  - # 1
    frequency:    0.6698545432
  - # 2
    frequency:    1.1949131767
  - # 3
    frequency:    2.1268059508
  - # 4
    frequency:    2.5748001129
  - # 5
    frequency:    3.0868788947
  - # 6
    frequency:    3.6612230410
  - # 7
    frequency:    3.7745393773
  - # 8
    frequency:    4.4252585942
  - # 9
    frequency:    4.6400556673
  - # 10
    frequency:    5.0283074280
  - # 11
    frequency:    6.6161545590
  - # 12
    frequency:    8.0308595917
  - # 13
    frequency:    8.7439134904
  - # 14
    frequency:   11.7316571882
  - # 15
    frequency:   14.9024227803

- q-position: [    0.1313131,    0.0000000,    0.0000000 ]
  distance:    0.0405262
  band:
  - # 1
    frequency:    0.7139516541
  - # 2
    frequency:    1.2370705286
  - # 3
    frequency:    2.1935960774
  - # 4
    frequency:    2.5835994707
  - # 5
    frequency:    3.1273784472
  - # 6
    frequency:    3.6563731469
  - # 7
    frequency:    3.7767160311
  - # 8
    frequency:    4.4428577722
  - # 9
    frequency:    4.6429012696
  - # 10
    frequency:    5.0562917282
  - # 11
    frequency:    6.6085847294
  - # 12
    frequency:    8.0021318724
  - # 13
    frequency:    8.7322923878
  - # 14
    frequency:   11.8945946731
  - # 15
    frequency:   14.8490169197

- q-position: [    0.1363636,    0.0000000,    0.0000000 ]
  distance:    0.0420849
  band:
  - # 1
    frequency:    0.7586398288
  - # 2
    frequency:    1.2786350521
  - # 3
    frequency:    2.2583418480
  - # 4
    frequency:    2.5926880548
  - # 5
    frequency:    3.1680190554
  - # 6
    frequency:    3.6520156030
  - # 7
    frequency:    3.7790016909
  - # 8
    frequency:    4.4603811943
  - # 9
    frequency:    4.6458028317
  - # 10
    frequency:    5.0845819286
  - # 11
    frequency:    6.6009922722
  - # 12
    frequency:    7.9728064436
  - # 13
    frequency:    8.7207208022
  - # 14
    frequency:   12.0563193150
  - # 15
    frequency:   14.7945166579

- q-position: [    0.1414141,    0.0000000,    0.0000000 ]
  distance:    0.0436436
  band:
  - # 1
    frequency:    0.8038632329
  - # 2
    frequency:    1.3195966388
  - # 3
    frequency:    2.3210155610
  - # 4
    frequency:    2.6020603154
  - # 5
    frequency:    3.2085903410
  - # 6
    frequency:    3.6482935820
  - # 7
    frequency:    3.7813983641
  - # 8
    frequency:    4.4778556856
  - # 9
    frequency:    4.6487526394
  - # 10
    frequency:    5.1131265965
  - # 11
    frequency:    6.5934119353
  - # 12
    frequency:    7.9429250480
  - # 13
    frequency:    8.7092457047
  - # 14
    frequency:   12.2163023741
  - # 15
    frequency:   14.7390825282

- q-position: [    0.1464646,    0.0000000,    0.0000000 ]
  distance:    0.0452023
  band:
  - # 1
    frequency:    0.8495693142
  - # 2
    frequency:    1.3599463509
  - # 3
    frequency:    2.3815998755
  - # 4
    frequency:    2.6117106570
  - # 5
    frequency:    3.2488356826
  - # 6
    frequency:    3.6453918086
  - # 7
    frequency:    3.7839080408
  - # 8
    frequency:    4.4953096888
  - # 9
    frequency:    4.6517426310
  - # 10
    frequency:    5.1418729060
  - # 11
    frequency:    6.5858801545
  - # 12
    frequency:    7.9125322688
  - # 13
    frequency:    8.6979137135
  - # 14
    frequency:   12.3740097941
  - # 15
    frequency:   14.6829053738

- q-position: [    0.1515152,    0.0000000,    0.0000000 ]
  distance:    0.0467610
  band:
  - # 1
    frequency:    0.8957085524
  - # 2
    frequency:    1.3996764074
  - # 3
    frequency:    2.4400873915
  - # 4
    frequency:    2.6216334527
  - # 5
    frequency:    3.2884340784
  - # 6
    frequency:    3.6435557018
  - # 7
    frequency:    3.7865326838
  - # 8
    frequency:    4.5127724675
  - # 9
    frequency:    4.6547644372
  - # 10
    frequency:    5.1707659250
  - # 11
    frequency:    6.5784349806
  - # 12
    frequency:    7.8816754593
  - # 13
    frequency:    8.6867708723
  - # 14
    frequency:   12.5288890171
  - # 15
    frequency:   14.6262193771

- q-position: [    0.1565657,    0.0000000,    0.0000000 ]
  distance:    0.0483197
  band:
  - # 1
    frequency:    0.9422342124
  - # 2
    frequency:    1.4387801644
  - # 3
    frequency:    2.4964797893
  - # 4
    frequency:    2.6318230574
  - # 5
    frequency:    3.3269742834
  - # 6
    frequency:    3.6431186907
  - # 7
    frequency:    3.7892742172
  - # 8
    frequency:    4.5302733762
  - # 9
    frequency:    4.6578094265
  - # 10
    frequency:    5.1997479688
  - # 11
    frequency:    6.5711159570
  - # 12
    frequency:    7.8504047164
  - # 13
    frequency:    8.6758624271
  - # 14
    frequency:   12.6803480000
  - # 15
    frequency:   14.5693227229

- q-position: [    0.1616162,    0.0000000,    0.0000000 ]
  distance:    0.0498784
  band:
  - # 1
    frequency:    0.9891021052
  - # 2
    frequency:    1.4772520872
  - # 3
    frequency:    2.5507865660
  - # 4
    frequency:    2.6422738191
  - # 5
    frequency:    3.3639211175
  - # 6
    frequency:    3.6445377647
  - # 7
    frequency:    3.7921345134
  - # 8
    frequency:    4.5478411731
  - # 9
    frequency:    4.6608687588
  - # 10
    frequency:    5.2287580432
  - # 11
    frequency:    6.5639639334
  - # 12
    frequency:    7.8187729002
  - # 13
    frequency:    8.6652326031
  - # 14
    frequency:   12.8277210539
  - # 15
    frequency:   14.5126113137

- q-position: [    0.1666667,    0.0000000,    0.0000000 ]
  distance:    0.0514371
  band:
  - # 1
    frequency:    1.0362703572
  - # 2
    frequency:    1.5150877171
  - # 3
    frequency:    2.6030234365
  - # 4
    frequency:    2.6529800889
  - # 5
    frequency:    3.3985825599
  - # 6
    frequency:    3.6484285599
  - # 7
    frequency:    3.7951153770
  - # 8
    frequency:    4.5655033584
  - # 9
    frequency:    4.6639334441
  - # 10
    frequency:    5.2577314004
  - # 11
    frequency:    6.5570207982
  - # 12
    frequency:    7.7868356987
  - # 13
    frequency:    8.6549243825
  - # 14
    frequency:   12.9702116219
  - # 15
    frequency:   14.4566354560

- q-position: [    0.1717172,    0.0000000,    0.0000000 ]
  distance:    0.0529958
  band:
  - # 1
    frequency:    1.0836991903
  - # 2
    frequency:    1.5522836303
  - # 3
    frequency:    2.6532104984
  - # 4
    frequency:    2.6639362285
  - # 5
    frequency:    3.4301101809
  - # 6
    frequency:    3.6555673187
  - # 7
    frequency:    3.7982185267
  - # 8
    frequency:    4.5832855269
  - # 9
    frequency:    4.6669944078
  - # 10
    frequency:    5.2865992326
  - # 11
    frequency:    6.5503291085
  - # 12
    frequency:    7.7546517414
  - # 13
    frequency:    8.6449792853
  - # 14
    frequency:   13.1067935744
  - # 15
    frequency:   14.4021979700

- q-position: [    0.1767677,    0.0000000,    0.0000000 ]
  distance:    0.0545545
  band:
  - # 1
    frequency:    1.1313507124
  - # 2
    frequency:    1.5888373909
  - # 3
    frequency:    2.6751366150
  - # 4
    frequency:    2.7013702778
  - # 5
    frequency:    3.4576041564
  - # 6
    frequency:    3.6667883421
  - # 7
    frequency:    3.8014455756
  - # 8
    frequency:    4.6012107342
  - # 9
    frequency:    4.6700425599
  - # 10
    frequency:    5.3152885276
  - # 11
    frequency:    6.5439315929
  - # 12
    frequency:    7.7222827632
  - # 13
    frequency:    8.6354371555
  - # 14
    frequency:   13.2360370639
  - # 15
    frequency:   14.3505276990

- q-position: [    0.1818182,    0.0000000,    0.0000000 ]
  distance:    0.0561132
  band:
  - # 1
    frequency:    1.1791887202
  - # 2
    frequency:    1.6247474979
  - # 3
    frequency:    2.6865756431
  - # 4
    frequency:    2.7475257810
  - # 5
    frequency:    3.4803899083
  - # 6
    frequency:    3.6827097436
  - # 7
    frequency:    3.8047980080
  - # 8
    frequency:    4.6192988781
  - # 9
    frequency:    4.6730688683
  - # 10
    frequency:    5.3437221125
  - # 11
    frequency:    6.5378705003
  - # 12
    frequency:    7.6897938237
  - # 13
    frequency:    8.6263359526
  - # 14
    frequency:   13.3558014886
  - # 15
    frequency:   14.3035858917

- q-position: [    0.1868687,    0.0000000,    0.0000000 ]
  distance:    0.0576719
  band:
  - # 1
    frequency:    1.2271785130
  - # 2
    frequency:    1.6600133263
  - # 3
    frequency:    2.6982477242
  - # 4
    frequency:    2.7916986814
  - # 5
    frequency:    3.4983693298
  - # 6
    frequency:    3.7033843946
  - # 7
    frequency:    3.8082771556
  - # 8
    frequency:    4.6375661092
  - # 9
    frequency:    4.6760644349
  - # 10
    frequency:    5.3718189127
  - # 11
    frequency:    6.5321867639
  - # 12
    frequency:    7.6572535861
  - # 13
    frequency:    8.6177115529
  - # 14
    frequency:   13.4627296448
  - # 15
    frequency:   14.2645713889

- q-position: [    0.1919192,    0.0000000,    0.0000000 ]
  distance:    0.0592306
  band:
  - # 1
    frequency:    1.2752867194
  - # 2
    frequency:    1.6946350630
  - # 3
    frequency:    2.7101472814
  - # 4
    frequency:    2.8339077707
  - # 5
    frequency:    3.5121358986
  - # 6
    frequency:    3.7281866039
  - # 7
    frequency:    3.8118841707
  - # 8
    frequency:    4.6560242839
  - # 9
    frequency:    4.6790205719
  - # 10
    frequency:    5.3994944529
  - # 11
    frequency:    6.5269189491
  - # 12
    frequency:    7.6247346606
  - # 13
    frequency:    8.6095975605
  - # 14
    frequency:   13.5516270540
  - # 15
    frequency:   14.2385406405

- q-position: [    0.1969697,    0.0000000,    0.0000000 ]
  distance:    0.0607893
  band:
  - # 1
    frequency:    1.3234811350
  - # 2
    frequency:    1.7286136383
  - # 3
    frequency:    2.7222687420
  - # 4
    frequency:    2.8741677988
  - # 5
    frequency:    3.5227111937
  - # 6
    frequency:    3.7560768646
  - # 7
    frequency:    3.8156199979
  - # 8
    frequency:    4.6746804818
  - # 9
    frequency:    4.6819288790
  - # 10
    frequency:    5.4266616225
  - # 11
    frequency:    6.5221019564
  - # 12
    frequency:    7.5923140173
  - # 13
    frequency:    8.6020251300
  - # 14
    frequency:   13.6155548160
  - # 15
    frequency:   14.2323142093

- q-position: [    0.2020202,    0.0000000,    0.0000000 ]
  distance:    0.0623480
  band:
  - # 1
    frequency:    1.3717305730
  - # 2
    frequency:    1.7619506532
  - # 3
    frequency:    2.7346065251
  - # 4
    frequency:    2.9124888339
  - # 5
    frequency:    3.5311661620
  - # 6
    frequency:    3.7859811686
  - # 7
    frequency:    3.8194853452
  - # 8
    frequency:    4.6847813186
  - # 9
    frequency:    4.6935366091
  - # 10
    frequency:    5.4532317223
  - # 11
    frequency:    6.5177654540
  - # 12
    frequency:    7.5600734716
  - # 13
    frequency:    8.5950228041
  - # 14
    frequency:   13.6486418696
  - # 15
    frequency:   14.2516638855

- q-position: [    0.2070707,    0.0000000,    0.0000000 ]
  distance:    0.0639067
  band:
  - # 1
    frequency:    1.4200047262
  - # 2
    frequency:    1.7946483038
  - # 3
    frequency:    2.7471550263
  - # 4
    frequency:    2.9488762739
  - # 5
    frequency:    3.5384002421
  - # 6
    frequency:    3.8170116314
  - # 7
    frequency:    3.8234806526
  - # 8
    frequency:    4.6875702875
  - # 9
    frequency:    4.7125891090
  - # 10
    frequency:    5.4791158017
  - # 11
    frequency:    6.5139320274
  - # 12
    frequency:    7.5281002444
  - # 13
    frequency:    8.5886163662
  - # 14
    frequency:   13.6510670284
  - # 15
    frequency:   14.2963300491

- q-position: [    0.2121212,    0.0000000,    0.0000000 ]
  distance:    0.0654654
  band:
  - # 1
    frequency:    1.4682740402
  - # 2