nqpoint: 300    
npath: 3      
segment_nqpoint:
- 100
- 100
- 100
labels:
- [ 'G', 'M' ]
- [ 'M', 'K' ]
- [ 'K', 'G' ]
reciprocal_lattice:
- [   0.30453593,   0.17582390,   0.00000000 ] # a*
- [   0.00000000,   0.35164781,   0.00000000 ] # b*
- [   0.00000000,   0.00000000,   0.04141722 ] # c*
natom: 6      
lattice:
- [     3.283684755701379,     0.000000000000000,     0.000000000000000 ] # a
- [    -1.641842377850690,     2.843754416456466,     0.000000000000000 ] # b
- [     0.000000000000000,     0.000000000000000,    24.144549438616494 ] # c
points:
- symbol: C # 1
  coordinates: [  0.000000000000000,  0.000000000000000,  0.468391603089317 ]
  mass: 12.010700
- symbol: Hf # 2
  coordinates: [  0.333332985432215,  0.666666983183674,  0.411166898527690 ]
  mass: 178.490000
- symbol: Hf # 3
  coordinates: [  0.666666984744047,  0.333332985985145,  0.523214366937507 ]
  mass: 178.490000
- symbol: N # 4
  coordinates: [  0.333332985432215,  0.666666983183674,  0.572508852880039 ]
  mass: 14.006700
- symbol: O # 5
  coordinates: [  0.333332985432215,  0.666666983183674,  0.627245063202318 ]
  mass: 15.999400
- symbol: O # 6
  coordinates: [  0.666666984744047,  0.333332985985145,  0.372754936797682 ]
  mass: 15.999400

phonon:
- q-position: [    0.0000000,    0.0000000,    0.0000000 ]
  distance:    0.0000000
  band:
  - # 1
    frequency:   -5.0948528265
  - # 2
    frequency:   -5.0948528265
  - # 3
    frequency:   -0.0000041261
  - # 4
    frequency:    0.0000000956
  - # 5
    frequency:    0.0000037906
  - # 6
    frequency:    2.8471618589
  - # 7
    frequency:    2.8471618589
  - # 8
    frequency:    4.8709268848
  - # 9
    frequency:    6.0355701865
  - # 10
    frequency:    6.0355701865
  - # 11
    frequency:    8.0340268777
  - # 12
    frequency:   10.3933144790
  - # 13
    frequency:   10.3933144790
  - # 14
    frequency:   14.8104764484
  - # 15
    frequency:   15.0592491332
  - # 16
    frequency:   15.0592491332
  - # 17
    frequency:   19.6718305823
  - # 18
    frequency:   39.2352154916

- q-position: [    0.0050505,    0.0000000,    0.0000000 ]
  distance:    0.0017760
  band:
  - # 1
    frequency:   -5.0952820307
  - # 2
    frequency:   -5.0939191881
  - # 3
    frequency:    0.0012050039
  - # 4
    frequency:    0.0561775858
  - # 5
    frequency:    0.0990258778
  - # 6
    frequency:    2.8473030954
  - # 7
    frequency:    2.8483412333
  - # 8
    frequency:    4.8704174304
  - # 9
    frequency:    6.0344923584
  - # 10
    frequency:    6.0347195722
  - # 11
    frequency:    8.0313671560
  - # 12
    frequency:   10.3937470814
  - # 13
    frequency:   10.3968161109
  - # 14
    frequency:   14.8087929883
  - # 15
    frequency:   15.0592368456
  - # 16
    frequency:   15.0610463394
  - # 17
    frequency:   19.6717775428
  - # 18
    frequency:   39.2344999953

- q-position: [    0.0101010,    0.0000000,    0.0000000 ]
  distance:    0.0035520
  band:
  - # 1
    frequency:   -5.0965686432
  - # 2
    frequency:   -5.0911206948
  - # 3
    frequency:    0.0048114132
  - # 4
    frequency:    0.1123148601
  - # 5
    frequency:    0.1980568958
  - # 6
    frequency:    2.8477268576
  - # 7
    frequency:    2.8518723036
  - # 8
    frequency:    4.8688899335
  - # 9
    frequency:    6.0312582238
  - # 10
    frequency:    6.0321706717
  - # 11
    frequency:    8.0235010674
  - # 12
    frequency:   10.3950446065
  - # 13
    frequency:   10.4072158186
  - # 14
    frequency:   14.8038827359
  - # 15
    frequency:   15.0592007897
  - # 16
    frequency:   15.0663058961
  - # 17
    frequency:   19.6716167485
  - # 18
    frequency:   39.2323545500

- q-position: [    0.0151515,    0.0000000,    0.0000000 ]
  distance:    0.0053280
  band:
  - # 1
    frequency:   -5.0987096364
  - # 2
    frequency:   -5.0864646205
  - # 3
    frequency:    0.0107911932
  - # 4
    frequency:    0.1683711516
  - # 5
    frequency:    0.2970979659
  - # 6
    frequency:    2.8484333001
  - # 7
    frequency:    2.8577341064
  - # 8
    frequency:    4.8663470242
  - # 9
    frequency:    6.0258665806
  - # 10
    frequency:    6.0279323073
  - # 11
    frequency:    8.0107578257
  - # 12
    frequency:   10.3972062053
  - # 13
    frequency:   10.4242073034
  - # 14
    frequency:   14.7961167158
  - # 15
    frequency:   15.0591433800
  - # 16
    frequency:   15.0746808434
  - # 17
    frequency:   19.6713432000
  - # 18
    frequency:   39.2287822854

- q-position: [    0.0202020,    0.0000000,    0.0000000 ]
  distance:    0.0071040
  band:
  - # 1
    frequency:   -5.1016998771
  - # 2
    frequency:   -5.0799631160
  - # 3
    frequency:    0.0190985237
  - # 4
    frequency:    0.2243050841
  - # 5
    frequency:    0.3961535256
  - # 6
    frequency:    2.8494226673
  - # 7
    frequency:    2.8658923399
  - # 8
    frequency:    4.8627931891
  - # 9
    frequency:    6.0183178935
  - # 10
    frequency:    6.0220191675
  - # 11
    frequency:    7.9936546842
  - # 12
    frequency:   10.4002304491
  - # 13
    frequency:   10.4473090262
  - # 14
    frequency:   14.7859849149
  - # 15
    frequency:   15.0590686194
  - # 16
    frequency:   15.0857208520
  - # 17
    frequency:   19.6709486600
  - # 18
    frequency:   39.2237884117

- q-position: [    0.0252525,    0.0000000,    0.0000000 ]
  distance:    0.0088800
  band:
  - # 1
    frequency:   -5.1055319987
  - # 2
    frequency:   -5.0716332433
  - # 3
    frequency:    0.0296702958
  - # 4
    frequency:    0.2800742585
  - # 5
    frequency:    0.4952272592
  - # 6
    frequency:    2.8506952745
  - # 7
    frequency:    2.8763002832
  - # 8
    frequency:    4.8582349383
  - # 9
    frequency:    6.0086178971
  - # 10
    frequency:    6.0144517836
  - # 11
    frequency:    7.9728558992
  - # 12
    frequency:   10.4041153106
  - # 13
    frequency:   10.4759016127
  - # 14
    frequency:   14.7739892188
  - # 15
    frequency:   15.0589820684
  - # 16
    frequency:   15.0989786118
  - # 17
    frequency:   19.6704217923
  - # 18
    frequency:   39.2173802115

- q-position: [    0.0303030,    0.0000000,    0.0000000 ]
  distance:    0.0106560
  band:
  - # 1
    frequency:   -5.1101962308
  - # 2
    frequency:   -5.0614970125
  - # 3
    frequency:    0.0424270900
  - # 4
    frequency:    0.3356349773
  - # 5
    frequency:    0.5943217676
  - # 6
    frequency:    2.8522514829
  - # 7
    frequency:    2.8889000113
  - # 8
    frequency:    4.8526810577
  - # 9
    frequency:    5.9967824184
  - # 10
    frequency:    6.0052564961
  - # 11
    frequency:    7.9491253865
  - # 12
    frequency:   10.4088581376
  - # 13
    frequency:   10.5092703105
  - # 14
    frequency:   14.7605790762
  - # 15
    frequency:   15.0588908009
  - # 16
    frequency:   15.1140732185
  - # 17
    frequency:   19.6697483538
  - # 18
    frequency:   39.2095670281

- q-position: [    0.0353535,    0.0000000,    0.0000000 ]
  distance:    0.0124320
  band:
  - # 1
    frequency:   -5.1156801924
  - # 2
    frequency:   -5.0495814080
  - # 3
    frequency:    0.0572743582
  - # 4
    frequency:    0.3909420198
  - # 5
    frequency:    0.6934381704
  - # 6
    frequency:    2.8540916703
  - # 7
    frequency:    2.9036238450
  - # 8
    frequency:    4.8461429669
  - # 9
    frequency:    5.9828431558
  - # 10
    frequency:    5.9944654109
  - # 11
    frequency:    7.9232793267
  - # 12
    frequency:   10.4144556204
  - # 13
    frequency:   10.5466464795
  - # 14
    frequency:   14.7461285467
  - # 15
    frequency:   15.0588033486
  - # 16
    frequency:   15.1307119041
  - # 17
    frequency:   19.6689114321
  - # 18
    frequency:   39.2003602504

- q-position: [    0.0404040,    0.0000000,    0.0000000 ]
  distance:    0.0142080
  band:
  - # 1
    frequency:   -5.1219686578
  - # 2
    frequency:   -5.0359183901
  - # 3
    frequency:    0.0741037663
  - # 4
    frequency:    0.4459484792
  - # 5
    frequency:    0.7925756261
  - # 6
    frequency:    2.8562161992
  - # 7
    frequency:    2.9203959655
  - # 8
    frequency:    4.8386352047
  - # 9
    frequency:    5.9668540277
  - # 10
    frequency:    5.9821163435
  - # 11
    frequency:    7.8961433526
  - # 12
    frequency:   10.4209037538
  - # 13
    frequency:   10.5872438367
  - # 14
    frequency:   14.7309377357
  - # 15
    frequency:   15.0587296321
  - # 16
    frequency:   15.1486871094
  - # 17
    frequency:   19.6678917272
  - # 18
    frequency:   39.1897732942

- q-position: [    0.0454545,    0.0000000,    0.0000000 ]
  distance:    0.0159840
  band:
  - # 1
    frequency:   -5.1290433058
  - # 2
    frequency:   -5.0205448546
  - # 3
    frequency:    0.0927946599
  - # 4
    frequency:    0.5006056679
  - # 5
    frequency:    0.8917307536
  - # 6
    frequency:    2.8586253846
  - # 7
    frequency:    2.9391341219
  - # 8
    frequency:    4.8301760603
  - # 9
    frequency:    5.9488975782
  - # 10
    frequency:    5.9682527521
  - # 11
    frequency:    7.8685169549
  - # 12
    frequency:   10.4281977952
  - # 13
    frequency:   10.6302872976
  - # 14
    frequency:   14.7152438763
  - # 15
    frequency:   15.0586808815
  - # 16
    frequency:   15.1678636419
  - # 17
    frequency:   19.6666678683
  - # 18
    frequency:   39.1778215807

- q-position: [    0.0505051,    0.0000000,    0.0000000 ]
  distance:    0.0177600
  band:
  - # 1
    frequency:   -5.1368824613
  - # 2
    frequency:   -5.0035025314
  - # 3
    frequency:    0.1132156245
  - # 4
    frequency:    0.5548630945
  - # 5
    frequency:    0.9908969436
  - # 6
    frequency:    2.8613194636
  - # 7
    frequency:    2.9597513662
  - # 8
    frequency:    4.8207883715
  - # 9
    frequency:    5.9290908193
  - # 10
    frequency:    5.9529236558
  - # 11
    frequency:    7.8411460382
  - # 12
    frequency:   10.4363322192
  - # 13
    frequency:   10.6750340620
  - # 14
    frequency:   14.6992339310
  - # 15
    frequency:   15.0586695440
  - # 16
    frequency:   15.1881640620
  - # 17
    frequency:   19.6652167609
  - # 18
    frequency:   39.1645225113

- q-position: [    0.0555556,    0.0000000,    0.0000000 ]
  distance:    0.0195360
  band:
  - # 1
    frequency:   -5.1454608413
  - # 2
    frequency:   -4.9848378026
  - # 3
    frequency:    0.1352261217
  - # 4
    frequency:    0.6086685162
  - # 5
    frequency:    1.0900635510
  - # 6
    frequency:    2.8642985690
  - # 7
    frequency:    2.9821577522
  - # 8
    frequency:    4.8105004949
  - # 9
    frequency:    5.9075898351
  - # 10
    frequency:    5.9361835395
  - # 11
    frequency:    7.8147034427
  - # 12
    frequency:   10.4453006711
  - # 13
    frequency:   10.7207877690
  - # 14
    frequency:   14.6830554478
  - # 15
    frequency:   15.0587091813
  - # 16
    frequency:   15.2095555770
  - # 17
    frequency:   19.6635139569
  - # 18
    frequency:   39.1498954387

- q-position: [    0.0606061,    0.0000000,    0.0000000 ]
  distance:    0.0213120
  band:
  - # 1
    frequency:   -5.1547493156
  - # 2
    frequency:   -4.9646014211
  - # 3
    frequency:    0.1586781990
  - # 4
    frequency:    0.6619680645
  - # 5
    frequency:    1.1892149616
  - # 6
    frequency:    2.8675627096
  - # 7
    frequency:    3.0062619519
  - # 8
    frequency:    4.7993474423
  - # 9
    frequency:    5.8845924997
  - # 10
    frequency:    5.9180922425
  - # 11
    frequency:    7.7897766697
  - # 12
    frequency:   10.4550959200
  - # 13
    frequency:   10.7669070989
  - # 14
    frequency:   14.6668248988
  - # 15
    frequency:   15.0588143548
  - # 16
    frequency:   15.2320392503
  - # 17
    frequency:   19.6615340411
  - # 18
    frequency:   39.1339616356

- q-position: [    0.0656566,    0.0000000,    0.0000000 ]
  distance:    0.0230880
  band:
  - # 1
    frequency:   -5.1647146914
  - # 2
    frequency:   -4.9428481113
  - # 3
    frequency:    0.1834182792
  - # 4
    frequency:    0.7147064423
  - # 5
    frequency:    1.2883295363
  - # 6
    frequency:    2.8711117594
  - # 7
    frequency:    3.0319727454
  - # 8
    frequency:    4.7873721517
  - # 9
    frequency:    5.8603387986
  - # 10
    frequency:    5.8987148300
  - # 11
    frequency:    7.7668618470
  - # 12
    frequency:   10.4657098126
  - # 13
    frequency:   10.8128102859
  - # 14
    frequency:   14.6506337241
  - # 15
    frequency:   15.0590005017
  - # 16
    frequency:   15.2556413392
  - # 17
    frequency:   19.6592510262
  - # 18
    frequency:   39.1167442590

- q-position: [    0.0707071,    0.0000000,    0.0000000 ]
  distance:    0.0248640
  band:
  - # 1
    frequency:   -5.1753195327
  - # 2
    frequency:   -4.9196360384
  - # 3
    frequency:    0.2092890455
  - # 4
    frequency:    0.7668271874
  - # 5
    frequency:    1.3873784399
  - # 6
    frequency:    2.8749454565
  - # 7
    frequency:    3.0592003594
  - # 8
    frequency:    4.7746268313
  - # 9
    frequency:    5.8351084725
  - # 10
    frequency:    5.8781214453
  - # 11
    frequency:    7.7463629262
  - # 12
    frequency:   10.4771332308
  - # 13
    frequency:   10.8579768354
  - # 14
    frequency:   14.6345525938
  - # 15
    frequency:   15.0592838002
  - # 16
    frequency:   15.2804063078
  - # 17
    frequency:   19.6566387504
  - # 18
    frequency:   39.0982683114

- q-position: [    0.0757576,    0.0000000,    0.0000000 ]
  distance:    0.0266400
  band:
  - # 1
    frequency:   -5.1865220191
  - # 2
    frequency:   -4.8950261368
  - # 3
    frequency:    0.2361314453
  - # 4
    frequency:    0.8182729964
  - # 5
    frequency:    1.4863243726
  - # 6
    frequency:    2.8790634148
  - # 7
    frequency:    3.0878576327
  - # 8
    frequency:    4.7611742767
  - # 9
    frequency:    5.8092160092
  - # 10
    frequency:    5.8563871422
  - # 11
    frequency:    7.7285951179
  - # 12
    frequency:   10.4893560525
  - # 13
    frequency:   10.9019474567
  - # 14
    frequency:   14.6186343979
  - # 15
    frequency:   15.0596810257
  - # 16
    frequency:   15.3063910698
  - # 17
    frequency:   19.6536712705
  - # 18
    frequency:   39.0785605995

- q-position: [    0.0808081,    0.0000000,    0.0000000 ]
  distance:    0.0284160
  band:
  - # 1
    frequency:   -5.1982758533
  - # 2
    frequency:   -4.8690812966
  - # 3
    frequency:    0.2637868304
  - # 4
    frequency:    0.8689861010
  - # 5
    frequency:    1.5851202332
  - # 6
    frequency:    2.8834651484
  - # 7
    frequency:    3.1178609998
  - # 8
    frequency:    4.7470890214
  - # 9
    frequency:    5.7830033329
  - # 10
    frequency:    5.8335916949
  - # 11
    frequency:    7.7137915718
  - # 12
    frequency:   10.5023671193
  - # 13
    frequency:   10.9443229316
  - # 14
    frequency:   14.6029163920
  - # 15
    frequency:   15.0602093988
  - # 16
    frequency:   15.3336601121
  - # 17
    frequency:   19.6503232443
  - # 18
    frequency:   39.0576496882

- q-position: [    0.0858586,    0.0000000,    0.0000000 ]
  distance:    0.0301920
  band:
  - # 1
    frequency:   -5.2105302199
  - # 2
    frequency:   -4.8418654136
  - # 3
    frequency:    0.2920992480
  - # 4
    frequency:    0.9189086900
  - # 5
    frequency:    1.6837077518
  - # 6
    frequency:    2.8881501093
  - # 7
    frequency:    3.1491312896
  - # 8
    frequency:    4.7324581454
  - # 9
    frequency:    5.7568308196
  - # 10
    frequency:    5.8098193845
  - # 11
    frequency:    7.7021123196
  - # 12
    frequency:   10.5161542104
  - # 13
    frequency:   10.9847623857
  - # 14
    frequency:   14.5874218271
  - # 15
    frequency:   15.0608864251
  - # 16
    frequency:   15.3622812628
  - # 17
    frequency:   19.6465702985
  - # 18
    frequency:   39.0355658520

- q-position: [    0.0909091,    0.0000000,    0.0000000 ]
  distance:    0.0319680
  band:
  - # 1
    frequency:   -5.2232297987
  - # 2
    frequency:   -4.8134423212
  - # 3
    frequency:    0.3209178804
  - # 4
    frequency:    0.9679833677
  - # 5
    frequency:    1.7820161442
  - # 6
    frequency:    2.8931177392
  - # 7
    frequency:    3.1815943428
  - # 8
    frequency:    4.7173815438
  - # 9
    frequency:    5.7310674570
  - # 10
    frequency:    5.7851587588
  - # 11
    frequency:    7.6936545327
  - # 12
    frequency:   10.5307040251
  - # 13
    frequency:   11.0229812348
  - # 14
    frequency:   14.5721613005
  - # 15
    frequency:   15.0617297291
  - # 16
    frequency:   15.3923219539
  - # 17
    frequency:   19.6423893751
  - # 18
    frequency:   39.0123410230

- q-position: [    0.0959596,    0.0000000,    0.0000000 ]
  distance:    0.0337440
  band:
  - # 1
    frequency:   -5.2363148341
  - # 2
    frequency:   -4.7838746308
  - # 3
    frequency:    0.3500996142
  - # 4
    frequency:    1.0161536415
  - # 5
    frequency:    1.8799608478
  - # 6
    frequency:    2.8983675326
  - # 7
    frequency:    3.2151814566
  - # 8
    frequency:    4.7019714593
  - # 9
    frequency:    5.7060810322
  - # 10
    frequency:    5.7597023659
  - # 11
    frequency:    7.6884632361
  - # 12
    frequency:   10.5460021751
  - # 13
    frequency:   11.0587489382
  - # 14
    frequency:   14.5571339941
  - # 15
    frequency:   15.0627568820
  - # 16
    frequency:   15.4238459063
  - # 17
    frequency:   19.6377590540
  - # 18
    frequency:   38.9880087355

- q-position: [    0.1010101,    0.0000000,    0.0000000 ]
  distance:    0.0355200
  band:
  - # 1
    frequency:   -5.2497212600
  - # 2
    frequency:   -4.7532225205
  - # 3
    frequency:    0.3795116955
  - # 4
    frequency:    1.0633644322
  - # 5
    frequency:    1.9774424093
  - # 6
    frequency:    2.9038991121
  - # 7
    frequency:    3.2498296716
  - # 8
    frequency:    4.6863511172
  - # 9
    frequency:    5.6822291610
  - # 10
    frequency:    5.7335464572
  - # 11
    frequency:    7.6865417569
  - # 12
    frequency:   10.5620331869
  - # 13
    frequency:   11.0918866026
  - # 14
    frequency:   14.5423289057
  - # 15
    frequency:   15.0639852253
  - # 16
    frequency:   15.4569102130
  - # 17
    frequency:   19.6326598478
  - # 18
    frequency:   38.9626040672

- q-position: [    0.1060606,    0.0000000,    0.0000000 ]
  distance:    0.0372960
  band:
  - # 1
    frequency:   -5.2633808782
  - # 2
    frequency:   -4.7215425194
  - # 3
    frequency:    0.4090344017
  - # 4
    frequency:    1.1095626009
  - # 5
    frequency:    2.0743455982
  - # 6
    frequency:    2.9097123117
  - # 7
    frequency:    3.2854819200
  - # 8
    frequency:    4.6706523729
  - # 9
    frequency:    5.6598518034
  - # 10
    frequency:    5.7067906604
  - # 11
    frequency:    7.6878613624
  - # 12
    frequency:   10.5787805154
  - # 13
    frequency:   11.1222644295
  - # 14
    frequency:   14.5277261300
  - # 15
    frequency:   15.0654316917
  - # 16
    frequency:   15.4915628318
  - # 17
    frequency:   19.6270744676
  - # 18
    frequency:   38.9361635769

- q-position: [    0.1111111,    0.0000000,    0.0000000 ]
  distance:    0.0390720
  band:
  - # 1
    frequency:   -5.2772215880
  - # 2
    frequency:   -4.6888863432
  - # 3
    frequency:    0.4385636367
  - # 4
    frequency:    1.1546974873
  - # 5
    frequency:    2.1705388217
  - # 6
    frequency:    2.9158072651
  - # 7
    frequency:    3.3220870593
  - # 8
    frequency:    4.6550123903
  - # 9
    frequency:    5.6392656598
  - # 10
    frequency:    5.6795376187
  - # 11
    frequency:    7.6923697307
  - # 12
    frequency:   10.5962265689
  - # 13
    frequency:   11.1497989798
  - # 14
    frequency:   14.5132982084
  - # 15
    frequency:   15.0671126242
  - # 16
    frequency:   15.5278405115
  - # 17
    frequency:   19.6209880561
  - # 18
    frequency:   38.9087252393

- q-position: [    0.1161616,    0.0000000,    0.0000000 ]
  distance:    0.0408480
  band:
  - # 1
    frequency:   -5.2911676626
  - # 2
    frequency:   -4.6552998415
  - # 3
    frequency:    0.4680133323
  - # 4
    frequency:    1.1987214579
  - # 5
    frequency:    2.2658739138
  - # 6
    frequency:    2.9221844967
  - # 7
    frequency:    3.3595998216
  - # 8
    frequency:    4.6395694964
  - # 9
    frequency:    5.6207605656
  - # 10
    frequency:    5.6518925970
  - # 11
    frequency:    7.6999980732
  - # 12
    frequency:   10.6143527464
  - # 13
    frequency:   11.1744502292
  - # 14
    frequency:   14.4990115377
  - # 15
    frequency:   15.0690435954
  - # 16
    frequency:   15.5657671837
  - # 17
    frequency:   19.6143883900
  - # 18
    frequency:   38.8803283764

- q-position: [    0.1212121,    0.0000000,    0.0000000 ]
  distance:    0.0426240
  band:
  - # 1
    frequency:   -5.3051400686
  - # 2
    frequency:   -4.6208221149
  - # 3
    frequency:    0.4973175278
  - # 4
    frequency:    1.2415904618
  - # 5
    frequency:    2.3601863609
  - # 6
    frequency:    2.9288450083
  - # 7
    frequency:    3.3979807109
  - # 8
    frequency:    4.6244584888
  - # 9
    frequency:    5.6045977368
  - # 10
    frequency:    5.6239630515
  - # 11
    frequency:    7.7106668702
  - # 12
    frequency:   10.6331394856
  - # 13
    frequency:   11.1962184037
  - # 14
    frequency:   14.4848278089
  - # 15
    frequency:   15.0712392285
  - # 16
    frequency:   15.6053528394
  - # 17
    frequency:   19.6072660488
  - # 18
    frequency:   38.8510135856

- q-position: [    0.1262626,    0.0000000,    0.0000000 ]
  distance:    0.0444000
  band:
  - # 1
    frequency:   -5.3190568226
  - # 2
    frequency:   -4.5854848586
  - # 3
    frequency:    0.5264319904
  - # 4
    frequency:    1.2832645929
  - # 5
    frequency:    2.4532960145
  - # 6
    frequency:    2.9357903589
  - # 7
    frequency:    3.4371958827
  - # 8
    frequency:    4.6098057835
  - # 9
    frequency:    5.5910095069
  - # 10
    frequency:    5.5958581646
  - # 11
    frequency:    7.7242902924
  - # 12
    frequency:   10.6525663234
  - # 13
    frequency:   11.2151406035
  - # 14
    frequency:   14.4707054315
  - # 15
    frequency:   15.0737130218
  - # 16
    frequency:   15.6465928958
  - # 17
    frequency:   19.5996145529
  - # 18
    frequency:   38.8208226643

- q-position: [    0.1313131,    0.0000000,    0.0000000 ]
  distance:    0.0461760
  band:
  - # 1
    frequency:   -5.3328333813
  - # 2
    frequency:   -4.5493119753
  - # 3
    frequency:    0.5553352495
  - # 4
    frequency:    1.3237086609
  - # 5
    frequency:    2.5450083223
  - # 6
    frequency:    2.9430227298
  - # 7
    frequency:    3.4772170355
  - # 8
    frequency:    4.5957248563
  - # 9
    frequency:    5.5676883427
  - # 10
    frequency:    5.5802000472
  - # 11
    frequency:    7.7407794433
  - # 12
    frequency:   10.6726119659
  - # 13
    frequency:   11.2312872475
  - # 14
    frequency:   14.4566009013
  - # 15
    frequency:   15.0764771786
  - # 16
    frequency:   15.6894680374
  - # 17
    frequency:   19.5914304708
  - # 18
    frequency:   38.7897985326

- q-position: [    0.1363636,    0.0000000,    0.0000000 ]
  distance:    0.0479520
  band:
  - # 1
    frequency:   -5.3463830580
  - # 2
    frequency:   -4.5123194899
  - # 3
    frequency:    0.5840289370
  - # 4
    frequency:    1.3628927711
  - # 5
    frequency:    2.6351160947
  - # 6
    frequency:    2.9505449709
  - # 7
    frequency:    3.5180213278
  - # 8
    frequency:    4.5823124464
  - # 9
    frequency:    5.5395646782
  - # 10
    frequency:    5.5723465120
  - # 11
    frequency:    7.7600445975
  - # 12
    frequency:   10.6932543693
  - # 13
    frequency:   11.2447583882
  - # 14
    frequency:   14.4424700663
  - # 15
    frequency:   15.0795424436
  - # 16
    frequency:   15.7339444931
  - # 17
    frequency:   19.5827134979
  - # 18
    frequency:   38.7579851514

- q-position: [    0.1414141,    0.0000000,    0.0000000 ]
  distance:    0.0497280
  band:
  - # 1
    frequency:   -5.3596174629
  - # 2
    frequency:   -4.4745157809
  - # 3
    frequency:    0.6125373565
  - # 4
    frequency:    1.4007929135
  - # 5
    frequency:    2.7234018033
  - # 6
    frequency:    2.9583606225
  - # 7
    frequency:    3.5595913113
  - # 8
    frequency:    4.5696459449
  - # 9
    frequency:    5.5115983782
  - # 10
    frequency:    5.5676000741
  - # 11
    frequency:    7.7819966145
  - # 12
    frequency:   10.7144708282
  - # 13
    frequency:   11.2556799616
  - # 14
    frequency:   14.4282692568
  - # 15
    frequency:   15.0829179493
  - # 16
    frequency:   15.7799746917
  - # 17
    frequency:   19.5734665093
  - # 18
    frequency:   38.7254274387

- q-position: [    0.1464646,    0.0000000,    0.0000000 ]
  distance:    0.0515040
  band:
  - # 1
    frequency:   -5.3724469598
  - # 2
    frequency:   -4.4359021235
  - # 3
    frequency:    0.6409062511
  - # 4
    frequency:    1.4373915632
  - # 5
    frequency:    2.8096403999
  - # 6
    frequency:    2.9664739063
  - # 7
    frequency:    3.6019148223
  - # 8
    frequency:    4.5577823001
  - # 9
    frequency:    5.4839001602
  - # 10
    frequency:    5.5660864203
  - # 11
    frequency:    7.8065477059
  - # 12
    frequency:   10.7362380721
  - # 13
    frequency:   11.2642000432
  - # 14
    frequency:   14.4139562531
  - # 15
    frequency:   15.0866110723
  - # 16
    frequency:   15.8274982232
  - # 17
    frequency:   19.5636955879
  - # 18
    frequency:   38.6921711828

- q-position: [    0.1515152,    0.0000000,    0.0000000 ]
  distance:    0.0532800
  band:
  - # 1
    frequency:   -5.3847811368
  - # 2
    frequency:   -4.3964735236
  - # 3
    frequency:    0.6692007848
  - # 4
    frequency:    1.4726782889
  - # 5
    frequency:    2.8936026367
  - # 6
    frequency:    2.9748896825
  - # 7
    frequency:    3.6449847123
  - # 8
    frequency:    4.5467586451
  - # 9
    frequency:    5.4565796200
  - # 10
    frequency:    5.5679054338
  - # 11
    frequency:    7.8336117118
  - # 12
    frequency:   10.7585323669
  - # 13
    frequency:   11.2704851816
  - # 14
    frequency:   14.3994910805
  - # 15
    frequency:   15.0906273032
  - # 16
    frequency:   15.8764430242
  - # 17
    frequency:   19.5534100336
  - # 18
    frequency:   38.6582629525

- q-position: [    0.1565657,    0.0000000,    0.0000000 ]
  distance:    0.0550560
  band:
  - # 1
    frequency:   -5.3965292870
  - # 2
    frequency:   -4.3562198019
  - # 3
    frequency:    0.6975028066
  - # 4
    frequency:    1.5066503670
  - # 5
    frequency:    2.9750588773
  - # 6
    frequency:    2.9836133688
  - # 7
    frequency:    3.6887982122
  - # 8
    frequency:    4.5365947180
  - # 9
    frequency:    5.4297445763
  - # 10
    frequency:    5.5731299774
  - # 11
    frequency:    7.8631040241
  - # 12
    frequency:   10.7813296196
  - # 13
    frequency:   11.2747168745
  - # 14
    frequency:   14.3848366270
  - # 15
    frequency:   15.0949701297
  - # 16
    frequency:   15.9267267025
  - # 17
    frequency:   19.5426223545
  - # 18
    frequency:   38.6237500055

- q-position: [    0.1616162,    0.0000000,    0.0000000 ]
  distance:    0.0568320
  band:
  - # 1
    frequency:   -5.4076008938
  - # 2
    frequency:   -4.3151268775
  - # 3
    frequency:    0.7259075139
  - # 4
    frequency:    1.5393133949
  - # 5
    frequency:    2.9926508214
  - # 6
    frequency:    3.0537833898
  - # 7
    frequency:    3.7333556287
  - # 8
    frequency:    4.5272970251
  - # 9
    frequency:    5.4035003980
  - # 10
    frequency:    5.5818038903
  - # 11
    frequency:    7.8949412702
  - # 12
    frequency:   10.8046054861
  - # 13
    frequency:   11.2770882424
  - # 14
    frequency:   14.3699590938
  - # 15
    frequency:   15.0996409373
  - # 16
    frequency:   15.9782579211
  - # 17
    frequency:   19.5313482444
  - # 18
    frequency:   38.5886801937

- q-position: [    0.1666667,    0.0000000,    0.0000000 ]
  distance:    0.0586080
  band:
  - # 1
    frequency:   -5.4179061193
  - # 2
    frequency:   -4.2731781863
  - # 3
    frequency:    0.7545196703
  - # 4
    frequency:    1.5706818919
  - # 5
    frequency:    3.0020081760
  - # 6
    frequency:    3.1295591131
  - # 7
    frequency:    3.7786579737
  - # 8
    frequency:    4.5188646097
  - # 9
    frequency:    5.3779493226
  - # 10
    frequency:    5.5939394878
  - # 11
    frequency:    7.9290408515
  - # 12
    frequency:   10.8283354774
  - # 13
    frequency:   11.2778009420
  - # 14
    frequency:   14.3548282936
  - # 15
    frequency:   15.1046389264
  - # 16
    frequency:   16.0309377687
  - # 17
    frequency:   19.5196065514
  - # 18
    frequency:   38.5531018667

- q-position: [    0.1717172,    0.0000000,    0.0000000 ]
  distance:    0.0603840
  band:
  - # 1
    frequency:   -5.4273562935
  - # 2
    frequency:   -4.2303561681
  - # 3
    frequency:    0.7834495610
  - # 4
    frequency:    1.6007798750
  - # 5
    frequency:    3.0116916530
  - # 6
    frequency:    3.2021828487
  - # 7
    frequency:    3.8247030565
  - # 8
    frequency:    4.5112962764
  - # 9
    frequency:    5.3531897744
  - # 10
    frequency:    5.6095149854
  - # 11
    frequency:    7.9653204078
  - # 12
    frequency:   10.8524950645
  - # 13
    frequency:   11.2770623461
  - # 14
    frequency:   14.3394178160
  - # 15
    frequency:   15.1099610488
  - # 16
    frequency:   16.0846610574
  - # 17
    frequency:   19.5074192397
  - # 18
    frequency:   38.5170637737

- q-position: [    0.1767677,    0.0000000,    0.0000000 ]
  distance:    0.0621600
  band:
  - # 1
    frequency:   -5.4358644001
  - # 2
    frequency:   -4.1866437528
  - # 3
    frequency:    0.8128088777
  - # 4
    frequency:    1.6296413905
  - # 5
    frequency:    3.0217073324
  - # 6
    frequency:    3.2714707323
  - # 7
    frequency:    3.8714795325
  - # 8
    frequency:    4.5045991964
  - # 9
    frequency:    5.3293156937
  - # 10
    frequency:    5.6284723387
  - # 11
    frequency:    8.0036972669
  - # 12
    frequency:   10.8770597783
  - # 13
    frequency:   11.2750830031
  - # 14