nqpoint: 300    
npath: 3      
segment_nqpoint:
- 100
- 100
- 100
labels:
- [ 'G', 'M' ]
- [ 'M', 'K' ]
- [ 'K', 'G' ]
reciprocal_lattice:
- [   0.27184977,   0.15695254,   0.00000000 ] # a*
- [   0.00000000,   0.31390507,   0.00000000 ] # b*
- [   0.00000000,   0.00000000,   0.04082690 ] # c*
natom: 5      
lattice:
- [     3.678502330347283,     0.000000000000000,     0.000000000000000 ] # a
- [    -1.839251165173642,     3.185676465970231,     0.000000000000000 ] # b
- [     0.000000000000000,     0.000000000000000,    24.493654755445800 ] # c
points:
- symbol: Br # 1
  coordinates: [  0.333332985432215,  0.666666983183674,  0.632557897551039 ]
  mass: 79.904000
- symbol: Br # 2
  coordinates: [  0.666666984744047,  0.333332985985145,  0.367442102448961 ]
  mass: 79.904000
- symbol: N # 3
  coordinates: [  0.000000000000000,  0.000000000000000,  0.500000028185629 ]
  mass: 14.006700
- symbol: Y # 4
  coordinates: [  0.333332985432215,  0.666666983183674,  0.447292703446603 ]
  mass: 88.905850
- symbol: Y # 5
  coordinates: [  0.666666984744047,  0.333332985985145,  0.552707296132708 ]
  mass: 88.905850

phonon:
- q-position: [    0.0000000,    0.0000000,    0.0000000 ]
  distance:    0.0000000
  band:
  - # 1
    frequency:   -0.0000064287
  - # 2
    frequency:   -0.0000000720
  - # 3
    frequency:    0.0000111748
  - # 4
    frequency:    2.2274234628
  - # 5
    frequency:    2.2274234629
  - # 6
    frequency:    3.4917506255
  - # 7
    frequency:    3.7990261604
  - # 8
    frequency:    3.7990261604
  - # 9
    frequency:    4.5023648246
  - # 10
    frequency:    4.5023648246
  - # 11
    frequency:    5.8849993423
  - # 12
    frequency:    7.4831775375
  - # 13
    frequency:    9.9409076370
  - # 14
    frequency:   10.9618839662
  - # 15
    frequency:   10.9618839662

- q-position: [    0.0050505,    0.0000000,    0.0000000 ]
  distance:    0.0015854
  band:
  - # 1
    frequency:    0.0012318810
  - # 2
    frequency:    0.0579128299
  - # 3
    frequency:    0.0585592650
  - # 4
    frequency:    2.2280298227
  - # 5
    frequency:    2.2286967367
  - # 6
    frequency:    3.4909009479
  - # 7
    frequency:    3.7991420411
  - # 8
    frequency:    3.7997329305
  - # 9
    frequency:    4.5023122256
  - # 10
    frequency:    4.5024083027
  - # 11
    frequency:    5.8847768118
  - # 12
    frequency:    7.4823796243
  - # 13
    frequency:    9.9399531488
  - # 14
    frequency:   10.9593729410
  - # 15
    frequency:   10.9620525294

- q-position: [    0.0101010,    0.0000000,    0.0000000 ]
  distance:    0.0031708
  band:
  - # 1
    frequency:    0.0049172156
  - # 2
    frequency:    0.1159108372
  - # 3
    frequency:    0.1170640153
  - # 4
    frequency:    2.2298455356
  - # 5
    frequency:    2.2325032961
  - # 6
    frequency:    3.4883785952
  - # 7
    frequency:    3.7994885085
  - # 8
    frequency:    3.8018272808
  - # 9
    frequency:    4.5021563861
  - # 10
    frequency:    4.5025365241
  - # 11
    frequency:    5.8841104530
  - # 12
    frequency:    7.4799856582
  - # 13
    frequency:    9.9370919756
  - # 14
    frequency:   10.9518427141
  - # 15
    frequency:   10.9625540497

- q-position: [    0.0151515,    0.0000000,    0.0000000 ]
  distance:    0.0047561
  band:
  - # 1
    frequency:    0.0110255717
  - # 2
    frequency:    0.1740773704
  - # 3
    frequency:    0.1754602646
  - # 4
    frequency:    2.2328605210
  - # 5
    frequency:    2.2388037861
  - # 6
    frequency:    3.4842599283
  - # 7
    frequency:    3.8000620318
  - # 8
    frequency:    3.8052348663
  - # 9
    frequency:    4.5019031685
  - # 10
    frequency:    4.5027429610
  - # 11
    frequency:    5.8830039604
  - # 12
    frequency:    7.4759949413
  - # 13
    frequency:    9.9323309807
  - # 14
    frequency:   10.9393018759
  - # 15
    frequency:   10.9633760429

- q-position: [    0.0202020,    0.0000000,    0.0000000 ]
  distance:    0.0063415
  band:
  - # 1
    frequency:    0.0195078322
  - # 2
    frequency:    0.2324921512
  - # 3
    frequency:    0.2336950736
  - # 4
    frequency:    2.2370580424
  - # 5
    frequency:    2.2475340148
  - # 6
    frequency:    3.4786611331
  - # 7
    frequency:    3.8008567056
  - # 8
    frequency:    3.8098423807
  - # 9
    frequency:    4.5015623066
  - # 10
    frequency:    4.5030171027
  - # 11
    frequency:    5.8814634765
  - # 12
    frequency:    7.4704062546
  - # 13
    frequency:    9.9256815647
  - # 14
    frequency:   10.9217648956
  - # 15
    frequency:   10.9644977799

- q-position: [    0.0252525,    0.0000000,    0.0000000 ]
  distance:    0.0079269
  band:
  - # 1
    frequency:    0.0302984512
  - # 2
    frequency:    0.2912295545
  - # 3
    frequency:    0.2917170530
  - # 4
    frequency:    2.2424148049
  - # 5
    frequency:    2.2586069217
  - # 6
    frequency:    3.4717250929
  - # 7
    frequency:    3.8018642201
  - # 8
    frequency:    3.8155099724
  - # 9
    frequency:    4.5011473496
  - # 10
    frequency:    4.5033450008
  - # 11
    frequency:    5.8794975673
  - # 12
    frequency:    7.4632177724
  - # 13
    frequency:    9.9171596063
  - # 14
    frequency:   10.8992523524
  - # 15
    frequency:   10.9658904027

- q-position: [    0.0303030,    0.0000000,    0.0000000 ]
  distance:    0.0095123
  band:
  - # 1
    frequency:    0.0433183364
  - # 2
    frequency:    0.3494768390
  - # 3
    frequency:    0.3503569908
  - # 4
    frequency:    2.2489010950
  - # 5
    frequency:    2.2719150885
  - # 6
    frequency:    3.4636081971
  - # 7
    frequency:    3.8030738264
  - # 8
    frequency:    3.8220834562
  - # 9
    frequency:    4.5006755781
  - # 10
    frequency:    4.5037100209
  - # 11
    frequency:    5.8771171803
  - # 12
    frequency:    7.4544269471
  - # 13
    frequency:    9.9067853727
  - # 14
    frequency:   10.8717912727
  - # 15
    frequency:   10.9675170850

- q-position: [    0.0353535,    0.0000000,    0.0000000 ]
  distance:    0.0110977
  band:
  - # 1
    frequency:    0.0584781287
  - # 2
    frequency:    0.4069275355
  - # 3
    frequency:    0.4099334230
  - # 4
    frequency:    2.2564809640
  - # 5
    frequency:    2.2873335913
  - # 6
    frequency:    3.4544693880
  - # 7
    frequency:    3.8044722984
  - # 8
    frequency:    3.8294040370
  - # 9
    frequency:    4.5001678912
  - # 10
    frequency:    4.5040937861
  - # 11
    frequency:    5.8743355793
  - # 12
    frequency:    7.4440303619
  - # 13
    frequency:    9.8945833946
  - # 14
    frequency:   10.8394155823
  - # 15
    frequency:   10.9693332367

- q-position: [    0.0404040,    0.0000000,    0.0000000 ]
  distance:    0.0126830
  band:
  - # 1
    frequency:    0.0756816398
  - # 2
    frequency:    0.4640251131
  - # 3
    frequency:    0.4700080371
  - # 4
    frequency:    2.2651124572
  - # 5
    frequency:    2.3047229819
  - # 6
    frequency:    3.4444624187
  - # 7
    frequency:    3.8060439024
  - # 8
    frequency:    3.8373145902
  - # 9
    frequency:    4.4996486575
  - # 10
    frequency:    4.5044772984
  - # 11
    frequency:    5.8711682482
  - # 12
    frequency:    7.4320235572
  - # 13
    frequency:    9.8805822945
  - # 14
    frequency:   10.8021666933
  - # 15
    frequency:   10.9712867491

- q-position: [    0.0454545,    0.0000000,    0.0000000 ]
  distance:    0.0142684
  band:
  - # 1
    frequency:    0.0948292222
  - # 2
    frequency:    0.5207287581
  - # 3
    frequency:    0.5306190845
  - # 4
    frequency:    2.2747478931
  - # 5
    frequency:    2.3239321992
  - # 6
    frequency:    3.4337312288
  - # 7
    frequency:    3.8077703782
  - # 8
    frequency:    3.8456626186
  - # 9
    frequency:    4.4991455245
  - # 10
    frequency:    4.5048422182
  - # 11
    frequency:    5.8676327525
  - # 12
    frequency:    7.4184008334
  - # 13
    frequency:    9.8648145537
  - # 14
    frequency:   10.7600942484
  - # 15
    frequency:   10.9733182789

- q-position: [    0.0505051,    0.0000000,    0.0000000 ]
  distance:    0.0158538
  band:
  - # 1
    frequency:    0.1158208821
  - # 2
    frequency:    0.5770011632
  - # 3
    frequency:    0.5917928994
  - # 4
    frequency:    2.2853341920
  - # 5
    frequency:    2.3448012421
  - # 6
    frequency:    3.4224077815
  - # 7
    frequency:    3.8096309455
  - # 8
    frequency:    3.8543005711
  - # 9
    frequency:    4.4986891802
  - # 10
    frequency:    4.5051722783
  - # 11
    frequency:    5.8637485480
  - # 12
    frequency:    7.4031550358
  - # 13
    frequency:    9.8473161953
  - # 14
    frequency:   10.7132570578
  - # 15
    frequency:   10.9753615691

- q-position: [    0.0555556,    0.0000000,    0.0000000 ]
  distance:    0.0174392
  band:
  - # 1
    frequency:    0.1385589924
  - # 2
    frequency:    0.6328087542
  - # 3
    frequency:    0.6535430894
  - # 4
    frequency:    2.2968132577
  - # 5
    frequency:    2.3671634701
  - # 6
    frequency:    3.4106115744
  - # 7
    frequency:    3.8116023442
  - # 8
    frequency:    3.8630843488
  - # 9
    frequency:    4.4983130586
  - # 10
    frequency:    4.5054548018
  - # 11
    frequency:    5.8595367230
  - # 12
    frequency:    7.3862773303
  - # 13
    frequency:    9.8281263484
  - # 14
    frequency:   10.6617242736
  - # 15
    frequency:   10.9773438031

- q-position: [    0.0606061,    0.0000000,    0.0000000 ]
  distance:    0.0190245
  band:
  - # 1
    frequency:    0.1629505140
  - # 2
    frequency:    0.6881218465
  - # 3
    frequency:    0.7158698858
  - # 4
    frequency:    2.3091224114
  - # 5
    frequency:    2.3908474384
  - # 6
    frequency:    3.3984501410
  - # 7
    frequency:    3.8136589216
  - # 8
    frequency:    3.8718707302
  - # 9
    frequency:    4.4980529807
  - # 10
    frequency:    4.5056822811
  - # 11
    frequency:    5.8550196597
  - # 12
    frequency:    7.3677569799
  - # 13
    frequency:    9.8072866408
  - # 14
    frequency:   10.6055768728
  - # 15
    frequency:   10.9791859888

- q-position: [    0.0656566,    0.0000000,    0.0000000 ]
  distance:    0.0206099
  band:
  - # 1
    frequency:    0.1889086793
  - # 2
    frequency:    0.7429147282
  - # 3
    frequency:    0.7787596287
  - # 4
    frequency:    2.3221948762
  - # 5
    frequency:    2.4156782076
  - # 6
    frequency:    3.3860200479
  - # 7
    frequency:    3.8157727801
  - # 8
    frequency:    3.8805142818
  - # 9
    frequency:    4.4979467242
  - # 10
    frequency:    4.5058539561
  - # 11
    frequency:    5.8502206003
  - # 12
    frequency:    7.3475811392
  - # 13
    frequency:    9.7848403336
  - # 14
    frequency:   10.5449095474
  - # 15
    frequency:   10.9808033703

- q-position: [    0.0707071,    0.0000000,    0.0000000 ]
  distance:    0.0221953
  band:
  - # 1
    frequency:    0.2163541376
  - # 2
    frequency:    0.7971656661
  - # 3
    frequency:    0.8421843537
  - # 4
    frequency:    2.3359603104
  - # 5
    frequency:    2.4414780932
  - # 6
    frequency:    3.3734080683
  - # 7
    frequency:    3.8179139961
  - # 8
    frequency:    3.8888641658
  - # 9
    frequency:    4.4980335141
  - # 10
    frequency:    4.5059773060
  - # 11
    frequency:    5.8451631001
  - # 12
    frequency:    7.3257346868
  - # 13
    frequency:    9.7608310606
  - # 14
    frequency:   10.4798331577
  - # 15
    frequency:   10.9821058627

- q-position: [    0.0757576,    0.0000000,    0.0000000 ]
  distance:    0.0237807
  band:
  - # 1
    frequency:    0.2452155904
  - # 2
    frequency:    0.8508568332
  - # 3
    frequency:    0.9061014349
  - # 4
    frequency:    2.3503453853
  - # 5
    frequency:    2.4680668349
  - # 6
    frequency:    3.3606923525
  - # 7
    frequency:    3.8200509226
  - # 8
    frequency:    3.8967611621
  - # 9
    frequency:    4.4983534292
  - # 10
    frequency:    4.5060693288
  - # 11
    frequency:    5.8398703526
  - # 12
    frequency:    7.3022001272
  - # 13
    frequency:    9.7353009415
  - # 14
    frequency:   10.4104779999
  - # 15
    frequency:   10.9829985076

- q-position: [    0.0808081,    0.0000000,    0.0000000 ]
  distance:    0.0253661
  band:
  - # 1
    frequency:    0.2754299699
  - # 2
    frequency:    0.9039741609
  - # 3
    frequency:    0.9704532277
  - # 4
    frequency:    2.3652743991
  - # 5
    frequency:    2.4952611688
  - # 6
    frequency:    3.3479435070
  - # 7
    frequency:    3.8221505847
  - # 8
    frequency:    3.9040351750
  - # 9
    frequency:    4.4989467234
  - # 10
    frequency:    4.5061574400
  - # 11
    frequency:    5.8343643703
  - # 12
    frequency:    7.2769576020
  - # 13
    frequency:    9.7082876638
  - # 14
    frequency:   10.3369983043
  - # 15
    frequency:   10.9833819446

- q-position: [    0.0858586,    0.0000000,    0.0000000 ]
  distance:    0.0269514
  band:
  - # 1
    frequency:    0.3069422260
  - # 2
    frequency:    0.9565071153
  - # 3
    frequency:    1.0351666441
  - # 4
    frequency:    2.3806699212
  - # 5
    frequency:    2.5228737767
  - # 6
    frequency:    3.3352255551
  - # 7
    frequency:    3.8241791708
  - # 8
    frequency:    3.9105034967
  - # 9
    frequency:    4.4998530620
  - # 10
    frequency:    4.5062797668
  - # 11
    frequency:    5.8286650026
  - # 12
    frequency:    7.2499850670
  - # 13
    frequency:    9.6798198114
  - # 14
    frequency:   10.2595787071
  - # 15
    frequency:   10.9831528973

- q-position: [    0.0909091,    0.0000000,    0.0000000 ]
  distance:    0.0285368
  band:
  - # 1
    frequency:    0.3397047947
  - # 2
    frequency:    1.0084484042
  - # 3
    frequency:    1.1001525735
  - # 4
    frequency:    2.3964534554
  - # 5
    frequency:    2.5507115661
  - # 6
    frequency:    3.3225967865
  - # 7
    frequency:    3.8261026224
  - # 8
    frequency:    3.9159701263
  - # 9
    frequency:    4.5011106830
  - # 10
    frequency:    4.5064845685
  - # 11
    frequency:    5.8227887784
  - # 12
    frequency:    7.2212587128
  - # 13
    frequency:    9.6499090735
  - # 14
    frequency:   10.1784440664
  - # 15
    frequency:   10.9822046682

- q-position: [    0.0959596,    0.0000000,    0.0000000 ]
  distance:    0.0301222
  band:
  - # 1
    frequency:    0.3736768195
  - # 2
    frequency:    1.0597936200
  - # 3
    frequency:    1.1653050439
  - # 4
    frequency:    2.4125461125
  - # 5
    frequency:    2.5785732012
  - # 6
    frequency:    3.3101105231
  - # 7
    frequency:    3.8278873123
  - # 8
    frequency:    3.9202264701
  - # 9
    frequency:    4.5027554956
  - # 10
    frequency:    4.5068284788
  - # 11
    frequency:    5.8167475571
  - # 12
    frequency:    7.1907537286
  - # 13
    frequency:    9.6185366425
  - # 14
    frequency:   10.0938753168
  - # 15
    frequency:   10.9804276409

- q-position: [    0.1010101,    0.0000000,    0.0000000 ]
  distance:    0.0317076
  band:
  - # 1
    frequency:    0.4088231929
  - # 2
    frequency:    1.1105408255
  - # 3
    frequency:    1.2304999812
  - # 4
    frequency:    2.4288692795
  - # 5
    frequency:    2.6062457613
  - # 6
    frequency:    3.2978158490
  - # 7
    frequency:    3.8295007998
  - # 8
    frequency:    3.9230537586
  - # 9
    frequency:    4.5048201376
  - # 10
    frequency:    4.5073732839
  - # 11
    frequency:    5.8105469771
  - # 12
    frequency:    7.1584455485
  - # 13
    frequency:    9.5856282070
  - # 14
    frequency:   10.0062369418
  - # 15
    frequency:   10.9777097860

- q-position: [    0.1060606,    0.0000000,    0.0000000 ]
  distance:    0.0332930
  band:
  - # 1
    frequency:    0.4451134797
  - # 2
    frequency:    1.1606900914
  - # 3
    frequency:    1.2955933789
  - # 4
    frequency:    2.4453452753
  - # 5
    frequency:    2.6335003436
  - # 6
    frequency:    3.2857583618
  - # 7
    frequency:    3.8309126394
  - # 8
    frequency:    3.9242274646
  - # 9
    frequency:    4.5073330202
  - # 10
    frequency:    4.5081810305
  - # 11
    frequency:    5.8041846947
  - # 12
    frequency:    7.1243117550
  - # 13
    frequency:    9.5510052666
  - # 14
    frequency:    9.9160282990
  - # 15
    frequency:   10.9739371683

- q-position: [    0.1111111,    0.0000000,    0.0000000 ]
  distance:    0.0348783
  band:
  - # 1
    frequency:    0.4825207717
  - # 2
    frequency:    1.2102429934
  - # 3
    frequency:    1.3604186077
  - # 4
    frequency:    2.4618979814
  - # 5
    frequency:    2.6600863582
  - # 6
    frequency:    3.2739810237
  - # 7
    frequency:    3.8320952148
  - # 8
    frequency:    3.9235239001
  - # 9
    frequency:    4.5093074346
  - # 10
    frequency:    4.5103173943
  - # 11
    frequency:    5.7976484142
  - # 12
    frequency:    7.0883348691
  - # 13
    frequency:    9.5142845640
  - # 14
    frequency:    9.8239869366
  - # 15
    frequency:   10.9689944514

- q-position: [    0.1161616,    0.0000000,    0.0000000 ]
  distance:    0.0364637
  band:
  - # 1
    frequency:    0.5210205165
  - # 2
    frequency:    1.2592020786
  - # 3
    frequency:    1.4247824765
  - # 4
    frequency:    2.4784534386
  - # 5
    frequency:    2.6857241892
  - # 6
    frequency:    3.2625252120
  - # 7
    frequency:    3.8330245632
  - # 8
    frequency:    3.9207289918
  - # 9
    frequency:    4.5107938319
  - # 10
    frequency:    4.5137904769
  - # 11
    frequency:    5.7909137231
  - # 12
    frequency:    7.0505063048
  - # 13
    frequency:    9.4746600614
  - # 14
    frequency:    9.7313093607
  - # 15
    frequency:   10.9627653993

- q-position: [    0.1212121,    0.0000000,    0.0000000 ]
  distance:    0.0380491
  band:
  - # 1
    frequency:    0.5605893485
  - # 2
    frequency:    1.3075703087
  - # 3
    frequency:    1.4884594541
  - # 4
    frequency:    2.4949404019
  - # 5
    frequency:    2.7100958346
  - # 6
    frequency:    3.2514320918
  - # 7
    frequency:    3.8336811519
  - # 8
    frequency:    3.9156490557
  - # 9
    frequency:    4.5126582276
  - # 10
    frequency:    4.5177626777
  - # 11
    frequency:    5.7839417747
  - # 12
    frequency:    7.0108318221
  - # 13
    frequency:    9.4304347903
  - # 14
    frequency:    9.6401217527
  - # 15
    frequency:   10.9551333707

- q-position: [    0.1262626,    0.0000000,    0.0000000 ]
  distance:    0.0396345
  band:
  - # 1
    frequency:    0.6012039416
  - # 2
    frequency:    1.3553504890
  - # 3
    frequency:    1.5511831386
  - # 4
    frequency:    2.5112908505
  - # 5
    frequency:    2.7328331485
  - # 6
    frequency:    3.2407444475
  - # 7
    frequency:    3.8340505709
  - # 8
    frequency:    3.9081232806
  - # 9
    frequency:    4.5148862989
  - # 10
    frequency:    4.5222369647
  - # 11
    frequency:    5.7766769034
  - # 12
    frequency:    6.9693388406
  - # 13
    frequency:    9.3782419878
  - # 14
    frequency:    9.5542609855
  - # 15
    frequency:   10.9459818058

- q-position: [    0.1313131,    0.0000000,    0.0000000 ]
  distance:    0.0412199
  band:
  - # 1
    frequency:    0.6428398877
  - # 2
    frequency:    1.4025446881
  - # 3
    frequency:    1.6126335206
  - # 4
    frequency:    2.5274404489
  - # 5
    frequency:    2.7535035045
  - # 6
    frequency:    3.2305090777
  - # 7
    frequency:    3.8341241037
  - # 8
    frequency:    3.8980376987
  - # 9
    frequency:    4.5174233744
  - # 10
    frequency:    4.5272084020
  - # 11
    frequency:    5.7690443374
  - # 12
    frequency:    6.9260859647
  - # 13
    frequency:    9.3131740687
  - # 14
    frequency:    9.4791470584
  - # 15
    frequency:   10.9351947033

- q-position: [    0.1363636,    0.0000000,    0.0000000 ]
  distance:    0.0428052
  band:
  - # 1
    frequency:    0.6854705889
  - # 2
    frequency:    1.4491536556
  - # 3
    frequency:    1.6724176668
  - # 4
    frequency:    2.5433289644
  - # 5
    frequency:    2.7715933342
  - # 6
    frequency:    3.2207797047
  - # 7
    frequency:    3.8338991530
  - # 8
    frequency:    3.8853407041
  - # 9
    frequency:    4.5201683939
  - # 10
    frequency:    4.5326638832
  - # 11
    frequency:    5.7609483017
  - # 12
    frequency:    6.8811749622
  - # 13
    frequency:    9.2329095821
  - # 14
    frequency:    9.4176563932
  - # 15
    frequency:   10.9226570852

- q-position: [    0.1414141,    0.0000000,    0.0000000 ]
  distance:    0.0443906
  band:
  - # 1
    frequency:    0.7290661263
  - # 2
    frequency:    1.4951762390
  - # 3
    frequency:    1.7300398596
  - # 4
    frequency:    2.5589006445
  - # 5
    frequency:    2.7864915635
  - # 6
    frequency:    3.2116199552
  - # 7
    frequency:    3.8333794975
  - # 8
    frequency:    3.8700605940
  - # 9
    frequency:    4.5229706485
  - # 10
    frequency:    4.5385820747
  - # 11
    frequency:    5.7522710086
  - # 12
    frequency:    6.8347651661
  - # 13
    frequency:    9.1409951231
  - # 14
    frequency:    9.3668385296
  - # 15
    frequency:   10.9082554511

- q-position: [    0.1464646,    0.0000000,    0.0000000 ]
  distance:    0.0459760
  band:
  - # 1
    frequency:    0.7735920321
  - # 2
    frequency:    1.5406088036
  - # 3
    frequency:    1.7848544216
  - # 4
    frequency:    2.5741045636
  - # 5
    frequency:    2.7974783148
  - # 6
    frequency:    3.2031051625
  - # 7
    frequency:    3.8325753762
  - # 8
    frequency:    3.8523258546
  - # 9
    frequency:    4.5256298200
  - # 10
    frequency:    4.5449335688
  - # 11
    frequency:    5.7428733298
  - # 12
    frequency:    6.7870897414
  - # 13
    frequency:    9.0425513344
  - # 14
    frequency:    9.3222065596
  - # 15
    frequency:   10.8918782172

- q-position: [    0.1515152,    0.0000000,    0.0000000 ]
  distance:    0.0475614
  band:
  - # 1
    frequency:    0.8190078195
  - # 2
    frequency:    1.5854446533
  - # 3
    frequency:    1.8359894769
  - # 4
    frequency:    2.5888949540
  - # 5
    frequency:    2.8037306362
  - # 6
    frequency:    3.1953205383
  - # 7
    frequency:    3.8315033990
  - # 8
    frequency:    3.8323884827
  - # 9
    frequency:    4.5278996198
  - # 10
    frequency:    4.5516812339
  - # 11
    frequency:    5.7325983486
  - # 12
    frequency:    6.7384723759
  - # 13
    frequency:    8.9410608657
  - # 14
    frequency:    9.2809429363
  - # 15
    frequency:   10.8734161435

- q-position: [    0.1565657,    0.0000000,    0.0000000 ]
  distance:    0.0491468
  band:
  - # 1
    frequency:    0.8652649905
  - # 2
    frequency:    1.6296734513
  - # 3
    frequency:    1.8822211413
  - # 4
    frequency:    2.6032315354
  - # 5
    frequency:    2.8043678449
  - # 6
    frequency:    3.1883522348
  - # 7
    frequency:    3.8106488105
  - # 8
    frequency:    3.8301862982
  - # 9
    frequency:    4.5294953000
  - # 10
    frequency:    4.5587807402
  - # 11
    frequency:    5.7212794376
  - # 12
    frequency:    6.6893416730
  - # 13
    frequency:    8.8385993637
  - # 14
    frequency:    9.2416592275
  - # 15
    frequency:   10.8527627450

- q-position: [    0.1616162,    0.0000000,    0.0000000 ]
  distance:    0.0507321
  band:
  - # 1
    frequency:    0.9123039477
  - # 2
    frequency:    1.6732806347
  - # 3
    frequency:    1.9217629859
  - # 4
    frequency:    2.6170798627
  - # 5
    frequency:    2.7985749478
  - # 6
    frequency:    3.1822686541
  - # 7
    frequency:    3.7876764698
  - # 8
    frequency:    3.8286525386
  - # 9
    frequency:    4.5301054995
  - # 10
    frequency:    4.5661812280
  - # 11
    frequency:    5.7087548306
  - # 12
    frequency:    6.6402389580
  - # 13
    frequency:    8.7365160591
  - # 14
    frequency:    9.2037031718
  - # 15
    frequency:   10.8298146899

- q-position: [    0.1666667,    0.0000000,    0.0000000 ]
  distance:    0.0523175
  band:
  - # 1
    frequency:    0.9600485537
  - # 2
    frequency:    1.7162468196
  - # 3
    frequency:    1.9519148574
  - # 4
    frequency:    2.6304117119
  - # 5
    frequency:    2.7858606078
  - # 6
    frequency:    3.1770940723
  - # 7
    frequency:    3.7642165248
  - # 8
    frequency:    3.8269358111
  - # 9
    frequency:    4.5294091673
  - # 10
    frequency:    4.5738260822
  - # 11
    frequency:    5.6948904595
  - # 12
    frequency:    6.5918138007
  - # 13
    frequency:    8.6358024220
  - # 14
    frequency:    9.1667749135
  - # 15
    frequency:   10.8044721826

- q-position: [    0.1717172,    0.0000000,    0.0000000 ]
  distance:    0.0539029
  band:
  - # 1
    frequency:    1.0083953228
  - # 2
    frequency:    1.7585471858
  - # 3
    frequency:    1.9685011238
  - # 4
    frequency:    2.6432055282
  - # 5
    frequency:    2.7665098798
  - # 6
    frequency:    3.1727843702
  - # 7
    frequency:    3.7411649383
  - # 8
    frequency:    3.8250744354
  - # 9
    frequency:    4.5270984296
  - # 10
    frequency:    4.5816537741
  - # 11
    frequency:    5.6796114704
  - # 12
    frequency:    6.5448012241
  - # 13
    frequency:    8.5372534726
  - # 14
    frequency:    9.1307486974
  - # 15
    frequency:   10.7766393333

- q-position: [    0.1767677,    0.0000000,    0.0000000 ]
  distance:    0.0554883
  band:
  - # 1
    frequency:    1.0571891069
  - # 2
    frequency:    1.8001508345
  - # 3
    frequency:    1.9650809866
  - # 4
    frequency:    2.6554469557
  - # 5
    frequency:    2.7422185290
  - # 6
    frequency:    3.1692185893
  - # 7
    frequency:    3.7194992973
  - # 8
    frequency:    3.8231106965
  - # 9
    frequency:    4.5229078522
  - # 10
    frequency:    4.5895987337
  - # 11
    frequency:    5.6629396736
  - # 12
    frequency:    6.4999766045
  - # 13
    frequency:    8.4415339225
  - # 14
    frequency:    9.0955892494
  - # 15
    frequency:   10.7462245138

- q-position: [    0.1818182,    0.0000000,    0.0000000 ]
  distance:    0.0570736
  band:
  - # 1
    frequency:    1.1061596285
  - # 2
    frequency:    1.8410201102
  - # 3
    frequency:    1.9321737175
  - # 4
    frequency:    2.6671294710
  - # 5
    frequency:    2.7165975195
  - # 6
    frequency:    3.1662127513
  - # 7
    frequency:    3.7001655313
  - # 8
    frequency:    3.8210901393
  - # 9
    frequency:    4.5166492171
  - # 10
    frequency:    4.5975922170
  - # 11
    frequency:    5.6450292154
  - # 12
    frequency:    6.4580896581
  - # 13
    frequency:    8.3492034076
  - # 14
    frequency:    9.0613103598
  - # 15
    frequency:   10.7131407000

- q-position: [    0.1868687,    0.0000000,    0.0000000 ]
  distance:    0.0586590
  band:
  - # 1
    frequency:    1.1547180906
  - # 2
    frequency:    1.8572053755
  - # 3
    frequency:    1.8811098781
  - # 4
    frequency:    2.6782551360
  - # 5
    frequency:    2.6947120409
  - # 6
    frequency:    3.1635476269
  - # 7
    frequency:    3.6839473513
  - # 8
    frequency:    3.8190608386
  - # 9
    frequency:    4.5082485223
  - # 10
    frequency:    4.6055631397
  - # 11
    frequency:    5.6261877325
  - # 12
    frequency:    6.4197869935
  - # 13
    frequency:    8.2607253403
  - # 14
    frequency:    9.0279530072
  - # 15
    frequency:   10.6773058030

- q-position: [    0.1919192,    0.0000000,    0.0000000 ]
  distance:    0.0602444
  band:
  - # 1
    frequency:    1.2010550424
  - # 2
    frequency:    1.7257410481
  - # 3
    frequency:    1.9203667543
  - # 4
    frequency:    2.6810384114
  - # 5
    frequency:    2.6888354821
  - # 6
    frequency:    3.1609938655
  - # 7
    frequency:    3.6713649900
  - # 8
    frequency:    3.8170726620
  - # 9
    frequency:    4.4977788594
  - # 10
    frequency:    4.6134388551
  - # 11
    frequency:    5.6068689381
  - # 12
    frequency:    6.3855401192
  - # 13
    frequency:    8.1764709302
  - # 14
    frequency:    8.9955730308
  - # 15
    frequency:   10.6386429885

- q-position: [    0.1969697,    0.0000000,    0.0000000 ]
  distance:    0.0618298
  band:
  - # 1
    frequency:    1.2346316558
  - # 2
    frequency:    1.5265267350
  - # 3
    frequency:    1.9587282924
  - # 4
    frequency:    2.6772455379
  - # 5
    frequency:    2.6988925235
  - # 6
    frequency:    3.1583232381
  - # 7
    frequency:    3.6626423999
  - # 8
    frequency:    3.8151765368
  - # 9
    frequency:    4.4854804540
  - # 10
    frequency:    4.6211458580
  - # 11
    frequency:    5.5876288326
  - # 12
    frequency:    6.3555975230
  - # 13
    frequency:    8.0967238838
  - # 14
    frequency:    8.9642337333
  - # 15
    frequency:   10.5970809869

- q-position: [    0.2020202,    0.0000000,    0.0000000 ]
  distance:    0.0634152
  band:
  - # 1
    frequency:    1.1041631546
  - # 2
    frequency:    1.3666387392
  - # 3
    frequency:    1.9961221429
  - # 4
    frequency:    2.6820843667
  - # 5
    frequency:    2.7084598826
  - # 6
    frequency:    3.1553065444
  - # 7
    frequency:    3.6577480928
  - # 8
    frequency:    3.8134237312
  - # 9
    frequency:    4.4717593837
  - # 10
    frequency:    4.6286104047
  - # 11
    frequency:    5.5690511878
  - # 12
    frequency:    6.3299726548
  - # 13
    frequency:    8.0216880377
  - # 14
    frequency:    8.9340011686
  - # 15
    frequency:   10.5525543945

- q-position: [    0.2070707,    0.0000000,    0.0000000 ]
  distance:    0.0650005
  band:
  - # 1
    frequency:    0.4530998705
  - # 2
    frequency:    1.3877464769
  - # 3
    frequency:    2.0324652245
  - # 4
    frequency:    2.6929651488
  - # 5
    frequency:    2.7175839864
  - # 6
    frequency:    3.1517068442
  - # 7
    frequency:    3.6564808130
  - # 8
    frequency:    3.8118651566
  - # 9
    frequency:    4.4571606028
  - # 10
    frequency:    4.6357590418
  - # 11
    frequency:    5.5516618839
  - # 12
    frequency:    6.3084671751
  - # 13
    frequency:    7.9514982070
  - # 14
    frequency:    8.9049409672
  - # 15
    frequency:   10.5050039673

- q-position: [    0.2121212,    0.0000000,    0.0000000 ]
  distance:    0.0665859
  band:
  - # 1
    frequency:   -1.0251273350
  - # 2