nqpoint: 300    
npath: 3      
segment_nqpoint:
- 100
- 100
- 100
labels:
- [ 'G', 'M' ]
- [ 'M', 'K' ]
- [ 'K', 'G' ]
reciprocal_lattice:
- [   0.28946716,   0.16712394,   0.00000000 ] # a*
- [   0.00000000,   0.33424789,   0.00000000 ] # b*
- [   0.00000000,   0.00000000,   0.04160251 ] # c*
natom: 5      
lattice:
- [     3.454623302128392,     0.000000000000000,     0.000000000000000 ] # a
- [    -1.727311651064196,     2.991791540142090,     0.000000000000000 ] # b
- [     0.000000000000000,     0.000000000000000,    24.037011806985440 ] # c
points:
- symbol: Br # 1
  coordinates: [  0.333332985432215,  0.666666983183674,  0.625577419012437 ]
  mass: 79.904000
- symbol: Br # 2
  coordinates: [  0.666666984744047,  0.333332985985145,  0.374422580987562 ]
  mass: 79.904000
- symbol: N # 3
  coordinates: [  0.000000000000000,  0.000000000000000,  0.500000032564283 ]
  mass: 14.006700
- symbol: Sc # 4
  coordinates: [  0.333332985432215,  0.666666983183674,  0.451333324884088 ]
  mass: 44.955912
- symbol: Sc # 5
  coordinates: [  0.666666984744047,  0.333332985985145,  0.548666674629869 ]
  mass: 44.955912

phonon:
- q-position: [    0.0000000,    0.0000000,    0.0000000 ]
  distance:    0.0000000
  band:
  - # 1
    frequency:   -0.0000014342
  - # 2
    frequency:   -0.0000005331
  - # 3
    frequency:    0.0000015723
  - # 4
    frequency:    2.3936812121
  - # 5
    frequency:    2.3936812121
  - # 6
    frequency:    3.8520833202
  - # 7
    frequency:    4.7075909653
  - # 8
    frequency:    4.7075909653
  - # 9
    frequency:    6.2463532909
  - # 10
    frequency:    6.2463532909
  - # 11
    frequency:    7.5198855959
  - # 12
    frequency:   10.8444666050
  - # 13
    frequency:   11.6270771720
  - # 14
    frequency:   11.6270771720
  - # 15
    frequency:   13.0498635960

- q-position: [    0.0050505,    0.0000000,    0.0000000 ]
  distance:    0.0016881
  band:
  - # 1
    frequency:   -0.0132018980
  - # 2
    frequency:    0.0555398369
  - # 3
    frequency:    0.1027505286
  - # 4
    frequency:    2.3940800362
  - # 5
    frequency:    2.3953634605
  - # 6
    frequency:    3.8513603276
  - # 7
    frequency:    4.7076333137
  - # 8
    frequency:    4.7085019436
  - # 9
    frequency:    6.2463934666
  - # 10
    frequency:    6.2463972306
  - # 11
    frequency:    7.5196692050
  - # 12
    frequency:   10.8422661757
  - # 13
    frequency:   11.6268229417
  - # 14
    frequency:   11.6270698593
  - # 15
    frequency:   13.0485875330

- q-position: [    0.0101010,    0.0000000,    0.0000000 ]
  distance:    0.0033762
  band:
  - # 1
    frequency:   -0.0254738878
  - # 2
    frequency:    0.1110920842
  - # 3
    frequency:    0.2053991025
  - # 4
    frequency:    2.3952757884
  - # 5
    frequency:    2.4003920932
  - # 6
    frequency:    3.8492011533
  - # 7
    frequency:    4.7077629168
  - # 8
    frequency:    4.7112263463
  - # 9
    frequency:    6.2465150370
  - # 10
    frequency:    6.2465268916
  - # 11
    frequency:    7.5190231932
  - # 12
    frequency:   10.8356833233
  - # 13
    frequency:   11.6260368417
  - # 14
    frequency:   11.6270472178
  - # 15
    frequency:   13.0447681279

- q-position: [    0.0151515,    0.0000000,    0.0000000 ]
  distance:    0.0050644
  band:
  - # 1
    frequency:   -0.0357962686
  - # 2
    frequency:    0.1666687318
  - # 3
    frequency:    0.3078442876
  - # 4
    frequency:    2.3972663124
  - # 5
    frequency:    2.4087136092
  - # 6
    frequency:    3.8456347314
  - # 7
    frequency:    4.7079873845
  - # 8
    frequency:    4.7157390467
  - # 9
    frequency:    6.2467211441
  - # 10
    frequency:    6.2467357422
  - # 11
    frequency:    7.5179570770
  - # 12
    frequency:   10.8247719380
  - # 13
    frequency:   11.6246501956
  - # 14
    frequency:   11.6270071390
  - # 15
    frequency:   13.0384316135

- q-position: [    0.0202020,    0.0000000,    0.0000000 ]
  distance:    0.0067525
  band:
  - # 1
    frequency:   -0.0429099424
  - # 2
    frequency:    0.2222809356
  - # 3
    frequency:    0.4099856805
  - # 4
    frequency:    2.4000480284
  - # 5
    frequency:    2.4202415348
  - # 6
    frequency:    3.8407077600
  - # 7
    frequency:    4.7083191893
  - # 8
    frequency:    4.7219996723
  - # 9
    frequency:    6.2470127060
  - # 10
    frequency:    6.2470170628
  - # 11
    frequency:    7.5164868299
  - # 12
    frequency:   10.8096173649
  - # 13
    frequency:   11.6225534633
  - # 14
    frequency:   11.6269461144
  - # 15
    frequency:   13.0296213090

- q-position: [    0.0252525,    0.0000000,    0.0000000 ]
  distance:    0.0084406
  band:
  - # 1
    frequency:   -0.0449471859
  - # 2
    frequency:    0.2779386182
  - # 3
    frequency:    0.5117243971
  - # 4
    frequency:    2.4036159526
  - # 5
    frequency:    2.4348601659
  - # 6
    frequency:    3.8344826142
  - # 7
    frequency:    4.7087753574
  - # 8
    frequency:    4.7299546567
  - # 9
    frequency:    6.2473418912
  - # 10
    frequency:    6.2474102543
  - # 11
    frequency:    7.5146350403
  - # 12
    frequency:   10.7903305053
  - # 13
    frequency:   11.6196028223
  - # 14
    frequency:   11.6268592443
  - # 15
    frequency:   13.0183970077

- q-position: [    0.0303030,    0.0000000,    0.0000000 ]
  distance:    0.0101287
  band:
  - # 1
    frequency:   -0.0380068666
  - # 2
    frequency:    0.3336500909
  - # 3
    frequency:    0.6129635303
  - # 4
    frequency:    2.4079637237
  - # 5
    frequency:    2.4524292621
  - # 6
    frequency:    3.8270347827
  - # 7
    frequency:    4.7093770471
  - # 8
    frequency:    4.7395397443
  - # 9
    frequency:    6.2477022359
  - # 10
    frequency:    6.2479104347
  - # 11
    frequency:    7.5124311141
  - # 12
    frequency:   10.7670409248
  - # 13
    frequency:   11.6156280341
  - # 14
    frequency:   11.6267402496
  - # 15
    frequency:   13.0048341024

- q-position: [    0.0353535,    0.0000000,    0.0000000 ]
  distance:    0.0118168
  band:
  - # 1
    frequency:    0.0176428282
  - # 2
    frequency:    0.3894217037
  - # 3
    frequency:    0.7136085653
  - # 4
    frequency:    2.4130836353
  - # 5
    frequency:    2.4727892640
  - # 6
    frequency:    3.8184500981
  - # 7
    frequency:    4.7101490286
  - # 8
    frequency:    4.7506826714
  - # 9
    frequency:    6.2480670985
  - # 10
    frequency:    6.2485296512
  - # 11
    frequency:    7.5099115002
  - # 12
    frequency:   10.7398898709
  - # 13
    frequency:   11.6104407039
  - # 14
    frequency:   11.6265814860
  - # 15
    frequency:   12.9890224332

- q-position: [    0.0404040,    0.0000000,    0.0000000 ]
  distance:    0.0135050
  band:
  - # 1
    frequency:    0.0609075210
  - # 2
    frequency:    0.4452575291
  - # 3
    frequency:    0.8135677435
  - # 4
    frequency:    2.4189666711
  - # 5
    frequency:    2.4957666141
  - # 6
    frequency:    3.8088220074
  - # 7
    frequency:    4.7111190775
  - # 8
    frequency:    4.7633057629
  - # 9
    frequency:    6.2484038244
  - # 10
    frequency:    6.2492823582
  - # 11
    frequency:    7.5071199156
  - # 12
    frequency:   10.7090239131
  - # 13
    frequency:   11.6038422385
  - # 14
    frequency:   11.6263739617
  - # 15
    frequency:   12.9710648472

- q-position: [    0.0454545,    0.0000000,    0.0000000 ]
  distance:    0.0151931
  band:
  - # 1
    frequency:    0.0961092803
  - # 2
    frequency:    0.5011590858
  - # 3
    frequency:    0.9127523644
  - # 4
    frequency:    2.4256025438
  - # 5
    frequency:    2.5211788181
  - # 6
    frequency:    3.7982490821
  - # 7
    frequency:    4.7123172995
  - # 8
    frequency:    4.7773282365
  - # 9
    frequency:    6.2486733308
  - # 10
    frequency:    6.2501854861
  - # 11
    frequency:    7.5041075366
  - # 12
    frequency:   10.6745896408
  - # 13
    frequency:   11.5956310696
  - # 14
    frequency:   11.6261073564
  - # 15
    frequency:   12.9510754601

- q-position: [    0.0505051,    0.0000000,    0.0000000 ]
  distance:    0.0168812
  band:
  - # 1
    frequency:    0.1318724201
  - # 2
    frequency:    0.5571251075
  - # 3
    frequency:    1.0110770164
  - # 4
    frequency:    2.4329797334
  - # 5
    frequency:    2.5488389774
  - # 6
    frequency:    3.7868328965
  - # 7
    frequency:    4.7137754030
  - # 8
    frequency:    4.7926680696
  - # 9
    frequency:    6.2488297556
  - # 10
    frequency:    6.2512584921
  - # 11
    frequency:    7.5009331210
  - # 12
    frequency:   10.6367295849
  - # 13
    frequency:   11.5856089775
  - # 14
    frequency:   11.6257700428
  - # 15
    frequency:   12.9291776272

- q-position: [    0.0555556,    0.0000000,    0.0000000 ]
  distance:    0.0185693
  band:
  - # 1
    frequency:    0.1693145816
  - # 2
    frequency:    0.6131513609
  - # 3
    frequency:    1.1084597267
  - # 4
    frequency:    2.4410855253
  - # 5
    frequency:    2.5785596201
  - # 6
    frequency:    3.7746763370
  - # 7
    frequency:    4.7155259396
  - # 8
    frequency:    4.8092433517
  - # 9
    frequency:    6.2488202236
  - # 10
    frequency:    6.2525233847
  - # 11
    frequency:    7.4976630198
  - # 12
    frequency:   10.5955793220
  - # 13
    frequency:   11.5735865359
  - # 14
    frequency:   11.6253491082
  - # 15
    frequency:   12.9055016413

- q-position: [    0.0606061,    0.0000000,    0.0000000 ]
  distance:    0.0202574
  band:
  - # 1
    frequency:    0.2087045262
  - # 2
    frequency:    0.6692305169
  - # 3
    frequency:    1.2048220204
  - # 4
    frequency:    2.4499060452
  - # 5
    frequency:    2.6101557547
  - # 6
    frequency:    3.7618823535
  - # 7
    frequency:    4.7176015306
  - # 8
    frequency:    4.8269730984
  - # 9
    frequency:    6.2485847867
  - # 10
    frequency:    6.2540047138
  - # 11
    frequency:    7.4943710317
  - # 12
    frequency:   10.5512655913
  - # 13
    frequency:   11.5593878058
  - # 14
    frequency:   11.6248303778
  - # 15
    frequency:   12.8801822047

- q-position: [    0.0656566,    0.0000000,    0.0000000 ]
  distance:    0.0219456
  band:
  - # 1
    frequency:    0.2500697190
  - # 2
    frequency:    0.7253520771
  - # 3
    frequency:    1.3000888800
  - # 4
    frequency:    2.4594262906
  - # 5
    frequency:    2.6434471442
  - # 6
    frequency:    3.7485531201
  - # 7
    frequency:    4.7200340981
  - # 8
    frequency:    4.8457775402
  - # 9
    frequency:    6.2480565977
  - # 10
    frequency:    6.2557295178
  - # 11
    frequency:    7.4911380539
  - # 12
    frequency:   10.5039052074
  - # 13
    frequency:   11.5428544280
  - # 14
    frequency:   11.6241984373
  - # 15
    frequency:   12.8533557466

- q-position: [    0.0707071,    0.0000000,    0.0000000 ]
  distance:    0.0236337
  band:
  - # 1
    frequency:    0.2933479653
  - # 2
    frequency:    0.7815023566
  - # 3
    frequency:    1.3941885938
  - # 4
    frequency:    2.4696301572
  - # 5
    frequency:    2.6782598526
  - # 6
    frequency:    3.7347895570
  - # 7
    frequency:    4.7228541208
  - # 8
    frequency:    4.8655779248
  - # 9
    frequency:    6.2471623773
  - # 10
    frequency:    6.2577272202
  - # 11
    frequency:    7.4880514792
  - # 12
    frequency:   10.4536045473
  - # 13
    frequency:   11.5238492387
  - # 14
    frequency:   11.6234366547
  - # 15
    frequency:   12.8251576895

- q-position: [    0.0757576,    0.0000000,    0.0000000 ]
  distance:    0.0253218
  band:
  - # 1
    frequency:    0.3384404439
  - # 2
    frequency:    0.8376645239
  - # 3
    frequency:    1.4870524832
  - # 4
    frequency:    2.4805004597
  - # 5
    frequency:    2.7144271507
  - # 6
    frequency:    3.7206911535
  - # 7
    frequency:    4.7260899300
  - # 8
    frequency:    4.8862958743
  - # 9
    frequency:    6.2458232303
  - # 10
    frequency:    6.2600294718
  - # 11
    frequency:    7.4852042964
  - # 12
    frequency:   10.4004594294
  - # 13
    frequency:   11.5022594687
  - # 14
    frequency:   11.6225272012
  - # 15
    frequency:   12.7957197984

- q-position: [    0.0808081,    0.0000000,    0.0000000 ]
  distance:    0.0270099
  band:
  - # 1
    frequency:    0.3852340408
  - # 2
    frequency:    0.8938186957
  - # 3
    frequency:    1.5786144939
  - # 4
    frequency:    2.4920189471
  - # 5
    frequency:    2.7517898786
  - # 6
    frequency:    3.7063560384
  - # 7
    frequency:    4.7297670633
  - # 8
    frequency:    4.9078523420
  - # 9
    frequency:    6.2439558573
  - # 10
    frequency:    6.2626699315
  - # 11
    frequency:    7.4826938556
  - # 12
    frequency:   10.3445552405
  - # 13
    frequency:   11.4779995247
  - # 14
    frequency:   11.6214510697
  - # 15
    frequency:   12.7651677685

- q-position: [    0.0858586,    0.0000000,    0.0000000 ]
  distance:    0.0286981
  band:
  - # 1
    frequency:    0.4336118398
  - # 2
    frequency:    0.9499420851
  - # 3
    frequency:    1.6688106375
  - # 4
    frequency:    2.5041663130
  - # 5
    frequency:    2.7901963665
  - # 6
    frequency:    3.6918812552
  - # 7
    frequency:    4.7339076902
  - # 8
    frequency:    4.9301661999
  - # 9
    frequency:    6.2414741965
  - # 10
    frequency:    6.2656839852
  - # 11
    frequency:    7.4806202738
  - # 12
    frequency:   10.2859672243
  - # 13
    frequency:   11.4510132966
  - # 14
    frequency:   11.6201880915
  - # 15
    frequency:   12.7336192148

- q-position: [    0.0909091,    0.0000000,    0.0000000 ]
  distance:    0.0303862
  band:
  - # 1
    frequency:    0.4834583261
  - # 2
    frequency:    1.0060091972
  - # 3
    frequency:    1.7575782608
  - # 4
    frequency:    2.5169222016
  - # 5
    frequency:    2.8295020047
  - # 6
    frequency:    3.6773632142
  - # 7
    frequency:    4.7385301231
  - # 8
    frequency:    4.9531524767
  - # 9
    frequency:    6.2382915094
  - # 10
    frequency:    6.2691083993
  - # 11
    frequency:    7.4790844755
  - # 12
    frequency:   10.2247608868
  - # 13
    frequency:   11.4212759008
  - # 14
    frequency:   11.6187169490
  - # 15
    frequency:   12.7011822237

- q-position: [    0.0959596,    0.0000000,    0.0000000 ]
  distance:    0.0320743
  band:
  - # 1
    frequency:    0.5346619680
  - # 2
    frequency:    1.0619920687
  - # 3
    frequency:    1.8448551188
  - # 4
    frequency:    2.5302652106
  - # 5
    frequency:    2.8695685385
  - # 6
    frequency:    3.6628983153
  - # 7
    frequency:    4.7436484245
  - # 8
    frequency:    4.9767202515
  - # 9
    frequency:    6.2343229015
  - # 10
    frequency:    6.2729809101
  - # 11
    frequency:    7.4781858858
  - # 12
    frequency:   10.1609925180
  - # 13
    frequency:   11.3887947649
  - # 14
    frequency:   11.6170151865
  - # 15
    frequency:   12.6679545905

- q-position: [    0.1010101,    0.0000000,    0.0000000 ]
  distance:    0.0337624
  band:
  - # 1
    frequency:    0.5871163964
  - # 2
    frequency:    1.1178605432
  - # 3
    frequency:    1.9305782164
  - # 4
    frequency:    2.5441728936
  - # 5
    frequency:    2.9102631453
  - # 6
    frequency:    3.6485837558
  - # 7
    frequency:    4.7492721196
  - # 8
    frequency:    5.0007701894
  - # 9
    frequency:    6.2294882397
  - # 10
    frequency:    6.2773397497
  - # 11
    frequency:    7.4780198206
  - # 12
    frequency:   10.0947098700
  - # 13
    frequency:   11.3536099802
  - # 14
    frequency:   11.6150592160
  - # 15
    frequency:   12.6340238211

- q-position: [    0.1060606,    0.0000000,    0.0000000 ]
  distance:    0.0354505
  band:
  - # 1
    frequency:    0.6407207989
  - # 2
    frequency:    1.1735825756
  - # 3
    frequency:    2.0146823709
  - # 4
    frequency:    2.5586217641
  - # 5
    frequency:    2.9514573291
  - # 6
    frequency:    3.6345185671
  - # 7
    frequency:    4.7554060212
  - # 8
    frequency:    5.0251916921
  - # 9
    frequency:    6.2237154019
  - # 10
    frequency:    6.2822231134
  - # 11
    frequency:    7.4786746475
  - # 12
    frequency:   10.0259530643
  - # 13
    frequency:   11.3157938888
  - # 14
    frequency:   11.6128243209
  - # 15
    frequency:   12.5994679107

- q-position: [    0.1111111,    0.0000000,    0.0000000 ]
  distance:    0.0371387
  band:
  - # 1
    frequency:    0.6953798637
  - # 2
    frequency:    1.2291245560
  - # 3
    frequency:    2.0970984351
  - # 4
    frequency:    2.5735873031
  - # 5
    frequency:    2.9930256389
  - # 6
    frequency:    3.6208049560
  - # 7
    frequency:    4.7620501722
  - # 8
    frequency:    5.0498596170
  - # 9
    frequency:    6.2169437675
  - # 10
    frequency:    6.2876685712
  - # 11
    frequency:    7.4802288131
  - # 12
    frequency:    9.9547558364
  - # 13
    frequency:   11.2754499274
  - # 14
    frequency:   11.6102846554
  - # 15
    frequency:   12.5643568362

- q-position: [    0.1161616,    0.0000000,    0.0000000 ]
  distance:    0.0388268
  band:
  - # 1
    frequency:    0.7510034682
  - # 2
    frequency:    1.2844516453
  - # 3
    frequency:    2.1777510941
  - # 4
    frequency:    2.5890439741
  - # 5
    frequency:    3.0348441849
  - # 6
    frequency:    3.6075500739
  - # 7
    frequency:    4.7691999058
  - # 8
    frequency:    5.0746305052
  - # 9
    frequency:    6.2091278416
  - # 10
    frequency:    6.2937124324
  - # 11
    frequency:    7.4827478507
  - # 12
    frequency:    9.8811472595
  - # 13
    frequency:   11.2327107979
  - # 14
    frequency:   11.6074132416
  - # 15
    frequency:   12.5287546351

- q-position: [    0.1212121,    0.0000000,    0.0000000 ]
  distance:    0.0405149
  band:
  - # 1
    frequency:    0.8075062324
  - # 2
    frequency:    1.3395281114
  - # 3
    frequency:    2.2565561244
  - # 4
    frequency:    2.6049652474
  - # 5
    frequency:    3.0767888754
  - # 6
    frequency:    3.5948684016
  - # 7
    frequency:    4.7768460247
  - # 8
    frequency:    5.0993382462
  - # 9
    frequency:    6.2002408977
  - # 10
    frequency:    6.3003890703
  - # 11
    frequency:    7.4862814800
  - # 12
    frequency:    9.8051541230
  - # 13
    frequency:   11.1877360829
  - # 14
    frequency:   11.6041819639
  - # 15
    frequency:   12.4927218850

- q-position: [    0.1262626,    0.0000000,    0.0000000 ]
  distance:    0.0422030
  band:
  - # 1
    frequency:    0.8648070102
  - # 2
    frequency:    1.3943176589
  - # 3
    frequency:    2.3334169644
  - # 4
    frequency:    2.6213236362
  - # 5
    frequency:    3.1187332157
  - # 6
    frequency:    3.5828850396
  - # 7
    frequency:    4.7849750939
  - # 8
    frequency:    5.1237891009
  - # 9
    frequency:    6.1902785249
  - # 10
    frequency:    6.3077302189
  - # 11
    frequency:    7.4908608964
  - # 12
    frequency:    9.7268041796
  - # 13
    frequency:   11.1407094413
  - # 14
    frequency:   11.6005615626
  - # 15
    frequency:   12.4563183652

- q-position: [    0.1313131,    0.0000000,    0.0000000 ]
  distance:    0.0438911
  band:
  - # 1
    frequency:    0.9228283693
  - # 2
    frequency:    1.4487837421
  - # 3
    frequency:    2.4082204032
  - # 4
    frequency:    2.6380907484
  - # 5
    frequency:    3.1605453721
  - # 6
    frequency:    3.5717403594
  - # 7
    frequency:    4.7935698409
  - # 8
    frequency:    5.1477560122
  - # 9
    frequency:    6.1792619776
  - # 10
    frequency:    6.3157642518
  - # 11
    frequency:    7.4964963099
  - # 12
    frequency:    9.6461305104
  - # 13
    frequency:   11.0918355303
  - # 14
    frequency:   11.5965216262
  - # 15
    frequency:   12.4196056707

- q-position: [    0.1363636,    0.0000000,    0.0000000 ]
  distance:    0.0455793
  band:
  - # 1
    frequency:    0.9814960898
  - # 2
    frequency:    1.5028898534
  - # 3
    frequency:    2.4808311476
  - # 4
    frequency:    2.6552373525
  - # 5
    frequency:    3.2020839348
  - # 6
    frequency:    3.5615967593
  - # 7
    frequency:    4.8026096524
  - # 8
    frequency:    5.1709721639
  - # 9
    frequency:    6.1672412238
  - # 10
    frequency:    6.3245154602
  - # 11
    frequency:    7.5031747335
  - # 12
    frequency:    9.5631772980
  - # 13
    frequency:   11.0413367772
  - # 14
    frequency:   11.5920305861
  - # 15
    frequency:   12.3826495658

- q-position: [    0.1414141,    0.0000000,    0.0000000 ]
  distance:    0.0472674
  band:
  - # 1
    frequency:    1.0407387010
  - # 2
    frequency:    1.5565997822
  - # 3
    frequency:    2.5510849911
  - # 4
    frequency:    2.6727334631
  - # 5
    frequency:    3.2431912804
  - # 6
    frequency:    3.5526488099
  - # 7
    frequency:    4.8120711552
  - # 8
    frequency:    5.1931238249
  - # 9
    frequency:    6.1542975681
  - # 10
    frequency:    6.3340033431
  - # 11
    frequency:    7.5108579511
  - # 12
    frequency:    9.4780073390
  - # 13
    frequency:   10.9894501054
  - # 14
    frequency:   11.5870557131
  - # 15
    frequency:   12.3455218917

- q-position: [    0.1464646,    0.0000000,    0.0000000 ]
  distance:    0.0489555
  band:
  - # 1
    frequency:    1.1004870689
  - # 2
    frequency:    1.6098778364
  - # 3
    frequency:    2.6187803154
  - # 4
    frequency:    2.6905484419
  - # 5
    frequency:    3.2836823036
  - # 6
    frequency:    3.5451391518
  - # 7
    frequency:    4.8219288637
  - # 8
    frequency:    5.2138426598
  - # 9
    frequency:    6.1405456423
  - # 10
    frequency:    6.3442419283
  - # 11
    frequency:    7.5194805026
  - # 12
    frequency:    9.3907116642
  - # 13
    frequency:   10.9364236784
  - # 14
    frequency:   11.5815631180
  - # 15
    frequency:   12.3083018947

- q-position: [    0.1515152,    0.0000000,    0.0000000 ]
  distance:    0.0506436
  band:
  - # 1
    frequency:    1.1606740401
  - # 2
    frequency:    1.6626890253
  - # 3
    frequency:    2.6836677731
  - # 4
    frequency:    2.7086511171
  - # 5
    frequency:    3.3233238142
  - # 6
    frequency:    3.5393848102
  - # 7
    frequency:    4.8321558761
  - # 8
    frequency:    5.2326979420
  - # 9
    frequency:    6.1261343900
  - # 10
    frequency:    6.3552391427
  - # 11
    frequency:    7.5289474234
  - # 12
    frequency:    9.3014216728
  - # 13
    frequency:   10.8825137025
  - # 14
    frequency:   11.5755177600
  - # 15
    frequency:   12.2710768881

- q-position: [    0.1565657,    0.0000000,    0.0000000 ]
  distance:    0.0523317
  band:
  - # 1
    frequency:    1.2212341426
  - # 2
    frequency:    1.7149992011
  - # 3
    frequency:    2.7270099182
  - # 4
    frequency:    2.7454383670
  - # 5
    frequency:    3.3617944241
  - # 6
    frequency:    3.5358236151
  - # 7
    frequency:    4.8427245973
  - # 8
    frequency:    5.2491895072
  - # 9
    frequency:    6.1112463838
  - # 10
    frequency:    6.3669962486
  - # 11
    frequency:    7.5391313687
  - # 12
    frequency:    9.2103242126
  - # 13
    frequency:   10.8279813035
  - # 14
    frequency:   11.5688834620
  - # 15
    frequency:   12.2339422188

- q-position: [    0.1616162,    0.0000000,    0.0000000 ]
  distance:    0.0540199
  band:
  - # 1
    frequency:    1.2821033399
  - # 2
    frequency:    1.7667751580
  - # 3
    frequency:    2.7455930254
  - # 4
    frequency:    2.8037109825
  - # 5
    frequency:    3.3986038924
  - # 6
    frequency:    3.5351003171
  - # 7
    frequency:    4.8536074668
  - # 8
    frequency:    5.2627428472
  - # 9
    frequency:    6.0960944081
  - # 10
    frequency:    6.3795073656
  - # 11
    frequency:    7.5498686262
  - # 12
    frequency:    9.1176800479
  - # 13
    frequency:   10.7730894845
  - # 14
    frequency:   11.5616229372
  - # 15
    frequency:   12.1970005532

- q-position: [    0.1666667,    0.0000000,    0.0000000 ]
  distance:    0.0557080
  band:
  - # 1
    frequency:    1.3432188330
  - # 2
    frequency:    1.8179846932
  - # 3
    frequency:    2.7643685293
  - # 4
    frequency:    2.8580220495
  - # 5
    frequency:    3.4329419605
  - # 6
    frequency:    3.5382191479
  - # 7
    frequency:    4.8647776683
  - # 8
    frequency:    5.2727084340
  - # 9
    frequency:    6.0809138034
  - # 10
    frequency:    6.3927590941
  - # 11
    frequency:    7.5609533931
  - # 12
    frequency:    9.0238461242
  - # 13
    frequency:   10.7181001759
  - # 14
    frequency:   11.5536978288
  - # 15
    frequency:   12.1603605452

- q-position: [    0.1717172,    0.0000000,    0.0000000 ]
  distance:    0.0573961
  band:
  - # 1
    frequency:    1.4045188972
  - # 2
    frequency:    1.8685966296
  - # 3
    frequency:    2.7833046000
  - # 4
    frequency:    2.9078225735
  - # 5
    frequency:    3.4635175693
  - # 6
    frequency:    3.5466959178
  - # 7
    frequency:    4.8762097980
  - # 8
    frequency:    5.2783679710
  - # 9
    frequency:    6.0659488427
  - # 10
    frequency:    6.4067302557
  - # 11
    frequency:    7.5721295677
  - # 12
    frequency:    8.9293019162
  - # 13
    frequency:   10.6632714006
  - # 14
    frequency:   11.5450687644
  - # 15
    frequency:   12.1241349765

- q-position: [    0.1767677,    0.0000000,    0.0000000 ]
  distance:    0.0590842
  band:
  - # 1
    frequency:    1.4659427391
  - # 2
    frequency:    1.9185808086
  - # 3
    frequency:    2.8023696599
  - # 4
    frequency:    2.9524906249
  - # 5
    frequency:    3.4889966851
  - # 6
    frequency:    3.5620922236
  - # 7
    frequency:    4.8878804720
  - # 8
    frequency:    5.2789504544
  - # 9
    frequency:    6.0514318336
  - # 10
    frequency:    6.4213917617
  - # 11
    frequency:    7.5830792496
  - # 12
    frequency:    8.8346798316
  - # 13
    frequency:   10.6088545954
  - # 14
    frequency:   11.5356954274
  - # 15
    frequency:   12.0884384866

- q-position: [    0.1818182,    0.0000000,    0.0000000 ]
  distance:    0.0607723
  band:
  - # 1
    frequency:    1.5274303499
  - # 2
    frequency:    1.9679080547
  - # 3
    frequency:    2.8215325580
  - # 4
    frequency:    2.9913678171
  - # 5
    frequency:    3.5097949535
  - # 6
    frequency:    3.5841654187
  - # 7
    frequency:    4.8997688533
  - # 8
    frequency:    5.2736602094
  - # 9
    frequency:    6.0375552675
  - # 10
    frequency:    6.4367066182
  - # 11
    frequency:    7.5934073280
  - # 12
    frequency:    8.7407989139
  - # 13
    frequency:   10.5550921482
  - # 14
    frequency:   11.5255366482
  - # 15
    frequency:   12.0533850231

- q-position: [    0.1868687,    0.0000000,    0.0000000 ]
  distance:    0.0624605
  band:
  - # 1
    frequency:    1.5889223211
  - # 2
    frequency:    2.0165501221
  - # 3
    frequency:    2.8407627414
  - # 4
    frequency:    3.0238210387
  - # 5
    frequency:    3.5285206454
  - # 6
    frequency:    3.6103353107
  - # 7
    frequency:    4.9118570840
  - # 8
    frequency:    5.2617173235
  - # 9
    frequency:    6.0244404103
  - # 10
    frequency:    6.4526300725
  - # 11
    frequency:    7.6026223977
  - # 12
    frequency:    8.6486994713
  - # 13
    frequency:   10.5022152230
  - # 14
    frequency:   11.5145505163
  - # 15
    frequency:   12.0190851458

- q-position: [    0.1919192,    0.0000000,    0.0000000 ]
  distance:    0.0641486
  band:
  - # 1
    frequency:    1.6503595726
  - # 2
    frequency:    2.0644796267
  - # 3
    frequency:    2.8600304201
  - # 4
    frequency:    3.0493116909
  - # 5
    frequency:    3.5475901465
  - # 6
    frequency:    3.6379597793
  - # 7
    frequency:    4.9241306111
  - # 8
    frequency:    5.2424088800
  - # 9
    frequency:    6.0121095181
  - # 10
    frequency:    6.4691098982
  - # 11
    frequency:    7.6101167149
  - # 12
    frequency:    8.5596728371
  - # 13
    frequency:   10.4504419448
  - # 14
    frequency:   11.5026945152
  - # 15
    frequency:   11.9856433169

- q-position: [    0.1969697,    0.0000000,    0.0000000 ]
  distance:    0.0658367
  band:
  - # 1
    frequency:    1.7116829092
  - # 2
    frequency:    2.1116699727
  - # 3
    frequency:    2.8793067234
  - # 4
    frequency:    3.0674310981
  - # 5
    frequency:    3.5680096029
  - # 6
    frequency:    3.6654623724
  - # 7
    frequency:    4.9365784007
  - # 8
    frequency:    5.2151490376
  - # 9
    frequency:    6.0004713599
  - # 10
    frequency:    6.4860868160
  - # 11
    frequency:    7.6151537086
  - # 12
    frequency:    8.4752736441
  - # 13
    frequency:   10.3999760128
  - # 14
    frequency:   11.4899256820
  - # 15
    frequency:   11.9531552948

- q-position: [    0.2020202,    0.0000000,    0.0000000 ]
  distance:    0.0675248
  band:
  - # 1
    frequency:    1.7728322656
  - # 2
    frequency:    2.1580952786
  - # 3
    frequency:    2.8985638427
  - # 4
    frequency:    3.0778544642
  - # 5
    frequency:    3.5896107304
  - # 6
    frequency:    3.6920651628
  - # 7
    frequency:    4.9491930371
  - # 8
    frequency:    5.1795492897
  - # 9
    frequency:    5.9893284987
  - # 10
    frequency:    6.5034950386
  - # 11
    frequency:    7.6168827710
  - # 12
    frequency:    8.3972900585
  - # 13
    frequency:   10.3510057842
  - # 14
    frequency:   11.4762007920
  - # 15
    frequency:   11.9217057360

- q-position: [    0.2070707,    0.0000000,    0.0000000 ]
  distance:    0.0692129
  band:
  - # 1
    frequency:    1.8337453761
  - # 2
    frequency:    2.2037303092
  - # 3
    frequency:    2.9177751614
  - # 4
    frequency:    3.0801908881
  - # 5
    frequency:    3.6114085360
  - # 6
    frequency:    3.7174736703
  - # 7
    frequency:    4.9619707100
  - # 8
    frequency:    5.1355068657
  - # 9
    frequency:    5.9784090582
  - # 10
    frequency:    6.5212629274
  - # 11
    frequency:    7.6144166503
  - # 12
    frequency:    8.3276319756
  - # 13
    frequency:   10.3037038489
  - # 14
    frequency:   11.4614765703
  - # 15
    frequency:   11.8913660855

- q-position: [    0.2121212,    0.0000000,    0.0000000 ]
  distance:    0.0709011
  band:
  - # 1
    frequency:    1.8943553496