nqpoint: 300    
npath: 3      
segment_nqpoint:
- 100
- 100
- 100
labels:
- [ 'G', 'M' ]
- [ 'M', 'K' ]
- [ 'K', 'G' ]
reciprocal_lattice:
- [   0.32314282,   0.18656659,   0.00000000 ] # a*
- [   0.00000000,   0.37313319,   0.00000000 ] # b*
- [   0.00000000,   0.00000000,   0.03495392 ] # c*
natom: 7      
lattice:
- [     3.094606896473800,     0.000000000000000,     0.000000000000000 ] # a
- [    -1.547303448236900,     2.680008187072758,     0.000000000000000 ] # b
- [     0.000000000000000,     0.000000000000000,    28.609094185528118 ] # c
points:
- symbol: C # 1
  coordinates: [  0.000000000000000,  0.000000000000000,  0.553696038672299 ]
  mass: 12.010700
- symbol: C # 2
  coordinates: [  0.333332985432215,  0.666666983183674,  0.643283660835880 ]
  mass: 12.010700
- symbol: Cl # 3
  coordinates: [  0.666666984744047,  0.333332985985145,  0.314585283324092 ]
  mass: 35.453000
- symbol: N # 4
  coordinates: [  0.333332985432215,  0.666666983183674,  0.685414716675908 ]
  mass: 14.006700
- symbol: O # 5
  coordinates: [  0.666666984744047,  0.333332985985145,  0.475864420211342 ]
  mass: 15.999400
- symbol: Ti # 6
  coordinates: [  0.333332985432215,  0.666666983183674,  0.506849598880902 ]
  mass: 47.867000
- symbol: Ti # 7
  coordinates: [  0.666666984744047,  0.333332985985145,  0.593982214955703 ]
  mass: 47.867000

phonon:
- q-position: [    0.0000000,    0.0000000,    0.0000000 ]
  distance:    0.0000000
  band:
  - # 1
    frequency:   -0.2085570335
  - # 2
    frequency:   -0.0000002850
  - # 3
    frequency:   -0.0000002244
  - # 4
    frequency:    0.0000007462
  - # 5
    frequency:    0.1046907899
  - # 6
    frequency:    0.1046907899
  - # 7
    frequency:    1.9074299845
  - # 8
    frequency:    1.9074299845
  - # 9
    frequency:    4.7598385418
  - # 10
    frequency:    4.7598385418
  - # 11
    frequency:    7.5039315669
  - # 12
    frequency:    9.2183358502
  - # 13
    frequency:    9.2183358502
  - # 14
    frequency:   11.0350254023
  - # 15
    frequency:   11.0350254023
  - # 16
    frequency:   11.1478963433
  - # 17
    frequency:   15.8852433125
  - # 18
    frequency:   15.8852433125
  - # 19
    frequency:   15.9405905556
  - # 20
    frequency:   19.8417812309
  - # 21
    frequency:   60.1904073371

- q-position: [    0.0050505,    0.0000000,    0.0000000 ]
  distance:    0.0018845
  band:
  - # 1
    frequency:   -0.2099907370
  - # 2
    frequency:   -0.1623000831
  - # 3
    frequency:   -0.0843088314
  - # 4
    frequency:   -0.0775984692
  - # 5
    frequency:    0.1144486745
  - # 6
    frequency:    0.1912414160
  - # 7
    frequency:    1.9078107705
  - # 8
    frequency:    1.9087952336
  - # 9
    frequency:    4.7602933361
  - # 10
    frequency:    4.7614778655
  - # 11
    frequency:    7.5038875283
  - # 12
    frequency:    9.2179812227
  - # 13
    frequency:    9.2188727744
  - # 14
    frequency:   11.0293466126
  - # 15
    frequency:   11.0333361797
  - # 16
    frequency:   11.1482879088
  - # 17
    frequency:   15.8746689945
  - # 18
    frequency:   15.8847494328
  - # 19
    frequency:   15.9503943875
  - # 20
    frequency:   19.8416154398
  - # 21
    frequency:   60.1901784564

- q-position: [    0.0101010,    0.0000000,    0.0000000 ]
  distance:    0.0037690
  band:
  - # 1
    frequency:   -0.3628992286
  - # 2
    frequency:   -0.2264744595
  - # 3
    frequency:   -0.2077504727
  - # 4
    frequency:   -0.0962516175
  - # 5
    frequency:    0.2058449313
  - # 6
    frequency:    0.3497549107
  - # 7
    frequency:    1.9089651177
  - # 8
    frequency:    1.9128750785
  - # 9
    frequency:    4.7616574782
  - # 10
    frequency:    4.7663846498
  - # 11
    frequency:    7.5037531542
  - # 12
    frequency:    9.2169201741
  - # 13
    frequency:    9.2204814913
  - # 14
    frequency:   11.0126823591
  - # 15
    frequency:   11.0282748504
  - # 16
    frequency:   11.1491034220
  - # 17
    frequency:   15.8528836956
  - # 18
    frequency:   15.8832698947
  - # 19
    frequency:   15.9698716731
  - # 20
    frequency:   19.8411141839
  - # 21
    frequency:   60.1894924640

- q-position: [    0.0151515,    0.0000000,    0.0000000 ]
  distance:    0.0056535
  band:
  - # 1
    frequency:   -0.5529231251
  - # 2
    frequency:   -0.3547398044
  - # 3
    frequency:   -0.2107000350
  - # 4
    frequency:   -0.1032381065
  - # 5
    frequency:    0.3034294460
  - # 6
    frequency:    0.5127534871
  - # 7
    frequency:    1.9109297311
  - # 8
    frequency:    1.9196307219
  - # 9
    frequency:    4.7639302291
  - # 10
    frequency:    4.7745254345
  - # 11
    frequency:    7.5035215219
  - # 12
    frequency:    9.2151611940
  - # 13
    frequency:    9.2231556603
  - # 14
    frequency:   10.9857708559
  - # 15
    frequency:   11.0198603914
  - # 16
    frequency:   11.1496438949
  - # 17
    frequency:   15.8277024008
  - # 18
    frequency:   15.8808110076
  - # 19
    frequency:   15.9912176297
  - # 20
    frequency:   19.8402659023
  - # 21
    frequency:   60.1883513075

- q-position: [    0.0202020,    0.0000000,    0.0000000 ]
  distance:    0.0075380
  band:
  - # 1
    frequency:   -0.7403993897
  - # 2
    frequency:   -0.4793776409
  - # 3
    frequency:   -0.2205273064
  - # 4
    frequency:   -0.0917810603
  - # 5
    frequency:    0.4015198412
  - # 6
    frequency:    0.6765288486
  - # 7
    frequency:    1.9137683031
  - # 8
    frequency:    1.9290284055
  - # 9
    frequency:    4.7671103029
  - # 10
    frequency:    4.7858447834
  - # 11
    frequency:    7.5031805908
  - # 12
    frequency:    9.2127183891
  - # 13
    frequency:    9.2268841132
  - # 14
    frequency:   10.9492016059
  - # 15
    frequency:   11.0081243027
  - # 16
    frequency:   11.1493866562
  - # 17
    frequency:   15.8012038613
  - # 18
    frequency:   15.8773833076
  - # 19
    frequency:   16.0123700780
  - # 20
    frequency:   19.8390516129
  - # 21
    frequency:   60.1867582246

- q-position: [    0.0252525,    0.0000000,    0.0000000 ]
  distance:    0.0094226
  band:
  - # 1
    frequency:   -0.9261041039
  - # 2
    frequency:   -0.6021620718
  - # 3
    frequency:   -0.2361961180
  - # 4
    frequency:   -0.0429585870
  - # 5
    frequency:    0.4991873244
  - # 6
    frequency:    0.8395774267
  - # 7
    frequency:    1.9175754898
  - # 8
    frequency:    1.9410912136
  - # 9
    frequency:    4.7711957858
  - # 10
    frequency:    4.8002657624
  - # 11
    frequency:    7.5027124187
  - # 12
    frequency:    9.2096114189
  - # 13
    frequency:    9.2316498723
  - # 14
    frequency:   10.9033058299
  - # 15
    frequency:   10.9931104207
  - # 16
    frequency:   11.1480972061
  - # 17
    frequency:   15.7740963691
  - # 18
    frequency:   15.8730015853
  - # 19
    frequency:   16.0326430631
  - # 20
    frequency:   19.8374453322
  - # 21
    frequency:   60.1847177324

- q-position: [    0.0303030,    0.0000000,    0.0000000 ]
  distance:    0.0113071
  band:
  - # 1
    frequency:   -1.1101497530
  - # 2
    frequency:   -0.7235659168
  - # 3
    frequency:   -0.2530210381
  - # 4
    frequency:    0.0916309306
  - # 5
    frequency:    0.5959743488
  - # 6
    frequency:    1.0008276119
  - # 7
    frequency:    1.9224828752
  - # 8
    frequency:    1.9559875111
  - # 9
    frequency:    4.7761840255
  - # 10
    frequency:    4.8176905762
  - # 11
    frequency:    7.5020919992
  - # 12
    frequency:    9.2058654008
  - # 13
    frequency:    9.2374285881
  - # 14
    frequency:   10.8482603200
  - # 15
    frequency:   10.9748746671
  - # 16
    frequency:   11.1457287910
  - # 17
    frequency:   15.7467355572
  - # 18
    frequency:   15.8676849189
  - # 19
    frequency:   16.0517082886
  - # 20
    frequency:   19.8354146454
  - # 21
    frequency:   60.1822356107

- q-position: [    0.0353535,    0.0000000,    0.0000000 ]
  distance:    0.0131916
  band:
  - # 1
    frequency:   -1.2924439309
  - # 2
    frequency:   -0.8437030639
  - # 3
    frequency:   -0.2672033839
  - # 4
    frequency:    0.1473441084
  - # 5
    frequency:    0.6915090857
  - # 6
    frequency:    1.1591011871
  - # 7
    frequency:    1.9286672862
  - # 8
    frequency:    1.9741861628
  - # 9
    frequency:    4.7820714925
  - # 10
    frequency:    4.8380013239
  - # 11
    frequency:    7.5012856506
  - # 12
    frequency:    9.2015107839
  - # 13
    frequency:    9.2441861473
  - # 14
    frequency:   10.7841933359
  - # 15
    frequency:   10.9534847431
  - # 16
    frequency:   11.1423214016
  - # 17
    frequency:   15.7193560723
  - # 18
    frequency:   15.8614567062
  - # 19
    frequency:   16.0693625849
  - # 20
    frequency:   19.8329214091
  - # 21
    frequency:   60.1793188818

- q-position: [    0.0404040,    0.0000000,    0.0000000 ]
  distance:    0.0150761
  band:
  - # 1
    frequency:   -1.4728178033
  - # 2
    frequency:   -0.9625559869
  - # 3
    frequency:   -0.2761057498
  - # 4
    frequency:    0.1945233723
  - # 5
    frequency:    0.7854132804
  - # 6
    frequency:    1.3127130919
  - # 7
    frequency:    1.9363618283
  - # 8
    frequency:    1.9967444585
  - # 9
    frequency:    4.7888536161
  - # 10
    frequency:    4.8610608313
  - # 11
    frequency:    7.5002488524
  - # 12
    frequency:    9.1965831856
  - # 13
    frequency:    9.2518750062
  - # 14
    frequency:   10.7112480924
  - # 15
    frequency:   10.9290197819
  - # 16
    frequency:   11.1379452034
  - # 17
    frequency:   15.6921389625
  - # 18
    frequency:   15.8543446906
  - # 19
    frequency:   16.0854596458
  - # 20
    frequency:   19.8299225670
  - # 21
    frequency:   60.1759757858

- q-position: [    0.0454545,    0.0000000,    0.0000000 ]
  distance:    0.0169606
  band:
  - # 1
    frequency:   -1.6510703071
  - # 2
    frequency:   -1.0800504507
  - # 3
    frequency:   -0.2774703387
  - # 4
    frequency:    0.2381478924
  - # 5
    frequency:    0.8772626615
  - # 6
    frequency:    1.4588895050
  - # 7
    frequency:    1.9458698102
  - # 8
    frequency:    2.0258522260
  - # 9
    frequency:    4.7965245992
  - # 10
    frequency:    4.8867134970
  - # 11
    frequency:    7.4989233853
  - # 12
    frequency:    9.1911231877
  - # 13
    frequency:    9.2604284487
  - # 14
    frequency:   10.6296176415
  - # 15
    frequency:   10.9015699719
  - # 16
    frequency:   11.1326755875
  - # 17
    frequency:   15.6652352679
  - # 18
    frequency:   15.8463809716
  - # 19
    frequency:   16.0998856178
  - # 20
    frequency:   19.8263710568
  - # 21
    frequency:   60.1722157510

- q-position: [    0.0505051,    0.0000000,    0.0000000 ]
  distance:    0.0188451
  band:
  - # 1
    frequency:   -1.8269862710
  - # 2
    frequency:   -1.1960852544
  - # 3
    frequency:   -0.2687328789
  - # 4
    frequency:    0.2799289216
  - # 5
    frequency:    0.9665603170
  - # 6
    frequency:    1.5928502001
  - # 7
    frequency:    1.9575810776
  - # 8
    frequency:    2.0657346964
  - # 9
    frequency:    4.8050772155
  - # 10
    frequency:    4.9147860831
  - # 11
    frequency:    7.4972335766
  - # 12
    frequency:    9.1851760876
  - # 13
    frequency:    9.2697512717
  - # 14
    frequency:   10.5395684951
  - # 15
    frequency:   10.8712361665
  - # 16
    frequency:   11.1265842793
  - # 17
    frequency:   15.6387754063
  - # 18
    frequency:   15.8376019935
  - # 19
    frequency:   16.1125490139
  - # 20
    frequency:   19.8222167827
  - # 21
    frequency:   60.1680493612

- q-position: [    0.0555556,    0.0000000,    0.0000000 ]
  distance:    0.0207296
  band:
  - # 1
    frequency:   -2.0003449287
  - # 2
    frequency:   -1.3105458063
  - # 3
    frequency:   -0.2460725884
  - # 4
    frequency:    0.3207063766
  - # 5
    frequency:    1.0527150864
  - # 6
    frequency:    1.7071805949
  - # 7
    frequency:    1.9719887346
  - # 8
    frequency:    2.1232724845
  - # 9
    frequency:    4.8145025950
  - # 10
    frequency:    4.9450883645
  - # 11
    frequency:    7.4950813759
  - # 12
    frequency:    9.1787915983
  - # 13
    frequency:    9.2797039701
  - # 14
    frequency:   10.4414654230
  - # 15
    frequency:   10.8381294962
  - # 16
    frequency:   11.1197374189
  - # 17
    frequency:   15.6128732945
  - # 18
    frequency:   15.8280485053
  - # 19
    frequency:   16.1233760612
  - # 20
    frequency:   19.8174076320
  - # 21
    frequency:   60.1634883181

- q-position: [    0.0606061,    0.0000000,    0.0000000 ]
  distance:    0.0226141
  band:
  - # 1
    frequency:   -2.1709243949
  - # 2
    frequency:   -1.4233110070
  - # 3
    frequency:   -0.2017741386
  - # 4
    frequency:    0.3609721559
  - # 5
    frequency:    1.1350268729
  - # 6
    frequency:    1.7945056559
  - # 7
    frequency:    1.9897011776
  - # 8
    frequency:    2.2053207795
  - # 9
    frequency:    4.8247900027
  - # 10
    frequency:    4.9774135384
  - # 11
    frequency:    7.4923398929
  - # 12
    frequency:    9.1720234945
  - # 13
    frequency:    9.2900743774
  - # 14
    frequency:   10.3358084129
  - # 15
    frequency:   10.8023709981
  - # 16
    frequency:   11.1121962691
  - # 17
    frequency:   15.5876283588
  - # 18
    frequency:   15.8177654819
  - # 19
    frequency:   16.1323083625
  - # 20
    frequency:   19.8118905099
  - # 21
    frequency:   60.1585454006

- q-position: [    0.0656566,    0.0000000,    0.0000000 ]
  distance:    0.0244986
  band:
  - # 1
    frequency:   -2.3385042646
  - # 2
    frequency:   -1.5342570554
  - # 3
    frequency:   -0.1073138444
  - # 4
    frequency:    0.4010518243
  - # 5
    frequency:    1.2126877394
  - # 6
    frequency:    1.8543301101
  - # 7
    frequency:    2.0114393902
  - # 8
    frequency:    2.3118610728
  - # 9
    frequency:    4.8359266180
  - # 10
    frequency:    5.0115382774
  - # 11
    frequency:    7.4888448963
  - # 12
    frequency:    9.1649291975
  - # 13
    frequency:    9.3005234498
  - # 14
    frequency:   10.2232977934
  - # 15
    frequency:   10.7640912776
  - # 16
    frequency:   11.1040186885
  - # 17
    frequency:   15.5631266727
  - # 18
    frequency:   15.8068020038
  - # 19
    frequency:   16.1393016491
  - # 20
    frequency:   19.8056123728
  - # 21
    frequency:   60.1532344202

- q-position: [    0.0707071,    0.0000000,    0.0000000 ]
  distance:    0.0263832
  band:
  - # 1
    frequency:   -2.5028672654
  - # 2
    frequency:   -1.6432597190
  - # 3
    frequency:    0.1676623111
  - # 4
    frequency:    0.4411888697
  - # 5
    frequency:    1.2848141442
  - # 6
    frequency:    1.8935921022
  - # 7
    frequency:    2.0380036266
  - # 8
    frequency:    2.4354372721
  - # 9
    frequency:    4.8478973211
  - # 10
    frequency:    5.0472222960
  - # 11
    frequency:    7.4843836216
  - # 12
    frequency:    9.1575692985
  - # 13
    frequency:    9.3104736457
  - # 14
    frequency:   10.1049609028
  - # 15
    frequency:   10.7234302184
  - # 16
    frequency:   11.0952606497
  - # 17
    frequency:   15.5394417386
  - # 18
    frequency:   15.7952110869
  - # 19
    frequency:   16.1443251050
  - # 20
    frequency:   19.7985212383
  - # 21
    frequency:   60.1475701727

- q-position: [    0.0757576,    0.0000000,    0.0000000 ]
  distance:    0.0282677
  band:
  - # 1
    frequency:   -2.6638003970
  - # 2
    frequency:   -1.7501957825
  - # 3
    frequency:    0.2812456120
  - # 4
    frequency:    0.4816016946
  - # 5
    frequency:    1.3505275940
  - # 6
    frequency:    1.9197818112
  - # 7
    frequency:    2.0701919610
  - # 8
    frequency:    2.5680239812
  - # 9
    frequency:    4.8606844949
  - # 10
    frequency:    5.0842072804
  - # 11
    frequency:    7.4786800594
  - # 12
    frequency:    9.1500070140
  - # 13
    frequency:    9.3188590322
  - # 14
    frequency:    9.9824228673
  - # 15
    frequency:   10.6805367499
  - # 16
    frequency:   11.0859775710
  - # 17
    frequency:   15.5166351259
  - # 18
    frequency:   15.7830494611
  - # 19
    frequency:   16.1473610350
  - # 20
    frequency:   19.7905671562
  - # 21
    frequency:   60.1415683874

- q-position: [    0.0808081,    0.0000000,    0.0000000 ]
  distance:    0.0301522
  band:
  - # 1
    frequency:   -2.8210957745
  - # 2
    frequency:   -1.8549440317
  - # 3
    frequency:    0.3770429172
  - # 4
    frequency:    0.5225598735
  - # 5
    frequency:    1.4090886876
  - # 6
    frequency:    1.9376711548
  - # 7
    frequency:    2.1086655973
  - # 8
    frequency:    2.7042800039
  - # 9
    frequency:    4.8742678506
  - # 10
    frequency:    5.1222150212
  - # 11
    frequency:    7.4713757636
  - # 12
    frequency:    9.1423075725
  - # 13
    frequency:    9.3235157489
  - # 14
    frequency:    9.8585447218
  - # 15
    frequency:   10.6355686856
  - # 16
    frequency:   11.0762254246
  - # 17
    frequency:   15.4947570417
  - # 18
    frequency:   15.7703772934
  - # 19
    frequency:   16.1484047731
  - # 20
    frequency:   19.7817031239
  - # 21
    frequency:   60.1352456722

- q-position: [    0.0858586,    0.0000000,    0.0000000 ]
  distance:    0.0320367
  band:
  - # 1
    frequency:   -2.9745512911
  - # 2
    frequency:   -1.9573859607
  - # 3
    frequency:    0.4663875734
  - # 4
    frequency:    0.5646001099
  - # 5
    frequency:    1.4600565241
  - # 6
    frequency:    1.9498180417
  - # 7
    frequency:    2.1537888859
  - # 8
    frequency:    2.8410224374
  - # 9
    frequency:    4.8886242846
  - # 10
    frequency:    5.1609445868
  - # 11
    frequency:    7.4620052646
  - # 12
    frequency:    9.1345375314
  - # 13
    frequency:    9.3196242897
  - # 14
    frequency:    9.7390194723
  - # 15
    frequency:   10.5886926391
  - # 16
    frequency:   11.0660616541
  - # 17
    frequency:   15.4738468411
  - # 18
    frequency:   15.7572578567
  - # 19
    frequency:   16.1474647903
  - # 20
    frequency:   19.7718859360
  - # 21
    frequency:   60.1286194568

- q-position: [    0.0909091,    0.0000000,    0.0000000 ]
  distance:    0.0339212
  band:
  - # 1
    frequency:   -3.1239711635
  - # 2
    frequency:   -2.0574063069
  - # 3
    frequency:    0.5509052786
  - # 4
    frequency:    0.6095697250
  - # 5
    frequency:    1.5034079715
  - # 6
    frequency:    1.9575256163
  - # 7
    frequency:    2.2055095012
  - # 8
    frequency:    2.9762391529
  - # 9
    frequency:    4.9037277771
  - # 10
    frequency:    5.2000684126
  - # 11
    frequency:    7.4499657446
  - # 12
    frequency:    9.1267640233
  - # 13
    frequency:    9.2964144746
  - # 14
    frequency:    9.6357170988
  - # 15
    frequency:   10.5400840214
  - # 16
    frequency:   11.0555459473
  - # 17
    frequency:   15.4539334546
  - # 18
    frequency:   15.7437571441
  - # 19
    frequency:   16.1445629851
  - # 20
    frequency:   19.7610769581
  - # 21
    frequency:   60.1217079330

- q-position: [    0.0959596,    0.0000000,    0.0000000 ]
  distance:    0.0358057
  band:
  - # 1
    frequency:   -3.2691663961
  - # 2
    frequency:   -2.1548934729
  - # 3
    frequency:    0.6234433978
  - # 4
    frequency:    0.6660523230
  - # 5
    frequency:    1.5395508616
  - # 6
    frequency:    1.9614216691
  - # 7
    frequency:    2.2633446781
  - # 8
    frequency:    3.1084718919
  - # 9
    frequency:    4.9195493404
  - # 10
    frequency:    5.2392273049
  - # 11
    frequency:    7.4344824961
  - # 12
    frequency:    9.1190539337
  - # 13
    frequency:    9.2373574498
  - # 14
    frequency:    9.5665546782
  - # 15
    frequency:   10.4899271245
  - # 16
    frequency:   11.0447409140
  - # 17
    frequency:   15.4350356923
  - # 18
    frequency:   15.7299434332
  - # 19
    frequency:   16.1397351606
  - # 20
    frequency:   19.7492428176
  - # 21
    frequency:   60.1145299921

- q-position: [    0.1010101,    0.0000000,    0.0000000 ]
  distance:    0.0376902
  band:
  - # 1
    frequency:   -3.4099551853
  - # 2
    frequency:   -2.2497398712
  - # 3
    frequency:    0.6759403348
  - # 4
    frequency:    0.7427688281
  - # 5
    frequency:    1.5692209416
  - # 6
    frequency:    1.9617461484
  - # 7
    frequency:    2.3264836516
  - # 8
    frequency:    3.2364782522
  - # 9
    frequency:    4.9360570258
  - # 10
    frequency:    5.2780246558
  - # 11
    frequency:    7.4145763334
  - # 12
    frequency:    9.1114730112
  - # 13
    frequency:    9.1391836248
  - # 14
    frequency:    9.5365491735
  - # 15
    frequency:   10.4384152872
  - # 16
    frequency:   11.0337127074
  - # 17
    frequency:   15.4171623801
  - # 18
    frequency:   15.7158868042
  - # 19
    frequency:   16.1330316937
  - # 20
    frequency:   19.7363560087
  - # 21
    frequency:   60.1071051610

- q-position: [    0.1060606,    0.0000000,    0.0000000 ]
  distance:    0.0395747
  band:
  - # 1
    frequency:   -3.5461632775
  - # 2
    frequency:   -2.3418422150
  - # 3
    frequency:    0.7211757765
  - # 4
    frequency:    0.8272334438
  - # 5
    frequency:    1.5933185963
  - # 6
    frequency:    1.9584823557
  - # 7
    frequency:    2.3939502634
  - # 8
    frequency:    3.3590315778
  - # 9
    frequency:    4.9532159982
  - # 10
    frequency:    5.3160208418
  - # 11
    frequency:    7.3890490835
  - # 12
    frequency:    9.0184256480
  - # 13
    frequency:    9.1040849141
  - # 14
    frequency:    9.5313408095
  - # 15
    frequency:   10.3857511386
  - # 16
    frequency:   11.0225316208
  - # 17
    frequency:   15.4003122806
  - # 18
    frequency:   15.7016586183
  - # 19
    frequency:   16.1245184114
  - # 20
    frequency:   19.7223954084
  - # 21
    frequency:   60.0994535353

- q-position: [    0.1111111,    0.0000000,    0.0000000 ]
  distance:    0.0414592
  band:
  - # 1
    frequency:   -3.6776242890
  - # 2
    frequency:   -2.4311017665
  - # 3
    frequency:    0.7650870286
  - # 4
    frequency:    0.9135987820
  - # 5
    frequency:    1.6127580911
  - # 6
    frequency:    1.9514051721
  - # 7
    frequency:    2.4647529751
  - # 8
    frequency:    3.4747779244
  - # 9
    frequency:    4.9709886875
  - # 10
    frequency:    5.3527301621
  - # 11
    frequency:    7.3565212832
  - # 12
    frequency:    8.8904362585
  - # 13
    frequency:    9.0969501969
  - # 14
    frequency:    9.5382062865
  - # 15
    frequency:   10.3321469130
  - # 16
    frequency:   11.0112726810
  - # 17
    frequency:   15.3844737528
  - # 18
    frequency:   15.6873309647
  - # 19
    frequency:   16.1142776872
  - # 20
    frequency:   19.7073467020
  - # 21
    frequency:   60.0915957114

- q-position: [    0.1161616,    0.0000000,    0.0000000 ]
  distance:    0.0433438
  band:
  - # 1
    frequency:   -3.8041799918
  - # 2
    frequency:   -2.5174245544
  - # 3
    frequency:    0.8088831950
  - # 4
    frequency:    1.0006119524
  - # 5
    frequency:    1.6283696884
  - # 6
    frequency:    1.9400784470
  - # 7
    frequency:    2.5379819237
  - # 8
    frequency:    3.5821082600
  - # 9
    frequency:    4.9893350242
  - # 10
    frequency:    5.3876253187
  - # 11
    frequency:    7.3155808557
  - # 12
    frequency:    8.7643344842
  - # 13
    frequency:    9.0901252422
  - # 14
    frequency:    9.5510514995
  - # 15
    frequency:   10.2778248195
  - # 16
    frequency:   11.0000162520
  - # 17
    frequency:   15.3696241096
  - # 18
    frequency:   15.6729760842
  - # 19
    frequency:   16.1024097753
  - # 20
    frequency:   19.6912027214
  - # 21
    frequency:   60.0835527166

- q-position: [    0.1212121,    0.0000000,    0.0000000 ]
  distance:    0.0452283
  band:
  - # 1
    frequency:   -3.9256805693
  - # 2
    frequency:   -2.6007215638
  - # 3
    frequency:    0.8529042059
  - # 4
    frequency:    1.0877826569
  - # 5
    frequency:    1.6408561567
  - # 6
    frequency:    1.9238118307
  - # 7
    frequency:    2.6128515013
  - # 8
    frequency:    3.6790247421
  - # 9
    frequency:    5.0082127682
  - # 10
    frequency:    5.4201590639
  - # 11
    frequency:    7.2651156967
  - # 12
    frequency:    8.6460652091
  - # 13
    frequency:    9.0836611415
  - # 14
    frequency:    9.5671231219
  - # 15
    frequency:   10.2230174548
  - # 16
    frequency:   10.9888486516
  - # 17
    frequency:   15.3557286337
  - # 18
    frequency:   15.6586657801
  - # 19
    frequency:   16.0890343947
  - # 20
    frequency:   19.6739636951
  - # 21
    frequency:   60.0753459383

- q-position: [    0.1262626,    0.0000000,    0.0000000 ]
  distance:    0.0471128
  band:
  - # 1
    frequency:   -4.0419848436
  - # 2
    frequency:   -2.6809089050
  - # 3
    frequency:    0.8972743486
  - # 4
    frequency:    1.1747270479
  - # 5
    frequency:    1.6507863585
  - # 6
    frequency:    1.9015750098
  - # 7
    frequency:    2.6887057722
  - # 8
    frequency:    3.7629958623
  - # 9
    frequency:    5.0275779398
  - # 10
    frequency:    5.4498194318
  - # 11
    frequency:    7.2048616135
  - # 12
    frequency:    8.5399250661
  - # 13
    frequency:    9.0776025325
  - # 14
    frequency:    9.5850406920
  - # 15
    frequency:   10.1679682338
  - # 16
    frequency:   10.9778627708
  - # 17
    frequency:   15.3427392268
  - # 18
    frequency:   15.6444708254
  - # 19
    frequency:   16.0742925711
  - # 20
    frequency:   19.6556374138
  - # 21
    frequency:   60.0669970511

- q-position: [    0.1313131,    0.0000000,    0.0000000 ]
  distance:    0.0489973
  band:
  - # 1
    frequency:   -4.1529604754
  - # 2
    frequency:   -2.7579079613
  - # 3
    frequency:    0.9420435298
  - # 4
    frequency:    1.2609847706
  - # 5
    frequency:    1.6586076557
  - # 6
    frequency:    1.8718618067
  - # 7
    frequency:    2.7650050039
  - # 8
    frequency:    3.8308195684
  - # 9
    frequency:    5.0473853580
  - # 10
    frequency:    5.4762415031
  - # 11
    frequency:    7.1360513194
  - # 12
    frequency:    8.4487719119
  - # 13
    frequency:    9.0719863999
  - # 14
    frequency:    9.6040099701
  - # 15
    frequency:   10.1129318146
  - # 16
    frequency:   10.9671586715
  - # 17
    frequency:   15.3305926801
  - # 18
    frequency:   15.6304603784
  - # 19
    frequency:   16.0583487291
  - # 20
    frequency:   19.6362393149
  - # 21
    frequency:   60.0585279440

- q-position: [    0.1363636,    0.0000000,    0.0000000 ]
  distance:    0.0508818
  band:
  - # 1
    frequency:   -4.2584841376
  - # 2
    frequency:   -2.8316455195
  - # 3
    frequency:    0.9872285362
  - # 4
    frequency:    1.3458376095
  - # 5
    frequency:    1.6646647929
  - # 6
    frequency:    1.8325150774
  - # 7
    frequency:    2.8413056624
  - # 8
    frequency:    3.8785609263
  - # 9
    frequency:    5.0675892970
  - # 10
    frequency:    5.4993947947
  - # 11
    frequency:    7.0618480308
  - # 12
    frequency:    8.3738751704
  - # 13
    frequency:    9.0668408492
  - # 14
    frequency:    9.6235061416
  - # 15
    frequency:   10.0581744841
  - # 16
    frequency:   10.9568441164
  - # 17
    frequency:   15.3192085849
  - # 18
    frequency:   15.6167014159
  - # 19
    frequency:   16.0413930001
  - # 20
    frequency:   19.6157924880
  - # 21
    frequency:   60.0499606462

- q-position: [    0.1414141,    0.0000000,    0.0000000 ]
  distance:    0.0527663
  band:
  - # 1
    frequency:   -4.3584416621
  - # 2
    frequency:   -2.9020538834
  - # 3
    frequency:    1.0328270886
  - # 4
    frequency:    1.4277601884
  - # 5
    frequency:    1.6692188059
  - # 6
    frequency:    1.7807070627
  - # 7
    frequency:    2.9172403552
  - # 8
    frequency:    3.9017115360
  - # 9
    frequency:    5.0881442629
  - # 10
    frequency:    5.5198285193
  - # 11
    frequency:    6.9871921158
  - # 12
    frequency:    8.3149676750
  - # 13
    frequency:    9.0621838718
  - # 14
    frequency:    9.6431359391
  - # 15
    frequency:   10.0039744594
  - # 16
    frequency:   10.9470349644
  - # 17
    frequency:   15.3084869521
  - # 18
    frequency:   15.6032581938
  - # 19
    frequency:   16.0236436646
  - # 20
    frequency:   19.5943276050
  - # 21
    frequency:   60.0413172528

- q-position: [    0.1464646,    0.0000000,    0.0000000 ]
  distance:    0.0546508
  band:
  - # 1
    frequency:   -4.4527281614
  - # 2
    frequency:   -2.9690709718
  - # 3
    frequency:    1.0788204103
  - # 4
    frequency:    1.5012765243
  - # 5
    frequency:    1.6724633159
  - # 6
    frequency:    1.7150700990
  - # 7
    frequency:    2.9925003880
  - # 8
    frequency:    3.8958059078
  - # 9
    frequency:    5.1090058991
  - # 10
    frequency:    5.5388658764
  - # 11
    frequency:    6.9179356785
  - # 12
    frequency:    8.2706478429
  - # 13
    frequency:    9.0580221276
  - # 14
    frequency:    9.6625727362
  - # 15
    frequency:    9.9506220505
  - # 16
    frequency:   10.9378553326
  - # 17
    frequency:   15.2983056851
  - # 18
    frequency:   15.5901917464
  - # 19
    frequency:   16.0053495697
  - # 20
    frequency:   19.5718827784
  - # 21
    frequency:   60.0326198495

- q-position: [    0.1515152,    0.0000000,    0.0000000 ]
  distance:    0.0565353
  band:
  - # 1
    frequency:   -4.5412481227
  - # 2
    frequency:   -3.0326404007
  - # 3
    frequency:    1.1251591419
  - # 4
    frequency:    1.5259555504
  - # 5
    frequency:    1.6647494757
  - # 6
    frequency:    1.6745375680
  - # 7
    frequency:    3.0668216156
  - # 8
    frequency:    3.8577116582
  - # 9
    frequency:    5.1301320187
  - # 10
    frequency:    5.5585366018
  - # 11
    frequency:    6.8595421490
  - # 12
    frequency:    8.2389476598
  - # 13
    frequency:    9.0543497947
  - # 14
    frequency:    9.6815241404
  - # 15
    frequency:    9.8984196008
  - # 16
    frequency:   10.9294373997
  - # 17
    frequency:   15.2885181711
  - # 18
    frequency:   15.5775594303
  - # 19
    frequency:   15.9867922475
  - # 20
    frequency:   19.5485033505
  - # 21