nqpoint: 300    
npath: 3      
segment_nqpoint:
- 100
- 100
- 100
labels:
- [ 'G', 'M' ]
- [ 'M', 'K' ]
- [ 'K', 'G' ]
reciprocal_lattice:
- [   0.29214815,   0.16867181,   0.00000000 ] # a*
- [   0.00000000,   0.33734362,   0.00000000 ] # b*
- [   0.00000000,   0.00000000,   0.03902946 ] # c*
natom: 7      
lattice:
- [     3.422920916077929,     0.000000000000000,     0.000000000000000 ] # a
- [    -1.711460458038965,     2.964336468442293,     0.000000000000000 ] # b
- [     0.000000000000000,     0.000000000000000,    25.621674202294411 ] # c
points:
- symbol: C # 1
  coordinates: [  0.000000000000000,  0.000000000000000,  0.498411752363127 ]
  mass: 12.010700
- symbol: C # 2
  coordinates: [  0.333332985432215,  0.666666983183674,  0.601708034481324 ]
  mass: 12.010700
- symbol: N # 3
  coordinates: [  0.333332985432215,  0.666666983183674,  0.648734898081170 ]
  mass: 14.006700
- symbol: N # 4
  coordinates: [  0.666666984744047,  0.333332985985145,  0.402949386104351 ]
  mass: 14.006700
- symbol: O # 5
  coordinates: [  0.666666984744047,  0.333332985985145,  0.351265101918830 ]
  mass: 15.999400
- symbol: Zr # 6
  coordinates: [  0.333332985432215,  0.666666983183674,  0.442049419435298 ]
  mass: 91.224000
- symbol: Zr # 7
  coordinates: [  0.666666984744047,  0.333332985985145,  0.543798070824895 ]
  mass: 91.224000

phonon:
- q-position: [    0.0000000,    0.0000000,    0.0000000 ]
  distance:    0.0000000
  band:
  - # 1
    frequency:   -4.6701062844
  - # 2
    frequency:   -4.6701062843
  - # 3
    frequency:   -2.2432319871
  - # 4
    frequency:   -2.2432319870
  - # 5
    frequency:   -0.0000303218
  - # 6
    frequency:    0.0000001996
  - # 7
    frequency:    0.0000290477
  - # 8
    frequency:    3.7339307316
  - # 9
    frequency:    3.7339307317
  - # 10
    frequency:    5.6052204675
  - # 11
    frequency:    7.4470130967
  - # 12
    frequency:    7.4470130968
  - # 13
    frequency:    8.5295483401
  - # 14
    frequency:    8.9020604466
  - # 15
    frequency:   10.7744775079
  - # 16
    frequency:   10.7744775080
  - # 17
    frequency:   14.6820659742
  - # 18
    frequency:   14.6820659743
  - # 19
    frequency:   15.8637122320
  - # 20
    frequency:   39.4527960105
  - # 21
    frequency:   60.7029913254

- q-position: [    0.0050505,    0.0000000,    0.0000000 ]
  distance:    0.0017038
  band:
  - # 1
    frequency:   -4.6702854261
  - # 2
    frequency:   -4.6689399252
  - # 3
    frequency:   -2.2429222708
  - # 4
    frequency:   -2.2426404221
  - # 5
    frequency:    0.0019295233
  - # 6
    frequency:    0.0709251935
  - # 7
    frequency:    0.1121765782
  - # 8
    frequency:    3.7343771410
  - # 9
    frequency:    3.7353046578
  - # 10
    frequency:    5.6052663685
  - # 11
    frequency:    7.4470444971
  - # 12
    frequency:    7.4477290443
  - # 13
    frequency:    8.5291797967
  - # 14
    frequency:    8.9013210026
  - # 15
    frequency:   10.7744696506
  - # 16
    frequency:   10.7748051685
  - # 17
    frequency:   14.6818461478
  - # 18
    frequency:   14.6821581823
  - # 19
    frequency:   15.8639089840
  - # 20
    frequency:   39.4521906787
  - # 21
    frequency:   60.7028779739

- q-position: [    0.0101010,    0.0000000,    0.0000000 ]
  distance:    0.0034075
  band:
  - # 1
    frequency:   -4.6708229313
  - # 2
    frequency:   -4.6654431268
  - # 3
    frequency:   -2.2419941051
  - # 4
    frequency:   -2.2408677735
  - # 5
    frequency:    0.0077107787
  - # 6
    frequency:    0.1418389972
  - # 7
    frequency:    0.2243279416
  - # 8
    frequency:    3.7357157137
  - # 9
    frequency:    3.7394170198
  - # 10
    frequency:    5.6054043965
  - # 11
    frequency:    7.4471392150
  - # 12
    frequency:    7.4498710614
  - # 13
    frequency:    8.5280716466
  - # 14
    frequency:    8.8991170025
  - # 15
    frequency:   10.7744458212
  - # 16
    frequency:   10.7757845635
  - # 17
    frequency:   14.6811871689
  - # 18
    frequency:   14.6824367992
  - # 19
    frequency:   15.8644971537
  - # 20
    frequency:   39.4503755900
  - # 21
    frequency:   60.7025382000

- q-position: [    0.0151515,    0.0000000,    0.0000000 ]
  distance:    0.0051113
  band:
  - # 1
    frequency:   -4.6717190325
  - # 2
    frequency:   -4.6596226868
  - # 3
    frequency:   -2.2404504293
  - # 4
    frequency:   -2.2379201174
  - # 5
    frequency:    0.0173115742
  - # 6
    frequency:    0.2127298332
  - # 7
    frequency:    0.3364280511
  - # 8
    frequency:    3.7379444846
  - # 9
    frequency:    3.7462398115
  - # 10
    frequency:    5.6056355217
  - # 11
    frequency:    7.4472987927
  - # 12
    frequency:    7.4534216927
  - # 13
    frequency:    8.5262164687
  - # 14
    frequency:    8.8954911067
  - # 15
    frequency:   10.7744052542
  - # 16
    frequency:   10.7774051025
  - # 17
    frequency:   14.6800905378
  - # 18
    frequency:   14.6829077773
  - # 19
    frequency:   15.8654705144
  - # 20
    frequency:   39.4473534626
  - # 21
    frequency:   60.7019728452

- q-position: [    0.0202020,    0.0000000,    0.0000000 ]
  distance:    0.0068150
  band:
  - # 1
    frequency:   -4.6729740953
  - # 2
    frequency:   -4.6514898060
  - # 3
    frequency:   -2.2382961130
  - # 4
    frequency:   -2.2338073760
  - # 5
    frequency:    0.0306807360
  - # 6
    frequency:    0.2835857283
  - # 7
    frequency:    0.4484492669
  - # 8
    frequency:    3.7410601802
  - # 9
    frequency:    3.7557271560
  - # 10
    frequency:    5.6059613475
  - # 11
    frequency:    7.4475257715
  - # 12
    frequency:    7.4583519186
  - # 13
    frequency:    8.5236023724
  - # 14
    frequency:    8.8905132917
  - # 15
    frequency:   10.7743466950
  - # 16
    frequency:   10.7796496878
  - # 17
    frequency:   14.6785587480
  - # 18
    frequency:   14.6835809509
  - # 19
    frequency:   15.8668187942
  - # 20
    frequency:   39.4431288204
  - # 21
    frequency:   60.7011833084

- q-position: [    0.0252525,    0.0000000,    0.0000000 ]
  distance:    0.0085188
  band:
  - # 1
    frequency:   -4.6745885849
  - # 2
    frequency:   -4.6410598951
  - # 3
    frequency:   -2.2355379122
  - # 4
    frequency:   -2.2285430238
  - # 5
    frequency:    0.0477481097
  - # 6
    frequency:    0.3543941383
  - # 7
    frequency:    0.5603616099
  - # 8
    frequency:    3.7450582198
  - # 9
    frequency:    3.7678164540
  - # 10
    frequency:    5.6063840894
  - # 11
    frequency:    7.4478236485
  - # 12
    frequency:    7.4646212655
  - # 13
    frequency:    8.5202137664
  - # 14
    frequency:    8.8842791474
  - # 15
    frequency:   10.7742684309
  - # 16
    frequency:   10.7824955064
  - # 17
    frequency:   14.6765952767
  - # 18
    frequency:   14.6844699101
  - # 19
    frequency:   15.8685278314
  - # 20
    frequency:   39.4377079828
  - # 21
    frequency:   60.7001715420

- q-position: [    0.0303030,    0.0000000,    0.0000000 ]
  distance:    0.0102225
  band:
  - # 1
    frequency:   -4.6765630208
  - # 2
    frequency:   -4.6283523064
  - # 3
    frequency:   -2.2321844112
  - # 4
    frequency:   -2.2221436982
  - # 5
    frequency:    0.0684259433
  - # 6
    frequency:    0.4251417821
  - # 7
    frequency:    0.6721321047
  - # 8
    frequency:    3.7499327198
  - # 9
    frequency:    3.7824298946
  - # 10
    frequency:    5.6069065492
  - # 11
    frequency:    7.4481968170
  - # 12
    frequency:    7.4721779612
  - # 13
    frequency:    8.5160325357
  - # 14
    frequency:    8.8769074625
  - # 15
    frequency:   10.7741683347
  - # 16
    frequency:   10.7859150654
  - # 17
    frequency:   14.6742045709
  - # 18
    frequency:   14.6855918278
  - # 19
    frequency:   15.8705797866
  - # 20
    frequency:   39.4310990513
  - # 21
    frequency:   60.6989400446

- q-position: [    0.0353535,    0.0000000,    0.0000000 ]
  distance:    0.0119263
  band:
  - # 1
    frequency:   -4.6788979213
  - # 2
    frequency:   -4.6133899921
  - # 3
    frequency:   -2.2282459511
  - # 4
    frequency:   -2.2146287348
  - # 5
    frequency:    0.0926105238
  - # 6
    frequency:    0.4958144942
  - # 7
    frequency:    0.7837242102
  - # 8
    frequency:    3.7556764975
  - # 9
    frequency:    3.7994762462
  - # 10
    frequency:    5.6075320840
  - # 11
    frequency:    7.4486504908
  - # 12
    frequency:    7.4809591407
  - # 13
    frequency:    8.5110397091
  - # 14
    frequency:    8.8685370736
  - # 15
    frequency:   10.7740439186
  - # 16
    frequency:   10.7898774088
  - # 17
    frequency:   14.6713920307
  - # 18
    frequency:   14.6869672465
  - # 19
    frequency:   15.8729534054
  - # 20
    frequency:   39.4233118918
  - # 21
    frequency:   60.6974918535

- q-position: [    0.0404040,    0.0000000,    0.0000000 ]
  distance:    0.0136300
  band:
  - # 1
    frequency:   -4.6815937367
  - # 2
    frequency:   -4.5961990913
  - # 3
    frequency:   -2.2237345489
  - # 4
    frequency:   -2.2060196446
  - # 5
    frequency:    0.1201839857
  - # 6
    frequency:    0.5663971017
  - # 7
    frequency:    0.8950973461
  - # 8
    frequency:    3.7622810773
  - # 9
    frequency:    3.8188528319
  - # 10
    frequency:    5.6082645727
  - # 11
    frequency:    7.4491906141
  - # 12
    frequency:    7.4908911042
  - # 13
    frequency:    8.5052176954
  - # 14
    frequency:    8.8593229643
  - # 15
    frequency:   10.7738923985
  - # 16
    frequency:   10.7943494463
  - # 17
    frequency:   14.6681639881
  - # 18
    frequency:   14.6886198285
  - # 19
    frequency:   15.8756243246
  - # 20
    frequency:   39.4143581131
  - # 21
    frequency:   60.6958305338

- q-position: [    0.0454545,    0.0000000,    0.0000000 ]
  distance:    0.0153338
  band:
  - # 1
    frequency:   -4.6846507761
  - # 2
    frequency:   -4.5768084487
  - # 3
    frequency:   -2.2186638087
  - # 4
    frequency:   -2.1963395521
  - # 5
    frequency:    0.1510162105
  - # 6
    frequency:    0.6368733260
  - # 7
    frequency:    1.0062065145
  - # 8
    frequency:    3.7697366984
  - # 9
    frequency:    3.8404475982
  - # 10
    frequency:    5.6091083834
  - # 11
    frequency:    7.4498237572
  - # 12
    frequency:    7.5018896364
  - # 13
    frequency:    8.4985531347
  - # 14
    frequency:    8.8494316286
  - # 15
    frequency:   10.7737107675
  - # 16
    frequency:   10.7992973225
  - # 17
    frequency:   14.6645276833
  - # 18
    frequency:   14.6905760753
  - # 19
    frequency:   15.8785654156
  - # 20
    frequency:   39.4042510417
  - # 21
    frequency:   60.6939601672

- q-position: [    0.0505051,    0.0000000,    0.0000000 ]
  distance:    0.0170376
  band:
  - # 1
    frequency:   -4.6880691262
  - # 2
    frequency:   -4.5552490707
  - # 3
    frequency:   -2.2130488297
  - # 4
    frequency:   -2.1856126072
  - # 5
    frequency:    0.1849667441
  - # 6
    frequency:    0.7072257126
  - # 7
    frequency:    1.1170020127
  - # 8
    frequency:    3.7780323251
  - # 9
    frequency:    3.8641411878
  - # 10
    frequency:    5.6100683419
  - # 11
    frequency:    7.4505570002
  - # 12
    frequency:    7.5138603960
  - # 13
    frequency:    8.4910403417
  - # 14
    frequency:    8.8390357757
  - # 15
    frequency:   10.7734958771
  - # 16
    frequency:   10.8046877624
  - # 17
    frequency:   14.6604912381
  - # 18
    frequency:   14.6928650232
  - # 19
    frequency:   15.8817471559
  - # 20
    frequency:   39.3930056931
  - # 21
    frequency:   60.6918853379

- q-position: [    0.0555556,    0.0000000,    0.0000000 ]
  distance:    0.0187413
  band:
  - # 1
    frequency:   -4.6918485667
  - # 2
    frequency:   -4.5315535234
  - # 3
    frequency:   -2.2069061120
  - # 4
    frequency:   -2.1738633839
  - # 5
    frequency:    0.2218866738
  - # 6
    frequency:    0.7774355891
  - # 7
    frequency:    1.2274292302
  - # 8
    frequency:    3.7871556587
  - # 9
    frequency:    3.8898089427
  - # 10
    frequency:    5.6111497048
  - # 11
    frequency:    7.4513978054
  - # 12
    frequency:    7.5266993920
  - # 13
    frequency:    8.4826852114
  - # 14
    frequency:    8.8283085454
  - # 15
    frequency:   10.7732445246
  - # 16
    frequency:   10.8104893367
  - # 17
    frequency:   14.6560636262
  - # 18
    frequency:   14.6955179189
  - # 19
    frequency:   15.8851380221
  - # 20
    frequency:   39.3806387391
  - # 21
    frequency:   60.6896111180

- q-position: [    0.0606061,    0.0000000,    0.0000000 ]
  distance:    0.0204451
  band:
  - # 1
    frequency:   -4.6959884823
  - # 2
    frequency:   -4.5057552793
  - # 3
    frequency:   -2.2002534657
  - # 4
    frequency:   -2.1611162734
  - # 5
    frequency:    0.2616204229
  - # 6
    frequency:    0.8474830519
  - # 7
    frequency:    1.3374285213
  - # 8
    frequency:    3.7970931534
  - # 9
    frequency:    3.9173227758
  - # 10
    frequency:    5.6123581396
  - # 11
    frequency:    7.4523538807
  - # 12
    frequency:    7.5402935660
  - # 13
    frequency:    8.4735093233
  - # 14
    frequency:    8.8174175222
  - # 15
    frequency:   10.7729535463
  - # 16
    frequency:   10.8166736009
  - # 17
    frequency:   14.6512546415
  - # 18
    frequency:   14.6985678822
  - # 19
    frequency:   15.8887048959
  - # 20
    frequency:   39.3671684720
  - # 21
    frequency:   60.6871430500

- q-position: [    0.0656566,    0.0000000,    0.0000000 ]
  distance:    0.0221488
  band:
  - # 1
    frequency:   -4.7004877747
  - # 2
    frequency:   -4.4778880207
  - # 3
    frequency:   -2.1931099235
  - # 4
    frequency:   -2.1473948816
  - # 5
    frequency:    0.3040074385
  - # 6
    frequency:    0.9173469802
  - # 7
    frequency:    1.4469351475
  - # 8
    frequency:    3.8078300339
  - # 9
    frequency:    3.9465528687
  - # 10
    frequency:    5.6136997118
  - # 11
    frequency:    7.4534330346
  - # 12
    frequency:    7.5545215103
  - # 13
    frequency:    8.4635538397
  - # 14
    frequency:    8.8065189540
  - # 15
    frequency:   10.7726199135
  - # 16
    frequency:   10.8232160757
  - # 17
    frequency:   14.6460748642
  - # 18
    frequency:   14.7020495578
  - # 19
    frequency:   15.8924134768
  - # 20
    frequency:   39.3526147652
  - # 21
    frequency:   60.6844871289

- q-position: [    0.0707071,    0.0000000,    0.0000000 ]
  distance:    0.0238526
  band:
  - # 1
    frequency:   -4.7053447751
  - # 2
    frequency:   -4.4479849090
  - # 3
    frequency:   -2.1854956609
  - # 4
    frequency:   -2.1327214395
  - # 5
    frequency:    0.3488837628
  - # 6
    frequency:    0.9870050759
  - # 7
    frequency:    1.5558792834
  - # 8
    frequency:    3.8193503174
  - # 9
    frequency:    3.9773691668
  - # 10
    frequency:    5.6151808817
  - # 11
    frequency:    7.4546430257
  - # 12
    frequency:    7.5692543589
  - # 13
    frequency:    8.4528826939
  - # 14
    frequency:    8.7957526633
  - # 15
    frequency:   10.7722408310
  - # 16
    frequency:   10.8300970475
  - # 17
    frequency:   14.6405356254
  - # 18
    frequency:   14.7059987628
  - # 19
    frequency:   15.8962286942
  - # 20
    frequency:   39.3369990303
  - # 21
    frequency:   60.6816497825

- q-position: [    0.0757576,    0.0000000,    0.0000000 ]
  distance:    0.0255563
  band:
  - # 1
    frequency:   -4.7105571603
  - # 2
    frequency:   -4.4160778297
  - # 3
    frequency:   -2.1774319243
  - # 4
    frequency:   -2.1171162388
  - # 5
    frequency:    0.3960834932
  - # 6
    frequency:    1.0564339282
  - # 7
    frequency:    1.6641860838
  - # 8
    frequency:    3.8316368392
  - # 9
    frequency:    4.0096426600
  - # 10
    frequency:    5.6168085112
  - # 11
    frequency:    7.4559914078
  - # 12
    frequency:    7.5843568992
  - # 13
    frequency:    8.4415845446
  - # 14
    frequency:    8.7852381366
  - # 15
    frequency:   10.7718138363
  - # 16
    frequency:   10.8373021784
  - # 17
    frequency:   14.6346489699
  - # 18
    frequency:   14.7104521290
  - # 19
    frequency:   15.9001151144
  - # 20
    frequency:   39.3203441712
  - # 21
    frequency:   60.6786378497

- q-position: [    0.0808081,    0.0000000,    0.0000000 ]
  distance:    0.0272601
  band:
  - # 1
    frequency:   -4.7161218745
  - # 2
    frequency:   -4.3821966240
  - # 3
    frequency:   -2.1689409701
  - # 4
    frequency:   -2.1005971076
  - # 5
    frequency:    0.4454401413
  - # 6
    frequency:    1.1256090984
  - # 7
    frequency:    1.7717758099
  - # 8
    frequency:    3.8446712815
  - # 9
    frequency:    4.0432464482
  - # 10
    frequency:    5.6185898813
  - # 11
    frequency:    7.4574853725
  - # 12
    frequency:    7.5996889643
  - # 13
    frequency:    8.4297730576
  - # 14
    frequency:    8.7750721689
  - # 15
    frequency:   10.7713368969
  - # 16
    frequency:   10.8448229263
  - # 17
    frequency:   14.6284276183
  - # 18
    frequency:   14.7154467448
  - # 19
    frequency:   15.9040373385
  - # 20
    frequency:   39.3026745354
  - # 21
    frequency:   60.6754585585

- q-position: [    0.0858586,    0.0000000,    0.0000000 ]
  distance:    0.0289638
  band:
  - # 1
    frequency:   -4.7220350561
  - # 2
    frequency:   -4.3463683190
  - # 3
    frequency:   -2.1600460132
  - # 4
    frequency:   -2.0831789453
  - # 5
    frequency:    0.4967879099
  - # 6
    frequency:    1.1945052235
  - # 7
    frequency:    1.8785640164
  - # 8
    frequency:    3.8584342066
  - # 9
    frequency:    4.0780565993
  - # 10
    frequency:    5.6205327197
  - # 11
    frequency:    7.4591315912
  - # 12
    frequency:    7.6151071741
  - # 13
    frequency:    8.4175852655
  - # 14
    frequency:    8.7653282403
  - # 15
    frequency:   10.7708085062
  - # 16
    frequency:   10.8526567784
  - # 17
    frequency:   14.6218849282
  - # 18
    frequency:   14.7210197959
  - # 19
    frequency:   15.9079603854
  - # 20
    frequency:   39.2840158618
  - # 21
    frequency:   60.6721195018

- q-position: [    0.0909091,    0.0000000,    0.0000000 ]
  distance:    0.0306676
  band:
  - # 1
    frequency:   -4.7282919741
  - # 2
    frequency:   -4.3086163670
  - # 3
    frequency:   -2.1507711877
  - # 4
    frequency:   -2.0648733388
  - # 5
    frequency:    0.5499629017
  - # 6
    frequency:    1.2630961349
  - # 7
    frequency:    1.9844618002
  - # 8
    frequency:    3.8729050948
  - # 9
    frequency:    4.1139528181
  - # 10
    frequency:    5.6226452384
  - # 11
    frequency:    7.4609360592
  - # 12
    frequency:    7.6304671016
  - # 13
    frequency:    8.4051779891
  - # 14
    frequency:    8.7560575480
  - # 15
    frequency:   10.7702277749
  - # 16
    frequency:   10.8608073130
  - # 17
    frequency:   14.6150348547
  - # 18
    frequency:   14.7272082046
  - # 19
    frequency:   15.9118500605
  - # 20
    frequency:   39.2643952259
  - # 21
    frequency:   60.6686286128

- q-position: [    0.0959596,    0.0000000,    0.0000000 ]
  distance:    0.0323714
  band:
  - # 1
    frequency:   -4.7348869732
  - # 2
    frequency:   -4.2689599066
  - # 3
    frequency:   -2.1411415175
  - # 4
    frequency:   -2.0456882831
  - # 5
    frequency:    0.6048042729
  - # 6
    frequency:    1.3313549884
  - # 7
    frequency:    2.0893761131
  - # 8
    frequency:    3.8880623852
  - # 9
    frequency:    4.1508189445
  - # 10
    frequency:    5.6249361807
  - # 11
    frequency:    7.4629039416
  - # 12
    frequency:    7.6456259371
  - # 13
    frequency:    8.3927225375
  - # 14
    frequency:    8.7472913912
  - # 15
    frequency:   10.7695945174
  - # 16
    frequency:   10.8692841028
  - # 17
    frequency:   14.6078919108
  - # 18
    frequency:   14.7340482670
  - # 19
    frequency:   15.9156733066
  - # 20
    frequency:   39.2438409829
  - # 21
    frequency:   60.6649941391

- q-position: [    0.1010101,    0.0000000,    0.0000000 ]
  distance:    0.0340751
  band:
  - # 1
    frequency:   -4.7418134295
  - # 2
    frequency:   -4.2274130555
  - # 3
    frequency:   -2.1311828972
  - # 4
    frequency:   -2.0256280283
  - # 5
    frequency:    0.6611553371
  - # 6
    frequency:    1.3992544031
  - # 7
    frequency:    2.1932101403
  - # 8
    frequency:    3.9038835219
  - # 9
    frequency:    4.1885433048
  - # 10
    frequency:    5.6274148759
  - # 11
    frequency:    7.4650394260
  - # 12
    frequency:    7.6604457067
  - # 13
    frequency:    8.3803980567
  - # 14
    frequency:    8.7390444589
  - # 15
    frequency:   10.7689093311
  - # 16
    frequency:   10.8781024784
  - # 17
    frequency:   14.6004711282
  - # 18
    frequency:   14.7415752878
  - # 19
    frequency:   15.9193985371
  - # 20
    frequency:   39.2223827073
  - # 21
    frequency:   60.6612246154

- q-position: [    0.1060606,    0.0000000,    0.0000000 ]
  distance:    0.0357789
  band:
  - # 1
    frequency:   -4.7490637171
  - # 2
    frequency:   -4.1839842449
  - # 3
    frequency:   -2.1209220815
  - # 4
    frequency:   -2.0046930724
  - # 5
    frequency:    0.7188646153
  - # 6
    frequency:    1.4667666053
  - # 7
    frequency:    2.2958637460
  - # 8
    frequency:    3.9203450036
  - # 9
    frequency:    4.2270189393
  - # 10
    frequency:    5.6300913000
  - # 11
    frequency:    7.4673455804
  - # 12
    frequency:    7.6747970610
  - # 13
    frequency:    8.3683839786
  - # 14
    frequency:    8.7313185346
  - # 15
    frequency:   10.7681736691
  - # 16
    frequency:   10.8872831722
  - # 17
    frequency:   14.5927880169
  - # 18
    frequency:   14.7498232084
  - # 19
    frequency:   15.9229959519
  - # 20
    frequency:   39.2000511313
  - # 21
    frequency:   60.6573288363

- q-position: [    0.1111111,    0.0000000,    0.0000000 ]
  distance:    0.0374826
  band:
  - # 1
    frequency:   -4.7566291872
  - # 2
    frequency:   -4.1386756032
  - # 3
    frequency:   -2.1103866826
  - # 4
    frequency:   -1.9828803105
  - # 5
    frequency:    0.7777868229
  - # 6
    frequency:    1.5338635753
  - # 7
    frequency:    2.3972339869
  - # 8
    frequency:    3.9374224373
  - # 9
    frequency:    4.2661437306
  - # 10
    frequency:    5.6329761412
  - # 11
    frequency:    7.4698242207
  - # 12
    frequency:    7.6885635801
  - # 13
    frequency:    8.3568520270
  - # 14
    frequency:    8.7241061899
  - # 15
    frequency:   10.7673899030
  - # 16
    frequency:   10.8968518610
  - # 17
    frequency:   14.5848585270
  - # 18
    frequency:   14.7588242287
  - # 19
    frequency:   15.9264378367
  - # 20
    frequency:   39.1768780800
  - # 21
    frequency:   60.6533158270

- q-position: [    0.1161616,    0.0000000,    0.0000000 ]
  distance:    0.0391864
  band:
  - # 1
    frequency:   -4.7645001583
  - # 2
    frequency:   -4.0914823950
  - # 3
    frequency:   -2.0996051734
  - # 4
    frequency:   -1.9601833453
  - # 5
    frequency:    0.8377837751
  - # 6
    frequency:    1.6005171935
  - # 7
    frequency:    2.4972156922
  - # 8
    frequency:    3.9550905959
  - # 9
    frequency:    4.3058204529
  - # 10
    frequency:    5.6360808674
  - # 11
    frequency:    7.4724757880
  - # 12
    frequency:    7.7016464372
  - # 13
    frequency:    8.3459582242
  - # 14
    frequency:    8.7173941589
  - # 15
    frequency:   10.7665613771
  - # 16
    frequency:   10.9068386305
  - # 17
    frequency:   14.5766990092
  - # 18
    frequency:   14.7686084178
  - # 19
    frequency:   15.9296988489
  - # 20
    frequency:   39.1528964056
  - # 21
    frequency:   60.6491948149

- q-position: [    0.1212121,    0.0000000,    0.0000000 ]
  distance:    0.0408901
  band:
  - # 1
    frequency:   -4.7726659200
  - # 2
    frequency:   -4.0423925189
  - # 3
    frequency:   -2.0886068937
  - # 4
    frequency:   -1.9365929504
  - # 5
    frequency:    0.8987251895
  - # 6
    frequency:    1.6666993847
  - # 7
    frequency:    2.5957021088
  - # 8
    frequency:    3.9733234793
  - # 9
    frequency:    4.3459567638
  - # 10
    frequency:    5.6394177943
  - # 11
    frequency:    7.4752992379
  - # 12
    frequency:    7.7139691310
  - # 13
    frequency:    8.3358353389
  - # 14
    frequency:    8.7111662194
  - # 15
    frequency:   10.7656924515
  - # 16
    frequency:   10.9172773787
  - # 17
    frequency:   14.5683261766
  - # 18
    frequency:   14.7792033129
  - # 19
    frequency:   15.9327562905
  - # 20
    frequency:   39.1281399188
  - # 21
    frequency:   60.6449751993

- q-position: [    0.1262626,    0.0000000,    0.0000000 ]
  distance:    0.0425939
  band:
  - # 1
    frequency:   -4.7811147476
  - # 2
    frequency:   -3.9913860648
  - # 3
    frequency:   -2.0774220598
  - # 4
    frequency:   -1.9120976688
  - # 5
    frequency:    0.9604893626
  - # 6
    frequency:    1.7323822568
  - # 7
    frequency:    2.6925856092
  - # 8
    frequency:    3.9920943788
  - # 9
    frequency:    4.3864651554
  - # 10
    frequency:    5.6430001511
  - # 11
    frequency:    7.4782919425
  - # 12
    frequency:    7.7254818561
  - # 13
    frequency:    8.3265862408
  - # 14
    frequency:    8.7054055227
  - # 15
    frequency:   10.7647885345
  - # 16
    frequency:   10.9282051820
  - # 17
    frequency:   14.5597570669
  - # 18
    frequency:   14.7906335025
  - # 19
    frequency:   15.9355903733
  - # 20
    frequency:   39.1026433196
  - # 21
    frequency:   60.6406665217

- q-position: [    0.1313131,    0.0000000,    0.0000000 ]
  distance:    0.0442976
  band:
  - # 1
    frequency:   -4.7898339295
  - # 2
    frequency:   -3.9384349277
  - # 3
    frequency:   -2.0660817728
  - # 4
    frequency:   -1.8866845184
  - # 5
    frequency:    1.0229637007
  - # 6
    frequency:    1.7975382343
  - # 7
    frequency:    2.7877584560
  - # 8
    frequency:    4.0113759438
  - # 9
    frequency:    4.4272628810
  - # 10
    frequency:    5.6468421418
  - # 11
    frequency:    7.4814496076
  - # 12
    frequency:    7.7361649689
  - # 13
    frequency:    8.3182786532
  - # 14
    frequency:    8.7000964016
  - # 15
    frequency:   10.7638561035
  - # 16
    frequency:   10.9396616407
  - # 17
    frequency:   14.5510090049
  - # 18
    frequency:   14.8029201924
  - # 19
    frequency:   15.9381844795
  - # 20
    frequency:   39.0764421259
  - # 21
    frequency:   60.6362784348

- q-position: [    0.1363636,    0.0000000,    0.0000000 ]
  distance:    0.0460014
  band:
  - # 1
    frequency:   -4.7988098057
  - # 2
    frequency:   -3.8835024734
  - # 3
    frequency:   -2.0546180254
  - # 4
    frequency:   -1.8603397672
  - # 5
    frequency:    1.0860450873
  - # 6
    frequency:    1.8621401830
  - # 7
    frequency:    2.8811136209
  - # 8
    frequency:    4.0311402526
  - # 9
    frequency:    4.4682718681
  - # 10
    frequency:    5.6509590001
  - # 11
    frequency:    7.4847662053
  - # 12
    frequency:    7.7460309653
  - # 13
    frequency:    8.3109417905
  - # 14
    frequency:    8.6952257339
  - # 15
    frequency:   10.7629027135
  - # 16
    frequency:   10.9516882258
  - # 17
    frequency:   14.5420995655
  - # 18
    frequency:   14.8160807514
  - # 19
    frequency:   15.9405254218
  - # 20
    frequency:   39.0495726012
  - # 21
    frequency:   60.6318206718

- q-position: [    0.1414141,    0.0000000,    0.0000000 ]
  distance:    0.0477052
  band:
  - # 1
    frequency:   -4.8080278165
  - # 2
    frequency:   -3.8265432457
  - # 3
    frequency:   -2.0430637036
  - # 4
    frequency:   -1.8330497353
  - # 5
    frequency:    1.1496400794
  - # 6
    frequency:    1.9261615265
  - # 7
    frequency:    2.9725456488
  - # 8
    frequency:    4.0513588839
  - # 9
    frequency:    4.5094186281
  - # 10
    frequency:    5.6553670368
  - # 11
    frequency:    7.4882339237
  - # 12
    frequency:    7.7551244655
  - # 13
    frequency:    8.3045652696
  - # 14
    frequency:    8.6907839571
  - # 15
    frequency:   10.7619369937
  - # 16
    frequency:   10.9643276426
  - # 17
    frequency:   14.5330465366
  - # 18
    frequency:   14.8301282332
  - # 19
    frequency:   15.9426037096
  - # 20
    frequency:   39.0220716815
  - # 21
    frequency:   60.6273030161

- q-position: [    0.1464646,    0.0000000,    0.0000000 ]
  distance:    0.0494089
  band:
  - # 1
    frequency:   -4.8174725618
  - # 2
    frequency:   -3.7675027033
  - # 3
    frequency:   -2.0314525825
  - # 4
    frequency:   -1.8048015746
  - # 5
    frequency:    1.2136649308
  - # 6
    frequency:    1.9895763524
  - # 7
    frequency:    3.0619515611
  - # 8
    frequency:    4.0720029906
  - # 9
    frequency:    4.5506341677
  - # 10
    frequency:    5.6600836763
  - # 11
    frequency:    7.4918431339
  - # 12
    frequency:    7.7635199071
  - # 13
    frequency:    8.2991004849
  - # 14
    frequency:    8.6867658327
  - # 15
    frequency:   10.7609686317
  - # 16
    frequency:   10.9776232313
  - # 17
    frequency:   14.5238678826
  - # 18
    frequency:   14.8450708747
  - # 19
    frequency:   15.9444138265
  - # 20
    frequency:   38.9939769007
  - # 21
    frequency:   60.6227352700

- q-position: [    0.1515152,    0.0000000,    0.0000000 ]
  distance:    0.0511127
  band:
  - # 1
    frequency:   -4.8271278696
  - # 2
    frequency:   -3.7063169697
  - # 3
    frequency:   -2.0198193129
  - # 4
    frequency:   -1.7755839798
  - # 5
    frequency:    1.2780454479
  - # 6
    frequency:    2.0523595087
  - # 7
    frequency:    3.1492317903
  - # 8
    frequency:    4.0930433757
  - # 9
    frequency:    4.5918539045
  - # 10
    frequency:    5.6651274835
  - # 11
    frequency:    7.4955823759
  - # 12
    frequency:    7.7713169553
  - # 13
    frequency:    8.2944643464
  - # 14
    frequency:    8.6831710388
  - # 15
    frequency:   10.7600083452
  - # 16
    frequency:   10.9916184174
  - # 17
    frequency:   14.5145817077
  - # 18
    frequency:   14.8609115638
  - # 19
    frequency:   15.9459545258
  - # 20
    frequency:   38.9653263160
  - # 21
    frequency:   60.6181272237