nqpoint: 300    
npath: 3      
segment_nqpoint:
- 100
- 100
- 100
labels:
- [ 'G', 'M' ]
- [ 'M', 'K' ]
- [ 'K', 'G' ]
reciprocal_lattice:
- [   0.30250522,   0.17465147,   0.00000000 ] # a*
- [   0.00000000,   0.34930294,   0.00000000 ] # b*
- [   0.00000000,   0.00000000,   0.03727195 ] # c*
natom: 8      
lattice:
- [     3.305728056973795,     0.000000000000000,     0.000000000000000 ] # a
- [    -1.652864028486897,     2.862844475338413,     0.000000000000000 ] # b
- [     0.000000000000000,     0.000000000000000,    26.829826068302442 ] # c
points:
- symbol: C # 1
  coordinates: [  0.333332985432215,  0.666666983183674,  0.619803465946277 ]
  mass: 12.010700
- symbol: C # 2
  coordinates: [  0.666666984744047,  0.333332985985145,  0.379720466151215 ]
  mass: 12.010700
- symbol: N # 3
  coordinates: [  0.000000000000000,  0.000000000000000,  0.519776909008988 ]
  mass: 14.006700
- symbol: N # 4
  coordinates: [  0.333332985432215,  0.666666983183674,  0.664552428439599 ]
  mass: 14.006700
- symbol: N # 5
  coordinates: [  0.666666984744047,  0.333332985985145,  0.335447571560401 ]
  mass: 14.006700
- symbol: O # 6
  coordinates: [  0.666666984744047,  0.333332985985145,  0.429581680702055 ]
  mass: 15.999400
- symbol: Sc # 7
  coordinates: [  0.333332985432215,  0.666666983183674,  0.476159070247430 ]
  mass: 44.955912
- symbol: Sc # 8
  coordinates: [  0.666666984744047,  0.333332985985145,  0.566642912147317 ]
  mass: 44.955912

phonon:
- q-position: [    0.0000000,    0.0000000,    0.0000000 ]
  distance:    0.0000000
  band:
  - # 1
    frequency:   -1.9933314086
  - # 2
    frequency:   -1.9933314086
  - # 3
    frequency:   -1.2833113710
  - # 4
    frequency:   -1.2833113710
  - # 5
    frequency:   -0.0000135217
  - # 6
    frequency:   -0.0000001273
  - # 7
    frequency:    0.0000109361
  - # 8
    frequency:    4.8998082265
  - # 9
    frequency:    4.8998082265
  - # 10
    frequency:    5.8801717444
  - # 11
    frequency:    7.6038484226
  - # 12
    frequency:    7.6038484226
  - # 13
    frequency:    8.9578698859
  - # 14
    frequency:    8.9578698859
  - # 15
    frequency:    9.3706881334
  - # 16
    frequency:   11.1831021371
  - # 17
    frequency:   13.5285507547
  - # 18
    frequency:   13.5285507547
  - # 19
    frequency:   13.8381099796
  - # 20
    frequency:   13.8381099796
  - # 21
    frequency:   14.1091330237
  - # 22
    frequency:   32.0256416256
  - # 23
    frequency:   61.7030198148
  - # 24
    frequency:   67.9855249427

- q-position: [    0.0050505,    0.0000000,    0.0000000 ]
  distance:    0.0017642
  band:
  - # 1
    frequency:   -1.9931658129
  - # 2
    frequency:   -1.9928267217
  - # 3
    frequency:   -1.2823072201
  - # 4
    frequency:   -1.2805724854
  - # 5
    frequency:    0.0023711064
  - # 6
    frequency:    0.0991303351
  - # 7
    frequency:    0.1079058051
  - # 8
    frequency:    4.8995643123
  - # 9
    frequency:    4.9004874658
  - # 10
    frequency:    5.8802063844
  - # 11
    frequency:    7.6036274805
  - # 12
    frequency:    7.6038914516
  - # 13
    frequency:    8.9578820867
  - # 14
    frequency:    8.9581451802
  - # 15
    frequency:    9.3704697511
  - # 16
    frequency:   11.1820096979
  - # 17
    frequency:   13.5282560344
  - # 18
    frequency:   13.5283386534
  - # 19
    frequency:   13.8378304468
  - # 20
    frequency:   13.8380730333
  - # 21
    frequency:   14.1094093174
  - # 22
    frequency:   32.0251099340
  - # 23
    frequency:   61.7029417627
  - # 24
    frequency:   67.9852651698

- q-position: [    0.0101010,    0.0000000,    0.0000000 ]
  distance:    0.0035283
  band:
  - # 1
    frequency:   -1.9926810775
  - # 2
    frequency:   -1.9913270724
  - # 3
    frequency:   -1.2793072685
  - # 4
    frequency:   -1.2723362029
  - # 5
    frequency:    0.0094952823
  - # 6
    frequency:    0.1983874732
  - # 7
    frequency:    0.2159009272
  - # 8
    frequency:    4.8988367054
  - # 9
    frequency:    4.9025222455
  - # 10
    frequency:    5.8803104282
  - # 11
    frequency:    7.6029656027
  - # 12
    frequency:    7.6040192626
  - # 13
    frequency:    8.9579176061
  - # 14
    frequency:    8.9589716778
  - # 15
    frequency:    9.3698172759
  - # 16
    frequency:   11.1787345997
  - # 17
    frequency:   13.5273683755
  - # 18
    frequency:   13.5277018425
  - # 19
    frequency:   13.8370031129
  - # 20
    frequency:   13.8379627537
  - # 21
    frequency:   14.1102295540
  - # 22
    frequency:   32.0235162436
  - # 23
    frequency:   61.7027077644
  - # 24
    frequency:   67.9844864150

- q-position: [    0.0151515,    0.0000000,    0.0000000 ]
  distance:    0.0052925
  band:
  - # 1
    frequency:   -1.9919123015
  - # 2
    frequency:   -1.9888751353
  - # 3
    frequency:   -1.2743475620
  - # 4
    frequency:   -1.2585432047
  - # 5
    frequency:    0.0214066794
  - # 6
    frequency:    0.2978836162
  - # 7
    frequency:    0.3240706369
  - # 8
    frequency:    4.8976377951
  - # 9
    frequency:    4.9059037779
  - # 10
    frequency:    5.8804842540
  - # 11
    frequency:    7.6018656175
  - # 12
    frequency:    7.6042280632
  - # 13
    frequency:    8.9579732078
  - # 14
    frequency:    8.9603511468
  - # 15
    frequency:    9.3687387478
  - # 16
    frequency:   11.1732835046
  - # 17
    frequency:   13.5258773878
  - # 18
    frequency:   13.5266388095
  - # 19
    frequency:   13.8356609611
  - # 20
    frequency:   13.8377808125
  - # 21
    frequency:   14.1115685148
  - # 22
    frequency:   32.0208647016
  - # 23
    frequency:   61.7023182930
  - # 24
    frequency:   67.9831903672

- q-position: [    0.0202020,    0.0000000,    0.0000000 ]
  distance:    0.0070566
  band:
  - # 1
    frequency:   -1.9909146080
  - # 2
    frequency:   -1.9855402270
  - # 3
    frequency:   -1.2674835261
  - # 4
    frequency:   -1.2390931156
  - # 5
    frequency:    0.0381654550
  - # 6
    frequency:    0.3977035451
  - # 7
    frequency:    0.4324922662
  - # 8
    frequency:    4.8959881723
  - # 9
    frequency:    4.9106175024
  - # 10
    frequency:    5.8807285125
  - # 11
    frequency:    7.6003321847
  - # 12
    frequency:    7.6045116498
  - # 13
    frequency:    8.9580435402
  - # 14
    frequency:    8.9622862805
  - # 15
    frequency:    9.3672476526
  - # 16
    frequency:   11.1656675324
  - # 17
    frequency:   13.5237661058
  - # 18
    frequency:   13.5251470579
  - # 19
    frequency:   13.8338563874
  - # 20
    frequency:   13.8375299744
  - # 21
    frequency:   14.1133864265
  - # 22
    frequency:   32.0171622040
  - # 23
    frequency:   61.7017741357
  - # 24
    frequency:   67.9813798353

- q-position: [    0.0252525,    0.0000000,    0.0000000 ]
  distance:    0.0088208
  band:
  - # 1
    frequency:   -1.9897585676
  - # 2
    frequency:   -1.9814157900
  - # 3
    frequency:   -1.2587836852
  - # 4
    frequency:   -1.2138421620
  - # 5
    frequency:    0.0598633858
  - # 6
    frequency:    0.4978950957
  - # 7
    frequency:    0.5412316298
  - # 8
    frequency:    4.8939165403
  - # 9
    frequency:    4.9166432130
  - # 10
    frequency:    5.8810441592
  - # 11
    frequency:    7.5983717148
  - # 12
    frequency:    7.6048615830
  - # 13
    frequency:    8.9581211985
  - # 14
    frequency:    8.9647803116
  - # 15
    frequency:    9.3653630570
  - # 16
    frequency:   11.1559022813
  - # 17
    frequency:   13.5210115231
  - # 18
    frequency:   13.5232231454
  - # 19
    frequency:   13.8316577364
  - # 20
    frequency:   13.8372140652
  - # 21
    frequency:   14.1156319401
  - # 22
    frequency:   32.0124183693
  - # 23
    frequency:   61.7010763911
  - # 24
    frequency:   67.9790587386

- q-position: [    0.0303030,    0.0000000,    0.0000000 ]
  distance:    0.0105849
  band:
  - # 1
    frequency:   -1.9885246694
  - # 2
    frequency:   -1.9766162182
  - # 3
    frequency:   -1.2483221710
  - # 4
    frequency:   -1.1825999457
  - # 5
    frequency:    0.0866327850
  - # 6
    frequency:    0.5984639123
  - # 7
    frequency:    0.6503399494
  - # 8
    frequency:    4.8914595872
  - # 9
    frequency:    4.9239552298
  - # 10
    frequency:    5.8814325006
  - # 11
    frequency:    7.5959922592
  - # 12
    frequency:    7.6052674320
  - # 13
    frequency:    8.9581968109
  - # 14
    frequency:    8.9678364594
  - # 15
    frequency:    9.3631098110
  - # 16
    frequency:   11.1440078542
  - # 17
    frequency:   13.5175853538
  - # 18
    frequency:   13.5208627354
  - # 19
    frequency:   13.8291451317
  - # 20
    frequency:   13.8368379278
  - # 21
    frequency:   14.1182456136
  - # 22
    frequency:   32.0066455044
  - # 23
    frequency:   61.7002264663
  - # 24
    frequency:   67.9762320933

- q-position: [    0.0353535,    0.0000000,    0.0000000 ]
  distance:    0.0123491
  band:
  - # 1
    frequency:   -1.9872975287
  - # 2
    frequency:   -1.9712732878
  - # 3
    frequency:   -1.2361710717
  - # 4
    frequency:   -1.1451259123
  - # 5
    frequency:    0.1186600546
  - # 6
    frequency:    0.6993727651
  - # 7
    frequency:    0.7598514738
  - # 8
    frequency:    4.8886618163
  - # 9
    frequency:    4.9325226121
  - # 10
    frequency:    5.8818952560
  - # 11
    frequency:    7.5932033742
  - # 12
    frequency:    7.6057170868
  - # 13
    frequency:    8.9582591454
  - # 14
    frequency:    8.9714572003
  - # 15
    frequency:    9.3605188341
  - # 16
    frequency:   11.1300088853
  - # 17
    frequency:   13.5134550190
  - # 18
    frequency:   13.5180606636
  - # 19
    frequency:   13.8264060529
  - # 20
    frequency:   13.8364073643
  - # 21
    frequency:   14.1211634469
  - # 22
    frequency:   31.9998585595
  - # 23
    frequency:   61.6992260722
  - # 24
    frequency:   67.9729059965

- q-position: [    0.0404040,    0.0000000,    0.0000000 ]
  distance:    0.0141133
  band:
  - # 1
    frequency:   -1.9861604802
  - # 2
    frequency:   -1.9655324252
  - # 3
    frequency:   -1.2223936064
  - # 4
    frequency:   -1.1011271867
  - # 5
    frequency:    0.1562055385
  - # 6
    frequency:    0.8005449849
  - # 7
    frequency:    0.8697819653
  - # 8
    frequency:    4.8855753315
  - # 9
    frequency:    4.9423094045
  - # 10
    frequency:    5.8824346375
  - # 11
    frequency:    7.5900159608
  - # 12
    frequency:    7.6061971363
  - # 13
    frequency:    8.9582952377
  - # 14
    frequency:    8.9756433425
  - # 15
    frequency:    9.3576275024
  - # 16
    frequency:   11.1139345641
  - # 17
    frequency:   13.5085848444
  - # 18
    frequency:   13.5148110188
  - # 19
    frequency:   13.8235310330
  - # 20
    frequency:   13.8359290681
  - # 21
    frequency:   14.1243201139
  - # 22
    frequency:   31.9920750736
  - # 23
    frequency:   61.6980772190
  - # 24
    frequency:   67.9690876052

- q-position: [    0.0454545,    0.0000000,    0.0000000 ]
  distance:    0.0158774
  band:
  - # 1
    frequency:   -1.9851910710
  - # 2
    frequency:   -1.9595489713
  - # 3
    frequency:   -1.2070388276
  - # 4
    frequency:   -1.0502615869
  - # 5
    frequency:    0.1996312584
  - # 6
    frequency:    0.9018709820
  - # 7
    frequency:    0.9801281590
  - # 8
    frequency:    4.8822595723
  - # 9
    frequency:    4.9532749108
  - # 10
    frequency:    5.8830534506
  - # 11
    frequency:    7.5864420857
  - # 12
    frequency:    7.6066933085
  - # 13
    frequency:    8.9582905362
  - # 14
    frequency:    8.9803928852
  - # 15
    frequency:    9.3544801658
  - # 16
    frequency:   11.0958186512
  - # 17
    frequency:   13.5029374337
  - # 18
    frequency:   13.5111072369
  - # 19
    frequency:   13.8206097355
  - # 20
    frequency:   13.8354105421
  - # 21
    frequency:   14.1276516712
  - # 22
    frequency:   31.9833151114
  - # 23
    frequency:   61.6967822097
  - # 24
    frequency:   67.9647851130

- q-position: [    0.0505051,    0.0000000,    0.0000000 ]
  distance:    0.0176416
  band:
  - # 1
    frequency:   -1.9844577600
  - # 2
    frequency:   -1.9534844971
  - # 3
    frequency:   -1.1901381428
  - # 4
    frequency:   -0.9921533690
  - # 5
    frequency:    0.2494361347
  - # 6
    frequency:    1.0032165147
  - # 7
    frequency:    1.0908682054
  - # 8
    frequency:    4.8787809945
  - # 9
    frequency:    4.9653739865
  - # 10
    frequency:    5.8837552175
  - # 11
    frequency:    7.5824947865
  - # 12
    frequency:    7.6071909664
  - # 13
    frequency:    8.9582290620
  - # 14
    frequency:    8.9856996353
  - # 15
    frequency:    9.3511288263
  - # 16
    frequency:   11.0756994832
  - # 17
    frequency:   13.4964751544
  - # 18
    frequency:   13.5069422071
  - # 19
    frequency:   13.8177275601
  - # 20
    frequency:   13.8348600085
  - # 21
    frequency:   14.1310976582
  - # 22
    frequency:   31.9736011907
  - # 23
    frequency:   61.6953436335
  - # 24
    frequency:   67.9600077225

- q-position: [    0.0555556,    0.0000000,    0.0000000 ]
  distance:    0.0194057
  band:
  - # 1
    frequency:   -1.9840179187
  - # 2
    frequency:   -1.9475031311
  - # 3
    frequency:   -1.1717035419
  - # 4
    frequency:   -0.9264343350
  - # 5
    frequency:    0.3062905462
  - # 6
    frequency:    1.1044313932
  - # 7
    frequency:    1.2019629884
  - # 8
    frequency:    4.8752126903
  - # 9
    frequency:    4.9785573410
  - # 10
    frequency:    5.8845443283
  - # 11
    frequency:    7.5781878655
  - # 12
    frequency:    7.6076756548
  - # 13
    frequency:    8.9580935826
  - # 14
    frequency:    8.9915515500
  - # 15
    frequency:    9.3476340184
  - # 16
    frequency:   11.0536199614
  - # 17
    frequency:   13.4891616504
  - # 18
    frequency:   13.5023083894
  - # 19
    frequency:   13.8149628539
  - # 20
    frequency:   13.8342863071
  - # 21
    frequency:   14.1346026007
  - # 22
    frequency:   31.9629582010
  - # 23
    frequency:   61.6937643583
  - # 24
    frequency:   67.9547656153

- q-position: [    0.0606061,    0.0000000,    0.0000000 ]
  distance:    0.0211699
  band:
  - # 1
    frequency:   -1.9839170385
  - # 2
    frequency:   -1.9417677960
  - # 3
    frequency:   -1.1517271191
  - # 4
    frequency:   -0.8528237640
  - # 5
    frequency:    0.3710398517
  - # 6
    frequency:    1.2053575729
  - # 7
    frequency:    1.3133581134
  - # 8
    frequency:    4.8716339445
  - # 9
    frequency:    4.9927718404
  - # 10
    frequency:    5.8854262239
  - # 11
    frequency:    7.5735356777
  - # 12
    frequency:    7.6081336859
  - # 13
    frequency:    8.9578657954
  - # 14
    frequency:    8.9979287721
  - # 15
    frequency:    9.3440659353
  - # 16
    frequency:   11.0296275234
  - # 17
    frequency:   13.4809632810
  - # 18
    frequency:   13.4971979416
  - # 19
    frequency:   13.8123847544
  - # 20
    frequency:   13.8336987870
  - # 21
    frequency:   14.1381169936
  - # 22
    frequency:   31.9514133142
  - # 23
    frequency:   61.6920475219
  - # 24
    frequency:   67.9490699185

- q-position: [    0.0656566,    0.0000000,    0.0000000 ]
  distance:    0.0229340
  band:
  - # 1
    frequency:   -1.9841889281
  - # 2
    frequency:   -1.9364362476
  - # 3
    frequency:   -1.1301813384
  - # 4
    frequency:   -0.7712315098
  - # 5
    frequency:    0.4445985511
  - # 6
    frequency:    1.3058359823
  - # 7
    frequency:    1.4249862894
  - # 8
    frequency:    4.8681297185
  - # 9
    frequency:    5.0079608013
  - # 10
    frequency:    5.8864076143
  - # 11
    frequency:    7.5685529159
  - # 12
    frequency:    7.6085527539
  - # 13
    frequency:    8.9575265189
  - # 14
    frequency:    9.0048013235
  - # 15
    frequency:    9.3405058451
  - # 16
    frequency:   11.0037740937
  - # 17
    frequency:   13.4718503818
  - # 18
    frequency:   13.4916028540
  - # 19
    frequency:   13.8100516695
  - # 20
    frequency:   13.8331071912
  - # 21
    frequency:   14.1415978599
  - # 22
    frequency:   31.9389958874
  - # 23
    frequency:   61.6901965228
  - # 24
    frequency:   67.9429326679

- q-position: [    0.0707071,    0.0000000,    0.0000000 ]
  distance:    0.0246982
  band:
  - # 1
    frequency:   -1.9848566238
  - # 2
    frequency:   -1.9316568701
  - # 3
    frequency:   -1.1070194888
  - # 4
    frequency:   -0.6817382225
  - # 5
    frequency:    0.5276025091
  - # 6
    frequency:    1.4057118082
  - # 7
    frequency:    1.5367698207
  - # 8
    frequency:    4.8647900612
  - # 9
    frequency:    5.0240642662
  - # 10
    frequency:    5.8874967407
  - # 11
    frequency:    7.5632543991
  - # 12
    frequency:    7.6089225634
  - # 13
    frequency:    8.9570558897
  - # 14
    frequency:    9.0121264401
  - # 15
    frequency:    9.3370478307
  - # 16
    frequency:   10.9761160153
  - # 17
    frequency:   13.4617982636
  - # 18
    frequency:   13.4855150889
  - # 19
    frequency:   13.8080103747
  - # 20
    frequency:   13.8325215373
  - # 21
    frequency:   14.1450089906
  - # 22
    frequency:   31.9257373580
  - # 23
    frequency:   61.6882150104
  - # 24
    frequency:   67.9363667692

- q-position: [    0.0757576,    0.0000000,    0.0000000 ]
  distance:    0.0264623
  band:
  - # 1
    frequency:   -1.9859337381
  - # 2
    frequency:   -1.9275643013
  - # 3
    frequency:   -1.0821758420
  - # 4
    frequency:   -0.5839876744
  - # 5
    frequency:    0.6197713721
  - # 6
    frequency:    1.5048382567
  - # 7
    frequency:    1.6486229546
  - # 8
    frequency:    4.8617094386
  - # 9
    frequency:    5.0410192490
  - # 10
    frequency:    5.8887036852
  - # 11
    frequency:    7.5576548669
  - # 12
    frequency:    7.6092354560
  - # 13
    frequency:    8.9564335617
  - # 14
    frequency:    9.0198455650
  - # 15
    frequency:    9.3338008480
  - # 16
    frequency:   10.9467139612
  - # 17
    frequency:   13.4507878945
  - # 18
    frequency:   13.4789267231
  - # 19
    frequency:   13.8062956900
  - # 20
    frequency:   13.8319519968
  - # 21
    frequency:   14.1483209548
  - # 22
    frequency:   31.9116711321
  - # 23
    frequency:   61.6861068740
  - # 24
    frequency:   67.9293859560

- q-position: [    0.0808081,    0.0000000,    0.0000000 ]
  distance:    0.0282265
  band:
  - # 1
    frequency:   -1.9874260085
  - # 2
    frequency:   -1.9242751030
  - # 3
    frequency:   -1.0555651162
  - # 4
    frequency:   -0.4750670476
  - # 5
    frequency:    0.7193670180
  - # 6
    frequency:    1.6030789880
  - # 7
    frequency:    1.7604539017
  - # 8
    frequency:    4.8589859827
  - # 9
    frequency:    5.0587599418
  - # 10
    frequency:    5.8900407368
  - # 11
    frequency:    7.5517687849
  - # 12
    frequency:    7.6094870170
  - # 13
    frequency:    8.9556389063
  - # 14
    frequency:    9.0278810948
  - # 15
    frequency:    9.3308910252
  - # 16
    frequency:   10.9156328295
  - # 17
    frequency:   13.4388062562
  - # 18
    frequency:   13.4718300905
  - # 19
    frequency:   13.8049306675
  - # 20
    frequency:   13.8314087742
  - # 21
    frequency:   14.1515109535
  - # 22
    frequency:   31.8968324664
  - # 23
    frequency:   61.6838762316
  - # 24
    frequency:   67.9220047455

- q-position: [    0.0858586,    0.0000000,    0.0000000 ]
  distance:    0.0299907
  band:
  - # 1
    frequency:   -1.9893328667
  - # 2
    frequency:   -1.9218838281
  - # 3
    frequency:   -1.0270809017
  - # 4
    frequency:   -0.3433621867
  - # 5
    frequency:    0.8234774830
  - # 6
    frequency:    1.7003095001
  - # 7
    frequency:    1.8721664247
  - # 8
    frequency:    4.8567206548
  - # 9
    frequency:    5.0772178739
  - # 10
    frequency:    5.8915228210
  - # 11
    frequency:    7.5456101644
  - # 12
    frequency:    7.6096766433
  - # 13
    frequency:    8.9546512105
  - # 14
    frequency:    9.0361331207
  - # 15
    frequency:    9.3284639743
  - # 16
    frequency:   10.8829416256
  - # 17
    frequency:   13.4258464053
  - # 18
    frequency:   13.4642179218
  - # 19
    frequency:   13.8039271998
  - # 20
    frequency:   13.8309019907
  - # 21
    frequency:   14.1545625746
  - # 22
    frequency:   31.8812583438
  - # 23
    frequency:   61.6815274177
  - # 24
    frequency:   67.9142383923

- q-position: [    0.0909091,    0.0000000,    0.0000000 ]
  distance:    0.0317548
  band:
  - # 1
    frequency:   -1.9916489067
  - # 2
    frequency:   -1.9204599062
  - # 3
    frequency:   -0.9965926947
  - # 4
    frequency:   -0.1205111082
  - # 5
    frequency:    0.9290975317
  - # 6
    frequency:    1.7964177480
  - # 7
    frequency:    1.9836609648
  - # 8
    frequency:    4.8550163264
  - # 9
    frequency:    5.0963220121
  - # 10
    frequency:    5.8931680003
  - # 11
    frequency:    7.5391924007
  - # 12
    frequency:    7.6098080533
  - # 13
    frequency:    8.9534498720
  - # 14
    frequency:    9.0444766540
  - # 15
    frequency:    9.3266866427
  - # 16
    frequency:   10.8487133390
  - # 17
    frequency:   13.4119073038
  - # 18
    frequency:   13.4560834792
  - # 19
    frequency:   13.8032869348
  - # 20
    frequency:   13.8304415721
  - # 21
    frequency:   14.1574654885
  - # 22
    frequency:   31.8649873443
  - # 23
    frequency:   61.6790649708
  - # 24
    frequency:   67.9061028392

- q-position: [    0.0959596,    0.0000000,    0.0000000 ]
  distance:    0.0335190
  band:
  - # 1
    frequency:   -1.9943651849
  - # 2
    frequency:   -1.9200457558
  - # 3
    frequency:   -0.9639410857
  - # 4
    frequency:    0.2972352237
  - # 5
    frequency:    1.0340125887
  - # 6
    frequency:    1.8913042448
  - # 7
    frequency:    2.0948353352
  - # 8
    frequency:    4.8539767768
  - # 9
    frequency:    5.1159987949
  - # 10
    frequency:    5.8949980538
  - # 11
    frequency:    7.5325281314
  - # 12
    frequency:    7.6098897193
  - # 13
    frequency:    8.9520145873
  - # 14
    frequency:    9.0527601833
  - # 15
    frequency:    9.3257478655
  - # 16
    frequency:   10.8130248194
  - # 17
    frequency:   13.3969935041
  - # 18
    frequency:   13.4474206830
  - # 19
    frequency:   13.8030023828
  - # 20
    frequency:   13.8300371457
  - # 21
    frequency:   14.1602151143
  - # 22
    frequency:   31.8480595103
  - # 23
    frequency:   61.6764936201
  - # 24
    frequency:   67.8976146678

- q-position: [    0.1010101,    0.0000000,    0.0000000 ]
  distance:    0.0352831
  band:
  - # 1
    frequency:   -1.9974703189
  - # 2
    frequency:   -1.9206564168
  - # 3
    frequency:   -0.9289304280
  - # 4
    frequency:    0.4407078550
  - # 5
    frequency:    1.1369600720
  - # 6
    frequency:    1.9848818467
  - # 7
    frequency:    2.2055850419
  - # 8
    frequency:    4.8537056156
  - # 9
    frequency:    5.1361720940
  - # 10
    frequency:    5.8970391412
  - # 11
    frequency:    7.5256291202
  - # 12
    frequency:    7.6099352051
  - # 13
    frequency:    8.9503255336
  - # 14
    frequency:    9.0608068535
  - # 15
    frequency:    9.3258563428
  - # 16
    frequency:   10.7759566642
  - # 17
    frequency:   13.3811147701
  - # 18
    frequency:   13.4382242287
  - # 19
    frequency:   13.8030581026
  - # 20
    frequency:   13.8296979467
  - # 21
    frequency:   14.1628122738
  - # 22
    frequency:   31.8305162083
  - # 23
    frequency:   61.6738182720
  - # 24
    frequency:   67.8887910455

- q-position: [    0.1060606,    0.0000000,    0.0000000 ]
  distance:    0.0370473
  band:
  - # 1
    frequency:   -2.0009513865
  - # 2
    frequency:   -1.9222808083
  - # 3
    frequency:   -0.8913178859
  - # 4
    frequency:    0.5529975930
  - # 5
    frequency:    1.2373746000
  - # 6
    frequency:    2.0770753651
  - # 7
    frequency:    2.3158033128
  - # 8
    frequency:    4.8543051355
  - # 9
    frequency:    5.1567630981
  - # 10
    frequency:    5.8993225554
  - # 11
    frequency:    7.5185061653
  - # 12
    frequency:    7.6099633913
  - # 13
    frequency:    8.9483635407
  - # 14
    frequency:    9.0684198760
  - # 15
    frequency:    9.3272344331
  - # 16
    frequency:   10.7375931287
  - # 17
    frequency:   13.3642857107
  - # 18
    frequency:   13.4284896927
  - # 19
    frequency:   13.8034318788
  - # 20
    frequency:   13.8294327352
  - # 21
    frequency:   14.1652628445
  - # 22
    frequency:   31.8123999863
  - # 23
    frequency:   61.6710439957
  - # 24
    frequency:   67.8796496731

- q-position: [    0.1111111,    0.0000000,    0.0000000 ]
  distance:    0.0388114
  band:
  - # 1
    frequency:   -2.0047946358
  - # 2
    frequency:   -1.9248844980
  - # 3
    frequency:   -0.8507970064
  - # 4
    frequency:    0.6519603994
  - # 5
    frequency:    1.3350934973
  - # 6
    frequency:    2.1678211057
  - # 7
    frequency:    2.4253809168
  - # 8
    frequency:    4.8558751096
  - # 9
    frequency:    5.1776901193
  - # 10
    frequency:    5.9018855616
  - # 11
    frequency:    7.5111690380
  - # 12
    frequency:    7.6099985768
  - # 13
    frequency:    8.9461102519
  - # 14
    frequency:    9.0753936137
  - # 15
    frequency:    9.3301063229
  - # 16
    frequency:   10.6980220712
  - # 17
    frequency:   13.3465254757
  - # 18
    frequency:   13.4182136255
  - # 19
    frequency:   13.8040958219
  - # 20
    frequency:   13.8292497265
  - # 21
    frequency:   14.1675774169
  - # 22
    frequency:   31.7937544290
  - # 23
    frequency:   61.6681760089
  - # 24
    frequency:   67.8702087294

- q-position: [    0.1161616,    0.0000000,    0.0000000 ]
  distance:    0.0405756
  band:
  - # 1
    frequency:   -2.0089860318
  - # 2
    frequency:   -1.9284136761
  - # 3
    frequency:   -0.8069725283
  - # 4
    frequency:    0.7438679502
  - # 5
    frequency:    1.4301546027
  - # 6
    frequency:    2.2570663931
  - # 7
    frequency:    2.5342058471
  - # 8
    frequency:    4.8585115462
  - # 9
    frequency:    5.1988683286
  - # 10
    frequency:    5.9047723157
  - # 11
    frequency:    7.5036264510
  - # 12
    frequency:    7.6100704442
  - # 13
    frequency:    8.9435482730
  - # 14
    frequency:    9.0815306077
  - # 15
    frequency:    9.3346802976
  - # 16
    frequency:   10.6573349543
  - # 17
    frequency:   13.3278575463
  - # 18
    frequency:   13.4073936308
  - # 19
    frequency:   13.8050173561
  - # 20
    frequency:   13.8291565331
  - # 21
    frequency:   14.1697709569
  - # 22
    frequency:   31.7746240096
  - # 23
    frequency:   61.6652196630
  - # 24
    frequency:   67.8604868162

- q-position: [    0.1212121,    0.0000000,    0.0000000 ]
  distance:    0.0423398
  band:
  - # 1
    frequency:   -2.0135116617
  - # 2
    frequency:   -1.9327998972
  - # 3
    frequency:   -0.7593203431
  - # 4
    frequency:    0.8316451424
  - # 5
    frequency:    1.5226821630
  - # 6
    frequency:    2.3447691131
  - # 7
    frequency:    2.6421629341
  - # 8
    frequency:    4.8623054222
  - # 9
    frequency:    5.2202094359
  - # 10
    frequency:    5.9080348385
  - # 11
    frequency:    7.4958860586
  - # 12
    frequency:    7.6102138822
  - # 13
    frequency:    8.9406613066
  - # 14
    frequency:    9.0866624530
  - # 15
    frequency:    9.3411271927
  - # 16
    frequency:   10.6156269224
  - # 17
    frequency:   13.3083096287
  - # 18
    frequency:   13.3960284320
  - # 19
    frequency:   13.8061600783
  - # 20
    frequency:   13.8291601202
  - # 21
    frequency:   14.1718624704
  - # 22
    frequency:   31.7550539402
  - # 23
    frequency:   61.6621804274
  - # 24
    frequency:   67.8505029016

- q-position: [    0.1262626,    0.0000000,    0.0000000 ]
  distance:    0.0441039
  band:
  - # 1
    frequency:   -2.0183580269
  - # 2
    frequency:   -1.9379651158
  - # 3
    frequency:   -0.7071205930
  - # 4
    frequency:    0.9168496543
  - # 5
    frequency:    1.6128285523
  - # 6
    frequency:    2.4308972803
  - # 7
    frequency:    2.7491334415
  - # 8
    frequency:    4.8673414179
  - # 9
    frequency:    5.2416213474
  - # 10
    frequency:    5.9117340114
  - # 11
    frequency:    7.4879544903
  - # 12
    frequency:    7.6104686635
  - # 13
    frequency:    8.9374342726
  - # 14
    frequency:    9.0906696786
  - # 15
    frequency:    9.3495598457
  - # 16
    frequency:   10.5729969861
  - # 17
    frequency:   13.2879136442
  - # 18
    frequency:   13.3841179249
  - # 19
    frequency:   13.8074844963
  - # 20
    frequency:   13.8292667729
  - # 21
    frequency:   14.1738746636
  - # 22
    frequency:   31.7350900210
  - # 23
    frequency:   61.6590638748
  - # 24
    frequency:   67.8402762637

- q-position: [    0.1313131,    0.0000000,    0.0000000 ]
  distance:    0.0458681
  band:
  - # 1
    frequency:   -2.0235122412
  - # 2
    frequency:   -1.9438265767
  - # 3
    frequency:   -0.6493381722
  - # 4
    frequency:    1.0003791809
  - # 5
    frequency:    1.7007465802
  - # 6
    frequency:    2.5154286272
  - # 7
    frequency:    2.8549946889
  - # 8
    frequency:    4.8736966796
  - # 9
    frequency:    5.2630078492
  - # 10
    frequency:    5.9159405303
  - # 11
    frequency:    7.4798374192
  - # 12
    frequency:    7.6108789756
  - # 13
    frequency:    8.9338534110
  - # 14
    frequency:    9.0934945237
  - # 15
    frequency:    9.3600196182
  - # 16
    frequency:   10.5295483557
  - # 17
    frequency:   13.2667057971
  - # 18
    frequency:   13.3716632174
  - # 19
    frequency:   13.8089486636
  - # 20
    frequency:   13.8294820753
  - # 21
    frequency:   14.1758335931
  - # 22
    frequency:   31.7147784888
  - # 23
    frequency:   61.6558756649
  - # 24
    frequency:   67.8298264329

- q-position: [    0.1363636,    0.0000000,    0.0000000 ]
  distance:    0.0476322
  band:
  - # 1
    frequency:   -2.0289621573
  - # 2
    frequency:   -1.9503012136
  - # 3
    frequency:   -0.5843892132
  - # 4
    frequency:    1.0827799864
  - # 5
    frequency:    1.7865774861
  - # 6
    frequency:    2.5983501988
  - # 7