nqpoint: 300    
npath: 3      
segment_nqpoint:
- 100
- 100
- 100
labels:
- [ 'G', 'M' ]
- [ 'M', 'K' ]
- [ 'K', 'G' ]
reciprocal_lattice:
- [   0.29807289,   0.17209246,   0.00000000 ] # a*
- [   0.00000000,   0.34418493,   0.00000000 ] # b*
- [   0.00000000,   0.00000000,   0.03794048 ] # c*
natom: 7      
lattice:
- [     3.354884083534823,     0.000000000000000,     0.000000000000000 ] # a
- [    -1.677442041767411,     2.905414843094114,     0.000000000000000 ] # b
- [     0.000000000000000,     0.000000000000000,    26.357075053587106 ] # c
points:
- symbol: Br # 1
  coordinates: [  0.666666984744047,  0.333332985985145,  0.341464293048524 ]
  mass: 79.904000
- symbol: C # 2
  coordinates: [  0.000000000000000,  0.000000000000000,  0.449843239855534 ]
  mass: 12.010700
- symbol: C # 3
  coordinates: [  0.333332985432215,  0.666666983183674,  0.613351834427102 ]
  mass: 12.010700
- symbol: N # 4
  coordinates: [  0.333332985432215,  0.666666983183674,  0.658535706951476 ]
  mass: 14.006700
- symbol: S # 5
  coordinates: [  0.333332985432215,  0.666666983183674,  0.549654767308438 ]
  mass: 32.065000
- symbol: Ti # 6
  coordinates: [  0.333332985432215,  0.666666983183674,  0.410820509255147 ]
  mass: 47.867000
- symbol: Ti # 7
  coordinates: [  0.666666984744047,  0.333332985985145,  0.491350108997167 ]
  mass: 47.867000

phonon:
- q-position: [    0.0000000,    0.0000000,    0.0000000 ]
  distance:    0.0000000
  band:
  - # 1
    frequency:   -0.0000054852
  - # 2
    frequency:    0.0000003880
  - # 3
    frequency:    0.0000054325
  - # 4
    frequency:    1.4898662335
  - # 5
    frequency:    1.4898662335
  - # 6
    frequency:    3.2837827713
  - # 7
    frequency:    3.2837827713
  - # 8
    frequency:    4.6150456535
  - # 9
    frequency:    5.9171120382
  - # 10
    frequency:    5.9171120382
  - # 11
    frequency:    8.0246092704
  - # 12
    frequency:    8.1692998946
  - # 13
    frequency:    8.1692998946
  - # 14
    frequency:   11.2655660458
  - # 15
    frequency:   11.2655660458
  - # 16
    frequency:   11.8355410305
  - # 17
    frequency:   15.5541838519
  - # 18
    frequency:   16.2123348497
  - # 19
    frequency:   16.2123348497
  - # 20
    frequency:   20.2963430439
  - # 21
    frequency:   64.7671575654

- q-position: [    0.0050505,    0.0000000,    0.0000000 ]
  distance:    0.0017383
  band:
  - # 1
    frequency:    0.0024540133
  - # 2
    frequency:    0.0662723490
  - # 3
    frequency:    0.1061782148
  - # 4
    frequency:    1.4900362223
  - # 5
    frequency:    1.4917792613
  - # 6
    frequency:    3.2842173294
  - # 7
    frequency:    3.2854562617
  - # 8
    frequency:    4.6144182312
  - # 9
    frequency:    5.9172953477
  - # 10
    frequency:    5.9183313326
  - # 11
    frequency:    8.0227539875
  - # 12
    frequency:    8.1694292683
  - # 13
    frequency:    8.1713326154
  - # 14
    frequency:   11.2656882381
  - # 15
    frequency:   11.2658012123
  - # 16
    frequency:   11.8347637819
  - # 17
    frequency:   15.5538371507
  - # 18
    frequency:   16.2123854989
  - # 19
    frequency:   16.2131357119
  - # 20
    frequency:   20.2962634058
  - # 21
    frequency:   64.7670866367

- q-position: [    0.0101010,    0.0000000,    0.0000000 ]
  distance:    0.0034766
  band:
  - # 1
    frequency:    0.0097883160
  - # 2
    frequency:    0.1324992732
  - # 3
    frequency:    0.2122537343
  - # 4
    frequency:    1.4905484808
  - # 5
    frequency:    1.4975032067
  - # 6
    frequency:    3.2855201389
  - # 7
    frequency:    3.2904598406
  - # 8
    frequency:    4.6125516837
  - # 9
    frequency:    5.9178448213
  - # 10
    frequency:    5.9219745996
  - # 11
    frequency:    8.0174809225
  - # 12
    frequency:    8.1698163887
  - # 13
    frequency:    8.1771381190
  - # 14
    frequency:   11.2660544594
  - # 15
    frequency:   11.2665059766
  - # 16
    frequency:   11.8324337143
  - # 17
    frequency:   15.5527990392
  - # 18
    frequency:   16.2125380716
  - # 19
    frequency:   16.2155329489
  - # 20
    frequency:   20.2960246755
  - # 21
    frequency:   64.7668739681

- q-position: [    0.0151515,    0.0000000,    0.0000000 ]
  distance:    0.0052149
  band:
  - # 1
    frequency:    0.0219209907
  - # 2
    frequency:    0.1986346520
  - # 3
    frequency:    0.3181202641
  - # 4
    frequency:    1.4914099641
  - # 5
    frequency:    1.5069946638
  - # 6
    frequency:    3.2876886109
  - # 7
    frequency:    3.2987432802
  - # 8
    frequency:    4.6094925847
  - # 9
    frequency:    5.9187590967
  - # 10
    frequency:    5.9279986253
  - # 11
    frequency:    8.0094894208
  - # 12
    frequency:    8.1704582612
  - # 13
    frequency:    8.1860174439
  - # 14
    frequency:   11.2666636453
  - # 15
    frequency:   11.2676781235
  - # 16
    frequency:   11.8285558730
  - # 17
    frequency:   15.5510754286
  - # 18
    frequency:   16.2127944368
  - # 19
    frequency:   16.2195105993
  - # 20
    frequency:   20.2956274031
  - # 21
    frequency:   64.7665199119

- q-position: [    0.0202020,    0.0000000,    0.0000000 ]
  distance:    0.0069532
  band:
  - # 1
    frequency:    0.0387213061
  - # 2
    frequency:    0.2646309292
  - # 3
    frequency:    0.4236640081
  - # 4
    frequency:    1.4926325292
  - # 5
    frequency:    1.5201877657
  - # 6
    frequency:    3.2907184523
  - # 7
    frequency:    3.3102243247
  - # 8
    frequency:    4.6053166828
  - # 9
    frequency:    5.9200359107
  - # 10
    frequency:    5.9363334307
  - # 11
    frequency:    7.9995557456
  - # 12
    frequency:    8.1713499219
  - # 13
    frequency:    8.1971949970
  - # 14
    frequency:   11.2675140271
  - # 15
    frequency:   11.2693139247
  - # 16
    frequency:   11.8231386993
  - # 17
    frequency:   15.5486759644
  - # 18
    frequency:   16.2131576911
  - # 19
    frequency:   16.2250423457
  - # 20
    frequency:   20.2950725024
  - # 21
    frequency:   64.7660250543

- q-position: [    0.0252525,    0.0000000,    0.0000000 ]
  distance:    0.0086915
  band:
  - # 1
    frequency:    0.0600172981
  - # 2
    frequency:    0.3304382794
  - # 3
    frequency:    0.5287591274
  - # 4
    frequency:    1.4942333584
  - # 5
    frequency:    1.5370032222
  - # 6
    frequency:    3.2946036977
  - # 7
    frequency:    3.3247907382
  - # 8
    frequency:    4.6001263298
  - # 9
    frequency:    5.9216721103
  - # 10
    frequency:    5.9468851053
  - # 11
    frequency:    7.9883309038
  - # 12
    frequency:    8.1724844766
  - # 13
    frequency:    8.2100207726
  - # 14
    frequency:   11.2686031404
  - # 15
    frequency:   11.2714080827
  - # 16
    frequency:   11.8161940839
  - # 17
    frequency:   15.5456137373
  - # 18
    frequency:   16.2136321304
  - # 19
    frequency:   16.2320919192
  - # 20
    frequency:   20.2943612458
  - # 21
    frequency:   64.7653902136

- q-position: [    0.0303030,    0.0000000,    0.0000000 ]
  distance:    0.0104298
  band:
  - # 1
    frequency:    0.0856048475
  - # 2
    frequency:    0.3960036226
  - # 3
    frequency:    0.6332621563
  - # 4
    frequency:    1.4962355993
  - # 5
    frequency:    1.5573598905
  - # 6
    frequency:    3.2993367532
  - # 7
    frequency:    3.3423029157
  - # 8
    frequency:    4.5940473164
  - # 9
    frequency:    5.9236636678
  - # 10
    frequency:    5.9595393544
  - # 11
    frequency:    7.9762966524
  - # 12
    frequency:    8.1738531564
  - # 13
    frequency:    8.2240144067
  - # 14
    frequency:   11.2699278367
  - # 15
    frequency:   11.2739536418
  - # 16
    frequency:   11.8077374499
  - # 17
    frequency:   15.5419049216
  - # 18
    frequency:   16.2142232113
  - # 19
    frequency:   16.2406136223
  - # 20
    frequency:   20.2934952576
  - # 21
    frequency:   64.7646164387

- q-position: [    0.0353535,    0.0000000,    0.0000000 ]
  distance:    0.0121682
  band:
  - # 1
    frequency:    0.1152571067
  - # 2
    frequency:    0.4612694150
  - # 3
    frequency:    0.7370048777
  - # 4
    frequency:    1.4986692806
  - # 5
    frequency:    1.5811883093
  - # 6
    frequency:    3.3049084524
  - # 7
    frequency:    3.3625968367
  - # 8
    frequency:    4.5872254559
  - # 9
    frequency:    5.9260057001
  - # 10
    frequency:    5.9741654344
  - # 11
    frequency:    7.9637937672
  - # 12
    frequency:    8.1754453875
  - # 13
    frequency:    8.2388369845
  - # 14
    frequency:   11.2714842980
  - # 15
    frequency:   11.2769418608
  - # 16
    frequency:   11.7977878742
  - # 17
    frequency:   15.5375683696
  - # 18
    frequency:   16.2149375014
  - # 19
    frequency:   16.2505529376
  - # 20
    frequency:   20.2924765048
  - # 21
    frequency:   64.7637050056

- q-position: [    0.0404040,    0.0000000,    0.0000000 ]
  distance:    0.0139065
  band:
  - # 1
    frequency:    0.1487333666
  - # 2
    frequency:    0.5261721205
  - # 3
    frequency:    0.8397850505
  - # 4
    frequency:    1.5015725848
  - # 5
    frequency:    1.6084459510
  - # 6
    frequency:    3.3113081228
  - # 7
    frequency:    3.3854871278
  - # 8
    frequency:    4.5798232506
  - # 9
    frequency:    5.9286924922
  - # 10
    frequency:    5.9906201619
  - # 11
    frequency:    7.9510628676
  - # 12
    frequency:    8.1772488752
  - # 13
    frequency:    8.2542503043
  - # 14
    frequency:   11.2732680553
  - # 15
    frequency:   11.2803620296
  - # 16
    frequency:   11.7863682628
  - # 17
    frequency:   15.5326251964
  - # 18
    frequency:   16.2157826203
  - # 19
    frequency:   16.2618471879
  - # 20
    frequency:   20.2913072870
  - # 21
    frequency:   64.7626574150

- q-position: [    0.0454545,    0.0000000,    0.0000000 ]
  distance:    0.0156448
  band:
  - # 1
    frequency:    0.1857867566
  - # 2
    frequency:    0.5906402365
  - # 3
    frequency:    0.9413543379
  - # 4
    frequency:    1.5049935944
  - # 5
    frequency:    1.6391343036
  - # 6
    frequency:    3.3185236631
  - # 7
    frequency:    3.4107700052
  - # 8
    frequency:    4.5720169287
  - # 9
    frequency:    5.9317175237
  - # 10
    frequency:    6.0087517319
  - # 11
    frequency:    7.9382775560
  - # 12
    frequency:    8.1792497017
  - # 13
    frequency:    8.2700838366
  - # 14
    frequency:   11.2752740092
  - # 15
    frequency:   11.2842012091
  - # 16
    frequency:   11.7735056041
  - # 17
    frequency:   15.5270983803
  - # 18
    frequency:   16.2167671703
  - # 19
    frequency:   16.2744262195
  - # 20
    frequency:   20.2899902237
  - # 21
    frequency:   64.7614753879

- q-position: [    0.0505051,    0.0000000,    0.0000000 ]
  distance:    0.0173831
  band:
  - # 1
    frequency:    0.2261704801
  - # 2
    frequency:    0.6545917014
  - # 3
    frequency:    1.0414029702
  - # 4
    frequency:    1.5089926768
  - # 5
    frequency:    1.6733180096
  - # 6
    frequency:    3.3265416287
  - # 7
    frequency:    3.4382258925
  - # 8
    frequency:    4.5639940714
  - # 9
    frequency:    5.9350734989
  - # 10
    frequency:    6.0284031531
  - # 11
    frequency:    7.9255674199
  - # 12
    frequency:    8.1814324362
  - # 13
    frequency:    8.2862118289
  - # 14
    frequency:   11.2774964543
  - # 15
    frequency:   11.2884438589
  - # 16
    frequency:   11.7592313318
  - # 17
    frequency:   15.5210123978
  - # 18
    frequency:   16.2179006583
  - # 19
    frequency:   16.2882130854
  - # 20
    frequency:   20.2885282405
  - # 21
    frequency:   64.7601608611

- q-position: [    0.0555556,    0.0000000,    0.0000000 ]
  distance:    0.0191214
  band:
  - # 1
    frequency:    0.2696425469
  - # 2
    frequency:    0.7179304529
  - # 3
    frequency:    1.1395415274
  - # 4
    frequency:    1.5136457342
  - # 5
    frequency:    1.7111456763
  - # 6
    frequency:    3.3353473261
  - # 7
    frequency:    3.4676215499
  - # 8
    frequency:    4.5559519685
  - # 9
    frequency:    5.9387523808
  - # 10
    frequency:    6.0494151875
  - # 11
    frequency:    7.9130331673
  - # 12
    frequency:    8.1837802565
  - # 13
    frequency:    8.3025382784
  - # 14
    frequency:   11.2799291060
  - # 15
    frequency:   11.2930712987
  - # 16
    frequency:   11.7435818557
  - # 17
    frequency:   15.5143929065
  - # 18
    frequency:   16.2191934098
  - # 19
    frequency:   16.3031247147
  - # 20
    frequency:   20.2869245529
  - # 21
    frequency:   64.7587159829

- q-position: [    0.0606061,    0.0000000,    0.0000000 ]
  distance:    0.0208597
  band:
  - # 1
    frequency:    0.3159691263
  - # 2
    frequency:    0.7805418263
  - # 3
    frequency:    1.2352826080
  - # 4
    frequency:    1.5190486224
  - # 5
    frequency:    1.7528697413
  - # 6
    frequency:    3.3449249140
  - # 7
    frequency:    3.4987115994
  - # 8
    frequency:    4.5480967680
  - # 9
    frequency:    5.9427454267
  - # 10
    frequency:    6.0716287500
  - # 11
    frequency:    7.9007564570
  - # 12
    frequency:    8.1862750814
  - # 13
    frequency:    8.3189872114
  - # 14
    frequency:   11.2825651299
  - # 15
    frequency:   11.2980609163
  - # 16
    frequency:   11.7265993453
  - # 17
    frequency:   15.5072664787
  - # 18
    frequency:   16.2206564742
  - # 19
    frequency:   16.3190725598
  - # 20
    frequency:   20.2851826497
  - # 21
    frequency:   64.7571431070

- q-position: [    0.0656566,    0.0000000,    0.0000000 ]
  distance:    0.0225980
  band:
  - # 1
    frequency:    0.3649267387
  - # 2
    frequency:    0.8422864007
  - # 3
    frequency:    1.3280304123
  - # 4
    frequency:    1.5253231301
  - # 5
    frequency:    1.7988575773
  - # 6
    frequency:    3.3552575107
  - # 7
    frequency:    3.5312393847
  - # 8
    frequency:    4.5406434141
  - # 9
    frequency:    5.9470432274
  - # 10
    frequency:    6.0948867799
  - # 11
    frequency:    7.8888063087
  - # 12
    frequency:    8.1888977120
  - # 13
    frequency:    8.3354963740
  - # 14
    frequency:   11.2853971743
  - # 15
    frequency:   11.3033849804
  - # 16
    frequency:   11.7083329080
  - # 17
    frequency:   15.4996603836
  - # 18
    frequency:   16.2223015248
  - # 19
    frequency:   16.3359632210
  - # 20
    frequency:   20.2833062734
  - # 21
    frequency:   64.7554447867

- q-position: [    0.0707071,    0.0000000,    0.0000000 ]
  distance:    0.0243363
  band:
  - # 1
    frequency:    0.4163035245
  - # 2
    frequency:    0.9029918304
  - # 3
    frequency:    1.4170952259
  - # 4
    frequency:    1.5326249759
  - # 5
    frequency:    1.8495770762
  - # 6
    frequency:    3.3663273054
  - # 7
    frequency:    3.5649371764
  - # 8
    frequency:    4.5338162999
  - # 9
    frequency:    5.9516357478
  - # 10
    frequency:    6.1190356357
  - # 11
    frequency:    7.8772433301
  - # 12
    frequency:    8.1916279814
  - # 13
    frequency:    8.3520130954
  - # 14
    frequency:   11.2884174044
  - # 15
    frequency:   11.3090088206
  - # 16
    frequency:   11.6888404008
  - # 17
    frequency:   15.4916024136
  - # 18
    frequency:   16.2241407515
  - # 19
    frequency:   16.3536990503
  - # 20
    frequency:   20.2812994013
  - # 21
    frequency:   64.7536237689

- q-position: [    0.0757576,    0.0000000,    0.0000000 ]
  distance:    0.0260746
  band:
  - # 1
    frequency:    0.4698998180
  - # 2
    frequency:    0.9624422382
  - # 3
    frequency:    1.5017586238
  - # 4
    frequency:    1.5411542479
  - # 5
    frequency:    1.9055310882
  - # 6
    frequency:    3.3781156740
  - # 7
    frequency:    3.5995258132
  - # 8
    frequency:    4.5278504847
  - # 9
    frequency:    5.9565123703
  - # 10
    frequency:    6.1439260847
  - # 11
    frequency:    7.8661225362
  - # 12
    frequency:    8.1944449105
  - # 13
    frequency:    8.3684915393
  - # 14
    frequency:   11.2916175390
  - # 15
    frequency:   11.3148879624
  - # 16
    frequency:   11.6681912864
  - # 17
    frequency:   15.4831207458
  - # 18
    frequency:   16.2261867495
  - # 19
    frequency:   16.3721787377
  - # 20
    frequency:   20.2791662231
  - # 21
    frequency:   64.7516829865

- q-position: [    0.0808081,    0.0000000,    0.0000000 ]
  distance:    0.0278129
  band:
  - # 1
    frequency:    0.5255282188
  - # 2
    frequency:    1.0203650753
  - # 3
    frequency:    1.5511683763
  - # 4
    frequency:    1.5814086490
  - # 5
    frequency:    1.9671216212
  - # 6
    frequency:    3.3906032961
  - # 7
    frequency:    3.6347139859
  - # 8
    frequency:    4.5229932266
  - # 9
    frequency:    5.9616619389
  - # 10
    frequency:    6.1694139691
  - # 11
    frequency:    7.8554952406
  - # 12
    frequency:    8.1973268701
  - # 13
    frequency:    8.3848908563
  - # 14
    frequency:   11.2949888887
  - # 15
    frequency:   11.3209634831
  - # 16
    frequency:   11.6464712683
  - # 17
    frequency:   15.4742438295
  - # 18
    frequency:   16.2284524031
  - # 19
    frequency:   16.3912978871
  - # 20
    frequency:   20.2769111196
  - # 21
    frequency:   64.7496255516

- q-position: [    0.0858586,    0.0000000,    0.0000000 ]
  distance:    0.0295512
  band:
  - # 1
    frequency:    0.5830133191
  - # 2
    frequency:    1.0764164014
  - # 3
    frequency:    1.5629966886
  - # 4
    frequency:    1.6557205982
  - # 5
    frequency:    2.0344682822
  - # 6
    frequency:    3.4037702738
  - # 7
    frequency:    3.6701975262
  - # 8
    frequency:    4.5195054393
  - # 9
    frequency:    5.9670728056
  - # 10
    frequency:    6.1953606304
  - # 11
    frequency:    7.8454103192
  - # 12
    frequency:    8.2002517460
  - # 13
    frequency:    8.4011739287
  - # 14
    frequency:   11.2985223963
  - # 15
    frequency:   11.3271542288
  - # 16
    frequency:   11.6237900629
  - # 17
    frequency:   15.4650002924
  - # 18
    frequency:   16.2309507675
  - # 19
    frequency:   16.4109495854
  - # 20
    frequency:   20.2745386388
  - # 21
    frequency:   64.7474547472

- q-position: [    0.0909091,    0.0000000,    0.0000000 ]
  distance:    0.0312895
  band:
  - # 1
    frequency:    0.6421912033
  - # 2
    frequency:    1.1301680257
  - # 3
    frequency:    1.5770531026
  - # 4
    frequency:    1.7247922141
  - # 5
    frequency:    2.1072722406
  - # 6
    frequency:    3.4175962497
  - # 7
    frequency:    3.7056592719
  - # 8
    frequency:    4.5176624857
  - # 9
    frequency:    5.9727328771
  - # 10
    frequency:    6.2216331685
  - # 11
    frequency:    7.8359150311
  - # 12
    frequency:    8.2031971070
  - # 13
    frequency:    8.4173065146
  - # 14
    frequency:   11.3022086780
  - # 15
    frequency:   11.3333432887
  - # 16
    frequency:   11.6002949133
  - # 17
    frequency:   15.4554188581
  - # 18
    frequency:   16.2336949476
  - # 19
    frequency:   16.4310249679
  - # 20
    frequency:   20.2720534726
  - # 21
    frequency:   64.7451740199

- q-position: [    0.0959596,    0.0000000,    0.0000000 ]
  distance:    0.0330278
  band:
  - # 1
    frequency:    0.7029088094
  - # 2
    frequency:    1.1811047474
  - # 3
    frequency:    1.5938387219
  - # 4
    frequency:    1.7891338788
  - # 5
    frequency:    2.1848251687
  - # 6
    frequency:    3.4320605237
  - # 7
    frequency:    3.7407703429
  - # 8
    frequency:    4.5177534741
  - # 9
    frequency:    5.9786296634
  - # 10
    frequency:    6.2481046008
  - # 11
    frequency:    7.8270555117
  - # 12
    frequency:    8.2061403747
  - # 13
    frequency:    8.4332566640
  - # 14
    frequency:   11.3060380659
  - # 15
    frequency:   11.3393535880
  - # 16
    frequency:   11.5761949820
  - # 17
    frequency:   15.4455282685
  - # 18
    frequency:   16.2366979767
  - # 19
    frequency:   16.4514137833
  - # 20
    frequency:   20.2694604316
  - # 21
    frequency:   64.7427869703

- q-position: [    0.1010101,    0.0000000,    0.0000000 ]
  distance:    0.0347662
  band:
  - # 1
    frequency:    0.7650232130
  - # 2
    frequency:    1.2286466917
  - # 3
    frequency:    1.6139193369
  - # 4
    frequency:    1.8495134627
  - # 5
    frequency:    2.2661635307
  - # 6
    frequency:    3.4471421665
  - # 7
    frequency:    3.7751939275
  - # 8
    frequency:    4.5200779657
  - # 9
    frequency:    5.9847503258
  - # 10
    frequency:    6.2746539798
  - # 11
    frequency:    7.8188770133
  - # 12
    frequency:    8.2090589914
  - # 13
    frequency:    8.4489943247
  - # 14
    frequency:   11.3100006509
  - # 15
    frequency:   11.3449023183
  - # 16
    frequency:   11.5518069031
  - # 17
    frequency:   15.4353572077
  - # 18
    frequency:   16.2399726944
  - # 19
    frequency:   16.4720049591
  - # 20
    frequency:   20.2667644207
  - # 21
    frequency:   64.7402973450

- q-position: [    0.1060606,    0.0000000,    0.0000000 ]
  distance:    0.0365045
  band:
  - # 1
    frequency:    0.8284008795
  - # 2
    frequency:    1.2722154959
  - # 3
    frequency:    1.6378590778
  - # 4
    frequency:    1.9067590064
  - # 5
    frequency:    2.3502650545
  - # 6
    frequency:    3.4628201307
  - # 7
    frequency:    3.8085928432
  - # 8
    frequency:    4.5249388465
  - # 9
    frequency:    5.9910817267
  - # 10
    frequency:    6.3011665143
  - # 11
    frequency:    7.8114239359
  - # 12
    frequency:    8.2119305885
  - # 13
    frequency:    8.4644910847
  - # 14
    frequency:   11.3140863267
  - # 15
    frequency:   11.3495144374
  - # 16
    frequency:   11.5276412605
  - # 17
    frequency:   15.4249342248
  - # 18
    frequency:   16.2435316263
  - # 19
    frequency:   16.4926871650
  - # 20
    frequency:   20.2639704140
  - # 21
    frequency:   64.7377090271

- q-position: [    0.1111111,    0.0000000,    0.0000000 ]
  distance:    0.0382428
  band:
  - # 1
    frequency:    0.8929169118
  - # 2
    frequency:    1.3113512692
  - # 3
    frequency:    1.6661032962
  - # 4
    frequency:    1.9616170942
  - # 5
    frequency:    2.4361895227
  - # 6
    frequency:    3.4790733549
  - # 7
    frequency:    3.8406419887
  - # 8
    frequency:    4.5326302718
  - # 9
    frequency:    5.9976104792
  - # 10
    frequency:    6.3275337312
  - # 11
    frequency:    7.8047396780
  - # 12
    frequency:    8.2147331498
  - # 13
    frequency:    8.4797200116
  - # 14
    frequency:   11.3182848331
  - # 15
    frequency:   11.3523650103
  - # 16
    frequency:   11.5045602194
  - # 17
    frequency:   15.4142876530
  - # 18
    frequency:   16.2473868659
  - # 19
    frequency:   16.5133493759
  - # 20
    frequency:   20.2610834297
  - # 21
    frequency:   64.7350260269

- q-position: [    0.1161616,    0.0000000,    0.0000000 ]
  distance:    0.0399811
  band:
  - # 1
    frequency:    0.9584543145
  - # 2
    frequency:    1.3458496603
  - # 3
    frequency:    1.6988413441
  - # 4
    frequency:    2.0146920432
  - # 5
    frequency:    2.5231387482
  - # 6
    frequency:    3.4958808635
  - # 7
    frequency:    3.8710460915
  - # 8
    frequency:    4.5434203128
  - # 9
    frequency:    6.0043229968
  - # 10
    frequency:    6.3536537035
  - # 11
    frequency:    7.7988663272
  - # 12
    frequency:    8.2174451719
  - # 13
    frequency:    8.4946555656
  - # 14
    frequency:   11.3225857993
  - # 15
    frequency:   11.3520519631
  - # 16
    frequency:   11.4840047397
  - # 17
    frequency:   15.4034455261
  - # 18
    frequency:   16.2515499591
  - # 19
    frequency:   16.5338814296
  - # 20
    frequency:   20.2581085055
  - # 21
    frequency:   64.7322524721

- q-position: [    0.1212121,    0.0000000,    0.0000000 ]
  distance:    0.0417194
  band:
  - # 1
    frequency:    1.0249032848
  - # 2
    frequency:    1.3758473483
  - # 3
    frequency:    1.7359209358
  - # 4
    frequency:    2.0664417134
  - # 5
    frequency:    2.6104599039
  - # 6
    frequency:    3.5132218581
  - # 7
    frequency:    3.8995617091
  - # 8
    frequency:    4.5575293851
  - # 9
    frequency:    6.0112055437
  - # 10
    frequency:    6.3794313623
  - # 11
    frequency:    7.7938442037
  - # 12
    frequency:    8.2200458184
  - # 13
    frequency:    8.5092735672
  - # 14
    frequency:   11.3269787867
  - # 15
    frequency:   11.3465516349
  - # 16
    frequency:   11.4680389822
  - # 17
    frequency:   15.3924354911
  - # 18
    frequency:   16.2560317934
  - # 19
    frequency:   16.5541745767
  - # 20
    frequency:   20.2550506743
  - # 21
    frequency:   64.7293925980

- q-position: [    0.1262626,    0.0000000,    0.0000000 ]
  distance:    0.0434577
  band:
  - # 1
    frequency:    1.0921605391
  - # 2
    frequency:    1.4017961026
  - # 3
    frequency:    1.7768739468
  - # 4
    frequency:    2.1171989976
  - # 5
    frequency:    2.6976231149
  - # 6
    frequency:    3.5310758012
  - # 7
    frequency:    3.9260204734
  - # 8
    frequency:    4.5751075192
  - # 9
    frequency:    6.0182442850
  - # 10
    frequency:    6.4047788985
  - # 11
    frequency:    7.7897112720
  - # 12
    frequency:    8.2225150678
  - # 13
    frequency:    8.5235512080
  - # 14
    frequency:   11.3314533310
  - # 15
    frequency:   11.3340842494
  - # 16
    frequency:   11.4584847878
  - # 17
    frequency:   15.3812847189
  - # 18
    frequency:   16.2608424916
  - # 19
    frequency:   16.5741220207
  - # 20
    frequency:   20.2519149412
  - # 21
    frequency:   64.7264507374

- q-position: [    0.1313131,    0.0000000,    0.0000000 ]
  distance:    0.0451960
  band:
  - # 1
    frequency:    1.1601286766
  - # 2
    frequency:    1.4243404018
  - # 3
    frequency:    1.8210386644
  - # 4
    frequency:    2.1671993341
  - # 5
    frequency:    2.7841929214
  - # 6
    frequency:    3.5494224902
  - # 7
    frequency:    3.9503488585
  - # 8
    frequency:    4.5962152550
  - # 9
    frequency:    6.0254253374
  - # 10
    frequency:    6.4296162527
  - # 11
    frequency:    7.7865024351
  - # 12
    frequency:    8.2248338529
  - # 13
    frequency:    8.5374670949
  - # 14
    frequency:   11.3146421078
  - # 15
    frequency:   11.3359989825
  - # 16
    frequency:   11.4553934244
  - # 17
    frequency:   15.3700198127
  - # 18
    frequency:   16.2659913117
  - # 19
    frequency:   16.5936194437
  - # 20
    frequency:   20.2487062609
  - # 21
    frequency:   64.7234313107

- q-position: [    0.1363636,    0.0000000,    0.0000000 ]
  distance:    0.0469343
  band:
  - # 1
    frequency:    1.2287155825
  - # 2
    frequency:    1.4441734016
  - # 3
    frequency:    1.8677036997
  - # 4
    frequency:    2.2166055723
  - # 5
    frequency:    2.8698022255
  - # 6
    frequency:    3.5682421215
  - # 7
    frequency:    3.9725794507
  - # 8
    frequency:    4.6208132498
  - # 9
    frequency:    6.0327348193
  - # 10
    frequency:    6.4538716788
  - # 11
    frequency:    7.7842487330
  - # 12
    frequency:    8.2269841922
  - # 13
    frequency:    8.5510013220
  - # 14
    frequency:   11.2898590813
  - # 15
    frequency:   11.3406053451
  - # 16
    frequency:   11.4571760234
  - # 17
    frequency:   15.3586667168
  - # 18
    frequency:   16.2714865536
  - # 19
    frequency:   16.6125655137
  - # 20
    frequency:   20.2454295169
  - # 21
    frequency:   64.7203388150

- q-position: [    0.1414141,    0.0000000,    0.0000000 ]
  distance:    0.0486726
  band:
  - # 1
    frequency:    1.2978338692
  - # 2
    frequency:    1.4619339033
  - # 3
    frequency:    1.9162109127
  - # 4
    frequency:    2.2655277206
  - # 5
    frequency:    2.9541311121
  - # 6
    frequency:    3.5875153429
  - # 7
    frequency:    3.9928505524
  - # 8
    frequency:    4.6487638603
  - # 9
    frequency:    6.0401589015
  - # 10
    frequency:    6.4774823585
  - # 11
    frequency:    7.7829764701
  - # 12
    frequency:    8.2289493103
  - # 13
    frequency:    8.5641355658
  - # 14
    frequency:   11.2615149577
  - # 15
    frequency:   11.3452621141
  - # 16
    frequency:   11.4620991499
  - # 17
    frequency:   15.3472506261
  - # 18
    frequency:   16.2773354722
  - # 19
    frequency:   16.6308623726
  - # 20
    frequency:   20.2420895027
  - # 21
    frequency:   64.7171778145

- q-position: [    0.1464646,    0.0000000,    0.0000000 ]
  distance:    0.0504109
  band:
  - # 1
    frequency:    1.3674003543
  - # 2
    frequency:    1.4781591479
  - # 3
    frequency:    1.9660025263
  - # 4
    frequency:    2.3140377274
  - # 5
    frequency:    3.0368903073
  - # 6
    frequency:    3.6072232935
  - # 7
    frequency:    4.0113944240
  - # 8
    frequency:    4.6798444937
  - # 9
    frequency:    6.0476838579
  - # 10
    frequency:    6.5003950306
  - # 11
    frequency:    7.7827063060
  - # 12
    frequency:    8.2307137488
  - # 13
    frequency:    8.5768532002
  - # 14
    frequency:   11.2308410820
  - # 15
    frequency:   11.3499591112
  - # 16
    frequency:   11.4689790662
  - # 17
    frequency:   15.3357958981
  - # 18
    frequency:   16.2835441999
  - # 19
    frequency:   16.6484160982
  - # 20
    frequency:   20.2386909037
  - # 21
    frequency:   64.7139529293

- q-position: [    0.1515152,    0.0000000,    0.0000000 ]
  distance:    0.0521492
  band:
  - # 1
    frequency:    1.4373355738
  - # 2
    frequency:    1.4932775878
  - # 3
    frequency:    2.0166282806
  - # 4
    frequency:    2.3621802386
  - # 5
    frequency:    3.1178082349
  - # 6
    frequency:    3.6273476307
  - # 7
    frequency:    4.0285178843
  - # 8
    frequency:    4.7137691103
  - # 9
    frequency:    6.0552961163
  - # 10
    frequency:    6.5225665929
  - # 11
    frequency:    7.7834523486
  - # 12
    frequency:    8.2322634649
  - # 13
    frequency:    8.5891394279
  - # 14
    frequency:   11.1985876377
  - # 15
    frequency:   11.3546863178
  - # 16
    frequency:   11.4771143388
  - # 17
    frequency:   15.3243259673
  - # 18
    frequency:   16.2901176764
  - # 19
    frequency:   16.6651371409
  - # 20
    frequency:   20.2352382826
  - # 21