nqpoint: 300    
npath: 3      
segment_nqpoint:
- 100
- 100
- 100
labels:
- [ 'G', 'M' ]
- [ 'M', 'K' ]
- [ 'K', 'G' ]
reciprocal_lattice:
- [   0.29807289,   0.17209246,   0.00000000 ] # a*
- [   0.00000000,   0.34418493,   0.00000000 ] # b*
- [   0.00000000,   0.00000000,   0.03794048 ] # c*
natom: 7      
lattice:
- [     3.354884083534823,     0.000000000000000,     0.000000000000000 ] # a
- [    -1.677442041767411,     2.905414843094114,     0.000000000000000 ] # b
- [     0.000000000000000,     0.000000000000000,    26.357075053587106 ] # c
points:
- symbol: Br # 1
  coordinates: [  0.666666984744047,  0.333332985985145,  0.341464293048524 ]
  mass: 79.904000
- symbol: C # 2
  coordinates: [  0.000000000000000,  0.000000000000000,  0.449843239855534 ]
  mass: 12.010700
- symbol: C # 3
  coordinates: [  0.333332985432215,  0.666666983183674,  0.613351834427102 ]
  mass: 12.010700
- symbol: N # 4
  coordinates: [  0.333332985432215,  0.666666983183674,  0.658535706951476 ]
  mass: 14.006700
- symbol: S # 5
  coordinates: [  0.333332985432215,  0.666666983183674,  0.549654767308438 ]
  mass: 32.065000
- symbol: Ti # 6
  coordinates: [  0.333332985432215,  0.666666983183674,  0.410820509255147 ]
  mass: 47.867000
- symbol: Ti # 7
  coordinates: [  0.666666984744047,  0.333332985985145,  0.491350108997167 ]
  mass: 47.867000

phonon:
- q-position: [    0.0000000,    0.0000000,    0.0000000 ]
  distance:    0.0000000
  band:
  - # 1
    frequency:   -0.0000005635
  - # 2
    frequency:   -0.0000004646
  - # 3
    frequency:    0.0000004194
  - # 4
    frequency:    1.1478756890
  - # 5
    frequency:    1.1478756890
  - # 6
    frequency:    3.1912670417
  - # 7
    frequency:    3.1912670417
  - # 8
    frequency:    4.6491500998
  - # 9
    frequency:    5.9173049186
  - # 10
    frequency:    5.9173049186
  - # 11
    frequency:    8.0476044014
  - # 12
    frequency:    8.2012151778
  - # 13
    frequency:    8.2012151778
  - # 14
    frequency:   11.2570349913
  - # 15
    frequency:   11.2570349913
  - # 16
    frequency:   11.8681994882
  - # 17
    frequency:   15.4837286645
  - # 18
    frequency:   16.0425345299
  - # 19
    frequency:   16.0425345299
  - # 20
    frequency:   20.2819323973
  - # 21
    frequency:   64.7695110010

- q-position: [    0.0050505,    0.0000000,    0.0000000 ]
  distance:    0.0017383
  band:
  - # 1
    frequency:   -0.0484660869
  - # 2
    frequency:    0.0687657207
  - # 3
    frequency:    0.1164814094
  - # 4
    frequency:    1.1484604462
  - # 5
    frequency:    1.1504494468
  - # 6
    frequency:    3.1917619629
  - # 7
    frequency:    3.1931696466
  - # 8
    frequency:    4.6484957919
  - # 9
    frequency:    5.9174951172
  - # 10
    frequency:    5.9185817813
  - # 11
    frequency:    8.0455864128
  - # 12
    frequency:    8.2012939593
  - # 13
    frequency:    8.2032919566
  - # 14
    frequency:   11.2571603258
  - # 15
    frequency:   11.2573290983
  - # 16
    frequency:   11.8673491387
  - # 17
    frequency:   15.4835128723
  - # 18
    frequency:   16.0431104310
  - # 19
    frequency:   16.0436754034
  - # 20
    frequency:   20.2818778667
  - # 21
    frequency:   64.7694341933

- q-position: [    0.0101010,    0.0000000,    0.0000000 ]
  distance:    0.0034766
  band:
  - # 1
    frequency:   -0.0593232824
  - # 2
    frequency:    0.1374712926
  - # 3
    frequency:    0.2200315239
  - # 4
    frequency:    1.1502156886
  - # 5
    frequency:    1.1581436498
  - # 6
    frequency:    3.1932451983
  - # 7
    frequency:    3.1988569516
  - # 8
    frequency:    4.6465490631
  - # 9
    frequency:    5.9180650410
  - # 10
    frequency:    5.9223964611
  - # 11
    frequency:    8.0398387309
  - # 12
    frequency:    8.2015297068
  - # 13
    frequency:    8.2092168318
  - # 14
    frequency:   11.2575359764
  - # 15
    frequency:   11.2582102816
  - # 16
    frequency:   11.8648000733
  - # 17
    frequency:   15.4828666877
  - # 18
    frequency:   16.0448347659
  - # 19
    frequency:   16.0470901541
  - # 20
    frequency:   20.2817142946
  - # 21
    frequency:   64.7692039297

- q-position: [    0.0151515,    0.0000000,    0.0000000 ]
  distance:    0.0052149
  band:
  - # 1
    frequency:   -0.0697675323
  - # 2
    frequency:    0.2060552046
  - # 3
    frequency:    0.3254840660
  - # 4
    frequency:    1.1531445608
  - # 5
    frequency:    1.1708824236
  - # 6
    frequency:    3.1957121819
  - # 7
    frequency:    3.2082681044
  - # 8
    frequency:    4.6433578434
  - # 9
    frequency:    5.9190126790
  - # 10
    frequency:    5.9287019462
  - # 11
    frequency:    8.0310943385
  - # 12
    frequency:    8.2019206344
  - # 13
    frequency:    8.2182592987
  - # 14
    frequency:   11.2581608849
  - # 15
    frequency:   11.2596751295
  - # 16
    frequency:   11.8605582448
  - # 17
    frequency:   15.4817936212
  - # 18
    frequency:   16.0476974590
  - # 19
    frequency:   16.0527552903
  - # 20
    frequency:   20.2814417412
  - # 21
    frequency:   64.7688206880

- q-position: [    0.0202020,    0.0000000,    0.0000000 ]
  distance:    0.0069532
  band:
  - # 1
    frequency:   -0.0784156607
  - # 2
    frequency:    0.2744530791
  - # 3
    frequency:    0.4312077998
  - # 4
    frequency:    1.1572531059
  - # 5
    frequency:    1.1885565401
  - # 6
    frequency:    3.1991553606
  - # 7
    frequency:    3.2213038702
  - # 8
    frequency:    4.6389999223
  - # 9
    frequency:    5.9203346984
  - # 10
    frequency:    5.9374221774
  - # 11
    frequency:    8.0201695677
  - # 12
    frequency:    8.2024637817
  - # 13
    frequency:    8.2296071902
  - # 14
    frequency:   11.2590332894
  - # 15
    frequency:   11.2617179592
  - # 16
    frequency:   11.8546335853
  - # 17
    frequency:   15.4802993180
  - # 18
    frequency:   16.0516818150
  - # 19
    frequency:   16.0606320415
  - # 20
    frequency:   20.2810603083
  - # 21
    frequency:   64.7682852624

- q-position: [    0.0252525,    0.0000000,    0.0000000 ]
  distance:    0.0086915
  band:
  - # 1
    frequency:   -0.0829406245
  - # 2
    frequency:    0.3425958647
  - # 3
    frequency:    0.5365694137
  - # 4
    frequency:    1.1625515578
  - # 5
    frequency:    1.2110477165
  - # 6
    frequency:    3.2035642791
  - # 7
    frequency:    3.2378296760
  - # 8
    frequency:    4.6335800908
  - # 9
    frequency:    5.9220264722
  - # 10
    frequency:    5.9484552144
  - # 11
    frequency:    8.0077520371
  - # 12
    frequency:    8.2031550375
  - # 13
    frequency:    8.2425787906
  - # 14
    frequency:   11.2601507262
  - # 15
    frequency:   11.2643308196
  - # 16
    frequency:   11.8470400248
  - # 17
    frequency:   15.4783912784
  - # 18
    frequency:   16.0567646639
  - # 19
    frequency:   16.0706668993
  - # 20
    frequency:   20.2805701415
  - # 21
    frequency:   64.7675987601

- q-position: [    0.0303030,    0.0000000,    0.0000000 ]
  distance:    0.0104298
  band:
  - # 1
    frequency:   -0.0803690657
  - # 2
    frequency:    0.4104075184
  - # 3
    frequency:    0.6411497564
  - # 4
    frequency:    1.1690563448
  - # 5
    frequency:    1.2382607956
  - # 6
    frequency:    3.2089256972
  - # 7
    frequency:    3.2576794398
  - # 8
    frequency:    4.6272266488
  - # 9
    frequency:    5.9240821177
  - # 10
    frequency:    5.9616771748
  - # 11
    frequency:    7.9943534155
  - # 12
    frequency:    8.2039891738
  - # 13
    frequency:    8.2566701421
  - # 14
    frequency:   11.2615100339
  - # 15
    frequency:   11.2675034897
  - # 16
    frequency:   11.8377955213
  - # 17
    frequency:   15.4760785221
  - # 18
    frequency:   16.0629165624
  - # 19
    frequency:   16.0827923158
  - # 20
    frequency:   20.2799714332
  - # 21
    frequency:   64.7667625972

- q-position: [    0.0353535,    0.0000000,    0.0000000 ]
  distance:    0.0121682
  band:
  - # 1
    frequency:   -0.0649288619
  - # 2
    frequency:    0.4778018948
  - # 3
    frequency:    0.7445379616
  - # 4
    frequency:    1.1767930401
  - # 5
    frequency:    1.2701641031
  - # 6
    frequency:    3.2152237356
  - # 7
    frequency:    3.2806598300
  - # 8
    frequency:    4.6200876728
  - # 9
    frequency:    5.9264945451
  - # 10
    frequency:    5.9769465709
  - # 11
    frequency:    7.9803383341
  - # 12
    frequency:    8.2049598869
  - # 13
    frequency:    8.2715262182
  - # 14
    frequency:   11.2631073584
  - # 15
    frequency:   11.2712234670
  - # 16
    frequency:   11.8269221066
  - # 17
    frequency:   15.4733712350
  - # 18
    frequency:   16.0701020487
  - # 19
    frequency:   16.0969275182
  - # 20
    frequency:   20.2792644266
  - # 21
    frequency:   64.7657784926

- q-position: [    0.0404040,    0.0000000,    0.0000000 ]
  distance:    0.0139065
  band:
  - # 1
    frequency:    0.0239198188
  - # 2
    frequency:    0.5446784364
  - # 3
    frequency:    0.8462404154
  - # 4
    frequency:    1.1858006272
  - # 5
    frequency:    1.3068396143
  - # 6
    frequency:    3.2224400495
  - # 7
    frequency:    3.3065545885
  - # 8
    frequency:    4.6123274251
  - # 9
    frequency:    5.9292555163
  - # 10
    frequency:    5.9941086841
  - # 11
    frequency:    7.9659669880
  - # 12
    frequency:    8.2060598479
  - # 13
    frequency:    8.2868984233
  - # 14
    frequency:   11.2649381587
  - # 15
    frequency:   11.2754759364
  - # 16
    frequency:   11.8144459570
  - # 17
    frequency:   15.4702804323
  - # 18
    frequency:   16.0782799485
  - # 19
    frequency:   16.1129793978
  - # 20
    frequency:   20.2784494197
  - # 21
    frequency:   64.7646484615

- q-position: [    0.0454545,    0.0000000,    0.0000000 ]
  distance:    0.0156448
  band:
  - # 1
    frequency:    0.0930122763
  - # 2
    frequency:    0.6109160783
  - # 3
    frequency:    0.9456103882
  - # 4
    frequency:    1.1961376356
  - # 5
    frequency:    1.3485433338
  - # 6
    frequency:    3.2305540270
  - # 7
    frequency:    3.3351285761
  - # 8
    frequency:    4.6041232237
  - # 9
    frequency:    5.9323557130
  - # 10
    frequency:    6.0129996838
  - # 11
    frequency:    7.9514299489
  - # 12
    frequency:    8.2072807608
  - # 13
    frequency:    8.3026098904
  - # 14
    frequency:   11.2669972157
  - # 15
    frequency:   11.2802437054
  - # 16
    frequency:   11.8003975016
  - # 17
    frequency:   15.4668176638
  - # 18
    frequency:   16.0874037292
  - # 19
    frequency:   16.1308434453
  - # 20
    frequency:   20.2775267706
  - # 21
    frequency:   64.7633748070

- q-position: [    0.0505051,    0.0000000,    0.0000000 ]
  distance:    0.0173831
  band:
  - # 1
    frequency:    0.1441390402
  - # 2
    frequency:    0.6763645219
  - # 3
    frequency:    1.0417857516
  - # 4
    frequency:    1.2078909708
  - # 5
    frequency:    1.3957658434
  - # 6
    frequency:    3.2395430070
  - # 7
    frequency:    3.3661312568
  - # 8
    frequency:    4.5956630150
  - # 9
    frequency:    5.9357848130
  - # 10
    frequency:    6.0334502856
  - # 11
    frequency:    7.9368724280
  - # 12
    frequency:    8.2086134269
  - # 13
    frequency:    8.3185313353
  - # 14
    frequency:   11.2692786423
  - # 15
    frequency:   11.2855070845
  - # 16
    frequency:   11.7848115855
  - # 17
    frequency:   15.4629947760
  - # 18
    frequency:   16.0974218989
  - # 19
    frequency:   16.1504047092
  - # 20
    frequency:   20.2764969024
  - # 21
    frequency:   64.7619601113

- q-position: [    0.0555556,    0.0000000,    0.0000000 ]
  distance:    0.0191214
  band:
  - # 1
    frequency:    0.1941496835
  - # 2
    frequency:    0.7408317121
  - # 3
    frequency:    1.1336709345
  - # 4
    frequency:    1.2211885792
  - # 5
    frequency:    1.4492504622
  - # 6
    frequency:    3.2493825160
  - # 7
    frequency:    3.3992994065
  - # 8
    frequency:    4.5871437971
  - # 9
    frequency:    5.9395315746
  - # 10
    frequency:    6.0552888353
  - # 11
    frequency:    7.9224102890
  - # 12
    frequency:    8.2100478161
  - # 13
    frequency:    8.3345651613
  - # 14
    frequency:   11.2717758957
  - # 15
    frequency:   11.2912436790
  - # 16
    frequency:   11.7677277237
  - # 17
    frequency:   15.4588237334
  - # 18
    frequency:   16.1082784454
  - # 19
    frequency:   16.1715387690
  - # 20
    frequency:   20.2753603091
  - # 21
    frequency:   64.7604072250

- q-position: [    0.0606061,    0.0000000,    0.0000000 ]
  distance:    0.0208597
  band:
  - # 1
    frequency:    0.2452235224
  - # 2
    frequency:    0.8040661041
  - # 3
    frequency:    1.2200616711
  - # 4
    frequency:    1.2362173518
  - # 5
    frequency:    1.5098686043
  - # 6
    frequency:    3.2600465168
  - # 7
    frequency:    3.4343589077
  - # 8
    frequency:    4.5787709647
  - # 9
    frequency:    5.9435839282
  - # 10
    frequency:    6.0783437842
  - # 11
    frequency:    7.9081404691
  - # 12
    frequency:    8.2115731430
  - # 13
    frequency:    8.3506351515
  - # 14
    frequency:   11.2744817931
  - # 15
    frequency:   11.2974280380
  - # 16
    frequency:   11.7491904944
  - # 17
    frequency:   15.4543164954
  - # 18
    frequency:   16.1199133112
  - # 19
    frequency:   16.1941127178
  - # 20
    frequency:   20.2741175609
  - # 21
    frequency:   64.7587192565

- q-position: [    0.0656566,    0.0000000,    0.0000000 ]
  distance:    0.0225980
  band:
  - # 1
    frequency:    0.2979919314
  - # 2
    frequency:    0.8657325773
  - # 3
    frequency:    1.2532473895
  - # 4
    frequency:    1.3000185707
  - # 5
    frequency:    1.5782458547
  - # 6
    frequency:    3.2715076688
  - # 7
    frequency:    3.4710255657
  - # 8
    frequency:    4.5707585752
  - # 9
    frequency:    5.9479290734
  - # 10
    frequency:    6.1024455866
  - # 11
    frequency:    7.8941477794
  - # 12
    frequency:    8.2131779484
  - # 13
    frequency:    8.3666797662
  - # 14
    frequency:   11.2773885297
  - # 15
    frequency:   11.3040310715
  - # 16
    frequency:   11.7292501616
  - # 17
    frequency:   15.4494849389
  - # 18
    frequency:   16.1322629000
  - # 19
    frequency:   16.2179861564
  - # 20
    frequency:   20.2727693099
  - # 21
    frequency:   64.7568995596

- q-position: [    0.0707071,    0.0000000,    0.0000000 ]
  distance:    0.0243363
  band:
  - # 1
    frequency:    0.3526403396
  - # 2
    frequency:    0.9253829935
  - # 3
    frequency:    1.2726616278
  - # 4
    frequency:    1.3733682317
  - # 5
    frequency:    1.6542600406
  - # 6
    frequency:    3.2837375921
  - # 7
    frequency:    3.5090049579
  - # 8
    frequency:    4.5633304763
  - # 9
    frequency:    5.9525535816
  - # 10
    frequency:    6.1274280863
  - # 11
    frequency:    7.8805093829
  - # 12
    frequency:    8.2148501832
  - # 13
    frequency:    8.3826477424
  - # 14
    frequency:   11.2804876999
  - # 15
    frequency:   11.3110190807
  - # 16
    frequency:   11.7079636798
  - # 17
    frequency:   15.4443408161
  - # 18
    frequency:   16.1452606095
  - # 19
    frequency:   16.2430122011
  - # 20
    frequency:   20.2713162955
  - # 21
    frequency:   64.7549517207

- q-position: [    0.0757576,    0.0000000,    0.0000000 ]
  distance:    0.0260746
  band:
  - # 1
    frequency:    0.4091824186
  - # 2
    frequency:    0.9824294085
  - # 3
    frequency:    1.2949827987
  - # 4
    frequency:    1.4408789683
  - # 5
    frequency:    1.7368643492
  - # 6
    frequency:    3.2967071359
  - # 7
    frequency:    3.5479914106
  - # 8
    frequency:    4.5567221681
  - # 9
    frequency:    5.9574435024
  - # 10
    frequency:    6.1531294849
  - # 11
    frequency:    7.8672977626
  - # 12
    frequency:    8.2165772966
  - # 13
    frequency:    8.3984951678
  - # 14
    frequency:   11.2837703224
  - # 15
    frequency:   11.3183521251
  - # 16
    frequency:   11.6853963539
  - # 17
    frequency:   15.4388957358
  - # 18
    frequency:   16.1588373853
  - # 19
    frequency:   16.2690385065
  - # 20
    frequency:   20.2697593492
  - # 21
    frequency:   64.7528795447

- q-position: [    0.0808081,    0.0000000,    0.0000000 ]
  distance:    0.0278129
  band:
  - # 1
    frequency:    0.4675559035
  - # 2
    frequency:    1.0361442000
  - # 3
    frequency:    1.3208734663
  - # 4
    frequency:    1.5038837506
  - # 5
    frequency:    1.8244630184
  - # 6
    frequency:    3.3103866433
  - # 7
    frequency:    3.5876663048
  - # 8
    frequency:    4.5511831807
  - # 9
    frequency:    5.9625844726
  - # 10
    frequency:    6.1793929885
  - # 11
    frequency:    7.8545826848
  - # 12
    frequency:    8.2183463251
  - # 13
    frequency:    8.4141835141
  - # 14
    frequency:   11.2872268691
  - # 15
    frequency:   11.3259812100
  - # 16
    frequency:   11.6616246722
  - # 17
    frequency:   15.4331611592
  - # 18
    frequency:   16.1729222898
  - # 19
    frequency:   16.2959083042
  - # 20
    frequency:   20.2680993992
  - # 21
    frequency:   64.7506870413

- q-position: [    0.0858586,    0.0000000,    0.0000000 ]
  distance:    0.0295512
  band:
  - # 1
    frequency:    0.5276629491
  - # 2
    frequency:    1.0857345425
  - # 3
    frequency:    1.3510616962
  - # 4
    frequency:    1.5637371608
  - # 5
    frequency:    1.9154529025
  - # 6
    frequency:    3.3247462132
  - # 7
    frequency:    3.6276960682
  - # 8
    frequency:    4.5469796150
  - # 9
    frequency:    5.9679618275
  - # 10
    frequency:    6.2060672318
  - # 11
    frequency:    7.8424324680
  - # 12
    frequency:    8.2201439835
  - # 13
    frequency:    8.4296783039
  - # 14
    frequency:   11.2908472972
  - # 15
    frequency:   11.3338432731
  - # 16
    frequency:   11.6367413295
  - # 17
    frequency:   15.4271484024
  - # 18
    frequency:   16.1874430825
  - # 19
    frequency:   16.3234614545
  - # 20
    frequency:   20.2663374741
  - # 21
    frequency:   64.7483784094

- q-position: [    0.0909091,    0.0000000,    0.0000000 ]
  distance:    0.0312895
  band:
  - # 1
    frequency:    0.5893892321
  - # 2
    frequency:    1.1305364651
  - # 3
    frequency:    1.3861471232
  - # 4
    frequency:    1.6215128685
  - # 5
    frequency:    2.0085244819
  - # 6
    frequency:    3.3397559524
  - # 7
    frequency:    3.6677304302
  - # 8
    frequency:    4.5443962777
  - # 9
    frequency:    5.9735607124
  - # 10
    frequency:    6.2330065667
  - # 11
    frequency:    7.8309147490
  - # 12
    frequency:    8.2219567556
  - # 13
    frequency:    8.4449482032
  - # 14
    frequency:   11.2946210866
  - # 15
    frequency:   11.3418518400
  - # 16
    frequency:   11.6108645718
  - # 17
    frequency:   15.4208686395
  - # 18
    frequency:   16.2023268046
  - # 19
    frequency:   16.3515355093
  - # 20
    frequency:   20.2644747062
  - # 21
    frequency:   64.7459580219

- q-position: [    0.0959596,    0.0000000,    0.0000000 ]
  distance:    0.0330278
  band:
  - # 1
    frequency:    0.6526136985
  - # 2
    frequency:    1.1702836182
  - # 3
    frequency:    1.4263322903
  - # 4
    frequency:    1.6779571541
  - # 5
    frequency:    2.1027068389
  - # 6
    frequency:    3.3553862174
  - # 7
    frequency:    3.7074018312
  - # 8
    frequency:    4.5437375436
  - # 9
    frequency:    5.9793661931
  - # 10
    frequency:    6.2600712941
  - # 11
    frequency:    7.8200968628
  - # 12
    frequency:    8.2237709846
  - # 13
    frequency:    8.4599644066
  - # 14
    frequency:   11.2985372806
  - # 15
    frequency:   11.3498785966
  - # 16
    frequency:   11.5841566106
  - # 17
    frequency:   15.4143329052
  - # 18
    frequency:   16.2175003625
  - # 19
    frequency:   16.3799667774
  - # 20
    frequency:   20.2625123337
  - # 21
    frequency:   64.7434304097

- q-position: [    0.1010101,    0.0000000,    0.0000000 ]
  distance:    0.0347662
  band:
  - # 1
    frequency:    0.7172137638
  - # 2
    frequency:    1.2052639132
  - # 3
    frequency:    1.4712660935
  - # 4
    frequency:    1.7335532854
  - # 5
    frequency:    2.1973018218
  - # 6
    frequency:    3.3716078432
  - # 7
    frequency:    3.7463272569
  - # 8
    frequency:    4.5453257037
  - # 9
    frequency:    5.9853633651
  - # 10
    frequency:    6.2871279060
  - # 11
    frequency:    7.8100459070
  - # 12
    frequency:    8.2255729629
  - # 13
    frequency:    8.4747002256
  - # 14
    frequency:   11.3025845312
  - # 15
    frequency:   11.3577144883
  - # 16
    frequency:   11.5568625000
  - # 17
    frequency:   15.4075520917
  - # 18
    frequency:   16.2328911066
  - # 19
    frequency:   16.4085913877
  - # 20
    frequency:   20.2604517024
  - # 21
    frequency:   64.7408002456

- q-position: [    0.1060606,    0.0000000,    0.0000000 ]
  distance:    0.0365045
  band:
  - # 1
    frequency:    0.7830681328
  - # 2
    frequency:    1.2362111084
  - # 3
    frequency:    1.5201522621
  - # 4
    frequency:    1.7886008758
  - # 5
    frequency:    2.2918032788
  - # 6
    frequency:    3.3883923545
  - # 7
    frequency:    3.7841141276
  - # 8
    frequency:    4.5494952011
  - # 9
    frequency:    5.9915374597
  - # 10
    frequency:    6.3140493915
  - # 11
    frequency:    7.8008285321
  - # 12
    frequency:    8.2273490191
  - # 13
    frequency:    8.4891308227
  - # 14
    frequency:   11.3067511489
  - # 15
    frequency:   11.3649810619
  - # 16
    frequency:   11.5293987559
  - # 17
    frequency:   15.4005369429
  - # 18
    frequency:   16.2484273977
  - # 19
    frequency:   16.4372463409
  - # 20
    frequency:   20.2582942661
  - # 21
    frequency:   64.7380723275

- q-position: [    0.1111111,    0.0000000,    0.0000000 ]
  distance:    0.0382428
  band:
  - # 1
    frequency:    0.8500583053
  - # 2
    frequency:    1.2640266923
  - # 3
    frequency:    1.5720275235
  - # 4
    frequency:    1.8432785315
  - # 5
    frequency:    2.3858330550
  - # 6
    frequency:    3.4057121607
  - # 7
    frequency:    3.8203719918
  - # 8
    frequency:    4.5565810456
  - # 9
    frequency:    5.9978739461
  - # 10
    frequency:    6.3407156493
  - # 11
    frequency:    7.7925104834
  - # 12
    frequency:    8.2290856033
  - # 13
    frequency:    8.5032330489
  - # 14
    frequency:   11.3110251559
  - # 15
    frequency:   11.3709140982
  - # 16
    frequency:   11.5025696704
  - # 17
    frequency:   15.3932980429
  - # 18
    frequency:   16.2640391586
  - # 19
    frequency:   16.4657705425
  - # 20
    frequency:   20.2560415867
  - # 21
    frequency:   64.7352515622

- q-position: [    0.1161616,    0.0000000,    0.0000000 ]
  distance:    0.0399811
  band:
  - # 1
    frequency:    0.9180693261
  - # 2
    frequency:    1.2895447146
  - # 3
    frequency:    1.6259968061
  - # 4
    frequency:    1.8976868783
  - # 5
    frequency:    2.4790966429
  - # 6
    frequency:    3.4235407299
  - # 7
    frequency:    3.8547312893
  - # 8
    frequency:    4.5669001818
  - # 9
    frequency:    6.0043586276
  - # 10
    frequency:    6.3670140353
  - # 11
    frequency:    7.7851559110
  - # 12
    frequency:    8.2307693694
  - # 13
    frequency:    8.5169853596
  - # 14
    frequency:   11.3153943441
  - # 15
    frequency:   11.3738420800
  - # 16
    frequency:   11.4780887763
  - # 17
    frequency:   15.3858458020
  - # 18
    frequency:   16.2796584038
  - # 19
    frequency:   16.4940058084
  - # 20
    frequency:   20.2536953331
  - # 21
    frequency:   64.7323429483

- q-position: [    0.1212121,    0.0000000,    0.0000000 ]
  distance:    0.0417194
  band:
  - # 1
    frequency:    0.9869900899
  - # 2
    frequency:    1.3134292603
  - # 3
    frequency:    1.6813357864
  - # 4
    frequency:    1.9518766265
  - # 5
    frequency:    2.5713538058
  - # 6
    frequency:    3.4418527420
  - # 7
    frequency:    3.8868689764
  - # 8
    frequency:    4.5807260719
  - # 9
    frequency:    6.0109777332
  - # 10
    frequency:    6.3928400620
  - # 11
    frequency:    7.7788264644
  - # 12
    frequency:    8.2323872536
  - # 13
    frequency:    8.5303677865
  - # 14
    frequency:   11.3198463361
  - # 15
    frequency:   11.3703837175
  - # 16
    frequency:   11.4593812394
  - # 17
    frequency:   15.3781904387
  - # 18
    frequency:   16.2952197446
  - # 19
    frequency:   16.5217978349
  - # 20
    frequency:   20.2512572798
  - # 21
    frequency:   64.7293515599

- q-position: [    0.1262626,    0.0000000,    0.0000000 ]
  distance:    0.0434577
  band:
  - # 1
    frequency:    1.0567133820
  - # 2
    frequency:    1.3361683585
  - # 3
    frequency:    1.7374969936
  - # 4
    frequency:    2.0058665816
  - # 5
    frequency:    2.6623992222
  - # 6
    frequency:    3.4606242195
  - # 7
    frequency:    3.9165382738
  - # 8
    frequency:    4.5982592844
  - # 9
    frequency:    6.0177180003
  - # 10
    frequency:    6.4180982473
  - # 11
    frequency:    7.7735801901
  - # 12
    frequency:    8.2339265493
  - # 13
    frequency:    8.5433619544
  - # 14
    frequency:   11.3243686500
  - # 15
    frequency:   11.3567382507
  - # 16
    frequency:   11.4502934572
  - # 17
    frequency:   15.3703419611
  - # 18
    frequency:   16.3106608649
  - # 19
    frequency:   16.5489971263
  - # 20
    frequency:   20.2487293049
  - # 21
    frequency:   64.7262825298

- q-position: [    0.1313131,    0.0000000,    0.0000000 ]
  distance:    0.0451960
  band:
  - # 1
    frequency:    1.1271357625
  - # 2
    frequency:    1.3581064264
  - # 3
    frequency:    1.7940773717
  - # 4
    frequency:    2.0596552003
  - # 5
    frequency:    2.7520495017
  - # 6
    frequency:    3.4798326348
  - # 7
    frequency:    3.9435969426
  - # 8
    frequency:    4.6195997548
  - # 9
    frequency:    6.0245667511
  - # 10
    frequency:    6.4427030968
  - # 11
    frequency:    7.7694702625
  - # 12
    frequency:    8.2353749781
  - # 13
    frequency:    8.5559511315
  - # 14
    frequency:   11.3289487665
  - # 15
    frequency:   11.3335878691
  - # 16
    frequency:   11.4501905241
  - # 17
    frequency:   15.3623101474
  - # 18
    frequency:   16.3259229632
  - # 19
    frequency:   16.5754598732
  - # 20
    frequency:   20.2461133880
  - # 21
    frequency:   64.7231410336

- q-position: [    0.1363636,    0.0000000,    0.0000000 ]
  distance:    0.0469343
  band:
  - # 1
    frequency:    1.1981573621
  - # 2
    frequency:    1.3794819229
  - # 3
    frequency:    1.8507806316
  - # 4
    frequency:    2.1132280529
  - # 5
    frequency:    2.8401341402
  - # 6
    frequency:    3.4994569923
  - # 7
    frequency:    3.9680269153
  - # 8
    frequency:    4.6447279716
  - # 9
    frequency:    6.0315119592
  - # 10
    frequency:    6.4665801820
  - # 11
    frequency:    7.7665435875
  - # 12
    frequency:    8.2367207561
  - # 13
    frequency:    8.5681203061
  - # 14
    frequency:   11.3047684956
  - # 15
    frequency:   11.3335741983
  - # 16
    frequency:   11.4552853174
  - # 17
    frequency:   15.3541045267
  - # 18
    frequency:   16.3409511583
  - # 19
    frequency:   16.6010487751
  - # 20
    frequency:   20.2434116075
  - # 21
    frequency:   64.7199322734

- q-position: [    0.1414141,    0.0000000,    0.0000000 ]
  distance:    0.0486726
  band:
  - # 1
    frequency:    1.2696816314
  - # 2
    frequency:    1.4004584439
  - # 3
    frequency:    1.9073861603
  - # 4
    frequency:    2.1665626836
  - # 5
    frequency:    2.9264888355
  - # 6
    frequency:    3.5194778864
  - # 7
    frequency:    3.9899394247
  - # 8
    frequency:    4.6735010420
  - # 9
    frequency:    6.0385423082
  - # 10
    frequency:    6.4896672583
  - # 11
    frequency:    7.7648393352
  - # 12
    frequency:    8.2379526554
  - # 13
    frequency:    8.5798562857
  - # 14
    frequency:   11.2729491128
  - # 15
    frequency:   11.3382325622
  - # 16
    frequency:   11.4629590239
  - # 17
    frequency:   15.3457343609
  - # 18
    frequency:   16.3556948555
  - # 19
    frequency:   16.6256338017
  - # 20
    frequency:   20.2406261383
  - # 21
    frequency:   64.7166614623

- q-position: [    0.1464646,    0.0000000,    0.0000000 ]
  distance:    0.0504109
  band:
  - # 1
    frequency:    1.3416150696
  - # 2
    frequency:    1.4211475176
  - # 3
    frequency:    1.9637262363
  - # 4
    frequency:    2.2196318029
  - # 5
    frequency:    3.0109501196
  - # 6
    frequency:    3.5398775321
  - # 7
    frequency:    4.0095641029
  - # 8
    frequency:    4.7056652853
  - # 9
    frequency:    6.0456472389
  - # 10
    frequency:    6.5119153474
  - # 11
    frequency:    7.7643874711
  - # 12
    frequency:    8.2390600616
  - # 13
    frequency:    8.5911478140
  - # 14
    frequency:   11.2394163361
  - # 15
    frequency:   11.3429116506
  - # 16
    frequency:   11.4719764037
  - # 17
    frequency:   15.3372086298
  - # 18
    frequency:   16.3701080701
  - # 19
    frequency:   16.6490928889
  - # 20
    frequency:   20.2377592506
  - # 21
    frequency:   64.7133338092

- q-position: [    0.1515152,    0.0000000,    0.0000000 ]
  distance:    0.0521492
  band:
  - # 1
    frequency:    1.4138669502
  - # 2
    frequency:    1.4416245278
  - # 3
    frequency:    2.0196701223
  - # 4
    frequency:    2.2724053994
  - # 5
    frequency:    3.0933505994
  - # 6
    frequency:    3.5606397706
  - # 7
    frequency:    4.0272257942
  - # 8
    frequency:    4.7408817426
  - # 9
    frequency:    6.0528169883
  - # 10
    frequency:    6.5332896933
  - # 11
    frequency:    7.7652073682
  - # 12
    frequency:    8.2400330255
  - # 13
    frequency:    8.6019857034
  - # 14
    frequency:   11.2047994346
  - # 15
    frequency:   11.3475995047
  - # 16
    frequency:   11.4817605902
  - # 17
    frequency:   15.3285360179
  - # 18
    frequency:   16.3841497064
  - # 19
    frequency:   16.6713125650
  - # 20
    frequency:   20.2348133077
  - # 21