nqpoint: 300    
npath: 3      
segment_nqpoint:
- 100
- 100
- 100
labels:
- [ 'G', 'M' ]
- [ 'M', 'K' ]
- [ 'K', 'G' ]
reciprocal_lattice:
- [   0.29586064,   0.17081522,   0.00000000 ] # a*
- [   0.00000000,   0.34163044,   0.00000000 ] # b*
- [   0.00000000,   0.00000000,   0.03728650 ] # c*
natom: 8      
lattice:
- [     3.379969738800515,     0.000000000000000,     0.000000000000000 ] # a
- [    -1.689984869400257,     2.927139657791043,     0.000000000000000 ] # b
- [     0.000000000000000,     0.000000000000000,    26.819361802672674 ] # c
points:
- symbol: C # 1
  coordinates: [  0.000000000000000,  0.000000000000000,  0.464479343961757 ]
  mass: 12.010700
- symbol: C # 2
  coordinates: [  0.333332985432215,  0.666666983183674,  0.606408490600344 ]
  mass: 12.010700
- symbol: H # 3
  coordinates: [  0.666666984744047,  0.333332985985145,  0.335578455081027 ]
  mass: 1.007940
- symbol: N # 4
  coordinates: [  0.333332985432215,  0.666666983183674,  0.559971575050019 ]
  mass: 14.006700
- symbol: O # 5
  coordinates: [  0.666666984744047,  0.333332985985145,  0.372273197330322 ]
  mass: 15.999400
- symbol: S # 6
  coordinates: [  0.333332985432215,  0.666666983183674,  0.664421544918973 ]
  mass: 32.065000
- symbol: Sc # 7
  coordinates: [  0.333332985432215,  0.666666983183674,  0.417517682953095 ]
  mass: 44.955912
- symbol: Sc # 8
  coordinates: [  0.666666984744047,  0.333332985985145,  0.510908787997800 ]
  mass: 44.955912

phonon:
- q-position: [    0.0000000,    0.0000000,    0.0000000 ]
  distance:    0.0000000
  band:
  - # 1
    frequency:   -0.0000416458
  - # 2
    frequency:   -0.0000002669
  - # 3
    frequency:    0.0000288394
  - # 4
    frequency:    0.3570099836
  - # 5
    frequency:    0.3570099852
  - # 6
    frequency:    4.6524170771
  - # 7
    frequency:    4.6524170772
  - # 8
    frequency:    5.5964418474
  - # 9
    frequency:    6.3956507354
  - # 10
    frequency:    6.3956507354
  - # 11
    frequency:    6.8111287986
  - # 12
    frequency:    6.8111287986
  - # 13
    frequency:   10.0516175579
  - # 14
    frequency:   10.9459393073
  - # 15
    frequency:   10.9459393075
  - # 16
    frequency:   12.5063492855
  - # 17
    frequency:   12.5063492857
  - # 18
    frequency:   13.5233940778
  - # 19
    frequency:   14.3685428272
  - # 20
    frequency:   14.3685428274
  - # 21
    frequency:   18.8866066650
  - # 22
    frequency:   27.4147093846
  - # 23
    frequency:   59.8180538593
  - # 24
    frequency:  114.9047618140

- q-position: [    0.0050505,    0.0000000,    0.0000000 ]
  distance:    0.0017254
  band:
  - # 1
    frequency:    0.0029004008
  - # 2
    frequency:    0.0758923174
  - # 3
    frequency:    0.1373567563
  - # 4
    frequency:    0.3611504483
  - # 5
    frequency:    0.3724113733
  - # 6
    frequency:    4.6525589301
  - # 7
    frequency:    4.6536103033
  - # 8
    frequency:    5.5962729297
  - # 9
    frequency:    6.3955074005
  - # 10
    frequency:    6.3991285869
  - # 11
    frequency:    6.8112029851
  - # 12
    frequency:    6.8123760624
  - # 13
    frequency:   10.0508398879
  - # 14
    frequency:   10.9457530760
  - # 15
    frequency:   10.9467880774
  - # 16
    frequency:   12.5062091289
  - # 17
    frequency:   12.5094525650
  - # 18
    frequency:   13.5251279518
  - # 19
    frequency:   14.3686337419
  - # 20
    frequency:   14.3689319071
  - # 21
    frequency:   18.8853579600
  - # 22
    frequency:   27.4146151892
  - # 23
    frequency:   59.8166759310
  - # 24
    frequency:  114.9047322743

- q-position: [    0.0101010,    0.0000000,    0.0000000 ]
  distance:    0.0034508
  band:
  - # 1
    frequency:    0.0109799392
  - # 2
    frequency:    0.1502949633
  - # 3
    frequency:    0.2676215210
  - # 4
    frequency:    0.3738828164
  - # 5
    frequency:    0.4196966716
  - # 6
    frequency:    4.6529846731
  - # 7
    frequency:    4.6571719679
  - # 8
    frequency:    5.5957854694
  - # 9
    frequency:    6.3950786181
  - # 10
    frequency:    6.4094082793
  - # 11
    frequency:    6.8114245360
  - # 12
    frequency:    6.8161724897
  - # 13
    frequency:   10.0485136266
  - # 14
    frequency:   10.9451950095
  - # 15
    frequency:   10.9492729248
  - # 16
    frequency:   12.5057896931
  - # 17
    frequency:   12.5188325851
  - # 18
    frequency:   13.5303173289
  - # 19
    frequency:   14.3689063938
  - # 20
    frequency:   14.3700985680
  - # 21
    frequency:   18.8816139218
  - # 22
    frequency:   27.4143327031
  - # 23
    frequency:   59.8125447488
  - # 24
    frequency:  114.9046437476

- q-position: [    0.0151515,    0.0000000,    0.0000000 ]
  distance:    0.0051762
  band:
  - # 1
    frequency:    0.0231968381
  - # 2
    frequency:    0.2210286415
  - # 3
    frequency:    0.3777622117
  - # 4
    frequency:    0.3963961895
  - # 5
    frequency:    0.5051317833
  - # 6
    frequency:    4.6536948602
  - # 7
    frequency:    4.6630483753
  - # 8
    frequency:    5.5950353281
  - # 9
    frequency:    6.3943680317
  - # 10
    frequency:    6.4260303604
  - # 11
    frequency:    6.8117904455
  - # 12
    frequency:    6.8226858123
  - # 13
    frequency:   10.0446587544
  - # 14
    frequency:   10.9442669903
  - # 15
    frequency:   10.9532125218
  - # 16
    frequency:   12.5050940766
  - # 17
    frequency:   12.5346951777
  - # 18
    frequency:   13.5389261729
  - # 19
    frequency:   14.3693605083
  - # 20
    frequency:   14.3720410808
  - # 21
    frequency:   18.8753807816
  - # 22
    frequency:   27.4138622274
  - # 23
    frequency:   59.8056681144
  - # 24
    frequency:  114.9044965111

- q-position: [    0.0202020,    0.0000000,    0.0000000 ]
  distance:    0.0069016
  band:
  - # 1
    frequency:    0.0388646844
  - # 2
    frequency:    0.2846793138
  - # 3
    frequency:    0.4311704795
  - # 4
    frequency:    0.4650222651
  - # 5
    frequency:    0.6255500358
  - # 6
    frequency:    4.6546904187
  - # 7
    frequency:    4.6711511343
  - # 8
    frequency:    5.5941096317
  - # 9
    frequency:    6.3933816344
  - # 10
    frequency:    6.4482366673
  - # 11
    frequency:    6.8122957727
  - # 12
    frequency:    6.8322068613
  - # 13
    frequency:   10.0393077281
  - # 14
    frequency:   10.9429721520
  - # 15
    frequency:   10.9583149870
  - # 16
    frequency:   12.5041274259
  - # 17
    frequency:   12.5573676208
  - # 18
    frequency:   13.5508967120
  - # 19
    frequency:   14.3699956259
  - # 20
    frequency:   14.3747565821
  - # 21
    frequency:   18.8666689279
  - # 22
    frequency:   27.4132042629
  - # 23
    frequency:   59.7960590064
  - # 24
    frequency:  114.9042910253

- q-position: [    0.0252525,    0.0000000,    0.0000000 ]
  distance:    0.0086270
  band:
  - # 1
    frequency:    0.0577301833
  - # 2
    frequency:    0.3379883526
  - # 3
    frequency:    0.4805815080
  - # 4
    frequency:    0.5445197485
  - # 5
    frequency:    0.7615784137
  - # 6
    frequency:    4.6559726540
  - # 7
    frequency:    4.6813586449
  - # 8
    frequency:    5.5931200099
  - # 9
    frequency:    6.3921276545
  - # 10
    frequency:    6.4749850226
  - # 11
    frequency:    6.8129337391
  - # 12
    frequency:    6.8451601163
  - # 13
    frequency:   10.0325043478
  - # 14
    frequency:   10.9413148738
  - # 15
    frequency:   10.9641936954
  - # 16
    frequency:   12.5028969095
  - # 17
    frequency:   12.5872748822
  - # 18
    frequency:   13.5661527426
  - # 19
    frequency:   14.3708111019
  - # 20
    frequency:   14.3782411049
  - # 21
    frequency:   18.8554929123
  - # 22
    frequency:   27.4123595093
  - # 23
    frequency:   59.7837355461
  - # 24
    frequency:  114.9040279329

- q-position: [    0.0303030,    0.0000000,    0.0000000 ]
  distance:    0.0103524
  band:
  - # 1
    frequency:    0.0797426617
  - # 2
    frequency:    0.3817666607
  - # 3
    frequency:    0.5430153878
  - # 4
    frequency:    0.6238440855
  - # 5
    frequency:    0.9028179302
  - # 6
    frequency:    4.6575432574
  - # 7
    frequency:    4.6935178940
  - # 8
    frequency:    5.5921963713
  - # 9
    frequency:    6.3906164020
  - # 10
    frequency:    6.5049817419
  - # 11
    frequency:    6.8136958599
  - # 12
    frequency:    6.8621016583
  - # 13
    frequency:   10.0243023983
  - # 14
    frequency:   10.9393007720
  - # 15
    frequency:   10.9703895928
  - # 16
    frequency:   12.5014116820
  - # 17
    frequency:   12.6249066044
  - # 18
    frequency:   13.5846040467
  - # 19
    frequency:   14.3718061040
  - # 20
    frequency:   14.3824896213
  - # 21
    frequency:   18.8418714580
  - # 22
    frequency:   27.4113288635
  - # 23
    frequency:   59.7687209477
  - # 24
    frequency:  114.9037080557

- q-position: [    0.0353535,    0.0000000,    0.0000000 ]
  distance:    0.0120778
  band:
  - # 1
    frequency:    0.1048979613
  - # 2
    frequency:    0.4201532247
  - # 3
    frequency:    0.6136316854
  - # 4
    frequency:    0.7045028668
  - # 5
    frequency:    1.0459354772
  - # 6
    frequency:    4.6594043136
  - # 7
    frequency:    4.7074463799
  - # 8
    frequency:    5.5914825588
  - # 9
    frequency:    6.3888600848
  - # 10
    frequency:    6.5367528279
  - # 11
    frequency:    6.8145721012
  - # 12
    frequency:    6.8836807881
  - # 13
    frequency:   10.0147642190
  - # 14
    frequency:   10.9369366892
  - # 15
    frequency:   10.9763992978
  - # 16
    frequency:   12.4996828370
  - # 17
    frequency:   12.6707759381
  - # 18
    frequency:   13.6061518340
  - # 19
    frequency:   14.3729796101
  - # 20
    frequency:   14.3874961021
  - # 21
    frequency:   18.8258274731
  - # 22
    frequency:   27.4101134181
  - # 23
    frequency:   59.7510434553
  - # 24
    frequency:  114.9033323920

- q-position: [    0.0404040,    0.0000000,    0.0000000 ]
  distance:    0.0138032
  band:
  - # 1
    frequency:    0.1331779439
  - # 2
    frequency:    0.4564466987
  - # 3
    frequency:    0.6885376016
  - # 4
    frequency:    0.7865045450
  - # 5
    frequency:    1.1897154628
  - # 6
    frequency:    4.6615583102
  - # 7
    frequency:    4.7229340409
  - # 8
    frequency:    5.5911342838
  - # 9
    frequency:    6.3868726010
  - # 10
    frequency:    6.5687803968
  - # 11
    frequency:    6.8155510566
  - # 12
    frequency:    6.9105365960
  - # 13
    frequency:   10.0039593303
  - # 14
    frequency:   10.9342306793
  - # 15
    frequency:   10.9817071431
  - # 16
    frequency:   12.4977233507
  - # 17
    frequency:   12.7253724684
  - # 18
    frequency:   13.6306952538
  - # 19
    frequency:   14.3743304059
  - # 20
    frequency:   14.3932535954
  - # 21
    frequency:   18.8073880705
  - # 22
    frequency:   27.4087144588
  - # 23
    frequency:   59.7307362669
  - # 24
    frequency:  114.9029021125

- q-position: [    0.0454545,    0.0000000,    0.0000000 ]
  distance:    0.0155287
  band:
  - # 1
    frequency:    0.1645362132
  - # 2
    frequency:    0.4922596004
  - # 3
    frequency:    0.7656271788
  - # 4
    frequency:    0.8695770241
  - # 5
    frequency:    1.3336050469
  - # 6
    frequency:    4.6640081461
  - # 7
    frequency:    4.7397451662
  - # 8
    frequency:    5.5913189599
  - # 9
    frequency:    6.3846693158
  - # 10
    frequency:    6.5997095596
  - # 11
    frequency:    6.8166201363
  - # 12
    frequency:    6.9431227320
  - # 13
    frequency:    9.9919631993
  - # 14
    frequency:   10.9311919896
  - # 15
    frequency:   10.9858181200
  - # 16
    frequency:   12.4955480155
  - # 17
    frequency:   12.7891125394
  - # 18
    frequency:   13.6581392984
  - # 19
    frequency:   14.3758570818
  - # 20
    frequency:   14.3997543328
  - # 21
    frequency:   18.7865845960
  - # 22
    frequency:   27.4071334623
  - # 23
    frequency:   59.7078374443
  - # 24
    frequency:  114.9024185564

- q-position: [    0.0505051,    0.0000000,    0.0000000 ]
  distance:    0.0172541
  band:
  - # 1
    frequency:    0.1988998535
  - # 2
    frequency:    0.5282477283
  - # 3
    frequency:    0.8438389687
  - # 4
    frequency:    0.9534386609
  - # 5
    frequency:    1.4772994008
  - # 6
    frequency:    4.6667571399
  - # 7
    frequency:    4.7576203933
  - # 8
    frequency:    5.5922166340
  - # 9
    frequency:    6.3822668321
  - # 10
    frequency:    6.6285698946
  - # 11
    frequency:    6.8177657612
  - # 12
    frequency:    6.9815151111
  - # 13
    frequency:    9.9788561804
  - # 14
    frequency:   10.9278310381
  - # 15
    frequency:   10.9882879255
  - # 16
    frequency:   12.4931733638
  - # 17
    frequency:   12.8622906538
  - # 18
    frequency:   13.6884049067
  - # 19
    frequency:   14.3775580298
  - # 20
    frequency:   14.4069898725
  - # 21
    frequency:   18.7634526683
  - # 22
    frequency:   27.4053720936
  - # 23
    frequency:   59.6823898102
  - # 24
    frequency:  114.9018832256

- q-position: [    0.0555556,    0.0000000,    0.0000000 ]
  distance:    0.0189795
  band:
  - # 1
    frequency:    0.2361750923
  - # 2
    frequency:    0.5646407612
  - # 3
    frequency:    0.9226107891
  - # 4
    frequency:    1.0378517486
  - # 5
    frequency:    1.6206013797
  - # 6
    frequency:    4.6698090366
  - # 7
    frequency:    4.7762790411
  - # 8
    frequency:    5.5940210918
  - # 9
    frequency:    6.3796827611
  - # 10
    frequency:    6.6549015010
  - # 11
    frequency:    6.8189735571
  - # 12
    frequency:    7.0253116511
  - # 13
    frequency:    9.9647226347
  - # 14
    frequency:   10.9241593864
  - # 15
    frequency:   10.9887464347
  - # 16
    frequency:   12.4906175822
  - # 17
    frequency:   12.9450346290
  - # 18
    frequency:   13.7214429762
  - # 19
    frequency:   14.3794314404
  - # 20
    frequency:   14.4149513022
  - # 21
    frequency:   18.7380322342
  - # 22
    frequency:   27.4034322033
  - # 23
    frequency:   59.6544408329
  - # 24
    frequency:  114.9012977800

- q-position: [    0.0606061,    0.0000000,    0.0000000 ]
  distance:    0.0207049
  band:
  - # 1
    frequency:    0.2762529623
  - # 2
    frequency:    0.6014880559
  - # 3
    frequency:    1.0016201121
  - # 4
    frequency:    1.1226250048
  - # 5
    frequency:    1.7633658121
  - # 6
    frequency:    4.6731680117
  - # 7
    frequency:    4.7954221584
  - # 8
    frequency:    5.5969402538
  - # 9
    frequency:    6.3769354998
  - # 10
    frequency:    6.6787139788
  - # 11
    frequency:    6.8202285421
  - # 12
    frequency:    7.0736949417
  - # 13
    frequency:    9.9496502044
  - # 14
    frequency:   10.9201897062
  - # 15
    frequency:   10.9869120423
  - # 16
    frequency:   12.4879004170
  - # 17
    frequency:   13.0372642807
  - # 18
    frequency:   13.7572557095
  - # 19
    frequency:   14.3814752993
  - # 20
    frequency:   14.4236295372
  - # 21
    frequency:   18.7103676463
  - # 22
    frequency:   27.4013158244
  - # 23
    frequency:   59.6240424984
  - # 24
    frequency:  114.9006640303

- q-position: [    0.0656566,    0.0000000,    0.0000000 ]
  distance:    0.0224303
  band:
  - # 1
    frequency:    0.3190139912
  - # 2
    frequency:    0.6387645574
  - # 3
    frequency:    1.0806662497
  - # 4
    frequency:    1.2076053914
  - # 5
    frequency:    1.9054742939
  - # 6
    frequency:    4.6768386723
  - # 7
    frequency:    4.8147367839
  - # 8
    frequency:    5.6011950772
  - # 9
    frequency:    6.3740440216
  - # 10
    frequency:    6.7003218082
  - # 11
    frequency:    6.8215153049
  - # 12
    frequency:    7.1256137997
  - # 13
    frequency:    9.9337292138
  - # 14
    frequency:   10.9159357413
  - # 15
    frequency:   10.9825961093
  - # 16
    frequency:   12.4850430710
  - # 17
    frequency:   13.1386479090
  - # 18
    frequency:   13.7959322514
  - # 19
    frequency:   14.3836873847
  - # 20
    frequency:   14.4330157837
  - # 21
    frequency:   18.6805077675
  - # 22
    frequency:   27.3990251700
  - # 23
    frequency:   59.5912511707
  - # 24
    frequency:  114.8999839320

- q-position: [    0.0707071,    0.0000000,    0.0000000 ]
  distance:    0.0241557
  band:
  - # 1
    frequency:    0.3643318602
  - # 2
    frequency:    0.6764166948
  - # 3
    frequency:    1.1596146989
  - # 4
    frequency:    1.2926693080
  - # 5
    frequency:    2.0468224660
  - # 6
    frequency:    4.6808260545
  - # 7
    frequency:    4.8339019558
  - # 8
    frequency:    5.6070163023
  - # 9
    frequency:    6.3710276822
  - # 10
    frequency:    6.7201635850
  - # 11
    frequency:    6.8228181703
  - # 12
    frequency:    7.1799759490
  - # 13
    frequency:    9.9170521662
  - # 14
    frequency:   10.9114122616
  - # 15
    frequency:   10.9756985988
  - # 16
    frequency:   12.4820680917
  - # 17
    frequency:   13.2485411282
  - # 18
    frequency:   13.8377131789
  - # 19
    frequency:   14.3860652638
  - # 20
    frequency:   14.4431023086
  - # 21
    frequency:   18.6485061144
  - # 22
    frequency:   27.3965626296
  - # 23
    frequency:   59.5561274409
  - # 24
    frequency:  114.8992595778

- q-position: [    0.0757576,    0.0000000,    0.0000000 ]
  distance:    0.0258811
  band:
  - # 1
    frequency:    0.4120762033
  - # 2
    frequency:    0.7143824970
  - # 3
    frequency:    1.2383692483
  - # 4
    frequency:    1.3777153702
  - # 5
    frequency:    2.1873129427
  - # 6
    frequency:    4.6851356158
  - # 7
    frequency:    4.8525969352
  - # 8
    frequency:    5.6146385687
  - # 9
    frequency:    6.3679060463
  - # 10
    frequency:    6.7386769838
  - # 11
    frequency:    6.8241213505
  - # 12
    frequency:    7.2357799502
  - # 13
    frequency:    9.8997133122
  - # 14
    frequency:   10.9066350104
  - # 15
    frequency:   10.9661972876
  - # 16
    frequency:   12.4789992526
  - # 17
    frequency:   13.3658738245
  - # 18
    frequency:   13.8831154447
  - # 19
    frequency:   14.3886062911
  - # 20
    frequency:   14.4538838095
  - # 21
    frequency:   18.6144210505
  - # 22
    frequency:   27.3939307671
  - # 23
    frequency:   59.5187359647
  - # 24
    frequency:  114.8984931897

- q-position: [    0.0808081,    0.0000000,    0.0000000 ]
  distance:    0.0276065
  band:
  - # 1
    frequency:    0.4621147292
  - # 2
    frequency:    0.7526003143
  - # 3
    frequency:    1.3168571555
  - # 4
    frequency:    1.4626589264
  - # 5
    frequency:    2.3268509948
  - # 6
    frequency:    4.6897732224
  - # 7
    frequency:    4.8705118549
  - # 8
    frequency:    5.6242917480
  - # 9
    frequency:    6.3646987338
  - # 10
    frequency:    6.7562387581
  - # 11
    frequency:    6.8254090824
  - # 12
    frequency:    7.2921773817
  - # 13
    frequency:    9.8818082738
  - # 14
    frequency:   10.9016206444
  - # 15
    frequency:   10.9541334271
  - # 16
    frequency:   12.4758614266
  - # 17
    frequency:   13.4889123235
  - # 18
    frequency:   13.9331869528
  - # 19
    frequency:   14.3913076057
  - # 20
    frequency:   14.4653600711
  - # 21
    frequency:   18.5783160472
  - # 22
    frequency:   27.3911323175
  - # 23
    frequency:   59.4791452900
  - # 24
    frequency:  114.8976871108

- q-position: [    0.0858586,    0.0000000,    0.0000000 ]
  distance:    0.0293319
  band:
  - # 1
    frequency:    0.5143148220
  - # 2
    frequency:    0.7910123761
  - # 3
    frequency:    1.3950208439
  - # 4
    frequency:    1.5474280007
  - # 5
    frequency:    2.4653416409
  - # 6
    frequency:    4.6947451303
  - # 7
    frequency:    4.8873605382
  - # 8
    frequency:    5.6361898373
  - # 9
    frequency:    6.3614252884
  - # 10
    frequency:    6.7731483641
  - # 11
    frequency:    6.8266657497
  - # 12
    frequency:    7.3484872617
  - # 13
    frequency:    9.8634337149
  - # 14
    frequency:   10.8963866647
  - # 15
    frequency:   10.9395964704
  - # 16
    frequency:   12.4726804532
  - # 17
    frequency:   13.6147548955
  - # 18
    frequency:   13.9900278524
  - # 19
    frequency:   14.3941661300
  - # 20
    frequency:   14.4775416570
  - # 21
    frequency:   18.5402600350
  - # 22
    frequency:   27.3881701845
  - # 23
    frequency:   59.4374276749
  - # 24
    frequency:  114.8968437966

- q-position: [    0.0909091,    0.0000000,    0.0000000 ]
  distance:    0.0310573
  band:
  - # 1
    frequency:    0.5685447332
  - # 2
    frequency:    0.8295659796
  - # 3
    frequency:    1.4728130336
  - # 4
    frequency:    1.6319603100
  - # 5
    frequency:    2.6026874534
  - # 6
    frequency:    4.7000579607
  - # 7
    frequency:    4.9028946013
  - # 8
    frequency:    5.6505184075
  - # 9
    frequency:    6.3581050667
  - # 10
    frequency:    6.7896327416
  - # 11
    frequency:    6.8278759930
  - # 12
    frequency:    7.4041859465
  - # 13
    frequency:    9.8446870554
  - # 14
    frequency:   10.8909513397
  - # 15
    frequency:   10.9227097920
  - # 16
    frequency:   12.4694830010
  - # 17
    frequency:   13.7384214697
  - # 18
    frequency:   14.0577100322
  - # 19
    frequency:   14.3971785691
  - # 20
    frequency:   14.4904637828
  - # 21
    frequency:   18.5003278775
  - # 22
    frequency:   27.3850474379
  - # 23
    frequency:   59.3936588954
  - # 24
    frequency:  114.8959658057

- q-position: [    0.0959596,    0.0000000,    0.0000000 ]
  distance:    0.0327827
  band:
  - # 1
    frequency:    0.6246744527
  - # 2
    frequency:    0.8682136058
  - # 3
    frequency:    1.5501937707
  - # 4
    frequency:    1.7162010643
  - # 5
    frequency:    2.7387866761
  - # 6
    frequency:    4.7057186678
  - # 7
    frequency:    4.9169173238
  - # 8
    frequency:    5.6674222454
  - # 9
    frequency:    6.3547571477
  - # 10
    frequency:    6.8058583141
  - # 11
    frequency:    6.8290248079
  - # 12
    frequency:    7.4588873011
  - # 13
    frequency:    9.8256662304
  - # 14
    frequency:   10.8853336195
  - # 15
    frequency:   10.9036185206
  - # 16
    frequency:   12.4662964239
  - # 17
    frequency:   13.8522551204
  - # 18
    frequency:   14.1428571839
  - # 19
    frequency:   14.4003414100
  - # 20
    frequency:   14.5042266420
  - # 21
    frequency:   18.4586010104
  - # 22
    frequency:   27.3817673117
  - # 23
    frequency:   59.3479180453
  - # 24
    frequency:  114.8950557908

- q-position: [    0.1010101,    0.0000000,    0.0000000 ]
  distance:    0.0345081
  band:
  - # 1
    frequency:    0.6825763247
  - # 2
    frequency:    0.9069125764
  - # 3
    frequency:    1.6271285533
  - # 4
    frequency:    1.8001013364
  - # 5
    frequency:    2.8735313746
  - # 6
    frequency:    4.7117345008
  - # 7
    frequency:    4.9292954086
  - # 8
    frequency:    5.6869952058
  - # 9
    frequency:    6.3514002607
  - # 10
    frequency:    6.8219436342
  - # 11
    frequency:    6.8300976332
  - # 12
    frequency:    7.5123205814
  - # 13
    frequency:    9.8064694987
  - # 14
    frequency:   10.8795530406
  - # 15
    frequency:   10.8824799212
  - # 16
    frequency:   12.4631486143
  - # 17
    frequency:   13.9490157213
  - # 18
    frequency:   14.2514178050
  - # 19
    frequency:   14.4036509223
  - # 20
    frequency:   14.5191482904
  - # 21
    frequency:   18.4151683086
  - # 22
    frequency:   27.3783332016
  - # 23
    frequency:   59.3002873277
  - # 24
    frequency:  114.8941164882

- q-position: [    0.1060606,    0.0000000,    0.0000000 ]
  distance:    0.0362335
  band:
  - # 1
    frequency:    0.7421254580
  - # 2
    frequency:    0.9456245409
  - # 3
    frequency:    1.7035871144
  - # 4
    frequency:    1.8836168416
  - # 5
    frequency:    3.0068053793
  - # 6
    frequency:    4.7181129584
  - # 7
    frequency:    4.9399669240
  - # 8
    frequency:    5.7092741591
  - # 9
    frequency:    6.3480527291
  - # 10
    frequency:    6.8310804317
  - # 11
    frequency:    6.8379702815
  - # 12
    frequency:    7.5643092074
  - # 13
    frequency:    9.7871953041
  - # 14
    frequency:   10.8594562809
  - # 15
    frequency:   10.8736296223
  - # 16
    frequency:   12.4600678535
  - # 17
    frequency:   14.0284173955
  - # 18
    frequency:   14.3812187093
  - # 19
    frequency:   14.4071031600
  - # 20
    frequency:   14.5366902760
  - # 21
    frequency:   18.3701272683
  - # 22
    frequency:   27.3747486627
  - # 23
    frequency:   59.2508518390
  - # 24
    frequency:  114.8931507082

- q-position: [    0.1111111,    0.0000000,    0.0000000 ]
  distance:    0.0379589
  band:
  - # 1
    frequency:    0.8031999724
  - # 2
    frequency:    0.9843149326
  - # 3
    frequency:    1.7795426104
  - # 4
    frequency:    1.9667070191
  - # 5
    frequency:    3.1384817608
  - # 6
    frequency:    4.7248617376
  - # 7
    frequency:    4.9489444981
  - # 8
    frequency:    5.7342381904
  - # 9
    frequency:    6.3447324284
  - # 10
    frequency:    6.8319597648
  - # 11
    frequency:    6.8539915233
  - # 12
    frequency:    7.6147515826
  - # 13
    frequency:    9.7679421957
  - # 14
    frequency:   10.8347099915
  - # 15
    frequency:   10.8675837547
  - # 16
    frequency:   12.4570826591
  - # 17
    frequency:   14.0960250487
  - # 18
    frequency:   14.4106939633
  - # 19
    frequency:   14.5085468264
  - # 20
    frequency:   14.5739926605
  - # 21
    frequency:   18.3235856307
  - # 22
    frequency:   27.3710174086
  - # 23
    frequency:   59.1996993463
  - # 24
    frequency:  114.8921613245

- q-position: [    0.1161616,    0.0000000,    0.0000000 ]
  distance:    0.0396843
  band:
  - # 1
    frequency:    0.8656811116
  - # 2
    frequency:    1.0229524540
  - # 3
    frequency:    1.8549710690
  - # 4
    frequency:    2.0493343321
  - # 5
    frequency:    3.2684195033
  - # 6
    frequency:    4.7319886752
  - # 7
    frequency:    4.9563140481
  - # 8
    frequency:    5.7618130911
  - # 9
    frequency:    6.3414567565
  - # 10
    frequency:    6.8327228630
  - # 11
    frequency:    6.8700389639
  - # 12
    frequency:    7.6636042435
  - # 13
    frequency:    9.7488088104
  - # 14
    frequency:   10.8084004089
  - # 15
    frequency:   10.8614360777
  - # 16
    frequency:   12.4542216329
  - # 17
    frequency:   14.1570880959
  - # 18
    frequency:   14.4144189619
  - # 19
    frequency:   14.5526847665
  - # 20
    frequency:   14.7055147376
  - # 21
    frequency:   18.2756636315
  - # 22
    frequency:   27.3671433083
  - # 23
    frequency:   59.1469200588
  - # 24
    frequency:  114.8911512638

- q-position: [    0.1212121,    0.0000000,    0.0000000 ]
  distance:    0.0414097
  band:
  - # 1
    frequency:    0.9294532513
  - # 2
    frequency:    1.0615086145
  - # 3
    frequency:    1.9298510039
  - # 4
    frequency:    2.1314637310
  - # 5
    frequency:    3.3964589020
  - # 6
    frequency:    4.7395016848
  - # 7
    frequency:    4.9622305796
  - # 8
    frequency:    5.7918800789
  - # 9
    frequency:    6.3382426113
  - # 10
    frequency:    6.8333576939
  - # 11
    frequency:    6.8861275956
  - # 12
    frequency:    7.7108672880
  - # 13
    frequency:    9.7298939191
  - # 14
    frequency:   10.7806820706
  - # 15
    frequency:   10.8552073533
  - # 16
    frequency:   12.4515133069
  - # 17
    frequency:   14.2147030772
  - # 18
    frequency:   14.4182735788
  - # 19
    frequency:   14.5723497412
  - # 20
    frequency:   14.8684400909
  - # 21
    frequency:   18.2264971556
  - # 22
    frequency:   27.3631303853
  - # 23
    frequency:   59.0926063932
  - # 24
    frequency:  114.8901234950

- q-position: [    0.1262626,    0.0000000,    0.0000000 ]
  distance:    0.0431352
  band:
  - # 1
    frequency:    0.9944038221
  - # 2
    frequency:    1.0999573291
  - # 3
    frequency:    2.0041631411
  - # 4
    frequency:    2.2130622384
  - # 5
    frequency:    3.5224149732
  - # 6
    frequency:    4.7474086884
  - # 7
    frequency:    4.9669135359
  - # 8
    frequency:    5.8242869813
  - # 9
    frequency:    6.3351063762
  - # 10
    frequency:    6.8338530278
  - # 11
    frequency:    6.9022596493
  - # 12
    frequency:    7.7565718990
  - # 13
    frequency:    9.7112965377
  - # 14
    frequency:   10.7517039003
  - # 15
    frequency:   10.8489183304
  - # 16
    frequency:   12.4489859928
  - # 17
    frequency:   14.2704841002
  - # 18
    frequency:   14.4222530357
  - # 19
    frequency:   14.5901216239
  - # 20
    frequency:   15.0375811267
  - # 21
    frequency:   18.1762422153
  - # 22
    frequency:   27.3589828155
  - # 23
    frequency:   59.0368527358
  - # 24
    frequency:  114.8890810182

- q-position: [    0.1313131,    0.0000000,    0.0000000 ]
  distance:    0.0448606
  band:
  - # 1
    frequency:    1.0604231656
  - # 2
    frequency:    1.1382745733
  - # 3
    frequency:    2.0778902182
  - # 4
    frequency:    2.2940986247
  - # 5
    frequency:    3.6460677726
  - # 6
    frequency:    4.7557175432
  - # 7
    frequency:    4.9706446992
  - # 8
    frequency:    5.8588599895
  - # 9
    frequency:    6.3320639091
  - # 10
    frequency:    6.8341985029
  - # 11
    frequency:    6.9184275741
  - # 12
    frequency:    7.8007697417
  - # 13
    frequency:    9.6931160971
  - # 14
    frequency:   10.7216090967
  - # 15
    frequency:   10.8425896049
  - # 16
    frequency:   12.4466676315
  - # 17
    frequency:   14.3252587897
  - # 18
    frequency:   14.4263523590
  - # 19
    frequency:   14.6077931833
  - # 20
    frequency:   15.2093320127
  - # 21
    frequency:   18.1250814054
  - # 22
    frequency:   27.3547049251
  - # 23
    frequency:   58.9797551989
  - # 24
    frequency:  114.8880268540

- q-position: [    0.1363636,    0.0000000,    0.0000000 ]
  distance:    0.0465860
  band:
  - # 1
    frequency:    1.1274043383
  - # 2
    frequency:    1.1764380907
  - # 3
    frequency:    2.1510168339
  - # 4
    frequency:    2.3745431533
  - # 5
    frequency:    3.7671478822
  - # 6
    frequency:    4.7644359670
  - # 7