nqpoint: 300    
npath: 3      
segment_nqpoint:
- 100
- 100
- 100
labels:
- [ 'G', 'M' ]
- [ 'M', 'K' ]
- [ 'K', 'G' ]
reciprocal_lattice:
- [   0.30053112,   0.17351172,   0.00000000 ] # a*
- [   0.00000000,   0.34702344,   0.00000000 ] # b*
- [   0.00000000,   0.00000000,   0.03914775 ] # c*
natom: 7      
lattice:
- [     3.327442443835077,     0.000000000000000,     0.000000000000000 ] # a
- [    -1.663721221917539,     2.881649685988700,     0.000000000000000 ] # b
- [     0.000000000000000,     0.000000000000000,    25.544249025373052 ] # c
points:
- symbol: C # 1
  coordinates: [  0.333332985432215,  0.666666983183674,  0.600779447587238 ]
  mass: 12.010700
- symbol: N # 2
  coordinates: [  0.000000000000000,  0.000000000000000,  0.501138346082155 ]
  mass: 14.006700
- symbol: N # 3
  coordinates: [  0.333332985432215,  0.666666983183674,  0.647670205882337 ]
  mass: 14.006700
- symbol: N # 4
  coordinates: [  0.666666984744048,  0.333332985985145,  0.404004406526064 ]
  mass: 14.006700
- symbol: O # 5
  coordinates: [  0.666666984744048,  0.333332985985145,  0.352329794117663 ]
  mass: 15.999400
- symbol: Sc # 6
  coordinates: [  0.333332985432215,  0.666666983183674,  0.443035501564954 ]
  mass: 44.955912
- symbol: Sc # 7
  coordinates: [  0.666666984744048,  0.333332985985145,  0.543087822664373 ]
  mass: 44.955912

phonon:
- q-position: [    0.0000000,    0.0000000,    0.0000000 ]
  distance:    0.0000000
  band:
  - # 1
    frequency:   -3.7770353737
  - # 2
    frequency:   -3.7770353737
  - # 3
    frequency:   -2.4737366412
  - # 4
    frequency:   -2.4737366412
  - # 5
    frequency:   -0.0000013038
  - # 6
    frequency:    0.0000008056
  - # 7
    frequency:    0.0000025663
  - # 8
    frequency:    3.5634133940
  - # 9
    frequency:    3.5634133940
  - # 10
    frequency:    5.8889892169
  - # 11
    frequency:    7.9155420863
  - # 12
    frequency:    7.9155420863
  - # 13
    frequency:    8.9583436789
  - # 14
    frequency:    9.4398525105
  - # 15
    frequency:    9.4398525105
  - # 16
    frequency:   10.3089817156
  - # 17
    frequency:   11.7969746380
  - # 18
    frequency:   11.7969746380
  - # 19
    frequency:   15.1228836558
  - # 20
    frequency:   39.7920321385
  - # 21
    frequency:   63.0509098667

- q-position: [    0.0050505,    0.0000000,    0.0000000 ]
  distance:    0.0017526
  band:
  - # 1
    frequency:   -3.7763550911
  - # 2
    frequency:   -3.7748486570
  - # 3
    frequency:   -2.4735164942
  - # 4
    frequency:   -2.4731438246
  - # 5
    frequency:   -0.0189297442
  - # 6
    frequency:    0.0656310628
  - # 7
    frequency:    0.1216111914
  - # 8
    frequency:    3.5641008917
  - # 9
    frequency:    3.5658503292
  - # 10
    frequency:    5.8887876398
  - # 11
    frequency:    7.9155810341
  - # 12
    frequency:    7.9159035527
  - # 13
    frequency:    8.9582471788
  - # 14
    frequency:    9.4400047463
  - # 15
    frequency:    9.4414870646
  - # 16
    frequency:   10.3086209318
  - # 17
    frequency:   11.7969211701
  - # 18
    frequency:   11.7992605192
  - # 19
    frequency:   15.1224052707
  - # 20
    frequency:   39.7912739875
  - # 21
    frequency:   63.0507755299

- q-position: [    0.0101010,    0.0000000,    0.0000000 ]
  distance:    0.0035053
  band:
  - # 1
    frequency:   -3.7743191285
  - # 2
    frequency:   -3.7683020712
  - # 3
    frequency:   -2.4728566501
  - # 4
    frequency:   -2.4713666860
  - # 5
    frequency:   -0.0276152618
  - # 6
    frequency:    0.1312543890
  - # 7
    frequency:    0.2420182252
  - # 8
    frequency:    3.5661626839
  - # 9
    frequency:    3.5731400196
  - # 10
    frequency:    5.8881857678
  - # 11
    frequency:    7.9156975809
  - # 12
    frequency:    7.9169741830
  - # 13
    frequency:    8.9579590756
  - # 14
    frequency:    9.4404615923
  - # 15
    frequency:    9.4463904079
  - # 16
    frequency:   10.3075407926
  - # 17
    frequency:   11.7967606992
  - # 18
    frequency:   11.8061110441
  - # 19
    frequency:   15.1209714580
  - # 20
    frequency:   39.7890007552
  - # 21
    frequency:   63.0503729584

- q-position: [    0.0151515,    0.0000000,    0.0000000 ]
  distance:    0.0052579
  band:
  - # 1
    frequency:   -3.7709421292
  - # 2
    frequency:   -3.7574363124
  - # 3
    frequency:   -2.4717588915
  - # 4
    frequency:   -2.4684092063
  - # 5
    frequency:   -0.0354184315
  - # 6
    frequency:    0.1968623766
  - # 7
    frequency:    0.3628343597
  - # 8
    frequency:    3.5695966649
  - # 9
    frequency:    3.5852199007
  - # 10
    frequency:    5.8871921060
  - # 11
    frequency:    7.9158908368
  - # 12
    frequency:    7.9187134718
  - # 13
    frequency:    8.9574837146
  - # 14
    frequency:    9.4412234634
  - # 15
    frequency:    9.4545608483
  - # 16
    frequency:   10.3057478451
  - # 17
    frequency:   11.7964930272
  - # 18
    frequency:   11.8175049786
  - # 19
    frequency:   15.1185862413
  - # 20
    frequency:   39.7852161012
  - # 21
    frequency:   63.0497034667

- q-position: [    0.0202020,    0.0000000,    0.0000000 ]
  distance:    0.0070106
  band:
  - # 1
    frequency:   -3.7662484576
  - # 2
    frequency:   -3.7423192048
  - # 3
    frequency:   -2.4702261632
  - # 4
    frequency:   -2.4642781759
  - # 5
    frequency:   -0.0396785062
  - # 6
    frequency:    0.2624476877
  - # 7
    frequency:    0.4839171773
  - # 8
    frequency:    3.5743993166
  - # 9
    frequency:    3.6019882346
  - # 10
    frequency:    5.8858205945
  - # 11
    frequency:    7.9161593165
  - # 12
    frequency:    7.9210565221
  - # 13
    frequency:    8.9568288085
  - # 14
    frequency:    9.4422910457
  - # 15
    frequency:    9.4659932084
  - # 16
    frequency:   10.3032527138
  - # 17
    frequency:   11.7961178338
  - # 18
    frequency:   11.8334073262
  - # 19
    frequency:   15.1152563088
  - # 20
    frequency:   39.7799261147
  - # 21
    frequency:   63.0487692376

- q-position: [    0.0252525,    0.0000000,    0.0000000 ]
  distance:    0.0087632
  band:
  - # 1
    frequency:   -3.7602721342
  - # 2
    frequency:   -3.7230456600
  - # 3
    frequency:   -2.4682625365
  - # 4
    frequency:   -2.4589834163
  - # 5
    frequency:   -0.0370221158
  - # 6
    frequency:    0.3280033650
  - # 7
    frequency:    0.6052840046
  - # 8
    frequency:    3.5805656961
  - # 9
    frequency:    3.6233076906
  - # 10
    frequency:    5.8840902750
  - # 11
    frequency:    7.9165009373
  - # 12
    frequency:    7.9239177607
  - # 13
    frequency:    8.9560060074
  - # 14
    frequency:    9.4436652890
  - # 15
    frequency:    9.4806756017
  - # 16
    frequency:   10.3000697143
  - # 17
    frequency:   11.7956346919
  - # 18
    frequency:   11.8537698664
  - # 19
    frequency:   15.1109909880
  - # 20
    frequency:   39.7731392989
  - # 21
    frequency:   63.0475733097

- q-position: [    0.0303030,    0.0000000,    0.0000000 ]
  distance:    0.0105159
  band:
  - # 1
    frequency:   -3.7530567371
  - # 2
    frequency:   -3.6997375420
  - # 3
    frequency:   -2.4658731633
  - # 4
    frequency:   -2.4525380689
  - # 5
    frequency:   -0.0145774698
  - # 6
    frequency:    0.3935229316
  - # 7
    frequency:    0.7269752272
  - # 8
    frequency:    3.5880894183
  - # 9
    frequency:    3.6490099422
  - # 10
    frequency:    5.8820248624
  - # 11
    frequency:    7.9169130165
  - # 12
    frequency:    7.9271957536
  - # 13
    frequency:    8.9550314647
  - # 14
    frequency:    9.4453473947
  - # 15
    frequency:    9.4985854859
  - # 16
    frequency:   10.2962163931
  - # 17
    frequency:   11.7950430891
  - # 18
    frequency:   11.8785318156
  - # 19
    frequency:   15.1058022093
  - # 20
    frequency:   39.7648665504
  - # 21
    frequency:   63.0461195608

- q-position: [    0.0353535,    0.0000000,    0.0000000 ]
  distance:    0.0122685
  band:
  - # 1
    frequency:   -3.7446552636
  - # 2
    frequency:   -3.6725433667
  - # 3
    frequency:   -2.4630642259
  - # 4
    frequency:   -2.4449589330
  - # 5
    frequency:    0.0489491238
  - # 6
    frequency:    0.4590004648
  - # 7
    frequency:    0.8490323054
  - # 8
    frequency:    3.5969626357
  - # 9
    frequency:    3.6789009402
  - # 10
    frequency:    5.8796522530
  - # 11
    frequency:    7.9173922693
  - # 12
    frequency:    7.9307787706
  - # 13
    frequency:    8.9539262547
  - # 14
    frequency:    9.4473387998
  - # 15
    frequency:    9.5196854355
  - # 16
    frequency:   10.2917130652
  - # 17
    frequency:   11.7943424540
  - # 18
    frequency:   11.9076205347
  - # 19
    frequency:   15.0997044605
  - # 20
    frequency:   39.7551211314
  - # 21
    frequency:   63.0444126860

- q-position: [    0.0404040,    0.0000000,    0.0000000 ]
  distance:    0.0140211
  band:
  - # 1
    frequency:   -3.7351299423
  - # 2
    frequency:   -3.6416377390
  - # 3
    frequency:   -2.4598428874
  - # 4
    frequency:   -2.4362668327
  - # 5
    frequency:    0.0836777973
  - # 6
    frequency:    0.5244306370
  - # 7
    frequency:    0.9714904363
  - # 8
    frequency:    3.6071760149
  - # 9
    frequency:    3.7127665094
  - # 10
    frequency:    5.8770040052
  - # 11
    frequency:    7.9179348087
  - # 12
    frequency:    7.9345507012
  - # 13
    frequency:    8.9527165334
  - # 14
    frequency:    9.4496411555
  - # 15
    frequency:    9.5439190719
  - # 16
    frequency:   10.2865824237
  - # 17
    frequency:   11.7935321895
  - # 18
    frequency:   11.9409522106
  - # 19
    frequency:   15.0927147317
  - # 20
    frequency:   39.7439186368
  - # 21
    frequency:   63.0424581717

- q-position: [    0.0454545,    0.0000000,    0.0000000 ]
  distance:    0.0157738
  band:
  - # 1
    frequency:   -3.7245519858
  - # 2
    frequency:   -3.6072204258
  - # 3
    frequency:   -2.4562172494
  - # 4
    frequency:   -2.4264869947
  - # 5
    frequency:    0.1191200557
  - # 6
    frequency:    0.5898087156
  - # 7
    frequency:    1.0943742587
  - # 8
    frequency:    3.6187187109
  - # 9
    frequency:    3.7503779440
  - # 10
    frequency:    5.8741148255
  - # 11
    frequency:    7.9185361480
  - # 12
    frequency:    7.9383969145
  - # 13
    frequency:    8.9514333993
  - # 14
    frequency:    9.4522562999
  - # 15
    frequency:    9.5712075142
  - # 16
    frequency:   10.2808493064
  - # 17
    frequency:   11.7926117110
  - # 18
    frequency:   11.9784324473
  - # 19
    frequency:   15.0848524512
  - # 20
    frequency:   39.7312769558
  - # 21
    frequency:   63.0402622654

- q-position: [    0.0505051,    0.0000000,    0.0000000 ]
  distance:    0.0175264
  band:
  - # 1
    frequency:   -3.7130012705
  - # 2
    frequency:   -3.5695149505
  - # 3
    frequency:   -2.4521963217
  - # 4
    frequency:   -2.4156494178
  - # 5
    frequency:    0.1567398674
  - # 6
    frequency:    0.6551305131
  - # 7
    frequency:    1.2176942967
  - # 8
    frequency:    3.6315783422
  - # 9
    frequency:    3.7914973306
  - # 10
    frequency:    5.8710220942
  - # 11
    frequency:    7.9191912065
  - # 12
    frequency:    7.9422096815
  - # 13
    frequency:    8.9501124662
  - # 14
    frequency:    9.4551862235
  - # 15
    frequency:    9.6014466040
  - # 16
    frequency:   10.2745407098
  - # 17
    frequency:   11.7915804896
  - # 18
    frequency:   12.0199567209
  - # 19
    frequency:   15.0761394135
  - # 20
    frequency:   39.7172162265
  - # 21
    frequency:   63.0378319410

- q-position: [    0.0555556,    0.0000000,    0.0000000 ]
  distance:    0.0192791
  band:
  - # 1
    frequency:   -3.7005659324
  - # 2
    frequency:   -3.5287666081
  - # 3
    frequency:   -2.4477900116
  - # 4
    frequency:   -2.4037892203
  - # 5
    frequency:    0.1968676237
  - # 6
    frequency:    0.7203922798
  - # 7
    frequency:    1.3414435974
  - # 8
    frequency:    3.6457409659
  - # 9
    frequency:    3.8358823993
  - # 10
    frequency:    5.8677654542
  - # 11
    frequency:    7.9198943212
  - # 12
    frequency:    7.9458928412
  - # 13
    frequency:    8.9487932082
  - # 14
    frequency:    9.4584330274
  - # 15
    frequency:    9.6345050046
  - # 16
    frequency:   10.2676861685
  - # 17
    frequency:   11.7904381009
  - # 18
    frequency:   12.0654106759
  - # 19
    frequency:   15.0665996994
  - # 20
    frequency:   39.7017587866
  - # 21
    frequency:   63.0351748610

- q-position: [    0.0606061,    0.0000000,    0.0000000 ]
  distance:    0.0210317
  band:
  - # 1
    frequency:   -3.6873418625
  - # 2
    frequency:   -3.4852398172
  - # 3
    frequency:   -2.4430091350
  - # 4
    frequency:   -2.3909469506
  - # 5
    frequency:    0.2395472752
  - # 6
    frequency:    0.7855905305
  - # 7
    frequency:    1.4655944950
  - # 8
    frequency:    3.6611910567
  - # 9
    frequency:    3.8832907712
  - # 10
    frequency:    5.8643864853
  - # 11
    frequency:    7.9206392640
  - # 12
    frequency:    7.9493654819
  - # 13
    frequency:    8.9475181602
  - # 14
    frequency:    9.4619988728
  - # 15
    frequency:    9.6702230870
  - # 16
    frequency:   10.2603186746
  - # 17
    frequency:   11.7891842784
  - # 18
    frequency:   12.1146702616
  - # 19
    frequency:   15.0562595903
  - # 20
    frequency:   39.6849291179
  - # 21
    frequency:   63.0322993342

- q-position: [    0.0656566,    0.0000000,    0.0000000 ]
  distance:    0.0227844
  band:
  - # 1
    frequency:   -3.6734320907
  - # 2
    frequency:   -3.4392147702
  - # 3
    frequency:   -2.4378654551
  - # 4
    frequency:   -2.3771688495
  - # 5
    frequency:    0.2847209457
  - # 6
    frequency:    0.8507218020
  - # 7
    frequency:    1.5900956070
  - # 8
    frequency:    3.6779114900
  - # 9
    frequency:    3.9334835406
  - # 10
    frequency:    5.8609284783
  - # 11
    frequency:    7.9214192675
  - # 12
    frequency:    7.9525645131
  - # 13
    frequency:    8.9463320579
  - # 14
    frequency:    9.4658859205
  - # 15
    frequency:    9.7084122679
  - # 16
    frequency:   10.2524764407
  - # 17
    frequency:   11.7878189711
  - # 18
    frequency:   12.1676017262
  - # 19
    frequency:   15.0451474763
  - # 20
    frequency:   39.6667537856
  - # 21
    frequency:   63.0292142710

- q-position: [    0.0707071,    0.0000000,    0.0000000 ]
  distance:    0.0245370
  band:
  - # 1
    frequency:   -3.6589460437
  - # 2
    frequency:   -3.3909833985
  - # 3
    frequency:   -2.4323717477
  - # 4
    frequency:   -2.3625070531
  - # 5
    frequency:    0.3322895467
  - # 6
    frequency:    0.9157823344
  - # 7
    frequency:    1.7148692484
  - # 8
    frequency:    3.6958835321
  - # 9
    frequency:    3.9862281752
  - # 10
    frequency:    5.8574363205
  - # 11
    frequency:    7.9222270579
  - # 12
    frequency:    7.9554461075
  - # 13
    frequency:    8.9452809949
  - # 14
    frequency:    9.4700962612
  - # 15
    frequency:    9.7488540920
  - # 16
    frequency:   10.2442060795
  - # 17
    frequency:   11.7863424062
  - # 18
    frequency:   12.2240615068
  - # 19
    frequency:   15.0332937618
  - # 20
    frequency:   39.6472613728
  - # 21
    frequency:   63.0259291353

- q-position: [    0.0757576,    0.0000000,    0.0000000 ]
  distance:    0.0262897
  band:
  - # 1
    frequency:   -3.6439986685
  - # 2
    frequency:   -3.3408447420
  - # 3
    frequency:   -2.4265418941
  - # 4
    frequency:   -2.3470197225
  - # 5
    frequency:    0.3821374607
  - # 6
    frequency:    0.9807676810
  - # 7
    frequency:    1.8398094746
  - # 8
    frequency:    3.7150868400
  - # 9
    frequency:    4.0413007578
  - # 10
    frequency:    5.8539564981
  - # 11
    frequency:    7.9230548993
  - # 12
    frequency:    7.9579860831
  - # 13
    frequency:    8.9444116516
  - # 14
    frequency:    9.4746318344
  - # 15
    frequency:    9.7912976759
  - # 16
    frequency:   10.2355683711
  - # 17
    frequency:   11.7847551540
  - # 18
    frequency:   12.2838960585
  - # 19
    frequency:   15.0207307684
  - # 20
    frequency:   39.6264824101
  - # 21
    frequency:   63.0224538940

- q-position: [    0.0808081,    0.0000000,    0.0000000 ]
  distance:    0.0280423
  band:
  - # 1
    frequency:   -3.6287094136
  - # 2
    frequency:   -3.2890998894
  - # 3
    frequency:   -2.4203909958
  - # 4
    frequency:   -2.3307710870
  - # 5
    frequency:    0.4341439197
  - # 6
    frequency:    1.0456722463
  - # 7
    frequency:    1.9647809570
  - # 8
    frequency:    3.7354994711
  - # 9
    frequency:    4.0984876113
  - # 10
    frequency:    5.8505372243
  - # 11
    frequency:    7.9238946472
  - # 12
    frequency:    7.9601793646
  - # 13
    frequency:    8.9437706304
  - # 14
    frequency:    9.4794943378
  - # 15
    frequency:    9.8354527064
  - # 16
    frequency:   10.2266491707
  - # 17
    frequency:   11.7830581977
  - # 18
    frequency:   12.3469416791
  - # 19
    frequency:   15.0074926392
  - # 20
    frequency:   39.6044493011
  - # 21
    frequency:   63.0187989643

- q-position: [    0.0858586,    0.0000000,    0.0000000 ]
  distance:    0.0297949
  band:
  - # 1
    frequency:   -3.6132010681
  - # 2
    frequency:   -3.2360467271
  - # 3
    frequency:   -2.4139355054
  - # 4
    frequency:   -2.3138313844
  - # 5
    frequency:    0.4881885521
  - # 6
    frequency:    1.1104887654
  - # 7
    frequency:    2.0896188473
  - # 8
    frequency:    3.7570979069
  - # 9
    frequency:    4.1575863522
  - # 10
    frequency:    5.8472287006
  - # 11
    frequency:    7.9247378132
  - # 12
    frequency:    7.9620387019
  - # 13
    frequency:    8.9434039128
  - # 14
    frequency:    9.4846851250
  - # 15
    frequency:    9.8809717033
  - # 16
    frequency:   10.2175814754
  - # 17
    frequency:   11.7812530053
  - # 18
    frequency:   12.4130243771
  - # 19
    frequency:   14.9936152462
  - # 20
    frequency:   39.5811962425
  - # 21
    frequency:   63.0149751592

- q-position: [    0.0909091,    0.0000000,    0.0000000 ]
  distance:    0.0315476
  band:
  - # 1
    frequency:   -3.5975984617
  - # 2
    frequency:   -3.1819747817
  - # 3
    frequency:   -2.4071933642
  - # 4
    frequency:   -2.2962766772
  - # 5
    frequency:    0.5441540304
  - # 6
    frequency:    1.1752077354
  - # 7
    frequency:    2.2141297202
  - # 8
    frequency:    3.7798570902
  - # 9
    frequency:    4.2184064147
  - # 10
    frequency:    5.8440835233
  - # 11
    frequency:    7.9255756411
  - # 12
    frequency:    7.9635928420
  - # 13
    frequency:    8.9433564370
  - # 14
    frequency:    9.4902050939
  - # 15
    frequency:    9.9274057591
  - # 16
    frequency:   10.2085941735
  - # 17
    frequency:   11.7793416044
  - # 18
    frequency:   12.4819598345
  - # 19
    frequency:   14.9791361070
  - # 20
    frequency:   39.5567591412
  - # 21
    frequency:   63.0109936308

- q-position: [    0.0959596,    0.0000000,    0.0000000 ]
  distance:    0.0333002
  band:
  - # 1
    frequency:   -3.5820270401
  - # 2
    frequency:   -3.1271604630
  - # 3
    frequency:   -2.4001841323
  - # 4
    frequency:   -2.2781885264
  - # 5
    frequency:    0.6019271359
  - # 6
    frequency:    1.2398168203
  - # 7
    frequency:    2.3380935902
  - # 8
    frequency:    3.8037504796
  - # 9
    frequency:    4.2807690671
  - # 10
    frequency:    5.8411572559
  - # 11
    frequency:    7.9263991928
  - # 12
    frequency:    7.9648843394
  - # 13
    frequency:    8.9436717819
  - # 14
    frequency:    9.4960545651
  - # 15
    frequency:    9.9740889496
  - # 16
    frequency:   10.2001320567
  - # 17
    frequency:   11.7773266585
  - # 18
    frequency:   12.5535534994
  - # 19
    frequency:   14.9640943138
  - # 20
    frequency:   39.5311755270
  - # 21
    frequency:   63.0068658140

- q-position: [    0.1010101,    0.0000000,    0.0000000 ]
  distance:    0.0350529
  band:
  - # 1
    frequency:   -3.5666113354
  - # 2
    frequency:   -3.0718629901
  - # 3
    frequency:   -2.3929290980
  - # 4
    frequency:   -2.2596534980
  - # 5
    frequency:    0.6613989088
  - # 6
    frequency:    1.3043002519
  - # 7
    frequency:    2.4612669107
  - # 8
    frequency:    3.8287501192
  - # 9
    frequency:    4.3445069194
  - # 10
    frequency:    5.8385091963
  - # 11
    frequency:    7.9271994457
  - # 12
    frequency:    7.9659671708
  - # 13
    frequency:    8.9443919392
  - # 14
    frequency:    9.5022331528
  - # 15
    frequency:   10.0198089727
  - # 16
    frequency:   10.1931893486
  - # 17
    frequency:   11.7752115453
  - # 18
    frequency:   12.6276008353
  - # 19
    frequency:   14.9485304842
  - # 20
    frequency:   39.5044844618
  - # 21
    frequency:   63.0026033679

- q-position: [    0.1060606,    0.0000000,    0.0000000 ]
  distance:    0.0368055
  band:
  - # 1
    frequency:   -3.5514733615
  - # 2
    frequency:   -3.0163212310
  - # 3
    frequency:   -2.3854513492
  - # 4
    frequency:   -2.2407624833
  - # 5
    frequency:    0.7224642595
  - # 6
    frequency:    1.3686382540
  - # 7
    frequency:    2.5833863849
  - # 8
    frequency:    3.8548267266
  - # 9
    frequency:    4.4094628871
  - # 10
    frequency:    5.8362033864
  - # 11
    frequency:    7.9279673985
  - # 12
    frequency:    7.9669042864
  - # 13
    frequency:    8.9455571456
  - # 14
    frequency:    9.5087396288
  - # 15
    frequency:   10.0618065268
  - # 16
    frequency:   10.1903141098
  - # 17
    frequency:   11.7730004349
  - # 18
    frequency:   12.7038877359
  - # 19
    frequency:   14.9324867421
  - # 20
    frequency:   39.4767264456
  - # 21
    frequency:   62.9982181182

- q-position: [    0.1111111,    0.0000000,    0.0000000 ]
  distance:    0.0385582
  band:
  - # 1
    frequency:   -3.5367309718
  - # 2
    frequency:   -2.9607515971
  - # 3
    frequency:   -2.3777757913
  - # 4
    frequency:   -2.2216098147
  - # 5
    frequency:    0.7850212779
  - # 6
    frequency:    1.4328065196
  - # 7
    frequency:    2.7041733743
  - # 8
    frequency:    3.8819497971
  - # 9
    frequency:    4.4754885394
  - # 10
    frequency:    5.8343099277
  - # 11
    frequency:    7.9286941852
  - # 12
    frequency:    7.9677651980
  - # 13
    frequency:    8.9472057493
  - # 14
    frequency:    9.5155717812
  - # 15
    frequency:   10.0935262891
  - # 16
    frequency:   10.1978605732
  - # 17
    frequency:   11.7706983689
  - # 18
    frequency:   12.7821910972
  - # 19
    frequency:   14.9160067428
  - # 20
    frequency:   39.4479433194
  - # 21
    frequency:   62.9937219984

- q-position: [    0.1161616,    0.0000000,    0.0000000 ]
  distance:    0.0403108
  band:
  - # 1
    frequency:   -3.5224962238
  - # 2
    frequency:   -2.9053470444
  - # 3
    frequency:   -2.3699290963
  - # 4
    frequency:   -2.2022921641
  - # 5
    frequency:    0.8489704052
  - # 6
    frequency:    1.4967757697
  - # 7
    frequency:    2.8233386748
  - # 8
    frequency:    3.9100877236
  - # 9
    frequency:    4.5424417133
  - # 10
    frequency:    5.8329066979
  - # 11
    frequency:    7.9293711952
  - # 12
    frequency:    7.9686236740
  - # 13
    frequency:    8.9493740818
  - # 14
    frequency:    9.5227262720
  - # 15
    frequency:   10.1072475024
  - # 16
    frequency:   10.2233613708
  - # 17
    frequency:   11.7683113384
  - # 18
    frequency:   12.8622795230
  - # 19
    frequency:   14.8991357605
  - # 20
    frequency:   39.4181781655
  - # 21
    frequency:   62.9891269930

- q-position: [    0.1212121,    0.0000000,    0.0000000 ]
  distance:    0.0420634
  band:
  - # 1
    frequency:   -3.5088737976
  - # 2
    frequency:   -2.8502771355
  - # 3
    frequency:   -2.3619395721
  - # 4
    frequency:   -2.1829072206
  - # 5
    frequency:    0.9142135891
  - # 6
    frequency:    1.5605114227
  - # 7
    frequency:    2.9405874574
  - # 8
    frequency:    3.9392079308
  - # 9
    frequency:    4.6101832252
  - # 10
    frequency:    5.8320816008
  - # 11
    frequency:    7.9299901973
  - # 12
    frequency:    7.9695555821
  - # 13
    frequency:    8.9520963066
  - # 14
    frequency:    9.5301984935
  - # 15
    frequency:   10.1065582593
  - # 16
    frequency:   10.2630555673
  - # 17
    frequency:   11.7658463602
  - # 18
    frequency:   12.9439141160
  - # 19
    frequency:   14.8819208638
  - # 20
    frequency:   39.3874752055
  - # 21
    frequency:   62.9844450802

- q-position: [    0.1262626,    0.0000000,    0.0000000 ]
  distance:    0.0438161
  band:
  - # 1
    frequency:   -3.4959595204
  - # 2
    frequency:   -2.7956890520
  - # 3
    frequency:   -2.3538369445
  - # 4
    frequency:   -2.1635521493
  - # 5
    frequency:    0.9806535165
  - # 6
    frequency:    1.6239733952
  - # 7
    frequency:    3.0556242168
  - # 8
    frequency:    3.9692770207
  - # 9
    frequency:    4.6785724533
  - # 10
    frequency:    5.8319355312
  - # 11
    frequency:    7.9305434652
  - # 12
    frequency:    7.9706369024
  - # 13
    frequency:    8.9554042180
  - # 14
    frequency:    9.5379824285
  - # 15
    frequency:   10.0992622374
  - # 16
    frequency:   10.3089837838
  - # 17
    frequency:   11.7633115509
  - # 18
    frequency:   13.0268492917
  - # 19
    frequency:   14.8644112159
  - # 20
    frequency:   39.3558796960
  - # 21
    frequency:   62.9796881763

- q-position: [    0.1313131,    0.0000000,    0.0000000 ]
  distance:    0.0455687
  band:
  - # 1
    frequency:   -3.4838390432
  - # 2
    frequency:   -2.7417093987
  - # 3
    frequency:   -2.3456520515
  - # 4
    frequency:   -2.1443218406
  - # 5
    frequency:    1.0481929943
  - # 6
    frequency:    1.6871160536
  - # 7
    frequency:    3.1681576308
  - # 8
    frequency:    4.0002609279
  - # 9
    frequency:    4.7474615000
  - # 10
    frequency:    5.8325863050
  - # 11
    frequency:    7.9310239022
  - # 12
    frequency:    7.9719419201
  - # 13
    frequency:    8.9593269610
  - # 14
    frequency:    9.5460705165
  - # 15
    frequency:   10.0890968261
  - # 16
    frequency:   10.3572715325
  - # 17
    frequency:   11.7607161971
  - # 18
    frequency:   13.1108335265
  - # 19
    frequency:   14.8466585514
  - # 20
    frequency:   39.3234378227
  - # 21
    frequency:   62.9748680822

- q-position: [    0.1363636,    0.0000000,    0.0000000 ]
  distance:    0.0473214
  band:
  - # 1
    frequency:   -3.4725867127
  - # 2
    frequency:   -2.6884466365
  - # 3
    frequency:   -2.3374164567
  - # 4
    frequency:   -2.1253069617
  - # 5
    frequency:    1.1167345294
  - # 6
    frequency:    1.7498883251
  - # 7
    frequency:    3.2779052854
  - # 8
    frequency:    4.0321250791
  - # 9
    frequency:    4.8166875723
  - # 10
    frequency:    5.8341738893
  - # 11
    frequency:    7.9314251616
  - # 12
    frequency:    7.9735415961
  - # 13
    frequency:    8.9638906470
  - # 14
    frequency:    9.5544535288
  - # 15
    frequency:   10.0774997450
  - # 16
    frequency:   10.4063637339
  - # 17
    frequency:   11.7580708213
  - # 18
    frequency:   13.1956099244
  - # 19
    frequency:   14.8287179068
  - # 20
    frequency:   39.2901965934
  - # 21
    frequency:   62.9699964309

- q-position: [    0.1414141,    0.0000000,    0.0000000 ]
  distance:    0.0490740
  band:
  - # 1
    frequency:   -3.4622646731
  - # 2
    frequency:   -2.6359939956
  - # 3
    frequency:   -2.3291619942
  - # 4
    frequency:   -2.1065918186
  - # 5
    frequency:    1.1861801349
  - # 6
    frequency:    1.8122339679
  - # 7
    frequency:    3.3845982526
  - # 8
    frequency:    4.0648345549
  - # 9
    frequency:    4.8860631515
  - # 10
    frequency:    5.8368673623
  - # 11
    frequency:    7.9317417606
  - # 12
    frequency:    7.9755021119
  - # 13
    frequency:    8.9691178367
  - # 14
    frequency:    9.5631204563
  - # 15
    frequency:   10.0650963451
  - # 16
    frequency:   10.4555383087
  - # 17
    frequency:   11.7553872417
  - # 18
    frequency:   13.2809164487
  - # 19
    frequency:   14.8106487176
  - # 20
    frequency:   39.2562037299
  - # 21
    frequency:   62.9650846380

- q-position: [    0.1464646,    0.0000000,    0.0000000 ]
  distance:    0.0508267
  band:
  - # 1
    frequency:   -3.4529222204
  - # 2
    frequency:   -2.5844327703
  - # 3
    frequency:   -2.3209202655
  - # 4
    frequency:   -2.0882520185
  - # 5
    frequency:    1.2564313708
  - # 6
    frequency:    1.8740919942
  - # 7
    frequency:    3.4879855149
  - # 8
    frequency:    4.0983542485
  - # 9
    frequency:    4.9553634827
  - # 10
    frequency:    5.8408741226
  - # 11
    frequency:    7.9319691841
  - # 12
    frequency:    7.9778835846
  - # 13
    frequency:    8.9750268624
  - # 14
    frequency:    9.5720584130
  - # 15
    frequency:   10.0522118237
  - # 16
    frequency:   10.5043946918
  - # 17
    frequency:   11.7526786241
  - # 18
    frequency:   13.3664856083
  - # 19
    frequency:   14.7925164567
  - # 20
    frequency:   39.2215075584
  - # 21
    frequency:   62.9601438541

- q-position: [    0.1515152,    0.0000000,    0.0000000 ]
  distance:    0.0525793
  band:
  - # 1
    frequency:   -3.4445954203
  - # 2
    frequency:   -2.5338359573
  - # 3
    frequency:   -2.3127221120
  - # 4
    frequency:   -2.0703518944
  - # 5
    frequency:    1.3273896036
  - # 6
    frequency:    1.9353972290
  - # 7
    frequency:    3.5878382026
  - # 8
    frequency:    4.1326490183
  - # 9
    frequency:    5.0243109628
  - # 10
    frequency:    5.8464518731
  - # 11
    frequency:    7.9321039764
  - # 12
    frequency:    7.9807389493
  - # 13
    frequency:    8.9816309641
  - # 14
    frequency:    9.5812525582
  - # 15
    frequency:   10.0390484391
  - # 16
    frequency:   10.5526772635
  - # 17
    frequency:   11.7499595263
  - # 18
    frequency:   13.4520432966
  - # 19
    frequency:   14.7743950794
  - # 20
    frequency:   39.1861569013
  - # 21
    frequency:   62.9551849206