nqpoint: 300    
npath: 3      
segment_nqpoint:
- 100
- 100
- 100
labels:
- [ 'G', 'M' ]
- [ 'M', 'K' ]
- [ 'K', 'G' ]
reciprocal_lattice:
- [   0.32398823,   0.18705469,   0.00000000 ] # a*
- [   0.00000000,   0.37410938,   0.00000000 ] # b*
- [   0.00000000,   0.00000000,   0.03466937 ] # c*
natom: 7      
lattice:
- [     3.086531923263142,     0.000000000000000,     0.000000000000000 ] # a
- [    -1.543265961631571,     2.673015055138846,     0.000000000000000 ] # b
- [     0.000000000000000,     0.000000000000000,    28.843903682877539 ] # c
points:
- symbol: C # 1
  coordinates: [  0.000000000000000,  0.000000000000000,  0.467732675282350 ]
  mass: 12.010700
- symbol: Cl # 2
  coordinates: [  0.333332985432215,  0.666666983183674,  0.687975660335372 ]
  mass: 35.453000
- symbol: O # 3
  coordinates: [  0.333332985432215,  0.666666983183674,  0.545230313304246 ]
  mass: 15.999400
- symbol: O # 4
  coordinates: [  0.666666984744047,  0.333332985985145,  0.312024339664628 ]
  mass: 15.999400
- symbol: P # 5
  coordinates: [  0.666666984744047,  0.333332985985145,  0.363700786252591 ]
  mass: 30.973762
- symbol: Ti # 6
  coordinates: [  0.333332985432215,  0.666666983183674,  0.428716806396054 ]
  mass: 47.867000
- symbol: Ti # 7
  coordinates: [  0.666666984744047,  0.333332985985145,  0.514836741708188 ]
  mass: 47.867000

phonon:
- q-position: [    0.0000000,    0.0000000,    0.0000000 ]
  distance:    0.0000000
  band:
  - # 1
    frequency:  -14.4916016153
  - # 2
    frequency:  -14.4916016153
  - # 3
    frequency:   -0.0573983447
  - # 4
    frequency:   -0.0381904564
  - # 5
    frequency:   -0.0381904564
  - # 6
    frequency:   -0.0000012979
  - # 7
    frequency:   -0.0000004057
  - # 8
    frequency:    0.0000009556
  - # 9
    frequency:    2.0729036010
  - # 10
    frequency:    2.0729036010
  - # 11
    frequency:    4.6911508065
  - # 12
    frequency:    4.6911508065
  - # 13
    frequency:    5.5627405398
  - # 14
    frequency:    5.5627405398
  - # 15
    frequency:    6.5387962149
  - # 16
    frequency:   11.1304427043
  - # 17
    frequency:   15.5052960294
  - # 18
    frequency:   16.0862635886
  - # 19
    frequency:   16.0862635886
  - # 20
    frequency:   19.2212898087
  - # 21
    frequency:   34.5656753648

- q-position: [    0.0050505,    0.0000000,    0.0000000 ]
  distance:    0.0018894
  band:
  - # 1
    frequency:  -14.4843282285
  - # 2
    frequency:  -14.4798073176
  - # 3
    frequency:   -0.1945694972
  - # 4
    frequency:   -0.1411538081
  - # 5
    frequency:   -0.1266827723
  - # 6
    frequency:   -0.0191967206
  - # 7
    frequency:    0.0924296341
  - # 8
    frequency:    0.2061904005
  - # 9
    frequency:    2.0757984687
  - # 10
    frequency:    2.0762013736
  - # 11
    frequency:    4.6917818524
  - # 12
    frequency:    4.6918478792
  - # 13
    frequency:    5.5630012974
  - # 14
    frequency:    5.5634850287
  - # 15
    frequency:    6.5397639410
  - # 16
    frequency:   11.1302442450
  - # 17
    frequency:   15.5011059760
  - # 18
    frequency:   16.0862918520
  - # 19
    frequency:   16.0889820179
  - # 20
    frequency:   19.2210736011
  - # 21
    frequency:   34.5654442317

- q-position: [    0.0101010,    0.0000000,    0.0000000 ]
  distance:    0.0037789
  band:
  - # 1
    frequency:  -14.4625360605
  - # 2
    frequency:  -14.4444240143
  - # 3
    frequency:   -0.3808659668
  - # 4
    frequency:   -0.2458591058
  - # 5
    frequency:   -0.1770095336
  - # 6
    frequency:    0.0515763128
  - # 7
    frequency:    0.1867362699
  - # 8
    frequency:    0.3537405389
  - # 9
    frequency:    2.0844408979
  - # 10
    frequency:    2.0861892406
  - # 11
    frequency:    4.6936727665
  - # 12
    frequency:    4.6939560872
  - # 13
    frequency:    5.5637879654
  - # 14
    frequency:    5.5657177881
  - # 15
    frequency:    6.5426647061
  - # 16
    frequency:   11.1296457397
  - # 17
    frequency:   15.4888146979
  - # 18
    frequency:   16.0863788811
  - # 19
    frequency:   16.0968807921
  - # 20
    frequency:   19.2204246996
  - # 21
    frequency:   34.5647513221

- q-position: [    0.0151515,    0.0000000,    0.0000000 ]
  distance:    0.0056683
  band:
  - # 1
    frequency:  -14.4263092586
  - # 2
    frequency:  -14.3854502034
  - # 3
    frequency:   -0.5684124595
  - # 4
    frequency:   -0.3663369338
  - # 5
    frequency:   -0.2061710885
  - # 6
    frequency:    0.0884752937
  - # 7
    frequency:    0.2806036673
  - # 8
    frequency:    0.5031402061
  - # 9
    frequency:    2.0987068985
  - # 10
    frequency:    2.1031558101
  - # 11
    frequency:    4.6968168669
  - # 12
    frequency:    4.6975252091
  - # 13
    frequency:    5.5651137043
  - # 14
    frequency:    5.5694367205
  - # 15
    frequency:    6.5474914251
  - # 16
    frequency:   11.1286378620
  - # 17
    frequency:   15.4691754081
  - # 18
    frequency:   16.0865313981
  - # 19
    frequency:   16.1092736800
  - # 20
    frequency:   19.2193422929
  - # 21
    frequency:   34.5635981033

- q-position: [    0.0202020,    0.0000000,    0.0000000 ]
  distance:    0.0075578
  band:
  - # 1
    frequency:  -14.3757886321
  - # 2
    frequency:  -14.3028824714
  - # 3
    frequency:   -0.7556123160
  - # 4
    frequency:   -0.4867550502
  - # 5
    frequency:   -0.2357263297
  - # 6
    frequency:    0.1232470267
  - # 7
    frequency:    0.3743034257
  - # 8
    frequency:    0.6526007037
  - # 9
    frequency:    2.1183980200
  - # 10
    frequency:    2.1275958815
  - # 11
    frequency:    4.7012029793
  - # 12
    frequency:    4.7026343131
  - # 13
    frequency:    5.5670003775
  - # 14
    frequency:    5.5746384135
  - # 15
    frequency:    6.5542327982
  - # 16
    frequency:   11.1272052546
  - # 17
    frequency:   15.4432205801
  - # 18
    frequency:   16.0867606219
  - # 19
    frequency:   16.1252394319
  - # 20
    frequency:   19.2178251117
  - # 21
    frequency:   34.5619870127

- q-position: [    0.0252525,    0.0000000,    0.0000000 ]
  distance:    0.0094472
  band:
  - # 1
    frequency:  -14.3111724904
  - # 2
    frequency:  -14.1967141023
  - # 3
    frequency:   -0.9419375583
  - # 4
    frequency:   -0.6067127410
  - # 5
    frequency:   -0.2660498660
  - # 6
    frequency:    0.1574658243
  - # 7
    frequency:    0.4678751475
  - # 8
    frequency:    0.7997268495
  - # 9
    frequency:    2.1432528624
  - # 10
    frequency:    2.1602206798
  - # 11
    frequency:    4.7068153886
  - # 12
    frequency:    4.7093861641
  - # 13
    frequency:    5.5694785002
  - # 14
    frequency:    5.5813182716
  - # 15
    frequency:    6.5628740420
  - # 16
    frequency:   11.1253268018
  - # 17
    frequency:   15.4120634481
  - # 18
    frequency:   16.0870822910
  - # 19
    frequency:   16.1438196504
  - # 20
    frequency:   19.2158715510
  - # 21
    frequency:   34.5599214456

- q-position: [    0.0303030,    0.0000000,    0.0000000 ]
  distance:    0.0113366
  band:
  - # 1
    frequency:  -14.2327177969
  - # 2
    frequency:  -14.0669330801
  - # 3
    frequency:   -1.1270396801
  - # 4
    frequency:   -0.7259737002
  - # 5
    frequency:   -0.2962686146
  - # 6
    frequency:    0.1915792968
  - # 7
    frequency:    0.5613130563
  - # 8
    frequency:    0.9425421014
  - # 9
    frequency:    2.1729617794
  - # 10
    frequency:    2.2019487666
  - # 11
    frequency:    4.7136337847
  - # 12
    frequency:    4.7178998833
  - # 13
    frequency:    5.5725872703
  - # 14
    frequency:    5.5894707139
  - # 15
    frequency:    6.5733978573
  - # 16
    frequency:   11.1229760012
  - # 17
    frequency:   15.3767657806
  - # 18
    frequency:   16.0875166944
  - # 19
    frequency:   16.1641501160
  - # 20
    frequency:   19.2134798396
  - # 21
    frequency:   34.5574057386

- q-position: [    0.0353535,    0.0000000,    0.0000000 ]
  distance:    0.0132261
  band:
  - # 1
    frequency:  -14.1407416176
  - # 2
    frequency:  -13.9135194310
  - # 3
    frequency:   -1.3106233893
  - # 4
    frequency:   -0.8443499726
  - # 5
    frequency:   -0.3253267957
  - # 6
    frequency:    0.2257938842
  - # 7
    frequency:    0.6545948753
  - # 8
    frequency:    1.0793217048
  - # 9
    frequency:    2.2071836941
  - # 10
    frequency:    2.2538507863
  - # 11
    frequency:    4.7216332199
  - # 12
    frequency:    4.7283023153
  - # 13
    frequency:    5.5763747724
  - # 14
    frequency:    5.5990894510
  - # 15
    frequency:    6.5857855861
  - # 16
    frequency:   11.1201214217
  - # 17
    frequency:   15.3382793575
  - # 18
    frequency:   16.0880887097
  - # 19
    frequency:   16.1855181140
  - # 20
    frequency:   19.2106482533
  - # 21
    frequency:   34.5544451484

- q-position: [    0.0404040,    0.0000000,    0.0000000 ]
  distance:    0.0151155
  band:
  - # 1
    frequency:  -14.0356228280
  - # 2
    frequency:  -13.7364418336
  - # 3
    frequency:   -1.4924153414
  - # 4
    frequency:   -0.9616729657
  - # 5
    frequency:   -0.3521464515
  - # 6
    frequency:    0.2602339955
  - # 7
    frequency:    0.7476886710
  - # 8
    frequency:    1.2085608082
  - # 9
    frequency:    2.2455640184
  - # 10
    frequency:    2.3170176260
  - # 11
    frequency:    4.7307840976
  - # 12
    frequency:    4.7407186334
  - # 13
    frequency:    5.5808984585
  - # 14
    frequency:    5.6101678615
  - # 15
    frequency:    6.6000185123
  - # 16
    frequency:   11.1167272368
  - # 17
    frequency:   15.2974369056
  - # 18
    frequency:   16.0888278465
  - # 19
    frequency:   16.2073699835
  - # 20
    frequency:   19.2073753684
  - # 21
    frequency:   34.5510458267

- q-position: [    0.0454545,    0.0000000,    0.0000000 ]
  distance:    0.0170050
  band:
  - # 1
    frequency:  -13.9178040260
  - # 2
    frequency:  -13.5356534077
  - # 3
    frequency:   -1.6721540128
  - # 4
    frequency:   -1.0777839415
  - # 5
    frequency:   -0.3755862820
  - # 6
    frequency:    0.2949870715
  - # 7
    frequency:    0.8405546418
  - # 8
    frequency:    1.3291055029
  - # 9
    frequency:    2.2877528736
  - # 10
    frequency:    2.3923393846
  - # 11
    frequency:    4.7410522229
  - # 12
    frequency:    4.7552627359
  - # 13
    frequency:    5.5862260170
  - # 14
    frequency:    5.6226994917
  - # 15
    frequency:    6.6160792608
  - # 16
    frequency:   11.1127538208
  - # 17
    frequency:   15.2549666321
  - # 18
    frequency:   16.0897682947
  - # 19
    frequency:   16.2292947111
  - # 20
    frequency:   19.2036603523
  - # 21
    frequency:   34.5472147908

- q-position: [    0.0505051,    0.0000000,    0.0000000 ]
  distance:    0.0188944
  band:
  - # 1
    frequency:  -13.7877935753
  - # 2
    frequency:  -13.3110865649
  - # 3
    frequency:   -1.8495859163
  - # 4
    frequency:   -1.1925303706
  - # 5
    frequency:   -0.3943512648
  - # 6
    frequency:    0.3301206887
  - # 7
    frequency:    0.9331453774
  - # 8
    frequency:    1.4403690427
  - # 9
    frequency:    2.3334231111
  - # 10
    frequency:    2.4802353742
  - # 11
    frequency:    4.7523989501
  - # 12
    frequency:    4.7720279526
  - # 13
    frequency:    5.5924367409
  - # 14
    frequency:    5.6366787130
  - # 15
    frequency:    6.6339532620
  - # 16
    frequency:   11.1081583940
  - # 17
    frequency:   15.2115137497
  - # 18
    frequency:   16.0909489734
  - # 19
    frequency:   16.2510001346
  - # 20
    frequency:   19.1995032860
  - # 21
    frequency:   34.5429598912

- q-position: [    0.0555556,    0.0000000,    0.0000000 ]
  distance:    0.0207839
  band:
  - # 1
    frequency:  -13.6461676701
  - # 2
    frequency:  -13.0626467866
  - # 3
    frequency:   -2.0244641189
  - # 4
    frequency:   -1.3057644156
  - # 5
    frequency:   -0.4068753149
  - # 6
    frequency:    0.3656907832
  - # 7
    frequency:    1.0254055862
  - # 8
    frequency:    1.5425064585
  - # 9
    frequency:    2.3822879608
  - # 10
    frequency:    2.5804422712
  - # 11
    frequency:    4.7647814772
  - # 12
    frequency:    4.7910784794
  - # 13
    frequency:    5.5996235097
  - # 14
    frequency:    5.6521015804
  - # 15
    frequency:    6.6536302545
  - # 16
    frequency:   11.1028957055
  - # 17
    frequency:   15.1676609436
  - # 18
    frequency:   16.0924135792
  - # 19
    frequency:   16.2722897588
  - # 20
    frequency:   19.1949055134
  - # 21
    frequency:   34.5382897755

- q-position: [    0.0606061,    0.0000000,    0.0000000 ]
  distance:    0.0226733
  band:
  - # 1
    frequency:  -13.4935722745
  - # 2
    frequency:  -12.7902051680
  - # 3
    frequency:   -2.1965477119
  - # 4
    frequency:   -1.4173423017
  - # 5
    frequency:   -0.4111538361
  - # 6
    frequency:    0.4017466645
  - # 7
    frequency:    1.1172716810
  - # 8
    frequency:    1.6364212094
  - # 9
    frequency:    2.4341184594
  - # 10
    frequency:    2.6919786327
  - # 11
    frequency:    4.7781533485
  - # 12
    frequency:    4.8124418106
  - # 13
    frequency:    5.6078954922
  - # 14
    frequency:    5.6689669511
  - # 15
    frequency:    6.6751058061
  - # 16
    frequency:   11.0969187449
  - # 17
    frequency:   15.1239448392
  - # 18
    frequency:   16.0942106291
  - # 19
    frequency:   16.2930430664
  - # 20
    frequency:   19.1898700112
  - # 21
    frequency:   34.5332138499

- q-position: [    0.0656566,    0.0000000,    0.0000000 ]
  distance:    0.0245627
  band:
  - # 1
    frequency:  -13.3307247401
  - # 2
    frequency:  -12.4935895519
  - # 3
    frequency:   -2.3656017135
  - # 4
    frequency:   -1.5271240913
  - # 5
    frequency:   -0.4044535231
  - # 6
    frequency:    0.4383350877
  - # 7
    frequency:    1.2086714645
  - # 8
    frequency:    1.7235727101
  - # 9
    frequency:    2.4887611144
  - # 10
    frequency:    2.8133141225
  - # 11
    frequency:    4.7924652475
  - # 12
    frequency:    4.8361022596
  - # 13
    frequency:    5.6173816629
  - # 14
    frequency:    5.6872779454
  - # 15
    frequency:    6.6983828390
  - # 16
    frequency:   11.0901794718
  - # 17
    frequency:   15.0808679514
  - # 18
    frequency:   16.0963934939
  - # 19
    frequency:   16.3131997860
  - # 20
    frequency:   19.1844017752
  - # 21
    frequency:   34.5277422385

- q-position: [    0.0707071,    0.0000000,    0.0000000 ]
  distance:    0.0264522
  band:
  - # 1
    frequency:  -13.1584148447
  - # 2
    frequency:  -12.1725740767
  - # 3
    frequency:   -2.5313971822
  - # 4
    frequency:   -1.6349736574
  - # 5
    frequency:   -0.3826949141
  - # 6
    frequency:    0.4755048618
  - # 7
    frequency:    1.2995241716
  - # 8
    frequency:    1.8056766431
  - # 9
    frequency:    2.5461565354
  - # 10
    frequency:    2.9426508477
  - # 11
    frequency:    4.8076661887
  - # 12
    frequency:    4.8619954952
  - # 13
    frequency:    5.6282351935
  - # 14
    frequency:    5.7070438650
  - # 15
    frequency:    6.7234731390
  - # 16
    frequency:   11.0826295601
  - # 17
    frequency:   15.0389065134
  - # 18
    frequency:   16.0990204154
  - # 19
    frequency:   16.3327476526
  - # 20
    frequency:   19.1785082145
  - # 21
    frequency:   34.5218857396

- q-position: [    0.0757576,    0.0000000,    0.0000000 ]
  distance:    0.0283416
  band:
  - # 1
    frequency:  -12.9775049307
  - # 2
    frequency:  -11.8268669995
  - # 3
    frequency:   -2.6937114346
  - # 4
    frequency:   -1.7407587598
  - # 5
    frequency:   -0.3387928755
  - # 6
    frequency:    0.5133139247
  - # 7
    frequency:    1.3897412245
  - # 8
    frequency:    1.8844288161
  - # 9
    frequency:    2.6063600611
  - # 10
    frequency:    3.0781858685
  - # 11
    frequency:    4.8237052613
  - # 12
    frequency:    4.8900039178
  - # 13
    frequency:    5.6406387079
  - # 14
    frequency:    5.7282827348
  - # 15
    frequency:    6.7503988213
  - # 16
    frequency:   11.0742211505
  - # 17
    frequency:   14.9985148177
  - # 18
    frequency:   16.1021545007
  - # 19
    frequency:   16.3517129643
  - # 20
    frequency:   19.1721995492
  - # 21
    frequency:   34.5156557820

- q-position: [    0.0808081,    0.0000000,    0.0000000 ]
  distance:    0.0302311
  band:
  - # 1
    frequency:  -12.7889287500
  - # 2
    frequency:  -11.4560967754
  - # 3
    frequency:   -2.8523283150
  - # 4
    frequency:   -1.8443511742
  - # 5
    frequency:   -0.2561474066
  - # 6
    frequency:    0.5518430235
  - # 7
    frequency:    1.4792282175
  - # 8
    frequency:    1.9613278291
  - # 9
    frequency:    2.6695657466
  - # 10
    frequency:    3.2182791904
  - # 11
    frequency:    4.8405341394
  - # 12
    frequency:    4.9199527135
  - # 13
    frequency:    5.6548102517
  - # 14
    frequency:    5.7510247167
  - # 15
    frequency:    6.7791937044
  - # 16
    frequency:   11.0649076103
  - # 17
    frequency:   14.9601266730
  - # 18
    frequency:   16.1058636834
  - # 19
    frequency:   16.3701532769
  - # 20
    frequency:   19.1654892052
  - # 21
    frequency:   34.5090643786

- q-position: [    0.0858586,    0.0000000,    0.0000000 ]
  distance:    0.0321205
  band:
  - # 1
    frequency:  -12.5936885568
  - # 2
    frequency:  -11.0597966616
  - # 3
    frequency:   -3.0070384891
  - # 4
    frequency:   -1.9456268492
  - # 5
    frequency:    0.0622498644
  - # 6
    frequency:    0.5912273202
  - # 7
    frequency:    1.5678888768
  - # 8
    frequency:    2.0375994783
  - # 9
    frequency:    2.7361355532
  - # 10
    frequency:    3.3615233799
  - # 11
    frequency:    4.8581106833
  - # 12
    frequency:    4.9516066150
  - # 13
    frequency:    5.6710095851
  - # 14
    frequency:    5.7753167755
  - # 15
    frequency:    6.8099045181
  - # 16
    frequency:   11.0546442964
  - # 17
    frequency:   14.9241544707
  - # 18
    frequency:   16.1102206407
  - # 19
    frequency:   16.3881516921
  - # 20
    frequency:   19.1583942000
  - # 21
    frequency:   34.5021240805

- q-position: [    0.0909091,    0.0000000,    0.0000000 ]
  distance:    0.0340099
  band:
  - # 1
    frequency:  -12.3928499363
  - # 2
    frequency:  -10.6373887349
  - # 3
    frequency:   -3.1576397446
  - # 4
    frequency:   -2.0444660755
  - # 5
    frequency:    0.3099714304
  - # 6
    frequency:    0.6317434793
  - # 7
    frequency:    1.6556320123
  - # 8
    frequency:    2.1141898475
  - # 9
    frequency:    2.8066362886
  - # 10
    frequency:    3.5067464533
  - # 11
    frequency:    4.8764041401
  - # 12
    frequency:    4.9846678081
  - # 13
    frequency:    5.6895440287
  - # 14
    frequency:    5.8012291914
  - # 15
    frequency:    6.8425918317
  - # 16
    frequency:   11.0433893202
  - # 17
    frequency:   14.8909862613
  - # 18
    frequency:   16.1153026507
  - # 19
    frequency:   16.4058123162
  - # 20
    frequency:   19.1509355153
  - # 21
    frequency:   34.4948479291

- q-position: [    0.0959596,    0.0000000,    0.0000000 ]
  distance:    0.0358994
  band:
  - # 1
    frequency:  -12.1875338378
  - # 2
    frequency:  -10.1881695063
  - # 3
    frequency:   -3.3039372897
  - # 4
    frequency:   -2.1407536605
  - # 5
    frequency:    0.4608165222
  - # 6
    frequency:    0.6741089968
  - # 7
    frequency:    1.7423827446
  - # 8
    frequency:    2.1917921907
  - # 9
    frequency:    2.8818879392
  - # 10
    frequency:    3.6529812697
  - # 11
    frequency:    4.8954027713
  - # 12
    frequency:    5.0187760580
  - # 13
    frequency:    5.7107725566
  - # 14
    frequency:    5.8288648758
  - # 15
    frequency:    6.8773305488
  - # 16
    frequency:   11.0311043084
  - # 17
    frequency:   14.8609811702
  - # 18
    frequency:   16.1211913731
  - # 19
    frequency:   16.4232565640
  - # 20
    frequency:   19.1431384498
  - # 21
    frequency:   34.4872494099

- q-position: [    0.1010101,    0.0000000,    0.0000000 ]
  distance:    0.0377888
  band:
  - # 1
    frequency:  -11.9789053124
  - # 2
    frequency:   -9.7113019592
  - # 3
    frequency:   -3.4457440424
  - # 4
    frequency:   -2.2343790996
  - # 5
    frequency:    0.5920939367
  - # 6
    frequency:    0.7208766702
  - # 7
    frequency:    1.8280994470
  - # 8
    frequency:    2.2708841202
  - # 9
    frequency:    2.9630286727
  - # 10
    frequency:    3.7994232600
  - # 11
    frequency:    4.9151253261
  - # 12
    frequency:    5.0535129102
  - # 13
    frequency:    5.7351062353
  - # 14
    frequency:    5.8583730722
  - # 15
    frequency:    6.9142097632
  - # 16
    frequency:   11.0177551530
  - # 17
    frequency:   14.8344634558
  - # 18
    frequency:   16.1279725300
  - # 19
    frequency:   16.4406200540
  - # 20
    frequency:   19.1350329487
  - # 21
    frequency:   34.4793424049

- q-position: [    0.1060606,    0.0000000,    0.0000000 ]
  distance:    0.0396783
  band:
  - # 1
    frequency:  -11.7681585592
  - # 2
    frequency:   -9.2058241778
  - # 3
    frequency:   -3.5828809078
  - # 4
    frequency:   -2.3252367441
  - # 5
    frequency:    0.7013871479
  - # 6
    frequency:    0.7841910157
  - # 7
    frequency:    1.9127976647
  - # 8
    frequency:    2.3517629375
  - # 9
    frequency:    3.0516039470
  - # 10
    frequency:    3.9453872729
  - # 11
    frequency:    4.9356388931
  - # 12
    frequency:    5.0884124730
  - # 13
    frequency:    5.7630026646
  - # 14
    frequency:    5.8899701307
  - # 15
    frequency:    6.9533317293
  - # 16
    frequency:   11.0033127374
  - # 17
    frequency:   14.8117155165
  - # 18
    frequency:   16.1357354608
  - # 19
    frequency:   16.4580498895
  - # 20
    frequency:   19.1266539056
  - # 21
    frequency:   34.4711411464

- q-position: [    0.1111111,    0.0000000,    0.0000000 ]
  distance:    0.0415677
  band:
  - # 1
    frequency:  -11.5564980870
  - # 2
    frequency:   -8.6706954549
  - # 3
    frequency:   -3.7151770387
  - # 4
    frequency:   -2.4132259604
  - # 5
    frequency:    0.7706106838
  - # 6
    frequency:    0.8851029224
  - # 7
    frequency:    1.9965814404
  - # 8
    frequency:    2.4345744376
  - # 9
    frequency:    3.1496890002
  - # 10
    frequency:    4.0902673671
  - # 11
    frequency:    4.9570878679
  - # 12
    frequency:    5.1229813370
  - # 13
    frequency:    5.7949522760
  - # 14
    frequency:    5.9239720689
  - # 15
    frequency:    6.9948096671
  - # 16
    frequency:   10.9877536265
  - # 17
    frequency:   14.7929701911
  - # 18
    frequency:   16.1445725188
  - # 19
    frequency:   16.4757021514
  - # 20
    frequency:   19.1180414308
  - # 21
    frequency:   34.4626601710

- q-position: [    0.1161616,    0.0000000,    0.0000000 ]
  distance:    0.0434571
  band:
  - # 1
    frequency:  -11.3451161048
  - # 2
    frequency:   -8.1049220605
  - # 3
    frequency:   -3.8424700791
  - # 4
    frequency:   -2.4982512784
  - # 5
    frequency:    0.8203495643
  - # 6
    frequency:    1.0039352457
  - # 7
    frequency:    2.0796805260
  - # 8
    frequency:    2.5193346955
  - # 9
    frequency:    3.2600519222
  - # 10
    frequency:    4.2334999655
  - # 11
    frequency:    4.9797433398
  - # 12
    frequency:    5.1567290296
  - # 13
    frequency:    5.8314557103
  - # 14
    frequency:    5.9608474781
  - # 15
    frequency:    7.0387641216
  - # 16
    frequency:   10.9710606987
  - # 17
    frequency:   14.7784027521
  - # 18
    frequency:   16.1545782734
  - # 19
    frequency:   16.4937394422
  - # 20
    frequency:   19.1092410827
  - # 21
    frequency:   34.4539142743

- q-position: [    0.1212121,    0.0000000,    0.0000000 ]
  distance:    0.0453466
  band:
  - # 1
    frequency:  -11.1351666648
  - # 2
    frequency:   -7.5078458152
  - # 3
    frequency:   -3.9646063879
  - # 4
    frequency:   -2.5802225274
  - # 5
    frequency:    0.8659860323
  - # 6
    frequency:    1.1253654422
  - # 7
    frequency:    2.1624883756
  - # 8
    frequency:    2.6059465063
  - # 9
    frequency:    3.3863465544
  - # 10
    frequency:    4.3745295258
  - # 11
    frequency:    5.0040921786
  - # 12
    frequency:    5.1892078171
  - # 13
    frequency:    5.8729942671
  - # 14
    frequency:    6.0013068779
  - # 15
    frequency:    7.0853176403
  - # 16
    frequency:   10.9532237035
  - # 17
    frequency:   14.7681230656
  - # 18
    frequency:   16.1658484746
  - # 19
    frequency:   16.5123283314
  - # 20
    frequency:   19.1003040543
  - # 21
    frequency:   34.4449184676

- q-position: [    0.1262626,    0.0000000,    0.0000000 ]
  distance:    0.0472360
  band:
  - # 1
    frequency:  -10.9277375578
  - # 2
    frequency:   -6.8797514167
  - # 3
    frequency:   -4.0814412412
  - # 4
    frequency:   -2.6590549527
  - # 5
    frequency:    0.9107248556
  - # 6
    frequency:    1.2458560741
  - # 7
    frequency:    2.2455901496
  - # 8
    frequency:    2.6942131875
  - # 9
    frequency:    3.5332556107
  - # 10
    frequency:    4.5127755991
  - # 11
    frequency:    5.0310081248
  - # 12
    frequency:    5.2200575434
  - # 13
    frequency:    5.9199987802
  - # 14
    frequency:    6.0464600071
  - # 15
    frequency:    7.1345876471
  - # 16
    frequency:   10.9342397218
  - # 17
    frequency:   14.7621684571
  - # 18
    frequency:   16.1784787327
  - # 19
    frequency:   16.5316365509
  - # 20
    frequency:   19.0912873097
  - # 21
    frequency:   34.4356879344

- q-position: [    0.1313131,    0.0000000,    0.0000000 ]
  distance:    0.0491255
  band:
  - # 1
    frequency:  -10.7238214435
  - # 2
    frequency:   -6.2230517464
  - # 3
    frequency:   -4.1928390135
  - # 4
    frequency:   -2.7346693018
  - # 5
    frequency:    0.9553964960
  - # 6
    frequency:    1.3640692029
  - # 7
    frequency:    2.3297622571
  - # 8
    frequency:    2.7838527383
  - # 9
    frequency:    3.7062927364
  - # 10
    frequency:    4.6475996919
  - # 11
    frequency:    5.0621030719
  - # 12
    frequency:    5.2490500617
  - # 13
    frequency:    5.9728241845
  - # 14
    frequency:    6.0981046987
  - # 15
    frequency:    7.1866775925
  - # 16
    frequency:   10.9141135160
  - # 17
    frequency:   14.7604978858
  - # 18
    frequency:   16.1925628637
  - # 19
    frequency:   16.5518297946
  - # 20
    frequency:   19.0822536589
  - # 21
    frequency:   34.4262379891

- q-position: [    0.1363636,    0.0000000,    0.0000000 ]
  distance:    0.0510149
  band:
  - # 1
    frequency:  -10.5242880954
  - # 2
    frequency:   -5.5443526554
  - # 3
    frequency:   -4.2986733348
  - # 4
    frequency:   -2.8069918443
  - # 5
    frequency:    1.0002876921
  - # 6
    frequency:    1.4791571240
  - # 7
    frequency:    2.4159170629
  - # 8
    frequency:    2.8745149653
  - # 9
    frequency:    3.9104223786
  - # 10
    frequency:    4.7782675796
  - # 11
    frequency:    5.1004945623
  - # 12
    frequency:    5.2761326287
  - # 13
    frequency:    6.0317353064
  - # 14
    frequency:    6.1592781985
  - # 15
    frequency:    7.2416667358
  - # 16
    frequency:   10.8928577587
  - # 17
    frequency:   14.7629880506
  - # 18
    frequency:   16.2081908508
  - # 19
    frequency:   16.5730679847
  - # 20
    frequency:   19.0732717605
  - # 21
    frequency:   34.4165840371

- q-position: [    0.1414141,    0.0000000,    0.0000000 ]
  distance:    0.0529044
  band:
  - # 1
    frequency:  -10.3298598556
  - # 2
    frequency:   -4.8572926729
  - # 3
    frequency:   -4.3988272251
  - # 4
    frequency:   -2.8759541940
  - # 5
    frequency:    1.0455128658
  - # 6
    frequency:    1.5904639257
  - # 7
    frequency:    2.5049650776
  - # 8
    frequency:    2.9658031133
  - # 9
    frequency:    4.1455828754
  - # 10
    frequency:    4.9038913650
  - # 11
    frequency:    5.1525205486
  - # 12
    frequency:    5.3014866450
  - # 13
    frequency:    6.0969037887
  - # 14
    frequency:    6.2353298236
  - # 15
    frequency:    7.2995992595
  - # 16
    frequency:   10.8704931393
  - # 17
    frequency:   14.7694320357
  - # 18
    frequency:   16.2254463743
  - # 19
    frequency:   16.5955008907
  - # 20
    frequency:   19.0644160346
  - # 21
    frequency:   34.4067415356

- q-position: [    0.1464646,    0.0000000,    0.0000000 ]
  distance:    0.0547938
  band:
  - # 1
    frequency:  -10.1410923392
  - # 2
    frequency:   -4.4931932032
  - # 3
    frequency:   -4.1844460342
  - # 4
    frequency:   -2.9414922398
  - # 5
    frequency:    1.0911177124
  - # 6
    frequency:    1.6974651316
  - # 7
    frequency:    2.5975873760
  - # 8
    frequency:    3.0572999460
  - # 9
    frequency:    4.3967128425
  - # 10
    frequency:    5.0232930511
  - # 11
    frequency:    5.2309581874
  - # 12
    frequency:    5.3256669140
  - # 13
    frequency:    6.1684094837
  - # 14
    frequency:    6.3359139180
  - # 15
    frequency:    7.3604737505
  - # 16
    frequency:   10.8470483590
  - # 17
    frequency:   14.7795410180
  - # 18
    frequency:   16.2444038757
  - # 19
    frequency:   16.6192630324
  - # 20
    frequency:   19.0557664662
  - # 21
    frequency:   34.3967259566

- q-position: [    0.1515152,    0.0000000,    0.0000000 ]
  distance:    0.0566832
  band:
  - # 1
    frequency:   -9.9583620711
  - # 2
    frequency:   -4.5816733709
  - # 3
    frequency:   -3.5543264490
  - # 4
    frequency:   -3.0035372048
  - # 5
    frequency:    1.1371155118
  - # 6
    frequency:    1.7997537064
  - # 7
    frequency:    2.6939695056
  - # 8
    frequency:    3.1485964757
  - # 9
    frequency:    4.6240171867
  - # 10
    frequency:    5.1345625501
  - # 11
    frequency:    5.3500577926
  - # 12
    frequency:    5.3550123161
  - # 13
    frequency:    6.2462365980
  - # 14
    frequency:    6.4777702568
  - # 15
    frequency:    7.4242343220
  - # 16
    frequency:   10.8225600330
  - # 17
    frequency:   14.7929494040
  - # 18
    frequency:   16.2651251403
  - # 19
    frequency:   16.6444678683
  - # 20
    frequency:   19.0474082739
  - # 21