nqpoint: 300    
npath: 3      
segment_nqpoint:
- 100
- 100
- 100
labels:
- [ 'G', 'M' ]
- [ 'M', 'K' ]
- [ 'K', 'G' ]
reciprocal_lattice:
- [   0.30785979,   0.17774293,   0.00000000 ] # a*
- [   0.00000000,   0.35548587,   0.00000000 ] # b*
- [   0.00000000,   0.00000000,   0.03874874 ] # c*
natom: 7      
lattice:
- [     3.248231915944652,     0.000000000000000,     0.000000000000000 ] # a
- [    -1.624115957972326,     2.813051356572764,     0.000000000000000 ] # b
- [     0.000000000000000,     0.000000000000000,    25.807292890735276 ] # c
points:
- symbol: Br # 1
  coordinates: [  0.666666984744047,  0.333332985985145,  0.348738631289412 ]
  mass: 79.904000
- symbol: C # 2
  coordinates: [  0.000000000000000,  0.000000000000000,  0.462284997668444 ]
  mass: 12.010700
- symbol: C # 3
  coordinates: [  0.333332985432215,  0.666666983183674,  0.604584167447291 ]
  mass: 12.010700
- symbol: N # 4
  coordinates: [  0.333332985432215,  0.666666983183674,  0.556262049793142 ]
  mass: 14.006700
- symbol: O # 5
  coordinates: [  0.333332985432215,  0.666666983183674,  0.651261368710588 ]
  mass: 15.999400
- symbol: Ti # 6
  coordinates: [  0.333332985432215,  0.666666983183674,  0.420346672084552 ]
  mass: 47.867000
- symbol: Ti # 7
  coordinates: [  0.666666984744047,  0.333332985985145,  0.504821705413294 ]
  mass: 47.867000

phonon:
- q-position: [    0.0000000,    0.0000000,    0.0000000 ]
  distance:    0.0000000
  band:
  - # 1
    frequency:   -0.7266733627
  - # 2
    frequency:   -0.7266733625
  - # 3
    frequency:   -0.0000284693
  - # 4
    frequency:    0.0000006038
  - # 5
    frequency:    0.0000244562
  - # 6
    frequency:    3.6233956994
  - # 7
    frequency:    3.6233956995
  - # 8
    frequency:    5.0727421888
  - # 9
    frequency:    6.2846069219
  - # 10
    frequency:    6.2846069219
  - # 11
    frequency:    7.2650480255
  - # 12
    frequency:    7.2650480255
  - # 13
    frequency:    8.8258035168
  - # 14
    frequency:   12.3519305732
  - # 15
    frequency:   17.0452712935
  - # 16
    frequency:   17.4559448015
  - # 17
    frequency:   17.4559448016
  - # 18
    frequency:   17.7132299996
  - # 19
    frequency:   17.7132299998
  - # 20
    frequency:   38.4537763565
  - # 21
    frequency:   68.9435318178

- q-position: [    0.0050505,    0.0000000,    0.0000000 ]
  distance:    0.0017954
  band:
  - # 1
    frequency:   -0.7261555183
  - # 2
    frequency:   -0.7232726401
  - # 3
    frequency:    0.0025678481
  - # 4
    frequency:    0.0758633078
  - # 5
    frequency:    0.1203246792
  - # 6
    frequency:    3.6239690133
  - # 7
    frequency:    3.6254454161
  - # 8
    frequency:    5.0717279333
  - # 9
    frequency:    6.2845526644
  - # 10
    frequency:    6.2860807302
  - # 11
    frequency:    7.2654320659
  - # 12
    frequency:    7.2655639616
  - # 13
    frequency:    8.8259046603
  - # 14
    frequency:   12.3508422096
  - # 15
    frequency:   17.0447800956
  - # 16
    frequency:   17.4559874008
  - # 17
    frequency:   17.4563646851
  - # 18
    frequency:   17.7130305287
  - # 19
    frequency:   17.7137856537
  - # 20
    frequency:   38.4537570889
  - # 21
    frequency:   68.9422737445

- q-position: [    0.0101010,    0.0000000,    0.0000000 ]
  distance:    0.0035908
  band:
  - # 1
    frequency:   -0.7246172006
  - # 2
    frequency:   -0.7131350698
  - # 3
    frequency:    0.0102670932
  - # 4
    frequency:    0.1517832630
  - # 5
    frequency:    0.2410532369
  - # 6
    frequency:    3.6256877353
  - # 7
    frequency:    3.6315761353
  - # 8
    frequency:    5.0687078025
  - # 9
    frequency:    6.2843913195
  - # 10
    frequency:    6.2904809066
  - # 11
    frequency:    7.2665805672
  - # 12
    frequency:    7.2671076141
  - # 13
    frequency:    8.8262090978
  - # 14
    frequency:   12.3475795205
  - # 15
    frequency:   17.0433107525
  - # 16
    frequency:   17.4561150822
  - # 17
    frequency:   17.4576197890
  - # 18
    frequency:   17.7124337792
  - # 19
    frequency:   17.7154494238
  - # 20
    frequency:   38.4536993531
  - # 21
    frequency:   68.9385021339

- q-position: [    0.0151515,    0.0000000,    0.0000000 ]
  distance:    0.0053861
  band:
  - # 1
    frequency:   -0.7220995774
  - # 2
    frequency:   -0.6963910241
  - # 3
    frequency:    0.0230877736
  - # 4
    frequency:    0.2278012722
  - # 5
    frequency:    0.3624441692
  - # 6
    frequency:    3.6285482207
  - # 7
    frequency:    3.6417332105
  - # 8
    frequency:    5.0637483604
  - # 9
    frequency:    6.2841271241
  - # 10
    frequency:    6.2977450653
  - # 11
    frequency:    7.2684827089
  - # 12
    frequency:    7.2696665824
  - # 13
    frequency:    8.8267198356
  - # 14
    frequency:   12.3421496988
  - # 15
    frequency:   17.0408757826
  - # 16
    frequency:   17.4563274968
  - # 17
    frequency:   17.4596967384
  - # 18
    frequency:   17.7114447312
  - # 19
    frequency:   17.7182117280
  - # 20
    frequency:   38.4536033492
  - # 21
    frequency:   68.9322248060

- q-position: [    0.0202020,    0.0000000,    0.0000000 ]
  distance:    0.0071815
  band:
  - # 1
    frequency:   -0.7186583317
  - # 2
    frequency:   -0.6730867910
  - # 3
    frequency:    0.0410253086
  - # 4
    frequency:    0.3039334853
  - # 5
    frequency:    0.4845481127
  - # 6
    frequency:    3.6325444394
  - # 7
    frequency:    3.6558276598
  - # 8
    frequency:    5.0569562741
  - # 9
    frequency:    6.2837669899
  - # 10
    frequency:    6.3077735613
  - # 11
    frequency:    7.2711205891
  - # 12
    frequency:    7.2732204191
  - # 13
    frequency:    8.8274418383
  - # 14
    frequency:   12.3345646932
  - # 15
    frequency:   17.0374953057
  - # 16
    frequency:   17.4566240634
  - # 17
    frequency:   17.4625740939
  - # 18
    frequency:   17.7100716480
  - # 19
    frequency:   17.7220565780
  - # 20
    frequency:   38.4534694102
  - # 21
    frequency:   68.9234547698

- q-position: [    0.0252525,    0.0000000,    0.0000000 ]
  distance:    0.0089769
  band:
  - # 1
    frequency:   -0.7143499513
  - # 2
    frequency:   -0.6430287644
  - # 3
    frequency:    0.0641018258
  - # 4
    frequency:    0.3801684925
  - # 5
    frequency:    0.6072431382
  - # 6
    frequency:    3.6376680425
  - # 7
    frequency:    3.6737391087
  - # 8
    frequency:    5.0484725637
  - # 9
    frequency:    6.2833202866
  - # 10
    frequency:    6.3204353357
  - # 11
    frequency:    7.2744694233
  - # 12
    frequency:    7.2777409504
  - # 13
    frequency:    8.8283819591
  - # 14
    frequency:   12.3248411498
  - # 15
    frequency:   17.0331960350
  - # 16
    frequency:   17.4570039688
  - # 17
    frequency:   17.4662235119
  - # 18
    frequency:   17.7083260229
  - # 19
    frequency:   17.7269615609
  - # 20
    frequency:   38.4532980002
  - # 21
    frequency:   68.9122101861

- q-position: [    0.0303030,    0.0000000,    0.0000000 ]
  distance:    0.0107723
  band:
  - # 1
    frequency:   -0.7092203503
  - # 2
    frequency:   -0.6056667332
  - # 3
    frequency:    0.0924049186
  - # 4
    frequency:    0.4564716368
  - # 5
    frequency:    0.7303177167
  - # 6
    frequency:    3.6439084539
  - # 7
    frequency:    3.6953195398
  - # 8
    frequency:    5.0384657036
  - # 9
    frequency:    6.2827985572
  - # 10
    frequency:    6.3355749615
  - # 11
    frequency:    7.2784978229
  - # 12
    frequency:    7.2831927063
  - # 13
    frequency:    8.8295488407
  - # 14
    frequency:   12.3130003319
  - # 15
    frequency:   17.0280100539
  - # 16
    frequency:   17.4574661694
  - # 17
    frequency:   17.4706111622
  - # 18
    frequency:   17.7062225032
  - # 19
    frequency:   17.7328978271
  - # 20
    frequency:   38.4530897131
  - # 21
    frequency:   68.8985143166

- q-position: [    0.0353535,    0.0000000,    0.0000000 ]
  distance:    0.0125677
  band:
  - # 1
    frequency:   -0.7032982246
  - # 2
    frequency:   -0.5599951457
  - # 3
    frequency:    0.1261583668
  - # 4
    frequency:    0.5327927475
  - # 5
    frequency:    0.8535441484
  - # 6
    frequency:    3.6512529853
  - # 7
    frequency:    3.7203975377
  - # 8
    frequency:    5.0271244020
  - # 9
    frequency:    6.2822151781
  - # 10
    frequency:    6.3530200802
  - # 11
    frequency:    7.2831681533
  - # 12
    frequency:    7.2895334426
  - # 13
    frequency:    8.8309527865
  - # 14
    frequency:   12.2990680200
  - # 15
    frequency:   17.0219735167
  - # 16
    frequency:   17.4580093915
  - # 17
    frequency:   17.4756992502
  - # 18
    frequency:   17.7037787948
  - # 19
    frequency:   17.7398301004
  - # 20
    frequency:   38.4528452700
  - # 21
    frequency:   68.8823954576

- q-position: [    0.0404040,    0.0000000,    0.0000000 ]
  distance:    0.0143631
  band:
  - # 1
    frequency:   -0.6965930553
  - # 2
    frequency:   -0.5044081400
  - # 3
    frequency:    0.1658541417
  - # 4
    frequency:    0.6090740718
  - # 5
    frequency:    0.9767185426
  - # 6
    frequency:    3.6596869734
  - # 7
    frequency:    3.7487827002
  - # 8
    frequency:    5.0146507891
  - # 9
    frequency:    6.2815849827
  - # 10
    frequency:    6.3725885216
  - # 11
    frequency:    7.2884369721
  - # 12
    frequency:    7.2967147372
  - # 13
    frequency:    8.8326056008
  - # 14
    frequency:   12.2830743941
  - # 15
    frequency:   17.0151253952
  - # 16
    frequency:   17.4586321342
  - # 17
    frequency:   17.4814475024
  - # 18
    frequency:   17.7010155458
  - # 19
    frequency:   17.7477167224
  - # 20
    frequency:   38.4525655167
  - # 21
    frequency:   68.8638868601

- q-position: [    0.0454545,    0.0000000,    0.0000000 ]
  distance:    0.0161584
  band:
  - # 1
    frequency:   -0.6890962246
  - # 2
    frequency:   -0.4364138746
  - # 3
    frequency:    0.2124932530
  - # 4
    frequency:    0.6852564498
  - # 5
    frequency:    1.0996723558
  - # 6
    frequency:    3.6691939372
  - # 7
    frequency:    3.7802698974
  - # 8
    frequency:    5.0012545600
  - # 9
    frequency:    6.2809238654
  - # 10
    frequency:    6.3940945969
  - # 11
    frequency:    7.2942555462
  - # 12
    frequency:    7.3046826393
  - # 13
    frequency:    8.8345203964
  - # 14
    frequency:   12.2650539000
  - # 15
    frequency:   17.0075063630
  - # 16
    frequency:   17.4593326707
  - # 17
    frequency:   17.4878145054
  - # 18
    frequency:   17.6979562106
  - # 19
    frequency:   17.7565097466
  - # 20
    frequency:   38.4522514205
  - # 21
    frequency:   68.8430266358

- q-position: [    0.0505051,    0.0000000,    0.0000000 ]
  distance:    0.0179538
  band:
  - # 1
    frequency:   -0.6807834862
  - # 2
    frequency:   -0.3519340166
  - # 3
    frequency:    0.2679286889
  - # 4
    frequency:    0.7612831741
  - # 5
    frequency:    1.2222689403
  - # 6
    frequency:    3.6797557529
  - # 7
    frequency:    3.8146430938
  - # 8
    frequency:    4.9871484126
  - # 9
    frequency:    6.2802483832
  - # 10
    frequency:    6.4173542725
  - # 11
    frequency:    7.3005704467
  - # 12
    frequency:    7.3133783528
  - # 13
    frequency:    8.8367113697
  - # 14
    frequency:   12.2450451022
  - # 15
    frequency:   16.9991578727
  - # 16
    frequency:   17.4601090528
  - # 17
    frequency:   17.4947588295
  - # 18
    frequency:   17.6946268962
  - # 19
    frequency:   17.7661550946
  - # 20
    frequency:   38.4519040663
  - # 21
    frequency:   68.8198576491

- q-position: [    0.0555556,    0.0000000,    0.0000000 ]
  distance:    0.0197492
  band:
  - # 1
    frequency:   -0.6716174921
  - # 2
    frequency:   -0.2418969133
  - # 3
    frequency:    0.3347442252
  - # 4
    frequency:    0.8371018521
  - # 5
    frequency:    1.3443952058
  - # 6
    frequency:    3.6913528442
  - # 7
    frequency:    3.8516784852
  - # 8
    frequency:    4.9725449440
  - # 9
    frequency:    6.2795753681
  - # 10
    frequency:    6.4421891326
  - # 11
    frequency:    7.3073242210
  - # 12
    frequency:    7.3227389365
  - # 13
    frequency:    8.8391935421
  - # 14
    frequency:   12.2230905267
  - # 15
    frequency:   16.9901214426
  - # 16
    frequency:   17.4609591149
  - # 17
    frequency:   17.5022399033
  - # 18
    frequency:   17.6910561891
  - # 19
    frequency:   17.7765927824
  - # 20
    frequency:   38.4515246527
  - # 21
    frequency:   68.7944273954

- q-position: [    0.0606061,    0.0000000,    0.0000000 ]
  distance:    0.0215446
  band:
  - # 1
    frequency:   -0.6615496791
  - # 2
    frequency:    0.0333662457
  - # 3
    frequency:    0.4137173403
  - # 4
    frequency:    0.9126648998
  - # 5
    frequency:    1.4659533410
  - # 6
    frequency:    3.7039643845
  - # 7
    frequency:    3.8911467368
  - # 8
    frequency:    4.9576550562
  - # 9
    frequency:    6.2789215656
  - # 10
    frequency:    6.4684291819
  - # 11
    frequency:    7.3144561368
  - # 12
    frequency:    7.3326980044
  - # 13
    frequency:    8.8419824695
  - # 14
    frequency:   12.1992364945
  - # 15
    frequency:   16.9804381486
  - # 16
    frequency:   17.4618804811
  - # 17
    frequency:   17.5102186386
  - # 18
    frequency:   17.6872749663
  - # 19
    frequency:   17.7877572216
  - # 20
    frequency:   38.4511144875
  - # 21
    frequency:   68.7667878671

- q-position: [    0.0656566,    0.0000000,    0.0000000 ]
  distance:    0.0233400
  band:
  - # 1
    frequency:   -0.6505212546
  - # 2
    frequency:    0.2335935321
  - # 3
    frequency:    0.5002797609
  - # 4
    frequency:    0.9879292581
  - # 5
    frequency:    1.5868542203
  - # 6
    frequency:    3.7175685105
  - # 7
    frequency:    3.9328141199
  - # 8
    frequency:    4.9426878770
  - # 9
    frequency:    6.2783033054
  - # 10
    frequency:    6.4959146284
  - # 11
    frequency:    7.3219029966
  - # 12
    frequency:    7.3431864142
  - # 13
    frequency:    8.8450939188
  - # 14
    frequency:   12.1735329501
  - # 15
    frequency:   16.9701482924
  - # 16
    frequency:   17.4628705731
  - # 17
    frequency:   17.5186578266
  - # 18
    frequency:   17.6833161890
  - # 19
    frequency:   17.7995775975
  - # 20
    frequency:   38.4506749826
  - # 21
    frequency:   68.7369954057

- q-position: [    0.0707071,    0.0000000,    0.0000000 ]
  distance:    0.0251354
  band:
  - # 1
    frequency:   -0.6384632464
  - # 2
    frequency:    0.3258262687
  - # 3
    frequency:    0.5880077838
  - # 4
    frequency:    1.0628557556
  - # 5
    frequency:    1.7070126290
  - # 6
    frequency:    3.7321425411
  - # 7
    frequency:    3.9764423243
  - # 8
    frequency:    4.9278522342
  - # 9
    frequency:    6.2777362125
  - # 10
    frequency:    6.5244968278
  - # 11
    frequency:    7.3296000164
  - # 12
    frequency:    7.3541329340
  - # 13
    frequency:    8.8485435172
  - # 14
    frequency:   12.1460332853
  - # 15
    frequency:   16.9592912132
  - # 16
    frequency:   17.4639266224
  - # 17
    frequency:   17.5275223387
  - # 18
    frequency:   17.6792146814
  - # 19
    frequency:   17.8119783175
  - # 20
    frequency:   38.4502076490
  - # 21
    frequency:   68.7051105424

- q-position: [    0.0757576,    0.0000000,    0.0000000 ]
  distance:    0.0269307
  band:
  - # 1
    frequency:   -0.6252956464
  - # 2
    frequency:    0.4005696561
  - # 3
    frequency:    0.6735298780
  - # 4
    frequency:    1.1374083728
  - # 5
    frequency:    1.8263439518
  - # 6
    frequency:    3.7476632023
  - # 7
    frequency:    4.0217866549
  - # 8
    frequency:    4.9133598203
  - # 9
    frequency:    6.2772349619
  - # 10
    frequency:    6.5540385711
  - # 11
    frequency:    7.3374817631
  - # 12
    frequency:    7.3654648797
  - # 13
    frequency:    8.8523463747
  - # 14
    frequency:   12.1167941618
  - # 15
    frequency:   16.9479052080
  - # 16
    frequency:   17.4650456854
  - # 17
    frequency:   17.5367791711
  - # 18
    frequency:   17.6750068941
  - # 19
    frequency:   17.8248795245
  - # 20
    frequency:   38.4497140909
  - # 21
    frequency:   68.6711978265

- q-position: [    0.0808081,    0.0000000,    0.0000000 ]
  distance:    0.0287261
  band:
  - # 1
    frequency:   -0.6109256440
  - # 2
    frequency:    0.4694511015
  - # 3
    frequency:    0.7560193709
  - # 4
    frequency:    1.2115535397
  - # 5
    frequency:    1.9447619152
  - # 6
    frequency:    3.7641068522
  - # 7
    frequency:    4.0685921865
  - # 8
    frequency:    4.8994303622
  - # 9
    frequency:    6.2768130770
  - # 10
    frequency:    6.5844138848
  - # 11
    frequency:    7.3454831436
  - # 12
    frequency:    7.3771087197
  - # 13
    frequency:    8.8565166879
  - # 14
    frequency:   12.0858753329
  - # 15
    frequency:   16.9360275246
  - # 16
    frequency:   17.4662246640
  - # 17
    frequency:   17.5463973733
  - # 18
    frequency:   17.6707306537
  - # 19
    frequency:   17.8381976644
  - # 20
    frequency:   38.4491960000
  - # 21
    frequency:   68.6353256424

- q-position: [    0.0858586,    0.0000000,    0.0000000 ]
  distance:    0.0305215
  band:
  - # 1
    frequency:   -0.5952448484
  - # 2
    frequency:    0.5363977078
  - # 3
    frequency:    0.8356092625
  - # 4
    frequency:    1.2852595210
  - # 5
    frequency:    2.0621770488
  - # 6
    frequency:    3.7814497057
  - # 7
    frequency:    4.1165872241
  - # 8
    frequency:    4.8862993746
  - # 9
    frequency:    6.2764827716
  - # 10
    frequency:    6.6155074785
  - # 11
    frequency:    7.3535404389
  - # 12
    frequency:    7.3889906425
  - # 13
    frequency:    8.8610673303
  - # 14
    frequency:   12.0533394664
  - # 15
    frequency:   16.9236944015
  - # 16
    frequency:   17.4674603312
  - # 17
    frequency:   17.5563478949
  - # 18
    frequency:   17.6664248979
  - # 19
    frequency:   17.8518460957
  - # 20
    frequency:   38.4486551489
  - # 21
    frequency:   68.5975660155

- q-position: [    0.0909091,    0.0000000,    0.0000000 ]
  distance:    0.0323169
  band:
  - # 1
    frequency:   -0.5781252557
  - # 2
    frequency:    0.6030130125
  - # 3
    frequency:    0.9126641393
  - # 4
    frequency:    1.3584959010
  - # 5
    frequency:    2.1784956226
  - # 6
    frequency:    3.7996680547
  - # 7
    frequency:    4.1654730704
  - # 8
    frequency:    4.8742294603
  - # 9
    frequency:    6.2762548315
  - # 10
    frequency:    6.6472139501
  - # 11
    frequency:    7.3615923760
  - # 12
    frequency:    7.4010370888
  - # 13
    frequency:    8.8660094381
  - # 14
    frequency:   12.0192519697
  - # 15
    frequency:   16.9109411314
  - # 16
    frequency:   17.4687493652
  - # 17
    frequency:   17.5666033816
  - # 18
    frequency:   17.6621293982
  - # 19
    frequency:   17.8657357312
  - # 20
    frequency:   38.4480933846
  - # 21
    frequency:   68.5579944081

- q-position: [    0.0959596,    0.0000000,    0.0000000 ]
  distance:    0.0341123
  band:
  - # 1
    frequency:   -0.5594135013
  - # 2
    frequency:    0.6700087787
  - # 3
    frequency:    0.9875506465
  - # 4
    frequency:    1.4312331620
  - # 5
    frequency:    2.2936188973
  - # 6
    frequency:    3.8187384821
  - # 7
    frequency:    4.2149086243
  - # 8
    frequency:    4.8635266250
  - # 9
    frequency:    6.2761385335
  - # 10
    frequency:    6.6794368241
  - # 11
    frequency:    7.3695812324
  - # 12
    frequency:    7.4131752468
  - # 13
    frequency:    8.8713520019
  - # 14
    frequency:   11.9836808172
  - # 15
    frequency:   16.8978021322
  - # 16
    frequency:   17.4700883919
  - # 17
    frequency:   17.5771379448
  - # 18
    frequency:   17.6578844685
  - # 19
    frequency:   17.8797756973
  - # 20
    frequency:   38.4475126219
  - # 21
    frequency:   68.5166895055

- q-position: [    0.1010101,    0.0000000,    0.0000000 ]
  distance:    0.0359077
  band:
  - # 1
    frequency:   -0.5389225959
  - # 2
    frequency:    0.7377039397
  - # 3
    frequency:    1.0605808872
  - # 4
    frequency:    1.5034423405
  - # 5
    frequency:    2.4074425750
  - # 6
    frequency:    3.8386380660
  - # 7
    frequency:    4.2644877891
  - # 8
    frequency:    4.8545636359
  - # 9
    frequency:    6.2761415957
  - # 10
    frequency:    6.7120874729
  - # 11
    frequency:    7.3774539700
  - # 12
    frequency:    7.4253335123
  - # 13
    frequency:    8.8771014737
  - # 14
    frequency:   11.9466963807
  - # 15
    frequency:   16.8843110135
  - # 16
    frequency:   17.4714740379
  - # 17
    frequency:   17.5879269236
  - # 18
    frequency:   17.6537306617
  - # 19
    frequency:   17.8938740047
  - # 20
    frequency:   38.4469148361
  - # 21
    frequency:   68.4737329932

- q-position: [    0.1060606,    0.0000000,    0.0000000 ]
  distance:    0.0377030
  band:
  - # 1
    frequency:   -0.5164197571
  - # 2
    frequency:    0.8062270696
  - # 3
    frequency:    1.1320074767
  - # 4
    frequency:    1.5750947468
  - # 5
    frequency:    2.5198563734
  - # 6
    frequency:    3.8593445727
  - # 7
    frequency:    4.3137074408
  - # 8
    frequency:    4.8478127044
  - # 9
    frequency:    6.2762701551
  - # 10
    frequency:    6.7450839477
  - # 11
    frequency:    7.3851634005
  - # 12
    frequency:    7.4374419158
  - # 13
    frequency:    8.8832614027
  - # 14
    frequency:   11.9083712636
  - # 15
    frequency:   16.8705006333
  - # 16
    frequency:   17.4729029945
  - # 17
    frequency:   17.5989466510
  - # 18
    frequency:   17.6497084537
  - # 19
    frequency:   17.9079382176
  - # 20
    frequency:   38.4463020560
  - # 21
    frequency:   68.4292093251

- q-position: [    0.1111111,    0.0000000,    0.0000000 ]
  distance:    0.0394984
  band:
  - # 1
    frequency:   -0.4916078649
  - # 2
    frequency:    0.8756079855
  - # 3
    frequency:    1.2020319110
  - # 4
    frequency:    1.6461617346
  - # 5
    frequency:    2.6307436681
  - # 6
    frequency:    3.8808366351
  - # 7
    frequency:    4.3619250315
  - # 8
    frequency:    4.8438884516
  - # 9
    frequency:    6.2765287689
  - # 10
    frequency:    6.7783497226
  - # 11
    frequency:    7.3926693907
  - # 12
    frequency:    7.4494325181
  - # 13
    frequency:    8.8898321098
  - # 14
    frequency:   11.8687801365
  - # 15
    frequency:   16.8564031379
  - # 16
    frequency:   17.4743720955
  - # 17
    frequency:   17.6101742338
  - # 18
    frequency:   17.6458579166
  - # 19
    frequency:   17.9218761178
  - # 20
    frequency:   38.4456763562
  - # 21
    frequency:   68.3832054846

- q-position: [    0.1161616,    0.0000000,    0.0000000 ]
  distance:    0.0412938
  band:
  - # 1
    frequency:   -0.4640959167
  - # 2
    frequency:    0.9458227529
  - # 3
    frequency:    1.2708148058
  - # 4
    frequency:    1.7166145095
  - # 5
    frequency:    2.7399811529
  - # 6
    frequency:    3.9030939142
  - # 7
    frequency:    4.4083111555
  - # 8
    frequency:    4.8435958771
  - # 9
    frequency:    6.2769204332
  - # 10
    frequency:    6.8118123352
  - # 11
    frequency:    7.3999401274
  - # 12
    frequency:    7.4612397759
  - # 13
    frequency:    8.8968104132
  - # 14
    frequency:   11.8279995772
  - # 15
    frequency:   16.8420499867
  - # 16
    frequency:   17.4758784061
  - # 17
    frequency:   17.6215873493
  - # 18
    frequency:   17.6422183823
  - # 19
    frequency:   17.9355963561
  - # 20
    frequency:   38.4450398496
  - # 21
    frequency:   68.3358107388

- q-position: [    0.1212121,    0.0000000,    0.0000000 ]
  distance:    0.0430892
  band:
  - # 1
    frequency:   -0.4333492382
  - # 2
    frequency:    1.0168172203
  - # 3
    frequency:    1.3384849276
  - # 4
    frequency:    1.7864239696
  - # 5
    frequency:    2.8474384715
  - # 6
    frequency:    3.9260972417
  - # 7
    frequency:    4.4518202071
  - # 8
    frequency:    4.8479602569
  - # 9
    frequency:    6.2774466169
  - # 10
    frequency:    6.8454018866
  - # 11
    frequency:    7.4069534761
  - # 12
    frequency:    7.4728008799
  - # 13
    frequency:    8.9041894148
  - # 14
    frequency:   11.7861079106
  - # 15
    frequency:   16.8274719596
  - # 16
    frequency:   17.4774193236
  - # 17
    frequency:   17.6331640624
  - # 18
    frequency:   17.6388281000
  - # 19
    frequency:   17.9490090883
  - # 20
    frequency:   38.4443946796
  - # 21
    frequency:   68.2871163859

- q-position: [    0.1262626,    0.0000000,    0.0000000 ]
  distance:    0.0448846
  band:
  - # 1
    frequency:   -0.3985992723
  - # 2
    frequency:    1.0885198854
  - # 3
    frequency:    1.4051464844
  - # 4
    frequency:    1.8555605724
  - # 5
    frequency:    2.9529777690
  - # 6
    frequency:    3.9498287403
  - # 7
    frequency:    4.4912368193
  - # 8
    frequency:    4.8581813493
  - # 9
    frequency:    6.2781073069
  - # 10
    frequency:    6.8790493380
  - # 11
    frequency:    7.4136984884
  - # 12
    frequency:    7.4840560658
  - # 13
    frequency:    8.9119583553
  - # 14
    frequency:   11.7431850514
  - # 15
    frequency:   16.8126991490
  - # 16
    frequency:   17.4789926866
  - # 17
    frequency:   17.6357238919
  - # 18
    frequency:   17.6448826598
  - # 19
    frequency:   17.9620265932
  - # 20
    frequency:   38.4437430128
  - # 21
    frequency:   68.2372154980

- q-position: [    0.1313131,    0.0000000,    0.0000000 ]
  distance:    0.0466800
  band:
  - # 1
    frequency:   -0.3586634783
  - # 2
    frequency:    1.1608491103
  - # 3
    frequency:    1.4708848646
  - # 4
    frequency:    1.9239942251
  - # 5
    frequency:    3.0564530955
  - # 6
    frequency:    3.9742719195
  - # 7
    frequency:    4.5253839590
  - # 8
    frequency:    4.8754261106
  - # 9
    frequency:    6.2789010618
  - # 10
    frequency:    6.9126845112
  - # 11
    frequency:    7.4201771425
  - # 12
    frequency:    7.4949488997
  - # 13
    frequency:    8.9201025443
  - # 14
    frequency:   11.6993123464
  - # 15
    frequency:   16.7977609382
  - # 16
    frequency:   17.4805968861
  - # 17
    frequency:   17.6329408146
  - # 18
    frequency:   17.6567215001
  - # 19
    frequency:   17.9745638709
  - # 20
    frequency:   38.4430870302
  - # 21
    frequency:   68.1862026587

- q-position: [    0.1363636,    0.0000000,    0.0000000 ]
  distance:    0.0484753
  band:
  - # 1
    frequency:   -0.3115326527
  - # 2
    frequency:    1.2337171646
  - # 3
    frequency:    1.5357711624
  - # 4
    frequency:    1.9916941984
  - # 5
    frequency:    3.1577095868
  - # 6
    frequency:    3.9994117452
  - # 7
    frequency:    4.5535106758
  - # 8
    frequency:    4.9004420191
  - # 9
    frequency:    6.2798250723
  - # 10
    frequency:    6.9462336647
  - # 11
    frequency:    7.4264064369
  - # 12
    frequency:    7.5054265388
  - # 13
    frequency:    8.9286033678
  - # 14
    frequency:   11.6545724158
  - # 15
    frequency:   16.7826859682
  - # 16
    frequency:   17.4822309715
  - # 17
    frequency:   17.6305118359
  - # 18
    frequency:   17.6686588750
  - # 19
    frequency:   17.9865392226
  - # 20
    frequency:   38.4424289203
  - # 21
    frequency:   68.1341736975

- q-position: [    0.1414141,    0.0000000,    0.0000000 ]
  distance:    0.0502707
  band:
  - # 1
    frequency:   -0.2531979476
  - # 2
    frequency:    1.3070323831
  - # 3
    frequency:    1.5998658123
  - # 4
    frequency:    2.0586290616
  - # 5
    frequency:    3.2565823239
  - # 6
    frequency:    4.0252346784
  - # 7
    frequency:    4.5756569417
  - # 8
    frequency:    4.9331936799
  - # 9
    frequency:    6.2808752273
  - # 10
    frequency:    6.9796164659
  - # 11
    frequency:    7.4324210115
  - # 12
    frequency:    7.5154399673
  - # 13
    frequency:    8.9374383737
  - # 14
    frequency:   11.6090489939
  - # 15
    frequency:   16.7675020955
  - # 16
    frequency:   17.4838947408
  - # 17
    frequency:   17.6284675385
  - # 18
    frequency:   17.6806728763
  - # 19
    frequency:   17.9978748132
  - # 20
    frequency:   38.4417708705
  - # 21
    frequency:   68.0812254212

- q-position: [    0.1464646,    0.0000000,    0.0000000 ]
  distance:    0.0520661
  band:
  - # 1
    frequency:   -0.1726261095
  - # 2
    frequency:    1.3807001256
  - # 3
    frequency:    1.6632216060
  - # 4
    frequency:    2.1247666433
  - # 5
    frequency:    3.3528947657
  - # 6
    frequency:    4.0517286815
  - # 7
    frequency:    4.5926760386
  - # 8
    frequency:    4.9728423735
  - # 9
    frequency:    6.2820461844
  - # 10
    frequency:    7.0127421236
  - # 11
    frequency:    7.4382765251
  - # 12
    frequency:    7.5249442076
  - # 13
    frequency:    8.9465814317
  - # 14
    frequency:   11.5628267662
  - # 15
    frequency:   16.7522363421
  - # 16
    frequency:   17.4855888021
  - # 17
    frequency:   17.6268358650
  - # 18
    frequency:   17.6927412620
  - # 19
    frequency:   18.0084972190
  - # 20
    frequency:   38.4411150591
  - # 21
    frequency:   68.0274553430

- q-position: [    0.1515152,    0.0000000,    0.0000000 ]
  distance:    0.0538615
  band:
  - # 1
    frequency:    0.0767015836
  - # 2
    frequency:    1.4546229076
  - # 3
    frequency:    1.7258863196
  - # 4
    frequency:    2.1900740175
  - # 5
    frequency:    3.4464566500
  - # 6
    frequency:    4.0788831903
  - # 7
    frequency:    4.6058878916
  - # 8
    frequency:    5.0180952669
  - # 9
    frequency:    6.2833314443
  - # 10
    frequency:    7.0455043815
  - # 11
    frequency:    7.4440540895
  - # 12
    frequency:    7.5338985073
  - # 13
    frequency:    8.9560029609
  - # 14
    frequency:   11.5159912035
  - # 15
    frequency:   16.7369148411
  - # 16
    frequency:   17.4873145915
  - # 17
    frequency:   17.6256419198
  - # 18
    frequency:   17.7048413120
  - # 19
    frequency:   18.0183379657
  - # 20
    frequency:   38.4404636481
  - # 21