nqpoint: 300    
npath: 3      
segment_nqpoint:
- 100
- 100
- 100
labels:
- [ 'G', 'M' ]
- [ 'M', 'K' ]
- [ 'K', 'G' ]
reciprocal_lattice:
- [   0.29985097,   0.17311904,   0.00000000 ] # a*
- [   0.00000000,   0.34623808,   0.00000000 ] # b*
- [   0.00000000,   0.00000000,   0.03572575 ] # c*
natom: 9      
lattice:
- [     3.334990022063059,     0.000000000000000,     0.000000000000000 ] # a
- [    -1.667495011031530,     2.888186080466038,     0.000000000000000 ] # b
- [     0.000000000000000,     0.000000000000000,    27.991018772811170 ] # c
points:
- symbol: C # 1
  coordinates: [  0.333332985432215,  0.666666983183674,  0.636045167521956 ]
  mass: 12.010700
- symbol: C # 2
  coordinates: [  0.666666984744047,  0.333332985985145,  0.363954832030186 ]
  mass: 12.010700
- symbol: Hf # 3
  coordinates: [  0.333332985432215,  0.666666983183674,  0.460077038410375 ]
  mass: 178.490000
- symbol: Hf # 4
  coordinates: [  0.666666984744047,  0.333332985985145,  0.539922961141758 ]
  mass: 178.490000
- symbol: N # 5
  coordinates: [  0.000000000000000,  0.000000000000000,  0.500000030006519 ]
  mass: 14.006700
- symbol: N # 6
  coordinates: [  0.333332985432215,  0.666666983183674,  0.678468294668071 ]
  mass: 14.006700
- symbol: N # 7
  coordinates: [  0.666666984744047,  0.333332985985145,  0.321531705331928 ]
  mass: 14.006700
- symbol: O # 8
  coordinates: [  0.333332985432215,  0.666666983183674,  0.588115113793467 ]
  mass: 15.999400
- symbol: O # 9
  coordinates: [  0.666666984744047,  0.333332985985145,  0.411884886206533 ]
  mass: 15.999400

phonon:
- q-position: [    0.0000000,    0.0000000,    0.0000000 ]
  distance:    0.0000000
  band:
  - # 1
    frequency:   -1.0301223735
  - # 2
    frequency:   -1.0301223734
  - # 3
    frequency:   -0.9739459789
  - # 4
    frequency:   -0.9739459788
  - # 5
    frequency:   -0.0000173436
  - # 6
    frequency:    0.0000003696
  - # 7
    frequency:    0.0000028245
  - # 8
    frequency:    3.3024120605
  - # 9
    frequency:    3.3024120605
  - # 10
    frequency:    5.0536364323
  - # 11
    frequency:    6.0228961218
  - # 12
    frequency:    6.0228961219
  - # 13
    frequency:    7.0472958648
  - # 14
    frequency:    7.0472958648
  - # 15
    frequency:    7.4778741731
  - # 16
    frequency:    8.3881927879
  - # 17
    frequency:   13.7637414193
  - # 18
    frequency:   13.7637414194
  - # 19
    frequency:   13.9356270629
  - # 20
    frequency:   13.9356270629
  - # 21
    frequency:   14.7566821414
  - # 22
    frequency:   17.0238529159
  - # 23
    frequency:   17.0238529160
  - # 24
    frequency:   31.3797852932
  - # 25
    frequency:   31.4893810100
  - # 26
    frequency:   67.9610847995
  - # 27
    frequency:   67.9677640216

- q-position: [    0.0050505,    0.0000000,    0.0000000 ]
  distance:    0.0017487
  band:
  - # 1
    frequency:   -1.0309065385
  - # 2
    frequency:   -1.0285913108
  - # 3
    frequency:   -0.9742512467
  - # 4
    frequency:   -0.9718636773
  - # 5
    frequency:    0.0010804859
  - # 6
    frequency:    0.0484207282
  - # 7
    frequency:    0.0651092194
  - # 8
    frequency:    3.3022817911
  - # 9
    frequency:    3.3024081473
  - # 10
    frequency:    5.0536628418
  - # 11
    frequency:    6.0230480427
  - # 12
    frequency:    6.0232966127
  - # 13
    frequency:    7.0471112352
  - # 14
    frequency:    7.0472273426
  - # 15
    frequency:    7.4778945323
  - # 16
    frequency:    8.3875195038
  - # 17
    frequency:   13.7638253041
  - # 18
    frequency:   13.7639390063
  - # 19
    frequency:   13.9355640863
  - # 20
    frequency:   13.9355848879
  - # 21
    frequency:   14.7565017608
  - # 22
    frequency:   17.0237172310
  - # 23
    frequency:   17.0240781957
  - # 24
    frequency:   31.3793518965
  - # 25
    frequency:   31.4889014496
  - # 26
    frequency:   67.9608259928
  - # 27
    frequency:   67.9675060611

- q-position: [    0.0101010,    0.0000000,    0.0000000 ]
  distance:    0.0034974
  band:
  - # 1
    frequency:   -1.0332962933
  - # 2
    frequency:   -1.0241464571
  - # 3
    frequency:   -0.9750488131
  - # 4
    frequency:   -0.9654568872
  - # 5
    frequency:    0.0042886732
  - # 6
    frequency:    0.0972723423
  - # 7
    frequency:    0.1296321800
  - # 8
    frequency:    3.3018933412
  - # 9
    frequency:    3.3023940242
  - # 10
    frequency:    5.0537414224
  - # 11
    frequency:    6.0235039977
  - # 12
    frequency:    6.0244976946
  - # 13
    frequency:    7.0465576862
  - # 14
    frequency:    7.0470200775
  - # 15
    frequency:    7.4779555164
  - # 16
    frequency:    8.3855012813
  - # 17
    frequency:   13.7640768184
  - # 18
    frequency:   13.7645308910
  - # 19
    frequency:   13.9353757723
  - # 20
    frequency:   13.9354586271
  - # 21
    frequency:   14.7559592997
  - # 22
    frequency:   17.0233114007
  - # 23
    frequency:   17.0247529073
  - # 24
    frequency:   31.3780527990
  - # 25
    frequency:   31.4874639329
  - # 26
    frequency:   67.9600501467
  - # 27
    frequency:   67.9667327493

- q-position: [    0.0151515,    0.0000000,    0.0000000 ]
  distance:    0.0052460
  band:
  - # 1
    frequency:   -1.0373668843
  - # 2
    frequency:   -1.0172066878
  - # 3
    frequency:   -0.9760367237
  - # 4
    frequency:   -0.9542684291
  - # 5
    frequency:    0.0096271151
  - # 6
    frequency:    0.1469701772
  - # 7
    frequency:    0.1930444721
  - # 8
    frequency:    3.3012538085
  - # 9
    frequency:    3.3023625659
  - # 10
    frequency:    5.0538702239
  - # 11
    frequency:    6.0242645576
  - # 12
    frequency:    6.0264981752
  - # 13
    frequency:    7.0456362393
  - # 14
    frequency:    7.0466690023
  - # 15
    frequency:    7.4780568435
  - # 16
    frequency:    8.3821430059
  - # 17
    frequency:   13.7644955427
  - # 18
    frequency:   13.7655144355
  - # 19
    frequency:   13.9350639799
  - # 20
    frequency:   13.9352490707
  - # 21
    frequency:   14.7550508363
  - # 22
    frequency:   17.0226390734
  - # 23
    frequency:   17.0258736707
  - # 24
    frequency:   31.3758912754
  - # 25
    frequency:   31.4850719500
  - # 26
    frequency:   67.9587589821
  - # 27
    frequency:   67.9654457937

- q-position: [    0.0202020,    0.0000000,    0.0000000 ]
  distance:    0.0069947
  band:
  - # 1
    frequency:   -1.0431441519
  - # 2
    frequency:   -1.0083614806
  - # 3
    frequency:   -0.9768585087
  - # 4
    frequency:   -0.9376318676
  - # 5
    frequency:    0.0170852698
  - # 6
    frequency:    0.1978979073
  - # 7
    frequency:    0.2549271971
  - # 8
    frequency:    3.3003750951
  - # 9
    frequency:    3.3023019785
  - # 10
    frequency:    5.0540459761
  - # 11
    frequency:    6.0253306522
  - # 12
    frequency:    6.0292960008
  - # 13
    frequency:    7.0443486014
  - # 14
    frequency:    7.0461657635
  - # 15
    frequency:    7.4781980356
  - # 16
    frequency:    8.3774528036
  - # 17
    frequency:   13.7650807788
  - # 18
    frequency:   13.7668852137
  - # 19
    frequency:   13.9346318445
  - # 20
    frequency:   13.9349575274
  - # 21
    frequency:   14.7537699522
  - # 22
    frequency:   17.0217062436
  - # 23
    frequency:   17.0274348627
  - # 24
    frequency:   31.3728727728
  - # 25
    frequency:   31.4817313053
  - # 26
    frequency:   67.9569553600
  - # 27
    frequency:   67.9636480337

- q-position: [    0.0252525,    0.0000000,    0.0000000 ]
  distance:    0.0087434
  band:
  - # 1
    frequency:   -1.0505273628
  - # 2
    frequency:   -0.9981986359
  - # 3
    frequency:   -0.9772318713
  - # 4
    frequency:   -0.9148206687
  - # 5
    frequency:    0.0266528208
  - # 6
    frequency:    0.2503906691
  - # 7
    frequency:    0.3149838586
  - # 8
    frequency:    3.2992740029
  - # 9
    frequency:    3.3021959218
  - # 10
    frequency:    5.0542640625
  - # 11
    frequency:    6.0267035369
  - # 12
    frequency:    6.0328881609
  - # 13
    frequency:    7.0426971717
  - # 14
    frequency:    7.0454988577
  - # 15
    frequency:    7.4783784075
  - # 16
    frequency:    8.3714420180
  - # 17
    frequency:   13.7658315521
  - # 18
    frequency:   13.7686369630
  - # 19
    frequency:   13.9340838357
  - # 20
    frequency:   13.9345858117
  - # 21
    frequency:   14.7521079084
  - # 22
    frequency:   17.0205211253
  - # 23
    frequency:   17.0294286326
  - # 24
    frequency:   31.3690048942
  - # 25
    frequency:   31.4774500999
  - # 26
    frequency:   67.9546432731
  - # 27
    frequency:   67.9613434312

- q-position: [    0.0303030,    0.0000000,    0.0000000 ]
  distance:    0.0104921
  band:
  - # 1
    frequency:   -1.0592790602
  - # 2
    frequency:   -0.9871626612
  - # 3
    frequency:   -0.9770047771
  - # 4
    frequency:   -0.8851499975
  - # 5
    frequency:    0.0383247313
  - # 6
    frequency:    0.3047180653
  - # 7
    frequency:    0.3730335429
  - # 8
    frequency:    3.2979723399
  - # 9
    frequency:    3.3020236780
  - # 10
    frequency:    5.0545184905
  - # 11
    frequency:    6.0283847494
  - # 12
    frequency:    6.0372705606
  - # 13
    frequency:    7.0406850499
  - # 14
    frequency:    7.0446538193
  - # 15
    frequency:    7.4785970494
  - # 16
    frequency:    8.3641251772
  - # 17
    frequency:   13.7667466142
  - # 18
    frequency:   13.7707615121
  - # 19
    frequency:   13.9334258439
  - # 20
    frequency:   13.9341362265
  - # 21
    frequency:   14.7500538841
  - # 22
    frequency:   17.0190939782
  - # 23
    frequency:   17.0318449235
  - # 24
    frequency:   31.3642973761
  - # 25
    frequency:   31.4722387066
  - # 26
    frequency:   67.9518278316
  - # 27
    frequency:   67.9585370578

- q-position: [    0.0353535,    0.0000000,    0.0000000 ]
  distance:    0.0122407
  band:
  - # 1
    frequency:   -1.0690778139
  - # 2
    frequency:   -0.9761347711
  - # 3
    frequency:   -0.9755371072
  - # 4
    frequency:   -0.8479286657
  - # 5
    frequency:    0.0521091286
  - # 6
    frequency:    0.3610687209
  - # 7
    frequency:    0.4289899451
  - # 8
    frequency:    3.2964970138
  - # 9
    frequency:    3.3017603664
  - # 10
    frequency:    5.0548018640
  - # 11
    frequency:    6.0303760525
  - # 12
    frequency:    6.0424378693
  - # 13
    frequency:    7.0383160470
  - # 14
    frequency:    7.0436134582
  - # 15
    frequency:    7.4788528050
  - # 16
    frequency:    8.3555199515
  - # 17
    frequency:   13.7678244458
  - # 18
    frequency:   13.7732486787
  - # 19
    frequency:   13.9326653011
  - # 20
    frequency:   13.9336115415
  - # 21
    frequency:   14.7475952772
  - # 22
    frequency:   17.0174368905
  - # 23
    frequency:   17.0346714992
  - # 24
    frequency:   31.3587620592
  - # 25
    frequency:   31.4661097371
  - # 26
    frequency:   67.9485152470
  - # 27
    frequency:   67.9552350779

- q-position: [    0.0404040,    0.0000000,    0.0000000 ]
  distance:    0.0139894
  band:
  - # 1
    frequency:   -1.0795849065
  - # 2
    frequency:   -0.9746395241
  - # 3
    frequency:   -0.9635049531
  - # 4
    frequency:   -0.8022908677
  - # 5
    frequency:    0.0680407280
  - # 6
    frequency:    0.4195390384
  - # 7
    frequency:    0.4828359266
  - # 8
    frequency:    3.2948800871
  - # 9
    frequency:    3.3013772000
  - # 10
    frequency:    5.0551053651
  - # 11
    frequency:    6.0326793682
  - # 12
    frequency:    6.0483833519
  - # 13
    frequency:    7.0355946961
  - # 14
    frequency:    7.0423581418
  - # 15
    frequency:    7.4791442438
  - # 16
    frequency:    8.3456471036
  - # 17
    frequency:   13.7690632611
  - # 18
    frequency:   13.7760861274
  - # 19
    frequency:   13.9318113433
  - # 20
    frequency:   13.9330149665
  - # 21
    frequency:   14.7447180562
  - # 22
    frequency:   17.0155635223
  - # 23
    frequency:   17.0378939775
  - # 24
    frequency:   31.3524128532
  - # 25
    frequency:   31.4590780034
  - # 26
    frequency:   67.9447128108
  - # 27
    frequency:   67.9514447283

- q-position: [    0.0454545,    0.0000000,    0.0000000 ]
  distance:    0.0157381
  band:
  - # 1
    frequency:   -1.0904895080
  - # 2
    frequency:   -0.9725572938
  - # 3
    frequency:   -0.9511980114
  - # 4
    frequency:   -0.7469641203
  - # 5
    frequency:    0.0862068810
  - # 6
    frequency:    0.4801291384
  - # 7
    frequency:    0.5346000137
  - # 8
    frequency:    3.2931587660
  - # 9
    frequency:    3.3008417847
  - # 10
    frequency:    5.0554187506
  - # 11
    frequency:    6.0352967020
  - # 12
    frequency:    6.0550986925
  - # 13
    frequency:    7.0325262638
  - # 14
    frequency:    7.0408661187
  - # 15
    frequency:    7.4794696280
  - # 16
    frequency:    8.3345304285
  - # 17
    frequency:   13.7704610118
  - # 18
    frequency:   13.7792591778
  - # 19
    frequency:   13.9308750266
  - # 20
    frequency:   13.9323501217
  - # 21
    frequency:   14.7414071592
  - # 22
    frequency:   17.0134888164
  - # 23
    frequency:   17.0414958679
  - # 24
    frequency:   31.3452656947
  - # 25
    frequency:   31.4511604718
  - # 26
    frequency:   67.9404288710
  - # 27
    frequency:   67.9471742949

- q-position: [    0.0505051,    0.0000000,    0.0000000 ]
  distance:    0.0174868
  band:
  - # 1
    frequency:   -1.1015277568
  - # 2
    frequency:   -0.9699261660
  - # 3
    frequency:   -0.9387085331
  - # 4
    frequency:   -0.6799240827
  - # 5
    frequency:    0.1068067418
  - # 6
    frequency:    0.5427481538
  - # 7
    frequency:    0.5843376831
  - # 8
    frequency:    3.2913752980
  - # 9
    frequency:    3.3001184554
  - # 10
    frequency:    5.0557303697
  - # 11
    frequency:    6.0382300587
  - # 12
    frequency:    6.0625738190
  - # 13
    frequency:    7.0291167612
  - # 14
    frequency:    7.0391138781
  - # 15
    frequency:    7.4798268739
  - # 16
    frequency:    8.3221966860
  - # 17
    frequency:   13.7720153922
  - # 18
    frequency:   13.7827505477
  - # 19
    frequency:   13.9298696118
  - # 20
    frequency:   13.9316210035
  - # 21
    frequency:   14.7376469295
  - # 22
    frequency:   17.0112286815
  - # 23
    frequency:   17.0454586151
  - # 24
    frequency:   31.3373384992
  - # 25
    frequency:   31.4423762101
  - # 26
    frequency:   67.9356728041
  - # 27
    frequency:   67.9424330848

- q-position: [    0.0555556,    0.0000000,    0.0000000 ]
  distance:    0.0192354
  band:
  - # 1
    frequency:   -1.1124850709
  - # 2
    frequency:   -0.9667763258
  - # 3
    frequency:   -0.9260787334
  - # 4
    frequency:   -0.5977140314
  - # 5
    frequency:    0.1303127647
  - # 6
    frequency:    0.6072290043
  - # 7
    frequency:    0.6321178700
  - # 8
    frequency:    3.2895767579
  - # 9
    frequency:    3.2991686479
  - # 10
    frequency:    5.0560272063
  - # 11
    frequency:    6.0414813521
  - # 12
    frequency:    6.0707967375
  - # 13
    frequency:    7.0253729525
  - # 14
    frequency:    7.0370765399
  - # 15
    frequency:    7.4802135094
  - # 16
    frequency:    8.3086755248
  - # 17
    frequency:   13.7737238442
  - # 18
    frequency:   13.7865400091
  - # 19
    frequency:   13.9288109355
  - # 20
    frequency:   13.9308319475
  - # 21
    frequency:   14.7334215783
  - # 22
    frequency:   17.0087996556
  - # 23
    frequency:   17.0497616471
  - # 24
    frequency:   31.3286511072
  - # 25
    frequency:   31.4327463287
  - # 26
    frequency:   67.9304549844
  - # 27
    frequency:   67.9372313965

- q-position: [    0.0606061,    0.0000000,    0.0000000 ]
  distance:    0.0209841
  band:
  - # 1
    frequency:   -1.1231908073
  - # 2
    frequency:   -0.9631286353
  - # 3
    frequency:   -0.9132868410
  - # 4
    frequency:   -0.4937460795
  - # 5
    frequency:    0.1580304170
  - # 6
    frequency:    0.6733502129
  - # 7
    frequency:    0.6780139692
  - # 8
    frequency:    3.2878147066
  - # 9
    frequency:    3.2979513032
  - # 10
    frequency:    5.0562949487
  - # 11
    frequency:    6.0450523096
  - # 12
    frequency:    6.0797533861
  - # 13
    frequency:    7.0213023618
  - # 14
    frequency:    7.0347282689
  - # 15
    frequency:    7.4806266268
  - # 16
    frequency:    8.2939993974
  - # 17
    frequency:   13.7755835628
  - # 18
    frequency:   13.7906039354
  - # 19
    frequency:   13.9277178951
  - # 20
    frequency:   13.9299875890
  - # 21
    frequency:   14.7287156663
  - # 22
    frequency:   17.0062185564
  - # 23
    frequency:   17.0543824280
  - # 24
    frequency:   31.3192252237
  - # 25
    frequency:   31.4222939151
  - # 26
    frequency:   67.9247867500
  - # 27
    frequency:   67.9315804860

- q-position: [    0.0656566,    0.0000000,    0.0000000 ]
  distance:    0.0227328
  band:
  - # 1
    frequency:   -1.1335106081
  - # 2
    frequency:   -0.9589955332
  - # 3
    frequency:   -0.9002393947
  - # 4
    frequency:   -0.3529054329
  - # 5
    frequency:    0.1948688042
  - # 6
    frequency:    0.7220982606
  - # 7
    frequency:    0.7408604376
  - # 8
    frequency:    3.2861447151
  - # 9
    frequency:    3.2964233021
  - # 10
    frequency:    5.0565180875
  - # 11
    frequency:    6.0489443732
  - # 12
    frequency:    6.0894275140
  - # 13
    frequency:    7.0169132764
  - # 14
    frequency:    7.0320427053
  - # 15
    frequency:    7.4810628344
  - # 16
    frequency:    8.2782034670
  - # 17
    frequency:   13.7775915015
  - # 18
    frequency:   13.7949147044
  - # 19
    frequency:   13.9266130768
  - # 20
    frequency:   13.9290928205
  - # 21
    frequency:   14.7235145910
  - # 22
    frequency:   17.0035021281
  - # 23
    frequency:   17.0592965154
  - # 24
    frequency:   31.3090843521
  - # 25
    frequency:   31.4110439623
  - # 26
    frequency:   67.9186803657
  - # 27
    frequency:   67.9254925305

- q-position: [    0.0707071,    0.0000000,    0.0000000 ]
  distance:    0.0244815
  band:
  - # 1
    frequency:   -1.1433388684
  - # 2
    frequency:   -0.9543824638
  - # 3
    frequency:   -0.8867720470
  - # 4
    frequency:   -0.1275012954
  - # 5
    frequency:    0.2695230942
  - # 6
    frequency:    0.7644387493
  - # 7
    frequency:    0.8095010744
  - # 8
    frequency:    3.2846257542
  - # 9
    frequency:    3.2945399249
  - # 10
    frequency:    5.0566800405
  - # 11
    frequency:    6.0531585982
  - # 12
    frequency:    6.0998005926
  - # 13
    frequency:    7.0122147453
  - # 14
    frequency:    7.0289934065
  - # 15
    frequency:    7.4815182077
  - # 16
    frequency:    8.2613255054
  - # 17
    frequency:   13.7797443779
  - # 18
    frequency:   13.7994399239
  - # 19
    frequency:   13.9255235623
  - # 20
    frequency:   13.9281527484
  - # 21
    frequency:   14.7178050724
  - # 22
    frequency:   17.0006666908
  - # 23
    frequency:   17.0644776216
  - # 24
    frequency:   31.2982537222
  - # 25
    frequency:   31.3990232916
  - # 26
    frequency:   67.9121489830
  - # 27
    frequency:   67.9189805886

- q-position: [    0.0757576,    0.0000000,    0.0000000 ]
  distance:    0.0262302
  band:
  - # 1
    frequency:   -1.1525922084
  - # 2
    frequency:   -0.9492891784
  - # 3
    frequency:   -0.8726569089
  - # 4
    frequency:    0.1770183016
  - # 5
    frequency:    0.4227022035
  - # 6
    frequency:    0.8050976223
  - # 7
    frequency:    0.8790235513
  - # 8
    frequency:    3.2833194563
  - # 9
    frequency:    3.2922553366
  - # 10
    frequency:    5.0567633016
  - # 11
    frequency:    6.0576955523
  - # 12
    frequency:    6.1108517633
  - # 13
    frequency:    7.0072165725
  - # 14
    frequency:    7.0255542910
  - # 15
    frequency:    7.4819882421
  - # 16
    frequency:    8.2434057807
  - # 17
    frequency:   13.7820386794
  - # 18
    frequency:   13.8041414428
  - # 19
    frequency:   13.9244819513
  - # 20
    frequency:   13.9271726475
  - # 21
    frequency:   14.7115756235
  - # 22
    frequency:   16.9977278031
  - # 23
    frequency:   17.0698976797
  - # 24
    frequency:   31.2867602124
  - # 25
    frequency:   31.3862604694
  - # 26
    frequency:   67.9052065974
  - # 27
    frequency:   67.9120585585

- q-position: [    0.0808081,    0.0000000,    0.0000000 ]
  distance:    0.0279788
  band:
  - # 1
    frequency:   -1.1612041295
  - # 2
    frequency:   -0.9437107313
  - # 3
    frequency:   -0.8576128754
  - # 4
    frequency:    0.2293212597
  - # 5
    frequency:    0.5671942792
  - # 6
    frequency:    0.8441307384
  - # 7
    frequency:    0.9491999534
  - # 8
    frequency:    3.2822892655
  - # 9
    frequency:    3.2895230921
  - # 10
    frequency:    5.0567496103
  - # 11
    frequency:    6.0625552158
  - # 12
    frequency:    6.1225578243
  - # 13
    frequency:    7.0019293044
  - # 14
    frequency:    7.0217000772
  - # 15
    frequency:    7.4824678108
  - # 16
    frequency:    8.2244869359
  - # 17
    frequency:   13.7844706679
  - # 18
    frequency:   13.8089741226
  - # 19
    frequency:   13.9235276218
  - # 20
    frequency:   13.9261579151
  - # 21
    frequency:   14.7048169981
  - # 22
    frequency:   16.9946999428
  - # 23
    frequency:   17.0755269130
  - # 24
    frequency:   31.2746322670
  - # 25
    frequency:   31.3727857192
  - # 26
    frequency:   67.8978680033
  - # 27
    frequency:   67.9047411331

- q-position: [    0.0858586,    0.0000000,    0.0000000 ]
  distance:    0.0297275
  band:
  - # 1
    frequency:   -1.1691207613
  - # 2
    frequency:   -0.9376381696
  - # 3
    frequency:   -0.8413154755
  - # 4
    frequency:    0.2684363063
  - # 5
    frequency:    0.6907962869
  - # 6
    frequency:    0.8815877501
  - # 7
    frequency:    1.0198274487
  - # 8
    frequency:    3.2815994970
  - # 9
    frequency:    3.2862966600
  - # 10
    frequency:    5.0566201379
  - # 11
    frequency:    6.0677368848
  - # 12
    frequency:    6.1348932568
  - # 13
    frequency:    6.9963642105
  - # 14
    frequency:    7.0174067115
  - # 15
    frequency:    7.4829511295
  - # 16
    frequency:    8.2046138553
  - # 17
    frequency:   13.7870363852
  - # 18
    frequency:   13.8138843850
  - # 19
    frequency:   13.9227082154
  - # 20
    frequency:   13.9251140257
  - # 21
    frequency:   14.6975226051
  - # 22
    frequency:   16.9915962167
  - # 23
    frequency:   17.0813339089
  - # 24
    frequency:   31.2618998071
  - # 25
    frequency:   31.3586308278
  - # 26
    frequency:   67.8901487465
  - # 27
    frequency:   67.8970437531

- q-position: [    0.0909091,    0.0000000,    0.0000000 ]
  distance:    0.0314762
  band:
  - # 1
    frequency:   -1.1762975271
  - # 2
    frequency:   -0.9310589625
  - # 3
    frequency:   -0.8234036688
  - # 4
    frequency:    0.3057054940
  - # 5
    frequency:    0.8009301026
  - # 6
    frequency:    0.9175125925
  - # 7
    frequency:    1.0907280807
  - # 8
    frequency:    3.2813143310
  - # 9
    frequency:    3.2825299619
  - # 10
    frequency:    5.0563556846
  - # 11
    frequency:    6.0732390788
  - # 12
    frequency:    6.1478302899
  - # 13
    frequency:    6.9905332555
  - # 14
    frequency:    7.0126517763
  - # 15
    frequency:    7.4834317308
  - # 16
    frequency:    8.1838335207
  - # 17
    frequency:   13.7897316574
  - # 18
    frequency:   13.8188086388
  - # 19
    frequency:   13.9220812409
  - # 20
    frequency:   13.9240464846
  - # 21
    frequency:   14.6896888812
  - # 22
    frequency:   16.9884281032
  - # 23
    frequency:   17.0872856972
  - # 24
    frequency:   31.2485941375
  - # 25
    frequency:   31.3438290472
  - # 26
    frequency:   67.8820650742
  - # 27
    frequency:   67.8889825582

- q-position: [    0.0959596,    0.0000000,    0.0000000 ]
  distance:    0.0332249
  band:
  - # 1
    frequency:   -1.1826965473
  - # 2
    frequency:   -0.9239572237
  - # 3
    frequency:   -0.8034818861
  - # 4
    frequency:    0.3434084929
  - # 5
    frequency:    0.9019557575
  - # 6
    frequency:    0.9519441652
  - # 7
    frequency:    1.1617458136
  - # 8
    frequency:    3.2781779245
  - # 9
    frequency:    3.2814967726
  - # 10
    frequency:    5.0559368829
  - # 11
    frequency:    6.0790594551
  - # 12
    frequency:    6.1613390018
  - # 13
    frequency:    6.9844490647
  - # 14
    frequency:    7.0074148755
  - # 15
    frequency:    7.4839024509
  - # 16
    frequency:    8.1621948535
  - # 17
    frequency:   13.7925520989
  - # 18
    frequency:   13.8236718711
  - # 19
    frequency:   13.9217155137
  - # 20
    frequency:   13.9229607835
  - # 21
    frequency:   14.6813156159
  - # 22
    frequency:   16.9852052354
  - # 23
    frequency:   17.0933478323
  - # 24
    frequency:   31.2347478479
  - # 25
    frequency:   31.3284149922
  - # 26
    frequency:   67.8736338837
  - # 27
    frequency:   67.8805743353

- q-position: [    0.1010101,    0.0000000,    0.0000000 ]
  distance:    0.0349735
  band:
  - # 1
    frequency:   -1.1882846254
  - # 2
    frequency:   -0.9163137674
  - # 3
    frequency:   -0.7811160401
  - # 4
    frequency:    0.3822927501
  - # 5
    frequency:    0.9849171009
  - # 6
    frequency:    0.9963817949
  - # 7
    frequency:    1.2327425107
  - # 8
    frequency:    3.2731970432
  - # 9
    frequency:    3.2822076056
  - # 10
    frequency:    5.0553444043
  - # 11
    frequency:    6.0851947293
  - # 12
    frequency:    6.1753874524
  - # 13
    frequency:    6.9781248801
  - # 14
    frequency:    7.0016779891
  - # 15
    frequency:    7.4843554299
  - # 16
    frequency:    8.1397485445
  - # 17
    frequency:   13.7954931156
  - # 18
    frequency:   13.8283869914
  - # 19
    frequency:   13.9216918399
  - # 20
    frequency:   13.9218623573
  - # 21
    frequency:   14.6724062201
  - # 22
    frequency:   16.9819352290
  - # 23
    frequency:   17.0994844795
  - # 24
    frequency:   31.2203947100
  - # 25
    frequency:   31.3124245335
  - # 26
    frequency:   67.8648726690
  - # 27
    frequency:   67.8718364664

- q-position: [    0.1060606,    0.0000000,    0.0000000 ]
  distance:    0.0367222
  band:
  - # 1
    frequency:   -1.1930316881
  - # 2
    frequency:   -0.9081060314
  - # 3
    frequency:   -0.7558219854
  - # 4
    frequency:    0.4226741245
  - # 5
    frequency:    1.0164625541
  - # 6
    frequency:    1.0857689912
  - # 7
    frequency:    1.3035940644
  - # 8
    frequency:    3.2675459518
  - # 9
    frequency:    3.2835043744
  - # 10
    frequency:    5.0545591649
  - # 11
    frequency:    6.0916406057
  - # 12
    frequency:    6.1899418430
  - # 13
    frequency:    6.9715745084
  - # 14
    frequency:    6.9954257959
  - # 15
    frequency:    7.4847821268
  - # 16
    frequency:    8.1165468683
  - # 17
    frequency:   13.7985499081
  - # 18
    frequency:   13.8328559356
  - # 19
    frequency:   13.9207565425
  - # 20
    frequency:   13.9221019396
  - # 21
    frequency:   14.6629679371
  - # 22
    frequency:   16.9786235571
  - # 23
    frequency:   17.1056585072
  - # 24
    frequency:   31.2055695700
  - # 25
    frequency:   31.2958946873
  - # 26
    frequency:   67.8557994655
  - # 27
    frequency:   67.8627868740

- q-position: [    0.1111111,    0.0000000,    0.0000000 ]
  distance:    0.0384709
  band:
  - # 1
    frequency:   -1.1969095779
  - # 2
    frequency:   -0.8993078857
  - # 3
    frequency:   -0.7270437569
  - # 4
    frequency:    0.4647061003
  - # 5
    frequency:    1.0466089694
  - # 6
    frequency:    1.1711579818
  - # 7
    frequency:    1.3741873771
  - # 8
    frequency:    3.2611859990
  - # 9
    frequency:    3.2854404210
  - # 10
    frequency:    5.0535625269
  - # 11
    frequency:    6.0983917174
  - # 12
    frequency:    6.2049666974
  - # 13
    frequency:    6.9648122598
  - # 14
    frequency:    6.9886459595
  - # 15
    frequency:    7.4851733503
  - # 16
    frequency:    8.0926434836
  - # 17
    frequency:   13.8017174736
  - # 18
    frequency:   13.8369738894
  - # 19
    frequency:   13.9196485382
  - # 20
    frequency:   13.9230442490
  - # 21
    frequency:   14.6530119902
  - # 22
    frequency:   16.9752734773
  - # 23
    frequency:   17.1118315830
  - # 24
    frequency:   31.1903082368
  - # 25
    frequency:   31.2788635012
  - # 26
    frequency:   67.8464327944
  - # 27
    frequency:   67.8534439650

- q-position: [    0.1161616,    0.0000000,    0.0000000 ]
  distance:    0.0402196
  band:
  - # 1
    frequency:   -1.1998911197
  - # 2
    frequency:   -0.8898893398
  - # 3
    frequency:   -0.6941163540
  - # 4
    frequency:    0.5084665544
  - # 5
    frequency:    1.0753828090
  - # 6
    frequency:    1.2532817439
  - # 7
    frequency:    1.4444184244
  - # 8
    frequency:    3.2540818254
  - # 9
    frequency:    3.2880640042
  - # 10
    frequency:    5.0523364947
  - # 11
    frequency:    6.1054415762
  - # 12
    frequency:    6.2204250578
  - # 13
    frequency:    6.9578528793
  - # 14
    frequency:    6.9813293777
  - # 15
    frequency:    7.4855193046
  - # 16
    frequency:    8.0680932177
  - # 17
    frequency:   13.8049906068
  - # 18
    frequency:   13.8406378196
  - # 19
    frequency:   13.9185433702
  - # 20
    frequency:   13.9246154126
  - # 21
    frequency:   14.6425536666
  - # 22
    frequency:   16.9718860072
  - # 23
    frequency:   17.1179642758
  - # 24
    frequency:   31.1746473672
  - # 25
    frequency:   31.2613699374
  - # 26
    frequency:   67.8367916048
  - # 27
    frequency:   67.8438265747

- q-position: [    0.1212121,    0.0000000,    0.0000000 ]
  distance:    0.0419683
  band:
  - # 1
    frequency:   -1.2019493984
  - # 2
    frequency:   -0.8798161545
  - # 3
    frequency:   -0.6562024324
  - # 4
    frequency:    0.5539905939
  - # 5
    frequency:    1.1028092252
  - # 6
    frequency:    1.3326789692
  - # 7
    frequency:    1.5141912912
  - # 8
    frequency:    3.2462019413
  - # 9
    frequency:    3.2914175241
  - # 10