nqpoint: 300    
npath: 3      
segment_nqpoint:
- 100
- 100
- 100
labels:
- [ 'G', 'M' ]
- [ 'M', 'K' ]
- [ 'K', 'G' ]
reciprocal_lattice:
- [   0.30417447,   0.17561521,   0.00000000 ] # a*
- [   0.00000000,   0.35123042,   0.00000000 ] # b*
- [   0.00000000,   0.00000000,   0.03613014 ] # c*
natom: 7      
lattice:
- [     3.287586902830964,     0.000000000000000,     0.000000000000000 ] # a
- [    -1.643793451415482,     2.847133775000652,     0.000000000000000 ] # b
- [     0.000000000000000,     0.000000000000000,    27.677723854630599 ] # c
points:
- symbol: Cl # 1
  coordinates: [  0.666666984744047,  0.333332985985145,  0.325171247725064 ]
  mass: 35.453000
- symbol: N # 2
  coordinates: [  0.000000000000000,  0.000000000000000,  0.541854621962636 ]
  mass: 14.006700
- symbol: N # 3
  coordinates: [  0.333332985432215,  0.666666983183674,  0.628701624080182 ]
  mass: 14.006700
- symbol: O # 4
  coordinates: [  0.333332985432215,  0.666666983183674,  0.674828752274936 ]
  mass: 15.999400
- symbol: O # 5
  coordinates: [  0.666666984744047,  0.333332985985145,  0.459348961948189 ]
  mass: 15.999400
- symbol: Sc # 6
  coordinates: [  0.333332985432215,  0.666666983183674,  0.482756359635678 ]
  mass: 44.955912
- symbol: Sc # 7
  coordinates: [  0.666666984744047,  0.333332985985145,  0.577849988053031 ]
  mass: 44.955912

phonon:
- q-position: [    0.0000000,    0.0000000,    0.0000000 ]
  distance:    0.0000000
  band:
  - # 1
    frequency:   -0.3865556288
  - # 2
    frequency:   -0.3865556288
  - # 3
    frequency:   -0.0000003705
  - # 4
    frequency:   -0.0000003463
  - # 5
    frequency:    0.0000005546
  - # 6
    frequency:    0.8676234598
  - # 7
    frequency:    3.0710931980
  - # 8
    frequency:    3.0710931980
  - # 9
    frequency:    4.9857310992
  - # 10
    frequency:    4.9857310992
  - # 11
    frequency:    6.0025289139
  - # 12
    frequency:    8.3741404848
  - # 13
    frequency:    8.5785969673
  - # 14
    frequency:    8.5785969673
  - # 15
    frequency:   12.3698040525
  - # 16
    frequency:   12.3698040525
  - # 17
    frequency:   13.4914055983
  - # 18
    frequency:   15.1381448799
  - # 19
    frequency:   15.1381448799
  - # 20
    frequency:   16.5914084562
  - # 21
    frequency:   46.5253345706

- q-position: [    0.0050505,    0.0000000,    0.0000000 ]
  distance:    0.0017739
  band:
  - # 1
    frequency:   -0.4080304096
  - # 2
    frequency:   -0.3964440157
  - # 3
    frequency:   -0.0359431259
  - # 4
    frequency:    0.0375744251
  - # 5
    frequency:    0.0970787072
  - # 6
    frequency:    0.8681989714
  - # 7
    frequency:    3.0718265555
  - # 8
    frequency:    3.0740120022
  - # 9
    frequency:    4.9858144592
  - # 10
    frequency:    4.9860477928
  - # 11
    frequency:    6.0029881766
  - # 12
    frequency:    8.3709180338
  - # 13
    frequency:    8.5790212972
  - # 14
    frequency:    8.5817962589
  - # 15
    frequency:   12.3699470528
  - # 16
    frequency:   12.3735231973
  - # 17
    frequency:   13.4893077453
  - # 18
    frequency:   15.1378128739
  - # 19
    frequency:   15.1380505819
  - # 20
    frequency:   16.5941897432
  - # 21
    frequency:   46.5244049428

- q-position: [    0.0101010,    0.0000000,    0.0000000 ]
  distance:    0.0035478
  band:
  - # 1
    frequency:   -0.4754087161
  - # 2
    frequency:   -0.4268491023
  - # 3
    frequency:   -0.0288423755
  - # 4
    frequency:    0.0866409405
  - # 5
    frequency:    0.2044457194
  - # 6
    frequency:    0.8699551041
  - # 7
    frequency:    3.0740221130
  - # 8
    frequency:    3.0827280888
  - # 9
    frequency:    4.9860683004
  - # 10
    frequency:    4.9869983982
  - # 11
    frequency:    6.0043665547
  - # 12
    frequency:    8.3617901995
  - # 13
    frequency:    8.5802880647
  - # 14
    frequency:    8.5908401514
  - # 15
    frequency:   12.3703744489
  - # 16
    frequency:   12.3846370860
  - # 17
    frequency:   13.4830516052
  - # 18
    frequency:   15.1368093155
  - # 19
    frequency:   15.1377668799
  - # 20
    frequency:   16.6025197294
  - # 21
    frequency:   46.5216174035

- q-position: [    0.0151515,    0.0000000,    0.0000000 ]
  distance:    0.0053217
  band:
  - # 1
    frequency:   -0.5780959303
  - # 2
    frequency:   -0.4769688270
  - # 3
    frequency:   -0.0303258263
  - # 4
    frequency:    0.1463741416
  - # 5
    frequency:    0.3253978107
  - # 6
    frequency:    0.8730011446
  - # 7
    frequency:    3.0776663712
  - # 8
    frequency:    3.0971219664
  - # 9
    frequency:    4.9865040863
  - # 10
    frequency:    4.9885844870
  - # 11
    frequency:    6.0066657784
  - # 12
    frequency:    8.3479979200
  - # 13
    frequency:    8.5823786646
  - # 14
    frequency:    8.6044446603
  - # 15
    frequency:   12.3710814465
  - # 16
    frequency:   12.4030139480
  - # 17
    frequency:   13.4727496850
  - # 18
    frequency:   15.1351124236
  - # 19
    frequency:   15.1372913568
  - # 20
    frequency:   16.6163571095
  - # 21
    frequency:   46.5169759823

- q-position: [    0.0202020,    0.0000000,    0.0000000 ]
  distance:    0.0070956
  band:
  - # 1
    frequency:   -0.6996535872
  - # 2
    frequency:   -0.5424304752
  - # 3
    frequency:   -0.0373505536
  - # 4
    frequency:    0.2111982895
  - # 5
    frequency:    0.4475353776
  - # 6
    frequency:    0.8775995171
  - # 7
    frequency:    3.0827369811
  - # 8
    frequency:    3.1169992680
  - # 9
    frequency:    4.9871415119
  - # 10
    frequency:    4.9908086728
  - # 11
    frequency:    6.0098886081
  - # 12
    frequency:    8.3308300764
  - # 13
    frequency:    8.5852622902
  - # 14
    frequency:    8.6212502861
  - # 15
    frequency:   12.3720601188
  - # 16
    frequency:   12.4284300246
  - # 17
    frequency:   13.4585908496
  - # 18
    frequency:   15.1326885558
  - # 19
    frequency:   15.1366200075
  - # 20
    frequency:   16.6356340994
  - # 21
    frequency:   46.5104873837

- q-position: [    0.0252525,    0.0000000,    0.0000000 ]
  distance:    0.0088695
  band:
  - # 1
    frequency:   -0.8305694754
  - # 2
    frequency:   -0.6180669823
  - # 3
    frequency:   -0.0435745245
  - # 4
    frequency:    0.2775460449
  - # 5
    frequency:    0.5678123772
  - # 6
    frequency:    0.8843812415
  - # 7
    frequency:    3.0892029648
  - # 8
    frequency:    3.1420973762
  - # 9
    frequency:    4.9880093546
  - # 10
    frequency:    4.9936746024
  - # 11
    frequency:    6.0140386827
  - # 12
    frequency:    8.3112771663
  - # 13
    frequency:    8.5888962339
  - # 14
    frequency:    8.6401699347
  - # 15
    frequency:   12.3732995012
  - # 16
    frequency:   12.4605619453
  - # 17
    frequency:   13.4408442711
  - # 18
    frequency:   15.1294957471
  - # 19
    frequency:   15.1357472735
  - # 20
    frequency:   16.6602579850
  - # 21
    frequency:   46.5021609708

- q-position: [    0.0303030,    0.0000000,    0.0000000 ]
  distance:    0.0106433
  band:
  - # 1
    frequency:   -0.9661953493
  - # 2
    frequency:   -0.6999967297
  - # 3
    frequency:   -0.0457599387
  - # 4
    frequency:    0.3440205452
  - # 5
    frequency:    0.6842378723
  - # 6
    frequency:    0.8951857780
  - # 7
    frequency:    3.0970250164
  - # 8
    frequency:    3.1720937007
  - # 9
    frequency:    4.9891465996
  - # 10
    frequency:    4.9971869455
  - # 11
    frequency:    6.0191203694
  - # 12
    frequency:    8.2899934919
  - # 13
    frequency:    8.5932262997
  - # 14
    frequency:    8.6604287888
  - # 15
    frequency:   12.3747857215
  - # 16
    frequency:   12.4989726386
  - # 17
    frequency:   13.4198692827
  - # 18
    frequency:   15.1254878828
  - # 19
    frequency:   15.1346660918
  - # 20
    frequency:   16.6901132016
  - # 21
    frequency:   46.4920087412

- q-position: [    0.0353535,    0.0000000,    0.0000000 ]
  distance:    0.0124172
  band:
  - # 1
    frequency:   -1.1041177857
  - # 2
    frequency:   -0.7857153800
  - # 3
    frequency:   -0.0404712418
  - # 4
    frequency:    0.4102215342
  - # 5
    frequency:    0.7895334300
  - # 6
    frequency:    0.9174802640
  - # 7
    frequency:    3.1061558764
  - # 8
    frequency:    3.2066148342
  - # 9
    frequency:    4.9906037769
  - # 10
    frequency:    5.0013513831
  - # 11
    frequency:    6.0251386667
  - # 12
    frequency:    8.2673711673
  - # 13
    frequency:    8.5981873212
  - # 14
    frequency:    8.6814926821
  - # 15
    frequency:   12.3765021626
  - # 16
    frequency:   12.5430856579
  - # 17
    frequency:   13.3961369378
  - # 18
    frequency:   15.1206189524
  - # 19
    frequency:   15.1333679570
  - # 20
    frequency:   16.7250638272
  - # 21
    frequency:   46.4800452974

- q-position: [    0.0404040,    0.0000000,    0.0000000 ]
  distance:    0.0141911
  band:
  - # 1
    frequency:   -1.2429503100
  - # 2
    frequency:   -0.8736417583
  - # 3
    frequency:   -0.0129747604
  - # 4
    frequency:    0.4760972213
  - # 5
    frequency:    0.8574292426
  - # 6
    frequency:    0.9777149168
  - # 7
    frequency:    3.1165407707
  - # 8
    frequency:    3.2452458406
  - # 9
    frequency:    4.9924444339
  - # 10
    frequency:    5.0061745955
  - # 11
    frequency:    6.0320992153
  - # 12
    frequency:    8.2436192836
  - # 13
    frequency:    8.6037037772
  - # 14
    frequency:    8.7029914922
  - # 15
    frequency:   12.3784296558
  - # 16
    frequency:   12.5921378957
  - # 17
    frequency:   13.3702739300
  - # 18
    frequency:   15.1148469243
  - # 19
    frequency:   15.1318429973
  - # 20
    frequency:   16.7649563263
  - # 21
    frequency:   46.4662878100

- q-position: [    0.0454545,    0.0000000,    0.0000000 ]
  distance:    0.0159650
  band:
  - # 1
    frequency:   -1.3818139174
  - # 2
    frequency:   -0.9627477645
  - # 3
    frequency:    0.0519144747
  - # 4
    frequency:    0.5416962329
  - # 5
    frequency:    0.8851554780
  - # 6
    frequency:    1.0787794914
  - # 7
    frequency:    3.1281179060
  - # 8
    frequency:    3.2875390618
  - # 9
    frequency:    4.9947466454
  - # 10
    frequency:    5.0116642518
  - # 11
    frequency:    6.0400084667
  - # 12
    frequency:    8.2188217774
  - # 13
    frequency:    8.6096904942
  - # 14
    frequency:    8.7246638717
  - # 15
    frequency:   12.3805467004
  - # 16
    frequency:   12.6450908506
  - # 17
    frequency:   13.3431491983
  - # 18
    frequency:   15.1081369296
  - # 19
    frequency:   15.1300800633
  - # 20
    frequency:   16.8096223421
  - # 21
    frequency:   46.4507559741

- q-position: [    0.0505051,    0.0000000,    0.0000000 ]
  distance:    0.0177389
  band:
  - # 1
    frequency:   -1.5201005384
  - # 2
    frequency:   -1.0523331247
  - # 3
    frequency:    0.0856884164
  - # 4
    frequency:    0.6070834315
  - # 5
    frequency:    0.9016812206
  - # 6
    frequency:    1.1917646968
  - # 7
    frequency:    3.1408190110
  - # 8
    frequency:    3.3330220231
  - # 9
    frequency:    4.9976044443
  - # 10
    frequency:    5.0178290009
  - # 11
    frequency:    6.0488740497
  - # 12
    frequency:    8.1929754990
  - # 13
    frequency:    8.6160534250
  - # 14
    frequency:    8.7463217181
  - # 15
    frequency:   12.3828297068
  - # 16
    frequency:   12.7004614901
  - # 17
    frequency:   13.3160424653
  - # 18
    frequency:   15.1004636278
  - # 19
    frequency:   15.1280668299
  - # 20
    frequency:   16.8588813250
  - # 21
    frequency:   46.4334719599

- q-position: [    0.0555556,    0.0000000,    0.0000000 ]
  distance:    0.0195128
  band:
  - # 1
    frequency:   -1.6573572443
  - # 2
    frequency:   -1.1418964567
  - # 3
    frequency:    0.1190031096
  - # 4
    frequency:    0.6723136461
  - # 5
    frequency:    0.9161722418
  - # 6
    frequency:    1.3075123078
  - # 7
    frequency:    3.1545699170
  - # 8
    frequency:    3.3812042405
  - # 9
    frequency:    5.0011290206
  - # 10
    frequency:    5.0246784633
  - # 11
    frequency:    6.0587053634
  - # 12
    frequency:    8.1660147789
  - # 13
    frequency:    8.6226904919
  - # 14
    frequency:    8.7678280131
  - # 15
    frequency:   12.3852532581
  - # 16
    frequency:   12.7560025224
  - # 17
    frequency:   13.2909649858
  - # 18
    frequency:   15.0918127803
  - # 19
    frequency:   15.1257899104
  - # 20
    frequency:   16.9125427997
  - # 21
    frequency:   46.4144603564

- q-position: [    0.0606061,    0.0000000,    0.0000000 ]
  distance:    0.0212867
  band:
  - # 1
    frequency:   -1.7932256496
  - # 2
    frequency:   -1.2310612382
  - # 3
    frequency:    0.1533790689
  - # 4
    frequency:    0.7374249150
  - # 5
    frequency:    0.9307469505
  - # 6
    frequency:    1.4238666540
  - # 7
    frequency:    3.1692911700
  - # 8
    frequency:    3.4315829653
  - # 9
    frequency:    5.0054494883
  - # 10
    frequency:    5.0322232263
  - # 11
    frequency:    6.0695144082
  - # 12
    frequency:    8.1378276435
  - # 13
    frequency:    8.6294924838
  - # 14
    frequency:    8.7890828546
  - # 15
    frequency:   12.3877903871
  - # 16
    frequency:   12.8081502900
  - # 17
    frequency:   13.2712142031
  - # 18
    frequency:   15.0821821735
  - # 19
    frequency:   15.1232349828
  - # 20
    frequency:   16.9704081174
  - # 21
    frequency:   46.3937481089

- q-position: [    0.0656566,    0.0000000,    0.0000000 ]
  distance:    0.0230606
  band:
  - # 1
    frequency:   -1.9274083294
  - # 2
    frequency:   -1.3195322695
  - # 3
    frequency:    0.1891439164
  - # 4
    frequency:    0.8024380027
  - # 5
    frequency:    0.9460690325
  - # 6
    frequency:    1.5400879542
  - # 7
    frequency:    3.1848986677
  - # 8
    frequency:    3.4836481121
  - # 9
    frequency:    5.0107129530
  - # 10
    frequency:    5.0404748369
  - # 11
    frequency:    6.0813168517
  - # 12
    frequency:    8.1082670525
  - # 13
    frequency:    8.6363439932
  - # 14
    frequency:    8.8100143164
  - # 15
    frequency:   12.3904128649
  - # 16
    frequency:   12.8513895000
  - # 17
    frequency:   13.2620128601
  - # 18
    frequency:   15.0715821012
  - # 19
    frequency:   15.1203869271
  - # 20
    frequency:   17.0322715994
  - # 21
    frequency:   46.3713644508

- q-position: [    0.0707071,    0.0000000,    0.0000000 ]
  distance:    0.0248345
  band:
  - # 1
    frequency:   -2.0596492912
  - # 2
    frequency:   -1.4070693002
  - # 3
    frequency:    0.2263000387
  - # 4
    frequency:    0.8673576860
  - # 5
    frequency:    0.9623911200
  - # 6
    frequency:    1.6558132574
  - # 7
    frequency:    3.2013043197
  - # 8
    frequency:    3.5368868156
  - # 9
    frequency:    5.0170835230
  - # 10
    frequency:    5.0494457955
  - # 11
    frequency:    6.0941333127
  - # 12
    frequency:    8.0771592371
  - # 13
    frequency:    8.6431243828
  - # 14
    frequency:    8.8305721046
  - # 15
    frequency:   12.3930914961
  - # 16
    frequency:   12.8787534209
  - # 17
    frequency:   13.2700135973
  - # 18
    frequency:   15.0600356423
  - # 19
    frequency:   15.1172299724
  - # 20
    frequency:   17.0979210497
  - # 21
    frequency:   46.3473408286

- q-position: [    0.0757576,    0.0000000,    0.0000000 ]
  distance:    0.0266084
  band:
  - # 1
    frequency:   -2.1897221547
  - # 2
    frequency:   -1.4934705716
  - # 3
    frequency:    0.2647183490
  - # 4
    frequency:    0.9321743184
  - # 5
    frequency:    0.9798130568
  - # 6
    frequency:    1.7708015846
  - # 7
    frequency:    3.2184167286
  - # 8
    frequency:    3.5907882335
  - # 9
    frequency:    5.0247398085
  - # 10
    frequency:    5.0591495426
  - # 11
    frequency:    6.1079908327
  - # 12
    frequency:    8.0443104023
  - # 13
    frequency:    8.6497087706
  - # 14
    frequency:    8.8507228194
  - # 15
    frequency:   12.3957964180
  - # 16
    frequency:   12.8854987642
  - # 17
    frequency:   13.2996294117
  - # 18
    frequency:   15.0475789731
  - # 19
    frequency:   15.1137478544
  - # 20
    frequency:   17.1671376750
  - # 21
    frequency:   46.3217108218

- q-position: [    0.0808081,    0.0000000,    0.0000000 ]
  distance:    0.0283823
  band:
  - # 1
    frequency:   -2.3174227578
  - # 2
    frequency:   -1.5785622597
  - # 3
    frequency:    0.3042019432
  - # 4
    frequency:    0.9968652183
  - # 5
    frequency:    0.9983656513
  - # 6
    frequency:    1.8848524720
  - # 7
    frequency:    3.2361418933
  - # 8
    frequency:    3.6448493470
  - # 9
    frequency:    5.0338703498
  - # 10
    frequency:    5.0696004388
  - # 11
    frequency:    6.1229244934
  - # 12
    frequency:    8.0095125725
  - # 13
    frequency:    8.6559690224
  - # 14
    frequency:    8.8704461430
  - # 15
    frequency:   12.3984974006
  - # 16
    frequency:   12.8729760663
  - # 17
    frequency:   13.3491687124
  - # 18
    frequency:   15.0342619538
  - # 19
    frequency:   15.1099239809
  - # 20
    frequency:   17.2396955096
  - # 21
    frequency:   46.2945100567

- q-position: [    0.0858586,    0.0000000,    0.0000000 ]
  distance:    0.0301561
  band:
  - # 1
    frequency:   -2.4425644066
  - # 2
    frequency:   -1.6621915331
  - # 3
    frequency:    0.3445112433
  - # 4
    frequency:    1.0180438825
  - # 5
    frequency:    1.0613957764
  - # 6
    frequency:    1.9977740001
  - # 7
    frequency:    3.2543839394
  - # 8
    frequency:    3.6985825840
  - # 9
    frequency:    5.0446663560
  - # 10
    frequency:    5.0808137304
  - # 11
    frequency:    6.1389791241
  - # 12
    frequency:    7.9725490770
  - # 13
    frequency:    8.6617747416
  - # 14
    frequency:    8.8897315748
  - # 15
    frequency:   12.4011641439
  - # 16
    frequency:   12.8464863587
  - # 17
    frequency:   13.4129837014
  - # 18
    frequency:   15.0201492343
  - # 19
    frequency:   15.1057416037
  - # 20
    frequency:   17.3153604807
  - # 21
    frequency:   46.2657761152

- q-position: [    0.0909091,    0.0000000,    0.0000000 ]
  distance:    0.0319300
  band:
  - # 1
    frequency:   -2.5649747583
  - # 2
    frequency:   -1.7442218880
  - # 3
    frequency:    0.3853744091
  - # 4
    frequency:    1.0388222544
  - # 5
    frequency:    1.1257202884
  - # 6
    frequency:    2.1093676522
  - # 7
    frequency:    3.2730458820
  - # 8
    frequency:    3.7515260550
  - # 9
    frequency:    5.0573111603
  - # 10
    frequency:    5.0928054976
  - # 11
    frequency:    6.1562110315
  - # 12
    frequency:    7.9332000134
  - # 13
    frequency:    8.6669942487
  - # 14
    frequency:    8.9085755178
  - # 15
    frequency:   12.4037665703
  - # 16
    frequency:   12.8110344116
  - # 17
    frequency:   13.4857212757
  - # 18
    frequency:   15.0053221585
  - # 19
    frequency:   15.1011839975
  - # 20
    frequency:   17.3938892731
  - # 21
    frequency:   46.2355484383

- q-position: [    0.0959596,    0.0000000,    0.0000000 ]
  distance:    0.0337039
  band:
  - # 1
    frequency:   -2.6844937419
  - # 2
    frequency:   -1.8245299535
  - # 3
    frequency:    0.4264908002
  - # 4
    frequency:    1.0606628113
  - # 5
    frequency:    1.1897825436
  - # 6
    frequency:    2.2194195413
  - # 7
    frequency:    3.2920304309
  - # 8
    frequency:    3.8032569792
  - # 9
    frequency:    5.0719659835
  - # 10
    frequency:    5.1055925776
  - # 11
    frequency:    6.1746896580
  - # 12
    frequency:    7.8912479405
  - # 13
    frequency:    8.6714955413
  - # 14
    frequency:    8.9269786294
  - # 15
    frequency:   12.4062751107
  - # 16
    frequency:   12.7699756654
  - # 17
    frequency:   13.5636787537
  - # 18
    frequency:   14.9898818214
  - # 19
    frequency:   15.0962346424
  - # 20
    frequency:   17.4750281632
  - # 21
    frequency:   46.2038682247

- q-position: [    0.1010101,    0.0000000,    0.0000000 ]
  distance:    0.0354778
  band:
  - # 1
    frequency:   -2.8009721573
  - # 2
    frequency:   -1.9030032680
  - # 3
    frequency:    0.4675303676
  - # 4
    frequency:    1.0835197647
  - # 5
    frequency:    1.2535161974
  - # 6
    frequency:    2.3276941394
  - # 7
    frequency:    3.3112408492
  - # 8
    frequency:    3.8534084335
  - # 9
    frequency:    5.0887519986
  - # 10
    frequency:    5.1191924581
  - # 11
    frequency:    6.1944990478
  - # 12
    frequency:    7.8464840298
  - # 13
    frequency:    8.6751472284
  - # 14
    frequency:    8.9449434112
  - # 15
    frequency:   12.4086609819
  - # 16
    frequency:   12.7253729960
  - # 17
    frequency:   13.6444475925
  - # 18
    frequency:   14.9739537647
  - # 19
    frequency:   15.0908774090
  - # 20
    frequency:   17.5585119850
  - # 21
    frequency:   46.1707783250

- q-position: [    0.1060606,    0.0000000,    0.0000000 ]
  distance:    0.0372517
  band:
  - # 1
    frequency:   -2.9142707241
  - # 2
    frequency:   -1.9795387112
  - # 3
    frequency:    0.5081300335
  - # 4
    frequency:    1.1073424299
  - # 5
    frequency:    1.3168449457
  - # 6
    frequency:    2.4339289438
  - # 7
    frequency:    3.3305818775
  - # 8
    frequency:    3.9016888480
  - # 9
    frequency:    5.1077293286
  - # 10
    frequency:    5.1336231341
  - # 11
    frequency:    6.2157389530
  - # 12
    frequency:    7.7987149154
  - # 13
    frequency:    8.6778194330
  - # 14
    frequency:    8.9624720482
  - # 15
    frequency:   12.4108964548
  - # 16
    frequency:   12.6785177415
  - # 17
    frequency:   13.7263897908
  - # 18
    frequency:   14.9576950218
  - # 19
    frequency:   15.0850967455
  - # 20
    frequency:   17.6440633721
  - # 21
    frequency:   46.1363231321

- q-position: [    0.1111111,    0.0000000,    0.0000000 ]
  distance:    0.0390256
  band:
  - # 1
    frequency:   -3.0242594354
  - # 2
    frequency:   -2.0540413844
  - # 3
    frequency:    0.5478872824
  - # 4
    frequency:    1.1320773054
  - # 5
    frequency:    1.3796825111
  - # 6
    frequency:    2.5378294782
  - # 7
    frequency:    3.3499607410
  - # 8
    frequency:    3.9479027687
  - # 9
    frequency:    5.1288743935
  - # 10
    frequency:    5.1489029238
  - # 11
    frequency:    6.2385253483
  - # 12
    frequency:    7.7477705443
  - # 13
    frequency:    8.6793846588
  - # 14
    frequency:    8.9795645241
  - # 15
    frequency:   12.4129551124
  - # 16
    frequency:   12.6302661847
  - # 17
    frequency:   13.8082946126
  - # 18
    frequency:   14.9413045592
  - # 19
    frequency:   15.0788778631
  - # 20
    frequency:   17.7313923948
  - # 21
    frequency:   46.1005484676

- q-position: [    0.1161616,    0.0000000,    0.0000000 ]
  distance:    0.0407995
  band:
  - # 1
    frequency:   -3.1308171205
  - # 2
    frequency:   -2.1264238047
  - # 3
    frequency:    0.5863506888
  - # 4
    frequency:    1.1576697591
  - # 5
    frequency:    1.4419324383
  - # 6
    frequency:    2.6390645465
  - # 7
    frequency:    3.3692882517
  - # 8
    frequency:    3.9919704914
  - # 9
    frequency:    5.1520577552
  - # 10
    frequency:    5.1650502380
  - # 11
    frequency:    6.2629900378
  - # 12
    frequency:    7.6935134371
  - # 13
    frequency:    8.6797186162
  - # 14
    frequency:    8.9962170395
  - # 15
    frequency:   12.4148120981
  - # 16
    frequency:   12.5812265691
  - # 17
    frequency:   13.8891789226
  - # 18
    frequency:   14.9250386672
  - # 19
    frequency:   15.0722069200
  - # 20
    frequency:   17.8201966772
  - # 21
    frequency:   46.0635014649

- q-position: [    0.1212121,    0.0000000,    0.0000000 ]
  distance:    0.0425734
  band:
  - # 1
    frequency:   -3.2338311525
  - # 2
    frequency:   -2.1966053202
  - # 3
    frequency:    0.6230066877
  - # 4
    frequency:    1.1840656084
  - # 5
    frequency:    1.5034876925
  - # 6
    frequency:    2.7372620892
  - # 7
    frequency:    3.3884800252
  - # 8
    frequency:    4.0339435008
  - # 9
    frequency:    5.1770249588
  - # 10
    frequency:    5.1820833015
  - # 11
    frequency:    6.2892789272
  - # 12
    frequency:    7.6358499296
  - # 13
    frequency:    8.6787010061
  - # 14
    frequency:    9.0124207552
  - # 15
    frequency:   12.4164443520
  - # 16
    frequency:   12.5318610634
  - # 17
    frequency:   13.9681644820
  - # 18
    frequency:   14.9092335062
  - # 19
    frequency:   15.0650712005
  - # 20
    frequency:   17.9101620375
  - # 21
    frequency:   46.0252304502

- q-position: [    0.1262626,    0.0000000,    0.0000000 ]
  distance:    0.0443473
  band:
  - # 1
    frequency:   -3.3331972556
  - # 2
    frequency:   -2.2645116826
  - # 3
    frequency:    0.6572614218
  - # 4
    frequency:    1.2112127616
  - # 5
    frequency:    1.5642300460
  - # 6
    frequency:    2.8320064778
  - # 7
    frequency:    3.4074578254
  - # 8
    frequency:    4.0740124533
  - # 9
    frequency:    5.2000198248
  - # 10
    frequency:    5.2033825809
  - # 11
    frequency:    6.3175483918
  - # 12
    frequency:    7.5747442142
  - # 13
    frequency:    8.6762162589
  - # 14
    frequency:    9.0281608713
  - # 15
    frequency:   12.4178308379
  - # 16
    frequency:   12.4825426000
  - # 17
    frequency:   14.0443894257
  - # 18
    frequency:   14.8943376712
  - # 19
    frequency:   15.0574592892
  - # 20
    frequency:   18.0009636629
  - # 21
    frequency:   45.9857848210

- q-position: [    0.1313131,    0.0000000,    0.0000000 ]
  distance:    0.0461212
  band:
  - # 1
    frequency:   -3.4288193816
  - # 2
    frequency:   -2.3300747335
  - # 3
    frequency:    0.6884158418
  - # 4
    frequency:    1.2390629873
  - # 5
    frequency:    1.6240292376
  - # 6
    frequency:    2.9228386965
  - # 7
    frequency:    3.4261510526
  - # 8
    frequency:    4.1125047555
  - # 9
    frequency:    5.2188766272
  - # 10
    frequency:    5.2305906672
  - # 11
    frequency:    6.3479589828
  - # 12
    frequency:    7.5102363504
  - # 13
    frequency:    8.6721542289
  - # 14
    frequency:    9.0434160383
  - # 15
    frequency:   12.4189527583
  - # 16
    frequency:   12.4335877074
  - # 17
    frequency:   14.1169300381
  - # 18
    frequency:   14.8809575887
  - # 19
    frequency:   15.0493612363
  - # 20
    frequency:   18.0922677870
  - # 21
    frequency:   45.9452149228

- q-position: [    0.1363636,    0.0000000,    0.0000000 ]
  distance:    0.0478951
  band:
  - # 1
    frequency:   -3.5206096340
  - # 2
    frequency:   -2.3932321727
  - # 3
    frequency:    0.7156311799
  - # 4
    frequency:    1.2675737453
  - # 5
    frequency:    1.6827418849
  - # 6
    frequency:    3.0092615765
  - # 7
    frequency:    3.4444983833
  - # 8
    frequency:    4.1498694074
  - # 9
    frequency:    5.2386692167
  - # 10
    frequency:    5.2579612280
  - # 11
    frequency:    6.3806654246
  - # 12
    frequency:    7.4424659571
  - # 13
    frequency:    8.6664108438
  - # 14
    frequency:    9.0581580842
  - # 15
    frequency:   12.3852762260
  - # 16
    frequency:   12.4197937594
  - # 17
    frequency:   14.1847221352
  - # 18
    frequency:   14.8699156300
  - # 19
    frequency:   15.0407687153
  - # 20
    frequency:   18.1837338126
  - # 21
    frequency:   45.9035719255

- q-position: [    0.1414141,    0.0000000,    0.0000000 ]
  distance:    0.0496689
  band:
  - # 1
    frequency:   -3.6084882234
  - # 2
    frequency:   -2.4539273859
  - # 3
    frequency:    0.7378800638
  - # 4
    frequency:    1.2967098600
  - # 5
    frequency:    1.7402101326
  - # 6
    frequency:    3.0907528919
  - # 7
    frequency:    3.4624495697
  - # 8
    frequency:    4.1866474005
  - # 9
    frequency:    5.2594113329
  - # 10
    frequency:    5.2846609490
  - # 11
    frequency:    6.4158012842
  - # 12
    frequency:    7.3717041774
  - # 13
    frequency:    8.6588887112
  - # 14
    frequency:    9.0723520287
  - # 15
    frequency:   12.3378635962
  - # 16
    frequency:   12.4203401238
  - # 17
    frequency:   14.2464878144
  - # 18
    frequency:   14.8623095892
  - # 19
    frequency:   15.0316751689
  - # 20
    frequency:   18.2750167938
  - # 21
    frequency:   45.8609076990

- q-position: [    0.1464646,    0.0000000,    0.0000000 ]
  distance:    0.0514428
  band:
  - # 1
    frequency:   -3.6923834431
  - # 2
    frequency:   -2.5121093147
  - # 3
    frequency:    0.7538749922
  - # 4
    frequency:    1.3264446616
  - # 5
    frequency:    1.7962600219
  - # 6
    frequency:    3.1667892488
  - # 7
    frequency:    3.4799673915
  - # 8
    frequency:    4.2234265443
  - # 9
    frequency:    5.2811144619
  - # 10
    frequency:    5.3097153863
  - # 11
    frequency:    6.4534553280
  - # 12
    frequency:    7.2983981332
  - # 13
    frequency:    8.6494976827
  - # 14
    frequency:    9.0859563507
  - # 15
    frequency:   12.2915887760
  - # 16
    frequency:   12.4205809517
  - # 17
    frequency:   14.3007049898
  - # 18
    frequency:   14.8595331662
  - # 19
    frequency:   15.0220759437
  - # 20
    frequency:   18.3657701797
  - # 21
    frequency:   45.8172746898

- q-position: [    0.1515152,    0.0000000,    0.0000000 ]
  distance:    0.0532167
  band:
  - # 1
    frequency:   -3.7722316561
  - # 2
    frequency:   -2.5677323585
  - # 3
    frequency:    0.7619587118
  - # 4
    frequency:    1.3567601345
  - # 5
    frequency:    1.8506995771
  - # 6
    frequency:    3.2368826065
  - # 7
    frequency:    3.4970297458
  - # 8
    frequency:    4.2607805456
  - # 9
    frequency:    5.3037873379
  - # 10
    frequency:    5.3320122199
  - # 11
    frequency:    6.4936328952
  - # 12
    frequency:    7.2232356997
  - # 13
    frequency:    8.6381553812
  - # 14
    frequency:    9.0989234687
  - # 15
    frequency:   12.2466794744
  - # 16
    frequency:   12.4205083290
  - # 17
    frequency:   14.3457077024
  - # 18
    frequency:   14.8631678934
  - # 19
    frequency:   15.0119684107
  - # 20
    frequency:   18.4556487119
  - # 21