nqpoint: 300    
npath: 3      
segment_nqpoint:
- 100
- 100
- 100
labels:
- [ 'G', 'M' ]
- [ 'M', 'K' ]
- [ 'K', 'G' ]
reciprocal_lattice:
- [   0.30417447,   0.17561521,   0.00000000 ] # a*
- [   0.00000000,   0.35123042,   0.00000000 ] # b*
- [   0.00000000,   0.00000000,   0.03613014 ] # c*
natom: 7      
lattice:
- [     3.287586902830964,     0.000000000000000,     0.000000000000000 ] # a
- [    -1.643793451415482,     2.847133775000652,     0.000000000000000 ] # b
- [     0.000000000000000,     0.000000000000000,    27.677723854630599 ] # c
points:
- symbol: Cl # 1
  coordinates: [  0.666666984744047,  0.333332985985145,  0.325171247725064 ]
  mass: 35.453000
- symbol: N # 2
  coordinates: [  0.000000000000000,  0.000000000000000,  0.541854621962636 ]
  mass: 14.006700
- symbol: N # 3
  coordinates: [  0.333332985432215,  0.666666983183674,  0.628701624080182 ]
  mass: 14.006700
- symbol: O # 4
  coordinates: [  0.333332985432215,  0.666666983183674,  0.674828752274936 ]
  mass: 15.999400
- symbol: O # 5
  coordinates: [  0.666666984744047,  0.333332985985145,  0.459348961948189 ]
  mass: 15.999400
- symbol: Sc # 6
  coordinates: [  0.333332985432215,  0.666666983183674,  0.482756359635678 ]
  mass: 44.955912
- symbol: Sc # 7
  coordinates: [  0.666666984744047,  0.333332985985145,  0.577849988053031 ]
  mass: 44.955912

phonon:
- q-position: [    0.0000000,    0.0000000,    0.0000000 ]
  distance:    0.0000000
  band:
  - # 1
    frequency:   -0.5048587194
  - # 2
    frequency:   -0.5048587194
  - # 3
    frequency:   -0.0000014294
  - # 4
    frequency:   -0.0000003902
  - # 5
    frequency:    0.0000011753
  - # 6
    frequency:    0.8611803437
  - # 7
    frequency:    2.9063696351
  - # 8
    frequency:    2.9063696351
  - # 9
    frequency:    4.9538746533
  - # 10
    frequency:    4.9538746533
  - # 11
    frequency:    5.9774493335
  - # 12
    frequency:    8.6151978523
  - # 13
    frequency:    8.9860976436
  - # 14
    frequency:    8.9860976436
  - # 15
    frequency:   12.5443639862
  - # 16
    frequency:   12.5443639862
  - # 17
    frequency:   13.4429208722
  - # 18
    frequency:   15.2906818044
  - # 19
    frequency:   15.2906818044
  - # 20
    frequency:   16.5356570964
  - # 21
    frequency:   46.5063142239

- q-position: [    0.0050505,    0.0000000,    0.0000000 ]
  distance:    0.0017739
  band:
  - # 1
    frequency:   -0.5168033446
  - # 2
    frequency:   -0.5121005149
  - # 3
    frequency:   -0.0031309204
  - # 4
    frequency:    0.0506524078
  - # 5
    frequency:    0.1044677630
  - # 6
    frequency:    0.8618268449
  - # 7
    frequency:    2.9070122392
  - # 8
    frequency:    2.9093398547
  - # 9
    frequency:    4.9540708850
  - # 10
    frequency:    4.9543997092
  - # 11
    frequency:    5.9779199802
  - # 12
    frequency:    8.6126052065
  - # 13
    frequency:    8.9859628340
  - # 14
    frequency:    8.9868793856
  - # 15
    frequency:   12.5442695254
  - # 16
    frequency:   12.5472809059
  - # 17
    frequency:   13.4410263356
  - # 18
    frequency:   15.2892299402
  - # 19
    frequency:   15.2903749554
  - # 20
    frequency:   16.5392380779
  - # 21
    frequency:   46.5054277164

- q-position: [    0.0101010,    0.0000000,    0.0000000 ]
  distance:    0.0035478
  band:
  - # 1
    frequency:   -0.5543973249
  - # 2
    frequency:   -0.5332744870
  - # 3
    frequency:   -0.0108236865
  - # 4
    frequency:    0.1016775764
  - # 5
    frequency:    0.2177281778
  - # 6
    frequency:    0.8638041356
  - # 7
    frequency:    2.9089376094
  - # 8
    frequency:    2.9182153808
  - # 9
    frequency:    4.9546626166
  - # 10
    frequency:    4.9559732195
  - # 11
    frequency:    5.9793331761
  - # 12
    frequency:    8.6049130484
  - # 13
    frequency:    8.9855561114
  - # 14
    frequency:    8.9891395614
  - # 15
    frequency:   12.5439863165
  - # 16
    frequency:   12.5559956046
  - # 17
    frequency:   13.4353751936
  - # 18
    frequency:   15.2849270388
  - # 19
    frequency:   15.2894547842
  - # 20
    frequency:   16.5499124129
  - # 21
    frequency:   46.5027692515

- q-position: [    0.0151515,    0.0000000,    0.0000000 ]
  distance:    0.0053217
  band:
  - # 1
    frequency:   -0.6169445970
  - # 2
    frequency:   -0.5668747223
  - # 3
    frequency:   -0.0198384570
  - # 4
    frequency:    0.1532390877
  - # 5
    frequency:    0.3383421345
  - # 6
    frequency:    0.8672437522
  - # 7
    frequency:    2.9121384404
  - # 8
    frequency:    2.9328922637
  - # 9
    frequency:    4.9556590172
  - # 10
    frequency:    4.9585902414
  - # 11
    frequency:    5.9816926876
  - # 12
    frequency:    8.5923565859
  - # 13
    frequency:    8.9848706098
  - # 14
    frequency:    8.9926451527
  - # 15
    frequency:   12.5435148792
  - # 16
    frequency:   12.5703982823
  - # 17
    frequency:   13.4260662135
  - # 18
    frequency:   15.2779241759
  - # 19
    frequency:   15.2879224183
  - # 20
    frequency:   16.5674817761
  - # 21
    frequency:   46.4983420001

- q-position: [    0.0202020,    0.0000000,    0.0000000 ]
  distance:    0.0070956
  band:
  - # 1
    frequency:   -0.6984946549
  - # 2
    frequency:   -0.6108352939
  - # 3
    frequency:   -0.0274883923
  - # 4
    frequency:    0.2052947529
  - # 5
    frequency:    0.4614047077
  - # 6
    frequency:    0.8724474811
  - # 7
    frequency:    2.9166026259
  - # 8
    frequency:    2.9532018916
  - # 9
    frequency:    4.9570755657
  - # 10
    frequency:    4.9622426353
  - # 11
    frequency:    5.9850047938
  - # 12
    frequency:    8.5752655292
  - # 13
    frequency:    8.9838949352
  - # 14
    frequency:    8.9970701042
  - # 15
    frequency:   12.5428560774
  - # 16
    frequency:   12.5903000475
  - # 17
    frequency:   13.4132690748
  - # 18
    frequency:   15.2684517036
  - # 19
    frequency:   15.2857797363
  - # 20
    frequency:   16.5916387221
  - # 21
    frequency:   46.4921512429

- q-position: [    0.0252525,    0.0000000,    0.0000000 ]
  distance:    0.0088695
  band:
  - # 1
    frequency:   -0.7925709196
  - # 2
    frequency:   -0.6629884891
  - # 3
    frequency:   -0.0315619158
  - # 4
    frequency:    0.2577214973
  - # 5
    frequency:    0.5836301980
  - # 6
    frequency:    0.8801489037
  - # 7
    frequency:    2.9223133579
  - # 8
    frequency:    2.9789173147
  - # 9
    frequency:    4.9589343378
  - # 10
    frequency:    4.9669192098
  - # 11
    frequency:    5.9892782968
  - # 12
    frequency:    8.5540011607
  - # 13
    frequency:    8.9826132404
  - # 14
    frequency:    9.0020582504
  - # 15
    frequency:   12.5420111166
  - # 16
    frequency:   12.6154221527
  - # 17
    frequency:   13.3972339957
  - # 18
    frequency:   15.2567928505
  - # 19
    frequency:   15.2830293687
  - # 20
    frequency:   16.6219954634
  - # 21
    frequency:   46.4842043642

- q-position: [    0.0303030,    0.0000000,    0.0000000 ]
  distance:    0.0106433
  band:
  - # 1
    frequency:   -0.8945366686
  - # 2
    frequency:   -0.7213841374
  - # 3
    frequency:   -0.0289085325
  - # 4
    frequency:    0.3104056802
  - # 5
    frequency:    0.7018282125
  - # 6
    frequency:    0.8926429047
  - # 7
    frequency:    2.9292492588
  - # 8
    frequency:    3.0097609877
  - # 9
    frequency:    4.9612643923
  - # 10
    frequency:    4.9726059194
  - # 11
    frequency:    5.9945245518
  - # 12
    frequency:    8.5289059090
  - # 13
    frequency:    8.9810053277
  - # 14
    frequency:    9.0072737182
  - # 15
    frequency:   12.5409815399
  - # 16
    frequency:   12.6453762743
  - # 17
    frequency:   13.3783100408
  - # 18
    frequency:   15.2432558147
  - # 19
    frequency:   15.2796746966
  - # 20
    frequency:   16.6581149021
  - # 21
    frequency:   46.4745108420

- q-position: [    0.0353535,    0.0000000,    0.0000000 ]
  distance:    0.0124172
  band:
  - # 1
    frequency:   -1.0014255065
  - # 2
    frequency:   -0.7844165919
  - # 3
    frequency:    0.0073620171
  - # 4
    frequency:    0.3632693255
  - # 5
    frequency:    0.8054491679
  - # 6
    frequency:    0.9202345606
  - # 7
    frequency:    2.9373845394
  - # 8
    frequency:    3.0454131182
  - # 9
    frequency:    4.9641022374
  - # 10
    frequency:    4.9792861094
  - # 11
    frequency:    6.0007575297
  - # 12
    frequency:    8.5002730640
  - # 13
    frequency:    8.9790467797
  - # 14
    frequency:    9.0124311593
  - # 15
    frequency:   12.5397692234
  - # 16
    frequency:   12.6796289396
  - # 17
    frequency:   13.3569791667
  - # 18
    frequency:   15.2281491609
  - # 19
    frequency:   15.2757198522
  - # 20
    frequency:   16.6995389223
  - # 21
    frequency:   46.4630822370

- q-position: [    0.0404040,    0.0000000,    0.0000000 ]
  distance:    0.0141911
  band:
  - # 1
    frequency:   -1.1113481410
  - # 2
    frequency:   -0.8508230985
  - # 3
    frequency:    0.0451654531
  - # 4
    frequency:    0.4162647317
  - # 5
    frequency:    0.8640915071
  - # 6
    frequency:    0.9932757125
  - # 7
    frequency:    2.9466891773
  - # 8
    frequency:    3.0855198887
  - # 9
    frequency:    4.9674923512
  - # 10
    frequency:    4.9869408026
  - # 11
    frequency:    6.0079939275
  - # 12
    frequency:    8.4683342361
  - # 13
    frequency:    8.9767091168
  - # 14
    frequency:    9.0173082053
  - # 15
    frequency:   12.5383763712
  - # 16
    frequency:   12.7174368326
  - # 17
    frequency:   13.3339194391
  - # 18
    frequency:   15.2117633137
  - # 19
    frequency:   15.2711697170
  - # 20
    frequency:   16.7458109445
  - # 21
    frequency:   46.4499321779

- q-position: [    0.0454545,    0.0000000,    0.0000000 ]
  distance:    0.0159650
  band:
  - # 1
    frequency:   -1.2230624430
  - # 2
    frequency:   -0.9196287387
  - # 3
    frequency:    0.0742699017
  - # 4
    frequency:    0.4693624429
  - # 5
    frequency:    0.8883021103
  - # 6
    frequency:    1.1012049380
  - # 7
    frequency:    2.9571291096
  - # 8
    frequency:    3.1297009977
  - # 9
    frequency:    4.9714877200
  - # 10
    frequency:    4.9955490193
  - # 11
    frequency:    6.0162533378
  - # 12
    frequency:    8.4332585233
  - # 13
    frequency:    8.9739599806
  - # 14
    frequency:    9.0217461929
  - # 15
    frequency:   12.5368055106
  - # 16
    frequency:   12.7577278811
  - # 17
    frequency:   13.3101226795
  - # 18
    frequency:   15.1943589031
  - # 19
    frequency:   15.2660299219
  - # 20
    frequency:   16.7964917741
  - # 21
    frequency:   46.4350763432

- q-position: [    0.0505051,    0.0000000,    0.0000000 ]
  distance:    0.0177389
  band:
  - # 1
    frequency:   -1.3357161303
  - # 2
    frequency:   -0.9900820728
  - # 3
    frequency:    0.1043736667
  - # 4
    frequency:    0.5225413879
  - # 5
    frequency:    0.9049644912
  - # 6
    frequency:    1.2171076203
  - # 7
    frequency:    2.9686664362
  - # 8
    frequency:    3.1775561782
  - # 9
    frequency:    4.9761503407
  - # 10
    frequency:    5.0050881245
  - # 11
    frequency:    6.0255584900
  - # 12
    frequency:    8.3951578940
  - # 13
    frequency:    8.9707633401
  - # 14
    frequency:    9.0256446732
  - # 15
    frequency:   12.5350594874
  - # 16
    frequency:   12.7988842991
  - # 17
    frequency:   13.2871104968
  - # 18
    frequency:   15.1761612859
  - # 19
    frequency:   15.2603068444
  - # 20
    frequency:   16.8511692245
  - # 21
    frequency:   46.4185324416

- q-position: [    0.0555556,    0.0000000,    0.0000000 ]
  distance:    0.0195128
  band:
  - # 1
    frequency:   -1.4486976770
  - # 2
    frequency:   -1.0615990959
  - # 3
    frequency:    0.1363394649
  - # 4
    frequency:    0.5757823886
  - # 5
    frequency:    0.9205438403
  - # 6
    frequency:    1.3344558724
  - # 7
    frequency:    2.9812596308
  - # 8
    frequency:    3.2286705689
  - # 9
    frequency:    4.9815516129
  - # 10
    frequency:    5.0155341927
  - # 11
    frequency:    6.0359355681
  - # 12
    frequency:    8.3540951623
  - # 13
    frequency:    8.9670797214
  - # 14
    frequency:    9.0289533671
  - # 15
    frequency:   12.5331414618
  - # 16
    frequency:   12.8383739089
  - # 17
    frequency:   13.2673024721
  - # 18
    frequency:   15.1573598722
  - # 19
    frequency:   15.2540076074
  - # 20
    frequency:   16.9094627227
  - # 21
    frequency:   46.4003201879

- q-position: [    0.0606061,    0.0000000,    0.0000000 ]
  distance:    0.0212867
  band:
  - # 1
    frequency:   -1.5615488861
  - # 2
    frequency:   -1.1337195595
  - # 3
    frequency:    0.1703061589
  - # 4
    frequency:    0.6290642046
  - # 5
    frequency:    0.9365612117
  - # 6
    frequency:    1.4516319135
  - # 7
    frequency:    2.9948637606
  - # 8
    frequency:    3.2826189901
  - # 9
    frequency:    4.9877725166
  - # 10
    frequency:    5.0268623822
  - # 11
    frequency:    6.0474146041
  - # 12
    frequency:    8.3100926069
  - # 13
    frequency:    8.9628664570
  - # 14
    frequency:    9.0316635712
  - # 15
    frequency:   12.5310549061
  - # 16
    frequency:   12.8722813209
  - # 17
    frequency:   13.2544849520
  - # 18
    frequency:   15.1381107607
  - # 19
    frequency:   15.2471400756
  - # 20
    frequency:   16.9710242790
  - # 21
    frequency:   46.3804612762

- q-position: [    0.0656566,    0.0000000,    0.0000000 ]
  distance:    0.0230606
  band:
  - # 1
    frequency:   -1.6739123022
  - # 2
    frequency:   -1.2060745592
  - # 3
    frequency:    0.2062045216
  - # 4
    frequency:    0.6823611715
  - # 5
    frequency:    0.9534980334
  - # 6
    frequency:    1.5680253895
  - # 7
    frequency:    3.0094307139
  - # 8
    frequency:    3.3389693307
  - # 9
    frequency:    4.9949034289
  - # 10
    frequency:    5.0390473110
  - # 11
    frequency:    6.0600299382
  - # 12
    frequency:    8.2631403682
  - # 13
    frequency:    8.9580779538
  - # 14
    frequency:    9.0337999472
  - # 15
    frequency:   12.5288036031
  - # 16
    frequency:   12.8953319491
  - # 17
    frequency:   13.2537874567
  - # 18
    frequency:   15.1185413866
  - # 19
    frequency:   15.2397128522
  - # 20
    frequency:   17.0355370551
  - # 21
    frequency:   46.3589793496

- q-position: [    0.0707071,    0.0000000,    0.0000000 ]
  distance:    0.0248345
  band:
  - # 1
    frequency:   -1.7854986704
  - # 2
    frequency:   -1.2783629783
  - # 3
    frequency:    0.2438778590
  - # 4
    frequency:    0.7356417706
  - # 5
    frequency:    0.9715254622
  - # 6
    frequency:    1.6833070224
  - # 7
    frequency:    3.0249094421
  - # 8
    frequency:    3.3972853568
  - # 9
    frequency:    5.0030433803
  - # 10
    frequency:    5.0520634256
  - # 11
    frequency:    6.0738207232
  - # 12
    frequency:    8.2132043618
  - # 13
    frequency:    8.9526659789
  - # 14
    frequency:    9.0354130454
  - # 15
    frequency:   12.5263916472
  - # 16
    frequency:   12.9027993154
  - # 17
    frequency:   13.2697761732
  - # 18
    frequency:   15.0987562189
  - # 19
    frequency:   15.2317352740
  - # 20
    frequency:   17.1027124959
  - # 21
    frequency:   46.3358999667

- q-position: [    0.0757576,    0.0000000,    0.0000000 ]
  distance:    0.0266084
  band:
  - # 1
    frequency:   -1.8960662415
  - # 2
    frequency:   -1.3503344796
  - # 3
    frequency:    0.2831226697
  - # 4
    frequency:    0.7888677274
  - # 5
    frequency:    0.9906945815
  - # 6
    frequency:    1.7972413364
  - # 7
    frequency:    3.0412462184
  - # 8
    frequency:    3.4571293457
  - # 9
    frequency:    5.0122984875
  - # 10
    frequency:    5.0658853546
  - # 11
    frequency:    6.0888314370
  - # 12
    frequency:    8.1602337296
  - # 13
    frequency:    8.9465799588
  - # 14
    frequency:    9.0365726454
  - # 15
    frequency:   12.5238234477
  - # 16
    frequency:   12.8937628091
  - # 17
    frequency:   13.3031972392
  - # 18
    frequency:   15.0788428781
  - # 19
    frequency:   15.2232174060
  - # 20
    frequency:   17.1722867195
  - # 21
    frequency:   46.3112505639

- q-position: [    0.0808081,    0.0000000,    0.0000000 ]
  distance:    0.0283823
  band:
  - # 1
    frequency:   -2.0054072767
  - # 2
    frequency:   -1.4217772084
  - # 3
    frequency:    0.3237051597
  - # 4
    frequency:    0.8419934046
  - # 5
    frequency:    1.0110011494
  - # 6
    frequency:    1.9096242243
  - # 7
    frequency:    3.0583849213
  - # 8
    frequency:    3.5180650109
  - # 9
    frequency:    5.0227792242
  - # 10
    frequency:    5.0804882410
  - # 11
    frequency:    6.1051123453
  - # 12
    frequency:    8.1041679870
  - # 13
    frequency:    8.9397672935
  - # 14
    frequency:    9.0373618905
  - # 15
    frequency:   12.5211037342
  - # 16
    frequency:   12.8713138437
  - # 17
    frequency:   13.3507716973
  - # 18
    frequency:   15.0588783336
  - # 19
    frequency:   15.2141700339
  - # 20
    frequency:   17.2440166259
  - # 21
    frequency:   46.2850604149

- q-position: [    0.0858586,    0.0000000,    0.0000000 ]
  distance:    0.0301561
  band:
  - # 1
    frequency:   -2.1133390506
  - # 2
    frequency:   -1.4925088557
  - # 3
    frequency:    0.3653682932
  - # 4
    frequency:    0.8949653495
  - # 5
    frequency:    1.0324124201
  - # 6
    frequency:    2.0202576314
  - # 7
    frequency:    3.0762673481
  - # 8
    frequency:    3.5796612289
  - # 9
    frequency:    5.0345961170
  - # 10
    frequency:    5.0958480451
  - # 11
    frequency:    6.1227198268
  - # 12
    frequency:    8.0449440880
  - # 13
    frequency:    8.9321736806
  - # 14
    frequency:    9.0378721648
  - # 15
    frequency:   12.5182375655
  - # 16
    frequency:   12.8395666448
  - # 17
    frequency:   13.4081856540
  - # 18
    frequency:   15.0389350758
  - # 19
    frequency:   15.2046046566
  - # 20
    frequency:   17.3176760224
  - # 21
    frequency:   46.2573605853

- q-position: [    0.0909091,    0.0000000,    0.0000000 ]
  distance:    0.0319300
  band:
  - # 1
    frequency:   -2.2196977326
  - # 2
    frequency:   -1.5623701133
  - # 3
    frequency:    0.4078341825
  - # 4
    frequency:    0.9477219157
  - # 5
    frequency:    1.0548800014
  - # 6
    frequency:    2.1289373714
  - # 7
    frequency:    3.0948335673
  - # 8
    frequency:    3.6414970834
  - # 9
    frequency:    5.0478533966
  - # 10
    frequency:    5.1119418129
  - # 11
    frequency:    6.1417164359
  - # 12
    frequency:    7.9825036879
  - # 13
    frequency:    8.9237434509
  - # 14
    frequency:    9.0381986608
  - # 15
    frequency:   12.5152303411
  - # 16
    frequency:   12.8017276607
  - # 17
    frequency:   13.4720213652
  - # 18
    frequency:   15.0190873400
  - # 19
    frequency:   15.1945334767
  - # 20
    frequency:   17.3930519432
  - # 21
    frequency:   46.2281838846

- q-position: [    0.0959596,    0.0000000,    0.0000000 ]
  distance:    0.0337039
  band:
  - # 1
    frequency:   -2.3243341559
  - # 2
    frequency:   -1.6312198417
  - # 3
    frequency:    0.4508035989
  - # 4
    frequency:    1.0001929061
  - # 5
    frequency:    1.0783466992
  - # 6
    frequency:    2.2354462154
  - # 7
    frequency:    3.1140223168
  - # 8
    frequency:    3.7031686898
  - # 9
    frequency:    5.0626401145
  - # 10
    frequency:    5.1287479041
  - # 11
    frequency:    6.1621705122
  - # 12
    frequency:    7.9168009649
  - # 13
    frequency:    8.9144199116
  - # 14
    frequency:    9.0384365937
  - # 15
    frequency:   12.5120878157
  - # 16
    frequency:   12.7599107558
  - # 17
    frequency:   13.5399417337
  - # 18
    frequency:   14.9994176134
  - # 19
    frequency:   15.1839693891
  - # 20
    frequency:   17.4699412681
  - # 21
    frequency:   46.1975648131

- q-position: [    0.1010101,    0.0000000,    0.0000000 ]
  distance:    0.0354778
  band:
  - # 1
    frequency:   -2.4271108476
  - # 2
    frequency:   -1.6989314707
  - # 3
    frequency:    0.4939532528
  - # 4
    frequency:    1.0522992000
  - # 5
    frequency:    1.1027504240
  - # 6
    frequency:    2.3395493597
  - # 7
    frequency:    3.1337714554
  - # 8
    frequency:    3.7642981038
  - # 9
    frequency:    5.0790182905
  - # 10
    frequency:    5.1462461762
  - # 11
    frequency:    6.1841550650
  - # 12
    frequency:    7.8478114852
  - # 13
    frequency:    8.9041456976
  - # 14
    frequency:    9.0386780216
  - # 15
    frequency:   12.5088161170
  - # 16
    frequency:   12.7154777222
  - # 17
    frequency:   13.6103482317
  - # 18
    frequency:   14.9800238078
  - # 19
    frequency:   15.1729259694
  - # 20
    frequency:   17.5481476985
  - # 21
    frequency:   46.1655395057

- q-position: [    0.1060606,    0.0000000,    0.0000000 ]
  distance:    0.0372517
  band:
  - # 1
    frequency:   -2.5278999181
  - # 2
    frequency:   -1.7653902971
  - # 3
    frequency:    0.5369309722
  - # 4
    frequency:    1.1039523391
  - # 5
    frequency:    1.1280265297
  - # 6
    frequency:    2.4409911746
  - # 7
    frequency:    3.1540184745
  - # 8
    frequency:    3.8245443203
  - # 9
    frequency:    5.0970078159
  - # 10
    frequency:    5.1644181196
  - # 11
    frequency:    6.2077455185
  - # 12
    frequency:    7.7755428019
  - # 13
    frequency:    8.8928631299
  - # 14
    frequency:    9.0390092330
  - # 15
    frequency:   12.5054217650
  - # 16
    frequency:   12.6693388116
  - # 17
    frequency:   13.6820769734
  - # 18
    frequency:   14.9610276372
  - # 19
    frequency:   15.1614174601
  - # 20
    frequency:   17.6274791210
  - # 21
    frequency:   46.1321456718

- q-position: [    0.1111111,    0.0000000,    0.0000000 ]
  distance:    0.0390256
  band:
  - # 1
    frequency:   -2.6265815453
  - # 2
    frequency:   -1.8304914395
  - # 3
    frequency:    0.5793485642
  - # 4
    frequency:    1.1541092828
  - # 5
    frequency:    1.1550540500
  - # 6
    frequency:    2.5394929108
  - # 7
    frequency:    3.1747010764
  - # 8
    frequency:    3.8836158962
  - # 9
    frequency:    5.1165681082
  - # 10
    frequency:    5.1832469416
  - # 11
    frequency:    6.2330156889
  - # 12
    frequency:    7.7000477996
  - # 13
    frequency:    8.8805145798
  - # 14
    frequency:    9.0395086581
  - # 15
    frequency:   12.5019116949
  - # 16
    frequency:   12.6221389090
  - # 17
    frequency:   13.7542065769
  - # 18
    frequency:   14.9425849306
  - # 19
    frequency:   15.1494587551
  - # 20
    frequency:   17.7077453730
  - # 21
    frequency:   46.0974225308

- q-position: [    0.1161616,    0.0000000,    0.0000000 ]
  distance:    0.0407995
  band:
  - # 1
    frequency:   -2.7230428772
  - # 2
    frequency:   -1.8941382799
  - # 3
    frequency:    0.6207718498
  - # 4
    frequency:    1.1809328879
  - # 5
    frequency:    1.2054956838
  - # 6
    frequency:    2.6347514568
  - # 7
    frequency:    3.1957578254
  - # 8
    frequency:    3.9412840991
  - # 9
    frequency:    5.1375768799
  - # 10
    frequency:    5.2027175983
  - # 11
    frequency:    6.2600310028
  - # 12
    frequency:    7.6214423206
  - # 13
    frequency:    8.8670428395
  - # 14
    frequency:    9.0402452586
  - # 15
    frequency:   12.4982932808
  - # 16
    frequency:   12.5743639837
  - # 17
    frequency:   13.8259422384
  - # 18
    frequency:   14.9248988197
  - # 19
    frequency:   15.1370653833
  - # 20
    frequency:   17.7887564135
  - # 21
    frequency:   46.0614107444

- q-position: [    0.1212121,    0.0000000,    0.0000000 ]
  distance:    0.0425734
  band:
  - # 1
    frequency:   -2.8171772323
  - # 2
    frequency:   -1.9562412696
  - # 3
    frequency:    0.6607070034
  - # 4
    frequency:    1.2084323646
  - # 5
    frequency:    1.2551575568
  - # 6
    frequency:    2.7264395240
  - # 7
    frequency:    3.2171288727
  - # 8
    frequency:    3.9973947672
  - # 9
    frequency:    5.1598067381
  - # 10
    frequency:    5.2228167703
  - # 11
    frequency:    6.2888373174
  - # 12
    frequency:    7.5399294872
  - # 13
    frequency:    8.8523914984
  - # 14
    frequency:    9.0412773431
  - # 15
    frequency:   12.4945743601
  - # 16
    frequency:   12.5264017719
  - # 17
    frequency:   13.8965409530
  - # 18
    frequency:   14.9082369257
  - # 19
    frequency:   15.1242534904
  - # 20
    frequency:   17.8703208963
  - # 21
    frequency:   46.0241523455

- q-position: [    0.1262626,    0.0000000,    0.0000000 ]
  distance:    0.0443473
  band:
  - # 1
    frequency:   -2.9088835156
  - # 2
    frequency:   -2.0167170083
  - # 3
    frequency:    0.6985818616
  - # 4
    frequency:    1.2365445183
  - # 5
    frequency:    1.3039081760
  - # 6
    frequency:    2.8142078654
  - # 7
    frequency:    3.2387567590
  - # 8
    frequency:    4.0518764212
  - # 9
    frequency:    5.1829005384
  - # 10
    frequency:    5.2435327862
  - # 11
    frequency:    6.3194424876
  - # 12
    frequency:    7.4558346727
  - # 13
    frequency:    8.8365053268
  - # 14
    frequency:    9.0426517545
  - # 15
    frequency:   12.4785772257
  - # 16
    frequency:   12.4907632592
  - # 17
    frequency:   13.9652562549
  - # 18
    frequency:   14.8929536549
  - # 19
    frequency:   15.1110398197
  - # 20
    frequency:   17.9522451364
  - # 21
    frequency:   45.9856906630

- q-position: [    0.1313131,    0.0000000,    0.0000000 ]
  distance:    0.0461212
  band:
  - # 1
    frequency:   -2.9980657911
  - # 2
    frequency:   -2.0754875322
  - # 3
    frequency:    0.7337201721
  - # 4
    frequency:    1.2652091995
  - # 5
    frequency:    1.3516033370
  - # 6
    frequency:    2.8976902907
  - # 7
    frequency:    3.2605872913
  - # 8
    frequency:    4.1047418042
  - # 9
    frequency:    5.2063463054
  - # 10
    frequency:    5.2648554914
  - # 11
    frequency:    6.3517853593
  - # 12
    frequency:    7.3696579389
  - # 13
    frequency:    8.8193306657
  - # 14
    frequency:    9.0444033744
  - # 15
    frequency:   12.4311739472
  - # 16
    frequency:   12.4868688169
  - # 17
    frequency:   14.0312908608
  - # 18
    frequency:   14.8795180200
  - # 19
    frequency:   15.0974416908
  - # 20
    frequency:   18.0343324530
  - # 21
    frequency:   45.9460702438

- q-position: [    0.1363636,    0.0000000,    0.0000000 ]
  distance:    0.0478951
  band:
  - # 1
    frequency:   -3.0846329710
  - # 2
    frequency:   -2.1324797615
  - # 3
    frequency:    0.7653056859
  - # 4
    frequency:    1.2943709843
  - # 5
    frequency:    1.3980850807
  - # 6
    frequency:    2.9765122750
  - # 7
    frequency:    3.2825704880
  - # 8
    frequency:    4.1560801224
  - # 9
    frequency:    5.2294520904
  - # 10
    frequency:    5.2867760658
  - # 11
    frequency:    6.3856816029
  - # 12
    frequency:    7.2821564390
  - # 13
    frequency:    8.8008158258
  - # 14
    frequency:    9.0465548913
  - # 15
    frequency:   12.3844476384
  - # 16
    frequency:   12.4829004070
  - # 17
    frequency:   14.0937531965
  - # 18
    frequency:   14.8685450048
  - # 19
    frequency:   15.0834769773
  - # 20
    frequency:   18.1163828698
  - # 21
    frequency:   45.9053367722

- q-position: [    0.1414141,    0.0000000,    0.0000000 ]
  distance:    0.0496689
  band:
  - # 1
    frequency:   -3.1684985899
  - # 2
    frequency:   -2.1876250713
  - # 3
    frequency:    0.7923312093
  - # 4
    frequency:    1.3239812834
  - # 5
    frequency:    1.4431804992
  - # 6
    frequency:    3.0503037567
  - # 7
    frequency:    3.3046615809
  - # 8
    frequency:    4.2060378916
  - # 9
    frequency:    5.2513206432
  - # 10
    frequency:    5.3092867937
  - # 11
    frequency:    6.4207239603
  - # 12
    frequency:    7.1944812947
  - # 13
    frequency:    8.7809114950
  - # 14
    frequency:    9.0491167828
  - # 15
    frequency:   12.3386348488
  - # 16
    frequency:   12.4788679569
  - # 17
    frequency:   14.1516226144
  - # 18
    frequency:   14.8608224078
  - # 19
    frequency:   15.0691640837
  - # 20
    frequency:   18.1981931447
  - # 21
    frequency:   45.8635369860

- q-position: [    0.1464646,    0.0000000,    0.0000000 ]
  distance:    0.0514428
  band:
  - # 1
    frequency:   -3.2495806456
  - # 2
    frequency:   -2.2408589574
  - # 3
    frequency:    0.8135245292
  - # 4
    frequency:    1.3540006887
  - # 5
    frequency:    1.4867003846
  - # 6
    frequency:    3.1187161794
  - # 7
    frequency:    3.3268220563
  - # 8
    frequency:    4.2547873322
  - # 9
    frequency:    5.2708241043
  - # 10
    frequency:    5.3323807897
  - # 11
    frequency:    6.4560873326
  - # 12
    frequency:    7.1084199321
  - # 13
    frequency:    8.7595711574
  - # 14
    frequency:    9.0520874715
  - # 15
    frequency:   12.2939588471
  - # 16
    frequency:   12.4747819626
  - # 17
    frequency:   14.2037416289
  - # 18
    frequency:   14.8573130456
  - # 19
    frequency:   15.0545219201
  - # 20
    frequency:   18.2795570959
  - # 21
    frequency:   45.8207185913

- q-position: [    0.1515152,    0.0000000,    0.0000000 ]
  distance:    0.0532167
  band:
  - # 1
    frequency:   -3.3278014875
  - # 2
    frequency:   -2.2921207778
  - # 3
    frequency:    0.8272368906
  - # 4
    frequency:    1.3844010948
  - # 5
    frequency:    1.5284377146
  - # 6
    frequency:    3.1814428929
  - # 7
    frequency:    3.3490207081
  - # 8
    frequency:    4.3024823031
  - # 9
    frequency:    5.2865818284
  - # 10
    frequency:    5.3560516867
  - # 11
    frequency:    6.4901304572
  - # 12
    frequency:    7.0268507154
  - # 13
    frequency:    8.7367515238
  - # 14
    frequency:    9.0554536168
  - # 15
    frequency:   12.2506336531
  - # 16
    frequency:   12.4706534973
  - # 17
    frequency:   14.2488709617
  - # 18
    frequency:   14.8590955162
  - # 19
    frequency:   15.0395698765
  - # 20
    frequency:   18.3602661894
  - # 21