nqpoint: 300    
npath: 3      
segment_nqpoint:
- 100
- 100
- 100
labels:
- [ 'G', 'M' ]
- [ 'M', 'K' ]
- [ 'K', 'G' ]
reciprocal_lattice:
- [   0.29508525,   0.17036755,   0.00000000 ] # a*
- [   0.00000000,   0.34073510,   0.00000000 ] # b*
- [   0.00000000,   0.00000000,   0.04333133 ] # c*
natom: 5      
lattice:
- [     3.388851136188363,     0.000000000000000,     0.000000000000000 ] # a
- [    -1.694425568094181,     2.934831173581156,     0.000000000000000 ] # b
- [     0.000000000000000,     0.000000000000000,    23.077990023414841 ] # c
points:
- symbol: C # 1
  coordinates: [  0.000000000000000,  0.000000000000000,  0.500000035246860 ]
  mass: 12.010700
- symbol: F # 2
  coordinates: [  0.333332985432215,  0.666666983183674,  0.610018030562079 ]
  mass: 18.998403
- symbol: F # 3
  coordinates: [  0.666666984744047,  0.333332985985145,  0.389981969437921 ]
  mass: 18.998403
- symbol: Zr # 4
  coordinates: [  0.333332985432215,  0.666666983183674,  0.447140289878192 ]
  mass: 91.224000
- symbol: Zr # 5
  coordinates: [  0.666666984744047,  0.333332985985145,  0.552859709595726 ]
  mass: 91.224000

phonon:
- q-position: [    0.0000000,    0.0000000,    0.0000000 ]
  distance:    0.0000000
  band:
  - # 1
    frequency:   -0.0000012634
  - # 2
    frequency:   -0.0000002271
  - # 3
    frequency:    0.0000013201
  - # 4
    frequency:    3.6566628051
  - # 5
    frequency:    3.6566628051
  - # 6
    frequency:    4.6740925306
  - # 7
    frequency:    4.6740925306
  - # 8
    frequency:    5.9910980542
  - # 9
    frequency:    5.9910980542
  - # 10
    frequency:    6.9798486655
  - # 11
    frequency:   11.1437971507
  - # 12
    frequency:   12.2396706333
  - # 13
    frequency:   16.0517132267
  - # 14
    frequency:   17.0757328127
  - # 15
    frequency:   17.0757328127

- q-position: [    0.0050505,    0.0000000,    0.0000000 ]
  distance:    0.0017209
  band:
  - # 1
    frequency:    0.0208972080
  - # 2
    frequency:    0.0620264342
  - # 3
    frequency:    0.0917149714
  - # 4
    frequency:    3.6600176210
  - # 5
    frequency:    3.6601783317
  - # 6
    frequency:    4.6745111385
  - # 7
    frequency:    4.6745213918
  - # 8
    frequency:    5.9910270675
  - # 9
    frequency:    5.9918020734
  - # 10
    frequency:    6.9797723977
  - # 11
    frequency:   11.1434002354
  - # 12
    frequency:   12.2383342808
  - # 13
    frequency:   16.0518569261
  - # 14
    frequency:   17.0768496379
  - # 15
    frequency:   17.0773786503

- q-position: [    0.0101010,    0.0000000,    0.0000000 ]
  distance:    0.0034418
  band:
  - # 1
    frequency:    0.0421007121
  - # 2
    frequency:    0.1241971738
  - # 3
    frequency:    0.1835415430
  - # 4
    frequency:    3.6700427640
  - # 5
    frequency:    3.6706873098
  - # 6
    frequency:    4.6757672247
  - # 7
    frequency:    4.6758017929
  - # 8
    frequency:    5.9908146533
  - # 9
    frequency:    5.9939035388
  - # 10
    frequency:    6.9795465772
  - # 11
    frequency:   11.1422095919
  - # 12
    frequency:   12.2343288225
  - # 13
    frequency:   16.0522856499
  - # 14
    frequency:   17.0801897934
  - # 15
    frequency:   17.0823025524

- q-position: [    0.0151515,    0.0000000,    0.0000000 ]
  distance:    0.0051627
  band:
  - # 1
    frequency:    0.0639064867
  - # 2
    frequency:    0.1866495568
  - # 3
    frequency:    0.2755883573
  - # 4
    frequency:    3.6866216879
  - # 5
    frequency:    3.6880782104
  - # 6
    frequency:    4.6778615042
  - # 7
    frequency:    4.6779153371
  - # 8
    frequency:    5.9904624429
  - # 9
    frequency:    5.9973708336
  - # 10
    frequency:    6.9791801175
  - # 11
    frequency:   11.1402255424
  - # 12
    frequency:   12.2276650395
  - # 13
    frequency:   16.0529923623
  - # 14
    frequency:   17.0857224359
  - # 15
    frequency:   17.0904637707

- q-position: [    0.0202020,    0.0000000,    0.0000000 ]
  distance:    0.0068835
  band:
  - # 1
    frequency:    0.0865909256
  - # 2
    frequency:    0.2495076019
  - # 3
    frequency:    0.3679583211
  - # 4
    frequency:    3.7095645745
  - # 5
    frequency:    3.7121692960
  - # 6
    frequency:    4.6807949354
  - # 7
    frequency:    4.6808318683
  - # 8
    frequency:    5.9899731324
  - # 9
    frequency:    6.0021517884
  - # 10
    frequency:    6.9786877565
  - # 11
    frequency:   11.1374486723
  - # 12
    frequency:   12.2183608462
  - # 13
    frequency:   16.0539656217
  - # 14
    frequency:   17.0933965508
  - # 15
    frequency:   17.1017946772

- q-position: [    0.0252525,    0.0000000,    0.0000000 ]
  distance:    0.0086044
  band:
  - # 1
    frequency:    0.1104034755
  - # 2
    frequency:    0.3128767941
  - # 3
    frequency:    0.4607461638
  - # 4
    frequency:    3.7386145165
  - # 5
    frequency:    3.7427144757
  - # 6
    frequency:    4.6845102432
  - # 7
    frequency:    4.6845683919
  - # 8
    frequency:    5.9893504485
  - # 9
    frequency:    6.0081744488
  - # 10
    frequency:    6.9780898805
  - # 11
    frequency:   11.1338799010
  - # 12
    frequency:   12.2064412102
  - # 13
    frequency:   16.0551899764
  - # 14
    frequency:   17.1031415312
  - # 15
    frequency:   17.1162012136

- q-position: [    0.0303030,    0.0000000,    0.0000000 ]
  distance:    0.0103253
  band:
  - # 1
    frequency:    0.1355616090
  - # 2
    frequency:    0.3768403521
  - # 3
    frequency:    0.5540364451
  - # 4
    frequency:    3.7734553284
  - # 5
    frequency:    3.7794108311
  - # 6
    frequency:    4.6888994420
  - # 7
    frequency:    4.6891822458
  - # 8
    frequency:    5.9885990978
  - # 9
    frequency:    6.0153481111
  - # 10
    frequency:    6.9774122736
  - # 11
    frequency:   11.1295205761
  - # 12
    frequency:   12.1919380423
  - # 13
    frequency:   16.0566464604
  - # 14
    frequency:   17.1148679752
  - # 15
    frequency:   17.1335635543

- q-position: [    0.0353535,    0.0000000,    0.0000000 ]
  distance:    0.0120462
  band:
  - # 1
    frequency:    0.1622481776
  - # 2
    frequency:    0.4414571207
  - # 3
    frequency:    0.6479020712
  - # 4
    frequency:    3.8137202886
  - # 5
    frequency:    3.8219072656
  - # 6
    frequency:    4.6939400606
  - # 7
    frequency:    4.6946358967
  - # 8
    frequency:    5.9877246985
  - # 9
    frequency:    6.0235645936
  - # 10
    frequency:    6.9766857939
  - # 11
    frequency:   11.1243725888
  - # 12
    frequency:   12.1748900585
  - # 13
    frequency:   16.0583131459
  - # 14
    frequency:   17.1284686879
  - # 15
    frequency:   17.1537370100

- q-position: [    0.0404040,    0.0000000,    0.0000000 ]
  distance:    0.0137671
  band:
  - # 1
    frequency:    0.1906108652
  - # 2
    frequency:    0.5067610317
  - # 3
    frequency:    0.7424033269
  - # 4
    frequency:    3.8590010681
  - # 5
    frequency:    3.8698137053
  - # 6
    frequency:    4.6995662577
  - # 7
    frequency:    4.7009272871
  - # 8
    frequency:    5.9867336931
  - # 9
    frequency:    6.0326997092
  - # 10
    frequency:    6.9759459665
  - # 11
    frequency:   11.1184385035
  - # 12
    frequency:   12.1553426167
  - # 13
    frequency:   16.0601657037
  - # 14
    frequency:   17.1438198726
  - # 15
    frequency:   17.1765531883

- q-position: [    0.0454545,    0.0000000,    0.0000000 ]
  distance:    0.0154880
  band:
  - # 1
    frequency:    0.2207632739
  - # 2
    frequency:    0.5727619227
  - # 3
    frequency:    0.8375873800
  - # 4
    frequency:    3.9088561177
  - # 5
    frequency:    3.9227103276
  - # 6
    frequency:    4.7057082818
  - # 7
    frequency:    4.7080524412
  - # 8
    frequency:    5.9856332405
  - # 9
    frequency:    6.0426149084
  - # 10
    frequency:    6.9752324884
  - # 11
    frequency:   11.1117216995
  - # 12
    frequency:   12.1333475297
  - # 13
    frequency:   16.0621779359
  - # 14
    frequency:   17.1607824918
  - # 15
    frequency:   17.2018214231

- q-position: [    0.0505051,    0.0000000,    0.0000000 ]
  distance:    0.0172088
  band:
  - # 1
    frequency:    0.2527871297
  - # 2
    frequency:    0.6394474076
  - # 3
    frequency:    0.9334881838
  - # 4
    frequency:    3.9628178048
  - # 5
    frequency:    3.9801563809
  - # 6
    frequency:    4.7122957992
  - # 7
    frequency:    4.7160050620
  - # 8
    frequency:    5.9844310861
  - # 9
    frequency:    6.0531590667
  - # 10
    frequency:    6.9745886309
  - # 11
    frequency:   11.1042265159
  - # 12
    frequency:   12.1089628576
  - # 13
    frequency:   16.0643222501
  - # 14
    frequency:   17.1792037777
  - # 15
    frequency:   17.2293304684

- q-position: [    0.0555556,    0.0000000,    0.0000000 ]
  distance:    0.0189297
  band:
  - # 1
    frequency:    0.2867351418
  - # 2
    frequency:    0.7067854570
  - # 3
    frequency:    1.0301266840
  - # 4
    frequency:    4.0203975664
  - # 5
    frequency:    4.0416982703
  - # 6
    frequency:    4.7192624045
  - # 7
    frequency:    4.7247762134
  - # 8
    frequency:    5.9831354119
  - # 9
    frequency:    6.0641703997
  - # 10
    frequency:    6.9740605235
  - # 11
    frequency:   11.0959583969
  - # 12
    frequency:   12.0822526812
  - # 13
    frequency:   16.0665700577
  - # 14
    frequency:   17.1989188696
  - # 15
    frequency:   17.2588504390

- q-position: [    0.0606061,    0.0000000,    0.0000000 ]
  distance:    0.0206506
  band:
  - # 1
    frequency:    0.3226341502
  - # 2
    frequency:    0.7747273652
  - # 3
    frequency:    1.1275112309
  - # 4
    frequency:    4.0810881803
  - # 5
    frequency:    4.1068767031
  - # 6
    frequency:    4.7265520004
  - # 7
    frequency:    4.7343541068
  - # 8
    frequency:    5.9817546678
  - # 9
    frequency:    6.0754784998
  - # 10
    frequency:    6.9736962997
  - # 11
    frequency:   11.0869240314
  - # 12
    frequency:   12.0532868590
  - # 13
    frequency:   16.0688920916
  - # 14
    frequency:   17.2197525549
  - # 15
    frequency:   17.2901349706

- q-position: [    0.0656566,    0.0000000,    0.0000000 ]
  distance:    0.0223715
  band:
  - # 1
    frequency:    0.3604883055
  - # 2
    frequency:    0.8432108272
  - # 3
    frequency:    1.2256381065
  - # 4
    frequency:    4.1443618029
  - # 5
    frequency:    4.1752327921
  - # 6
    frequency:    4.7341283005
  - # 7
    frequency:    4.7447240052
  - # 8
    frequency:    5.9802973892
  - # 9
    frequency:    6.0869064947
  - # 10
    frequency:    6.9735450838
  - # 11
    frequency:   11.0771314815
  - # 12
    frequency:   12.0221407689
  - # 13
    frequency:   16.0712586460
  - # 14
    frequency:   17.2415210904
  - # 15
    frequency:   17.3229235600

- q-position: [    0.0707071,    0.0000000,    0.0000000 ]
  distance:    0.0240924
  band:
  - # 1
    frequency:    0.4002821249
  - # 2
    frequency:    0.9121629160
  - # 3
    frequency:    1.3244920915
  - # 4
    frequency:    4.2096613943
  - # 5
    frequency:    4.2463130992
  - # 6
    frequency:    4.7419898334
  - # 7
    frequency:    4.7558682499
  - # 8
    frequency:    5.9787720088
  - # 9
    frequency:    6.0982733349
  - # 10
    frequency:    6.9736557983
  - # 11
    frequency:   11.0665902955
  - # 12
    frequency:   11.9888950360
  - # 13
    frequency:   16.0736397478
  - # 14
    frequency:   17.2640340795
  - # 15
    frequency:   17.3569440421

- q-position: [    0.0757576,    0.0000000,    0.0000000 ]
  distance:    0.0258133
  band:
  - # 1
    frequency:    0.4419833391
  - # 2
    frequency:    0.9815028184
  - # 3
    frequency:    1.4240470134
  - # 4
    frequency:    4.2763809318
  - # 5
    frequency:    4.3196736597
  - # 6
    frequency:    4.7501951030
  - # 7
    frequency:    4.7677664155
  - # 8
    frequency:    5.9771866735
  - # 9
    frequency:    6.1093962177
  - # 10
    frequency:    6.9740757792
  - # 11
    frequency:   11.0553116028
  - # 12
    frequency:   11.9536352480
  - # 13
    frequency:   16.0760052747
  - # 14
    frequency:   17.2870963836
  - # 15
    frequency:   17.3919151577

- q-position: [    0.0808081,    0.0000000,    0.0000000 ]
  distance:    0.0275341
  band:
  - # 1
    frequency:    0.4855455019
  - # 2
    frequency:    1.0511442461
  - # 3
    frequency:    1.5242662371
  - # 4
    frequency:    4.3438250755
  - # 5
    frequency:    4.3948830504
  - # 6
    frequency:    4.7589073343
  - # 7
    frequency:    4.7803956124
  - # 8
    frequency:    5.9755490823
  - # 9
    frequency:    6.1200931465
  - # 10
    frequency:    6.9748491983
  - # 11
    frequency:   11.0433081863
  - # 12
    frequency:   11.9164516585
  - # 13
    frequency:   16.0783250336
  - # 14
    frequency:   17.3105100440
  - # 15
    frequency:   17.4275491664

- q-position: [    0.0858586,    0.0000000,    0.0000000 ]
  distance:    0.0292550
  band:
  - # 1
    frequency:    0.5309103564
  - # 2
    frequency:    1.1209974906
  - # 3
    frequency:    1.6251030776
  - # 4
    frequency:    4.4111289546
  - # 5
    frequency:    4.4715245396
  - # 6
    frequency:    4.7684782409
  - # 7
    frequency:    4.7937309961
  - # 8
    frequency:    5.9738663648
  - # 9
    frequency:    6.1301856112
  - # 10
    frequency:    6.9760153106
  - # 11
    frequency:   11.0305945300
  - # 12
    frequency:   11.8774388788
  - # 13
    frequency:   16.0805688155
  - # 14
    frequency:   17.3340761943
  - # 15
    frequency:   17.4635544628

- q-position: [    0.0909091,    0.0000000,    0.0000000 ]
  distance:    0.0309759
  band:
  - # 1
    frequency:    0.5780099762
  - # 2
    frequency:    1.1909711209
  - # 3
    frequency:    1.7265011253
  - # 4
    frequency:    4.4770993645
  - # 5
    frequency:    4.5491972116
  - # 6
    frequency:    4.7796096267
  - # 7
    frequency:    4.8077466955
  - # 8
    frequency:    5.9721450262
  - # 9
    frequency:    6.1395013511
  - # 10
    frequency:    6.9776065715
  - # 11
    frequency:   11.0171868423
  - # 12
    frequency:   11.8366955587
  - # 13
    frequency:   16.0827064374
  - # 14
    frequency:   17.3575969442
  - # 15
    frequency:   17.4996381584

- q-position: [    0.0959596,    0.0000000,    0.0000000 ]
  distance:    0.0326968
  band:
  - # 1
    frequency:    0.6267686996
  - # 2
    frequency:    1.2609733511
  - # 3
    frequency:    1.8283944868
  - # 4
    frequency:    4.5399153334
  - # 5
    frequency:    4.6275153637
  - # 6
    frequency:    4.7936549515
  - # 7
    frequency:    4.8224179595
  - # 8
    frequency:    5.9703909885
  - # 9
    frequency:    6.1478771355
  - # 10
    frequency:    6.9796466984
  - # 11
    frequency:   11.0031030502
  - # 12
    frequency:   11.7943240562
  - # 13
    frequency:   16.0847077828
  - # 14
    frequency:   17.3808772165
  - # 15
    frequency:   17.5355085964

- q-position: [    0.1010101,    0.0000000,    0.0000000 ]
  distance:    0.0344177
  band:
  - # 1
    frequency:    0.6771048792
  - # 2
    frequency:    1.3309131138
  - # 3
    frequency:    1.9307079493
  - # 4
    frequency:    4.5966917386
  - # 5
    frequency:    4.7061023691
  - # 6
    frequency:    4.8130572508
  - # 7
    frequency:    4.8377284182
  - # 8
    frequency:    5.9686097658
  - # 9
    frequency:    6.1551614682
  - # 10
    frequency:    6.9821487815
  - # 11
    frequency:   10.9883627687
  - # 12
    frequency:   11.7504300968
  - # 13
    frequency:   16.0865428475
  - # 14
    frequency:   17.4037265216
  - # 15
    frequency:   17.5708777729

- q-position: [    0.1060606,    0.0000000,    0.0000000 ]
  distance:    0.0361386
  band:
  - # 1
    frequency:    0.7289324656
  - # 2
    frequency:    1.4007008831
  - # 3
    frequency:    2.0333570807
  - # 4
    frequency:    4.6434709695
  - # 5
    frequency:    4.7845473598
  - # 6
    frequency:    4.8413584584
  - # 7
    frequency:    4.8537141810
  - # 8
    frequency:    5.9668068167
  - # 9
    frequency:    6.1612170970
  - # 10
    frequency:    6.9851135745
  - # 11
    frequency:   10.9729872421
  - # 12
    frequency:   11.7051224224
  - # 13
    frequency:   16.0881817954
  - # 14
    frequency:   17.4259606553
  - # 15
    frequency:   17.6054636432

- q-position: [    0.1111111,    0.0000000,    0.0000000 ]
  distance:    0.0378595
  band:
  - # 1
    frequency:    0.7821624413
  - # 2
    frequency:    1.4702492900
  - # 3
    frequency:    2.1362482787
  - # 4
    frequency:    4.6771901294
  - # 5
    frequency:    4.8607357237
  - # 6
    frequency:    4.8721338383
  - # 7
    frequency:    4.8812326622
  - # 8
    frequency:    5.9649881250
  - # 9
    frequency:    6.1659232017
  - # 10
    frequency:    6.9885281071
  - # 11
    frequency:   10.9569992599
  - # 12
    frequency:   11.6585124295
  - # 13
    frequency:   16.0895950272
  - # 14
    frequency:   17.4474033082
  - # 15
    frequency:   17.6389922952

- q-position: [    0.1161616,    0.0000000,    0.0000000 ]
  distance:    0.0395803
  band:
  - # 1
    frequency:    0.8367041167
  - # 2
    frequency:    1.5394735701
  - # 3
    frequency:    2.2392787802
  - # 4
    frequency:    4.6985629149
  - # 5
    frequency:    4.8863046089
  - # 6
    frequency:    4.9316041558
  - # 7
    frequency:    4.9410132226
  - # 8
    frequency:    5.9631610700
  - # 9
    frequency:    6.1691771399
  - # 10
    frequency:    6.9923647568
  - # 11
    frequency:   10.9404230477
  - # 12
    frequency:   11.6107137983
  - # 13
    frequency:   16.0907532625
  - # 14
    frequency:   17.4678875756
  - # 15
    frequency:   17.6711999780

- q-position: [    0.1212121,    0.0000000,    0.0000000 ]
  distance:    0.0413012
  band:
  - # 1
    frequency:    0.8924662991
  - # 2
    frequency:    1.6082918798
  - # 3
    frequency:    2.3423366408
  - # 4
    frequency:    4.7110129963
  - # 5
    frequency:    4.9038899812
  - # 6
    frequency:    4.9887134312
  - # 7
    frequency:    5.0173984182
  - # 8
    frequency:    5.9613356608
  - # 9
    frequency:    6.1708956611
  - # 10
    frequency:    6.9965808898
  - # 11
    frequency:   10.9232841352
  - # 12
    frequency:   11.5618421121
  - # 13
    frequency:   16.0916276350
  - # 14
    frequency:   17.4872573587
  - # 15
    frequency:   17.7018349767

- q-position: [    0.1262626,    0.0000000,    0.0000000 ]
  distance:    0.0430221
  band:
  - # 1
    frequency:    0.9493583411
  - # 2
    frequency:    1.6766255105
  - # 3
    frequency:    2.4453006914
  - # 4
    frequency:    4.7176717053
  - # 5
    frequency:    4.9217823362
  - # 6
    frequency:    5.0491182540
  - # 7
    frequency:    5.0926999373
  - # 8
    frequency:    5.9595262248
  - # 9
    frequency:    6.1710155513
  - # 10
    frequency:    7.0011191362
  - # 11
    frequency:   10.9056092012
  - # 12
    frequency:   11.5120144688
  - # 13
    frequency:   16.0921897991
  - # 14
    frequency:   17.5053686515
  - # 15
    frequency:   17.7306593257

- q-position: [    0.1313131,    0.0000000,    0.0000000 ]
  distance:    0.0447430
  band:
  - # 1
    frequency:    1.0072910749
  - # 2
    frequency:    1.7443990257
  - # 3
    frequency:    2.5480404743
  - # 4
    frequency:    4.7204812676
  - # 5
    frequency:    4.9400564247
  - # 6
    frequency:    5.1105884923
  - # 7
    frequency:    5.1665627059
  - # 8
    frequency:    5.9577536646
  - # 9
    frequency:    6.1694937403
  - # 10
    frequency:    7.0059083051
  - # 11
    frequency:   10.8874258981
  - # 12
    frequency:   11.4613490856
  - # 13
    frequency:   16.0924120471
  - # 14
    frequency:   17.5220907047
  - # 15
    frequency:   17.7574503575

- q-position: [    0.1363636,    0.0000000,    0.0000000 ]
  distance:    0.0464639
  band:
  - # 1
    frequency:    1.0661776380
  - # 2
    frequency:    1.8115403412
  - # 3
    frequency:    2.6504161593
  - # 4
    frequency:    4.7205298133
  - # 5
    frequency:    4.9586997200
  - # 6
    frequency:    5.1717683451
  - # 7
    frequency:    5.2387371126
  - # 8
    frequency:    5.9560484271
  - # 9
    frequency:    6.1663069794
  - # 10
    frequency:    7.0108648870
  - # 11
    frequency:   10.8687626562
  - # 12
    frequency:   11.4099648991
  - # 13
    frequency:   16.0922674326
  - # 14
    frequency:   17.5373070647
  - # 15
    frequency:   17.7820020841

- q-position: [    0.1414141,    0.0000000,    0.0000000 ]
  distance:    0.0481848
  band:
  - # 1
    frequency:    1.1259341938
  - # 2
    frequency:    1.8779807630
  - # 3
    frequency:    2.7522784357
  - # 4
    frequency:    4.7184361712
  - # 5
    frequency:    4.9776870449
  - # 6
    frequency:    5.2317877991
  - # 7
    frequency:    5.3090036477
  - # 8
    frequency:    5.9544543600
  - # 9
    frequency:    6.1614512828
  - # 10
    frequency:    7.0158950358
  - # 11
    frequency:   10.8496484668
  - # 12
    frequency:   11.3579811639
  - # 13
    frequency:   16.0917298998
  - # 14
    frequency:   17.5509164809
  - # 15
    frequency:   17.8041264089

- q-position: [    0.1464646,    0.0000000,    0.0000000 ]
  distance:    0.0499056
  band:
  - # 1
    frequency:    1.1864805512
  - # 2
    frequency:    1.9436549960
  - # 3
    frequency:    2.8534683729
  - # 4
    frequency:    4.7145750652
  - # 5
    frequency:    4.9969905017
  - # 6
    frequency:    5.2900325016
  - # 7
    frequency:    5.3771618813
  - # 8
    frequency:    5.9530336578
  - # 9
    frequency:    6.1549414097
  - # 10
    frequency:    7.0208968887
  - # 11
    frequency:   10.8301126434
  - # 12
    frequency:   11.3055170548
  - # 13
    frequency:   16.0907744156
  - # 14
    frequency:   17.5628336822
  - # 15
    frequency:   17.8236541702

- q-position: [    0.1515152,    0.0000000,    0.0000000 ]
  distance:    0.0516265
  band:
  - # 1
    frequency:    1.2477406874
  - # 2
    frequency:    2.0085011317
  - # 3
    frequency:    2.9538172424
  - # 4
    frequency:    4.7091937370
  - # 5
    frequency:    5.0165819630
  - # 6
    frequency:    5.3460208397
  - # 7
    frequency:    5.4430263173
  - # 8
    frequency:    5.9518730884
  - # 9
    frequency:    6.1468107769
  - # 10
    frequency:    7.0257630704
  - # 11
    frequency:   10.8101845562
  - # 12
    frequency:   11.2526912805
  - # 13
    frequency:   16.0893771027
  - # 14
    frequency:   17.5729900164
  - # 15
    frequency:   17.8404360154

- q-position: [    0.1565657,    0.0000000,    0.0000000 ]
  distance:    0.0533474
  band:
  - # 1
    frequency:    1.3096431772
  - # 2
    frequency:    2.0724606223
  - # 3
    frequency:    3.0531462876
  - # 4
    frequency:    4.7024720403
  - # 5
    frequency:    5.0364339546
  - # 6
    frequency:    5.3993361127
  - # 7
    frequency:    5.5064229046
  - # 8
    frequency:    5.9510915680
  - # 9
    frequency:    6.1371123625
  - # 10
    frequency:    7.0303832300
  - # 11
    frequency:   10.7898933307
  - # 12
    frequency:   11.1996217193
  - # 13
    frequency:   16.0875153710
  - # 14
    frequency:   17.5813339549
  - # 15
    frequency:   17.8543431075

- q-position: [    0.1616162,    0.0000000,    0.0000000 ]
  distance:    0.0550683
  band:
  - # 1
    frequency:    1.3721215320
  - # 2
    frequency:    2.1354782452
  - # 3
    frequency:    3.1512664326
  - # 4
    frequency:    4.6945542778
  - # 5
    frequency:    5.0565200428
  - # 6
    frequency:    5.4495858352
  - # 7
    frequency:    5.5671843420
  - # 8
    frequency:    5.9508487760
  - # 9
    frequency:    6.1259214967
  - # 10
    frequency:    7.0346464862
  - # 11
    frequency:   10.7692674969
  - # 12
    frequency:   11.1464250974
  - # 13
    frequency:   16.0851680482
  - # 14
    frequency:   17.5878314595
  - # 15
    frequency:   17.8652676633

- q-position: [    0.1666667,    0.0000000,    0.0000000 ]
  distance:    0.0567892
  band:
  - # 1
    frequency:    1.4351144536
  - # 2
    frequency:    2.1975020645
  - # 3
    frequency:    3.2479779190
  - # 4
    frequency:    4.6855666421
  - # 5
    frequency:    5.0768150099
  - # 6
    frequency:    5.4963755438
  - # 7
    frequency:    5.6251423887
  - # 8
    frequency:    5.9513535695
  - # 9
    frequency:    6.1133421639
  - # 10
    frequency:    7.0384436862
  - # 11
    frequency:   10.7483345608
  - # 12
    frequency:   11.0932167394
  - # 13
    frequency:   16.0823155058
  - # 14
    frequency:   17.5924662111
  - # 15
    frequency:   17.8731233257

- q-position: [    0.1717172,    0.0000000,    0.0000000 ]
  distance:    0.0585101
  band:
  - # 1
    frequency:    1.4985660033
  - # 2
    frequency:    2.2584833895
  - # 3
    frequency:    3.3430698632
  - # 4
    frequency:    4.6756270486
  - # 5
    frequency:    5.0972948847
  - # 6
    frequency:    5.5392934595
  - # 7
    frequency:    5.6801138975
  - # 8
    frequency:    5.9528690572
  - # 9
    frequency:    6.0995200989
  - # 10
    frequency:    7.0416694183
  - # 11
    frequency:   10.7271204499
  - # 12
    frequency:   11.0401104435
  - # 13
    frequency:   16.0789397816
  - # 14
    frequency:   17.5952397021
  - # 15
    frequency:   17.8778453702

- q-position: [    0.1767677,    0.0000000,    0.0000000 ]
  distance:    0.0602310
  band:
  - # 1
    frequency:    1.5624256938
  - # 2
    frequency:    2.3183767363
  - # 3
    frequency:    3.4363197344
  - # 4
    frequency:    4.6648507793
  - # 5
    frequency:    5.1179368161
  - # 6
    frequency:    5.5779089270
  - # 7
    frequency:    5.7318732627
  - # 8
    frequency:    5.9557079817
  - # 9
    frequency:    6.0846700339
  - # 10
    frequency:    7.0442237486
  - # 11
    frequency:   10.7056487472
  - # 12
    frequency:   10.9872185735
  - # 13
    frequency:   16.0750246982
  - # 14
    frequency:   17.5961711893
  - # 15
    frequency:   17.8793907469

- q-position: [    0.1818182,    0.0000000,    0.0000000 ]
  distance:    0.0619518
  band:
  - # 1
    frequency:    1.6266485030
  - # 2
    frequency:    2.3771397937
  - # 3
    frequency:    3.5274927632
  - # 4
    frequency:    4.6533537254
  - # 5
    frequency:    5.1387187295
  - # 6
    frequency:    5.6117929609
  - # 7
    frequency:    5.7800933318
  - # 8
    frequency:    5.9602082861
  - # 9
    frequency:    6.0691351049
  - # 10
    frequency:    7.0460136812
  - # 11
    frequency:   10.6839395500
  - # 12
    frequency:   10.9346525337
  - # 13
    frequency:   16.0705559763
  - # 14
    frequency:   17.5952975122
  - # 15
    frequency:   17.8777379583

- q-position: [    0.1868687,    0.0000000,    0.0000000 ]
  distance:    0.0636727
  band:
  - # 1
    frequency:    1.6911948163
  - # 2
    frequency:    2.4347333975
  - # 3
    frequency:    3.6163413068
  - # 4
    frequency:    4.6412542006
  - # 5
    frequency:    5.1596186518
  - # 6
    frequency:    5.6405705603
  - # 7
    frequency:    5.8242071357
  - # 8
    frequency:    5.9666782258
  - # 9
    frequency:    6.0535261333
  - # 10
    frequency:    7.0469543531
  - # 11
    frequency:   10.6620076378
  - # 12
    frequency:   10.8825239497
  - # 13
    frequency:   16.0655213438
  - # 14
    frequency:   17.5926727737
  - # 15
    frequency:   17.8728867751

- q-position: [    0.1919192,    0.0000000,    0.0000000 ]
  distance:    0.0653936
  band:
  - # 1
    frequency:    1.7560302994
  - # 2
    frequency:    2.4911215164
  - # 3
    frequency:    3.7026042191
  - # 4
    frequency:    4.6286738668
  - # 5
    frequency:    5.1806135371
  - # 6
    frequency:    5.6640044578
  - # 7
    frequency:    5.8630600861
  - # 8
    frequency:    5.9753108056
  - # 9
    frequency:    6.0390712326
  - # 10
    frequency:    7.0469699909
  - # 11
    frequency:   10.6398592977
  - # 12
    frequency:   10.8309472134
  - # 13
    frequency:   16.0599106416
  - # 14
    frequency:   17.5883678869
  - # 15
    frequency:   17.8648577902

- q-position: [    0.1969697,    0.0000000,    0.0000000 ]
  distance:    0.0671145
  band:
  - # 1
    frequency:    1.8211257038
  - # 2
    frequency:    2.5462712543
  - # 3
    frequency:    3.7860063082
  - # 4
    frequency:    4.6157380863
  - # 5
    frequency:    5.2016773368
  - # 6
    frequency:    5.6820848298
  - # 7
    frequency:    5.8940706438
  - # 8
    frequency:    5.9860926910
  - # 9
    frequency:    6.0284578747
  - # 10
    frequency:    7.0459946574
  - # 11
    frequency:   10.6174863762
  - # 12
    frequency:   10.7800448282
  - # 13
    frequency:   16.0537159249
  - # 14
    frequency:   17.5824699896
  - # 15
    frequency:   17.8536918142

- q-position: [    0.2020202,    0.0000000,    0.0000000 ]
  distance:    0.0688354
  band:
  - # 1
    frequency:    1.8864566102
  - # 2
    frequency:    2.6001528732
  - # 3
    frequency:    3.8662579994
  - # 4
    frequency:    4.6025758837
  - # 5
    frequency:    5.2227779604
  - # 6
    frequency:    5.6950759840
  - # 7
    frequency:    5.9122681680
  - # 8
    frequency:    5.9987563866
  - # 9
    frequency:    6.0267989102
  - # 10
    frequency:    7.0439728172
  - # 11
    frequency:   10.5948541669
  - # 12
    frequency:   10.7299589550
  - # 13
    frequency:   16.0469315619
  - # 14
    frequency:   17.5750817266
  - # 15
    frequency:   17.8394491127

- q-position: [    0.2070707,    0.0000000,    0.0000000 ]
  distance:    0.0705563
  band:
  - # 1
    frequency:    1.9520031112
  - # 2
    frequency:    2.6527398422
  - # 3
    frequency:    3.9430553746
  - # 4
    frequency:    4.5893196266
  - # 5
    frequency:    5.2438726279
  - # 6
    frequency:    5.7034831312
  - # 7
    frequency:    5.9139215280
  - # 8
    frequency:    6.0128124555
  - # 9
    frequency:    6.0380092549
  - # 10
    frequency:    7.0408597469
  - # 11
    frequency:   10.5718743602
  - # 12
    frequency:   10.6808779395
  - # 13
    frequency:   16.0395543293
  - # 14
    frequency:   17.5663204053
  - # 15
    frequency:   17.8222084911

- q-position: [    0.2121212,    0.0000000,    0.0000000 ]
  distance:    0.0722771
  band:
  - # 1
    frequency:    2.0177494371
  - # 2