nqpoint: 300    
npath: 3      
segment_nqpoint:
- 100
- 100
- 100
labels:
- [ 'G', 'M' ]
- [ 'M', 'K' ]
- [ 'K', 'G' ]
reciprocal_lattice:
- [   0.29508525,   0.17036755,   0.00000000 ] # a*
- [   0.00000000,   0.34073510,   0.00000000 ] # b*
- [   0.00000000,   0.00000000,   0.04333133 ] # c*
natom: 5      
lattice:
- [     3.388851136188363,     0.000000000000000,     0.000000000000000 ] # a
- [    -1.694425568094181,     2.934831173581156,     0.000000000000000 ] # b
- [     0.000000000000000,     0.000000000000000,    23.077990023414841 ] # c
points:
- symbol: C # 1
  coordinates: [  0.000000000000000,  0.000000000000000,  0.500000035246860 ]
  mass: 12.010700
- symbol: F # 2
  coordinates: [  0.333332985432215,  0.666666983183674,  0.610018030562079 ]
  mass: 18.998403
- symbol: F # 3
  coordinates: [  0.666666984744047,  0.333332985985145,  0.389981969437921 ]
  mass: 18.998403
- symbol: Zr # 4
  coordinates: [  0.333332985432215,  0.666666983183674,  0.447140289878192 ]
  mass: 91.224000
- symbol: Zr # 5
  coordinates: [  0.666666984744047,  0.333332985985145,  0.552859709595726 ]
  mass: 91.224000

phonon:
- q-position: [    0.0000000,    0.0000000,    0.0000000 ]
  distance:    0.0000000
  band:
  - # 1
    frequency:   -0.0000092728
  - # 2
    frequency:   -0.0000000790
  - # 3
    frequency:    0.0000036671
  - # 4
    frequency:    4.3621714062
  - # 5
    frequency:    4.3621714062
  - # 6
    frequency:    4.8249277465
  - # 7
    frequency:    4.8249277465
  - # 8
    frequency:    6.0433685090
  - # 9
    frequency:    6.0433685090
  - # 10
    frequency:    6.9972417289
  - # 11
    frequency:   11.1352400470
  - # 12
    frequency:   12.1011730787
  - # 13
    frequency:   16.1861345314
  - # 14
    frequency:   17.7421309586
  - # 15
    frequency:   17.7421309587

- q-position: [    0.0050505,    0.0000000,    0.0000000 ]
  distance:    0.0017209
  band:
  - # 1
    frequency:    0.0012387161
  - # 2
    frequency:    0.0511300795
  - # 3
    frequency:    0.1062319596
  - # 4
    frequency:    4.3633445711
  - # 5
    frequency:    4.3637899822
  - # 6
    frequency:    4.8245975455
  - # 7
    frequency:    4.8253658743
  - # 8
    frequency:    6.0433546869
  - # 9
    frequency:    6.0434933896
  - # 10
    frequency:    6.9972317555
  - # 11
    frequency:   11.1348664196
  - # 12
    frequency:   12.1001161635
  - # 13
    frequency:   16.1860080822
  - # 14
    frequency:   17.7416407230
  - # 15
    frequency:   17.7424491468

- q-position: [    0.0101010,    0.0000000,    0.0000000 ]
  distance:    0.0034418
  band:
  - # 1
    frequency:    0.0049543558
  - # 2
    frequency:    0.1023593787
  - # 3
    frequency:    0.2125002293
  - # 4
    frequency:    4.3668517094
  - # 5
    frequency:    4.3686342706
  - # 6
    frequency:    4.8236135116
  - # 7
    frequency:    4.8266802047
  - # 8
    frequency:    6.0433129227
  - # 9
    frequency:    6.0438640981
  - # 10
    frequency:    6.9972039413
  - # 11
    frequency:   11.1337453553
  - # 12
    frequency:   12.0969475456
  - # 13
    frequency:   16.1856288278
  - # 14
    frequency:   17.7401718554
  - # 15
    frequency:   17.7433998929

- q-position: [    0.0151515,    0.0000000,    0.0000000 ]
  distance:    0.0051627
  band:
  - # 1
    frequency:    0.0111453784
  - # 2
    frequency:    0.1537849153
  - # 3
    frequency:    0.3188397505
  - # 4
    frequency:    4.3726554957
  - # 5
    frequency:    4.3766700765
  - # 6
    frequency:    4.8219957195
  - # 7
    frequency:    4.8288706103
  - # 8
    frequency:    6.0432423358
  - # 9
    frequency:    6.0444689218
  - # 10
    frequency:    6.9971645397
  - # 11
    frequency:   11.1318763217
  - # 12
    frequency:   12.0916736010
  - # 13
    frequency:   16.1849970452
  - # 14
    frequency:   17.7377298698
  - # 15
    frequency:   17.7449717747

- q-position: [    0.0202020,    0.0000000,    0.0000000 ]
  distance:    0.0068835
  band:
  - # 1
    frequency:    0.0198091642
  - # 2
    frequency:    0.2054993929
  - # 3
    frequency:    0.4252827656
  - # 4
    frequency:    4.3806928123
  - # 5
    frequency:    4.3878408099
  - # 6
    frequency:    4.8197789069
  - # 7
    frequency:    4.8319369947
  - # 8
    frequency:    6.0431415023
  - # 9
    frequency:    6.0452886322
  - # 10
    frequency:    6.9971237573
  - # 11
    frequency:   11.1292584777
  - # 12
    frequency:   12.0843049320
  - # 13
    frequency:   16.1841131897
  - # 14
    frequency:   17.7343239464
  - # 15
    frequency:   17.7471458676

- q-position: [    0.0252525,    0.0000000,    0.0000000 ]
  distance:    0.0086044
  band:
  - # 1
    frequency:    0.0309419377
  - # 2
    frequency:    0.2575892618
  - # 3
    frequency:    0.5318575543
  - # 4
    frequency:    4.3908731736
  - # 5
    frequency:    4.4020680433
  - # 6
    frequency:    4.8170145865
  - # 7
    frequency:    4.8358794853
  - # 8
    frequency:    6.0430085195
  - # 9
    frequency:    6.0462969193
  - # 10
    frequency:    6.9970954339
  - # 11
    frequency:   11.1258907412
  - # 12
    frequency:   12.0748563306
  - # 13
    frequency:   16.1829778844
  - # 14
    frequency:   17.7299669150
  - # 15
    frequency:   17.7498959101

- q-position: [    0.0303030,    0.0000000,    0.0000000 ]
  distance:    0.0103253
  band:
  - # 1
    frequency:    0.0445386621
  - # 2
    frequency:    0.3101330229
  - # 3
    frequency:    0.6385872698
  - # 4
    frequency:    4.4030760663
  - # 5
    frequency:    4.4192522013
  - # 6
    frequency:    4.8137744252
  - # 7
    frequency:    4.8406987505
  - # 8
    frequency:    6.0428410933
  - # 9
    frequency:    6.0474609920
  - # 10
    frequency:    6.9970965993
  - # 11
    frequency:   11.1217718825
  - # 12
    frequency:   12.0633467289
  - # 13
    frequency:   16.1815919069
  - # 14
    frequency:   17.7246752332
  - # 15
    frequency:   17.7531885336

- q-position: [    0.0353535,    0.0000000,    0.0000000 ]
  distance:    0.0120462
  band:
  - # 1
    frequency:    0.0605929072
  - # 2
    frequency:    0.3631998273
  - # 3
    frequency:    0.7454888979
  - # 4
    frequency:    4.4171466678
  - # 5
    frequency:    4.4392732890
  - # 6
    frequency:    4.8101553922
  - # 7
    frequency:    4.8463964898
  - # 8
    frequency:    6.0426366451
  - # 9
    frequency:    6.0487423361
  - # 10
    frequency:    6.9971469137
  - # 11
    frequency:   11.1169006397
  - # 12
    frequency:   12.0497991359
  - # 13
    frequency:   16.1799561729
  - # 14
    frequency:   17.7184689575
  - # 15
    frequency:   17.7569835515

- q-position: [    0.0404040,    0.0000000,    0.0000000 ]
  distance:    0.0137671
  band:
  - # 1
    frequency:    0.0790966938
  - # 2
    frequency:    0.4168484074
  - # 3
    frequency:    0.8525723565
  - # 4
    frequency:    4.4328891442
  - # 5
    frequency:    4.4619915343
  - # 6
    frequency:    4.8062874431
  - # 7
    frequency:    4.8529761766
  - # 8
    frequency:    6.0423924372
  - # 9
    frequency:    6.0500976184
  - # 10
    frequency:    6.9972680015
  - # 11
    frequency:   11.1112758548
  - # 12
    frequency:   12.0342405617
  - # 13
    frequency:   16.1780717176
  - # 14
    frequency:   17.7113717067
  - # 15
    frequency:   17.7612343049

- q-position: [    0.0454545,    0.0000000,    0.0000000 ]
  distance:    0.0154880
  band:
  - # 1
    frequency:    0.1000403179
  - # 2
    frequency:    0.4711263501
  - # 3
    frequency:    0.9598397463
  - # 4
    frequency:    4.4500563842
  - # 5
    frequency:    4.4872477792
  - # 6
    frequency:    4.8023448427
  - # 7
    frequency:    4.8604441689
  - # 8
    frequency:    6.0421057101
  - # 9
    frequency:    6.0514797218
  - # 10
    frequency:    6.9974826892
  - # 11
    frequency:   11.1048966263
  - # 12
    frequency:   12.0167019311
  - # 13
    frequency:   16.1759396759
  - # 14
    frequency:   17.7034106193
  - # 15
    frequency:   17.7658880599

- q-position: [    0.0505051,    0.0000000,    0.0000000 ]
  distance:    0.0172088
  band:
  - # 1
    frequency:    0.1234121603
  - # 2
    frequency:    0.5260697087
  - # 3
    frequency:    1.0672847568
  - # 4
    frequency:    4.4683346999
  - # 5
    frequency:    4.5148633964
  - # 6
    frequency:    4.7985625568
  - # 7
    frequency:    4.8688113581
  - # 8
    frequency:    6.0417738312
  - # 9
    frequency:    6.0528388939
  - # 10
    frequency:    6.9978141647
  - # 11
    frequency:   11.0977624752
  - # 12
    frequency:   11.9972179860
  - # 13
    frequency:   16.1735612623
  - # 14
    frequency:   17.6946163017
  - # 15
    frequency:   17.7708864501

- q-position: [    0.0555556,    0.0000000,    0.0000000 ]
  distance:    0.0189297
  band:
  - # 1
    frequency:    0.1491984861
  - # 2
    frequency:    0.5817029318
  - # 3
    frequency:    1.1748922243
  - # 4
    frequency:    4.4873220347
  - # 5
    frequency:    4.5446394278
  - # 6
    frequency:    4.7952591398
  - # 7
    frequency:    4.8780956176
  - # 8
    frequency:    6.0413944488
  - # 9
    frequency:    6.0541239866
  - # 10
    frequency:    6.9982850775
  - # 11
    frequency:   11.0898735208
  - # 12
    frequency:   11.9758271787
  - # 13
    frequency:   16.1709377509
  - # 14
    frequency:   17.6850227693
  - # 15
    frequency:   17.7761659611

- q-position: [    0.0606061,    0.0000000,    0.0000000 ]
  distance:    0.0206506
  band:
  - # 1
    frequency:    0.1773832409
  - # 2
    frequency:    0.6380390738
  - # 3
    frequency:    1.2826378338
  - # 4
    frequency:    4.5064995545
  - # 5
    frequency:    4.5763545161
  - # 6
    frequency:    4.7928662056
  - # 7
    frequency:    4.8883254348
  - # 8
    frequency:    6.0409656503
  - # 9
    frequency:    6.0552837616
  - # 10
    frequency:    6.9989166048
  - # 11
    frequency:   11.0812306618
  - # 12
    frequency:   11.9525715570
  - # 13
    frequency:   16.1680704584
  - # 14
    frequency:   17.6746673782
  - # 15
    frequency:   17.7816584479

- q-position: [    0.0656566,    0.0000000,    0.0000000 ]
  distance:    0.0223715
  band:
  - # 1
    frequency:    0.2079478484
  - # 2
    frequency:    0.6950802470
  - # 3
    frequency:    1.3904879528
  - # 4
    frequency:    4.5252015539
  - # 5
    frequency:    4.6097610128
  - # 6
    frequency:    4.7919595263
  - # 7
    frequency:    4.8995453098
  - # 8
    frequency:    6.0404861192
  - # 9
    frequency:    6.0562682336
  - # 10
    frequency:    6.9997275105
  - # 11
    frequency:   11.0718357586
  - # 12
    frequency:   11.9274966409
  - # 13
    frequency:   16.1649607296
  - # 14
    frequency:   17.6635907481
  - # 15
    frequency:   17.7872916815

- q-position: [    0.0707071,    0.0000000,    0.0000000 ]
  distance:    0.0240924
  band:
  - # 1
    frequency:    0.2408710182
  - # 2
    frequency:    0.7528182674
  - # 3
    frequency:    1.4983995798
  - # 4
    frequency:    4.5426012895
  - # 5
    frequency:    4.6445783971
  - # 6
    frequency:    4.7932741212
  - # 7
    frequency:    4.9118237580
  - # 8
    frequency:    6.0399552906
  - # 9
    frequency:    6.0570300197
  - # 10
    frequency:    7.0007332305
  - # 11
    frequency:   11.0616918133
  - # 12
    frequency:   11.9006512930
  - # 13
    frequency:   16.1616099270
  - # 14
    frequency:   17.6518366750
  - # 15
    frequency:   17.7929899167

- q-position: [    0.0757576,    0.0000000,    0.0000000 ]
  distance:    0.0258133
  band:
  - # 1
    frequency:    0.2761285661
  - # 2
    frequency:    0.8112354463
  - # 3
    frequency:    1.6063203921
  - # 4
    frequency:    4.5577513283
  - # 5
    frequency:    4.6804828590
  - # 6
    frequency:    4.7976647356
  - # 7
    frequency:    4.9252650427
  - # 8
    frequency:    6.0393735025
  - # 9
    frequency:    6.0575256665
  - # 10
    frequency:    7.0019450153
  - # 11
    frequency:   11.0508031425
  - # 12
    frequency:   11.8720875828
  - # 13
    frequency:   16.1580194269
  - # 14
    frequency:   17.6394520335
  - # 15
    frequency:   17.7986744745

- q-position: [    0.0808081,    0.0000000,    0.0000000 ]
  distance:    0.0275341
  band:
  - # 1
    frequency:    0.3136932559
  - # 2
    frequency:    0.8703054848
  - # 3
    frequency:    1.7141888720
  - # 4
    frequency:    4.5697263946
  - # 5
    frequency:    4.7170918449
  - # 6
    frequency:    4.8059637124
  - # 7
    frequency:    4.9400258228
  - # 8
    frequency:    6.0387421403
  - # 9
    frequency:    6.0577169227
  - # 10
    frequency:    7.0033691662
  - # 11
    frequency:   11.0391755401
  - # 12
    frequency:   11.8418606453
  - # 13
    frequency:   16.1541906213
  - # 14
    frequency:   17.6264866681
  - # 15
    frequency:   17.8042643344

- q-position: [    0.0858586,    0.0000000,    0.0000000 ]
  distance:    0.0292550
  band:
  - # 1
    frequency:    0.3535346641
  - # 2
    frequency:    0.9299944270
  - # 3
    frequency:    1.8219344953
  - # 4
    frequency:    4.5778628847
  - # 5
    frequency:    4.7539433299
  - # 6
    frequency:    4.8187420828
  - # 7
    frequency:    4.9563369432
  - # 8
    frequency:    6.0380637770
  - # 9
    frequency:    6.0575719342
  - # 10
    frequency:    7.0050063942
  - # 11
    frequency:   11.0268164253
  - # 12
    frequency:   11.8100285343
  - # 13
    frequency:   16.1501249269
  - # 14
    frequency:   17.6129932723
  - # 15
    frequency:   17.8096767285

- q-position: [    0.0909091,    0.0000000,    0.0000000 ]
  distance:    0.0309759
  band:
  - # 1
    frequency:    0.3956190726
  - # 2
    frequency:    0.9902616389
  - # 3
    frequency:    1.9294779629
  - # 4
    frequency:    4.5819659828
  - # 5
    frequency:    4.7904736869
  - # 6
    frequency:    4.8361029419
  - # 7
    frequency:    4.9745264903
  - # 8
    frequency:    6.0373423057
  - # 9
    frequency:    6.0570663396
  - # 10
    frequency:    7.0068513320
  - # 11
    frequency:   11.0137349736
  - # 12
    frequency:   11.7766520713
  - # 13
    frequency:   16.1458238029
  - # 14
    frequency:   17.5990272556
  - # 15
    frequency:   17.8148277327

- q-position: [    0.0959596,    0.0000000,    0.0000000 ]
  distance:    0.0326968
  band:
  - # 1
    frequency:    0.4399093914
  - # 2
    frequency:    1.0510607815
  - # 3
    frequency:    2.0367314614
  - # 4
    frequency:    4.5823195003
  - # 5
    frequency:    4.8260091159
  - # 6
    frequency:    4.8576719872
  - # 7
    frequency:    4.9950291454
  - # 8
    frequency:    6.0365830677
  - # 9
    frequency:    6.0561842575
  - # 10
    frequency:    7.0088922186
  - # 11
    frequency:   10.9999422272
  - # 12
    frequency:   11.7417946893
  - # 13
    frequency:   16.1412887767
  - # 14
    frequency:   17.5846465971
  - # 15
    frequency:   17.8196328500

- q-position: [    0.1010101,    0.0000000,    0.0000000 ]
  distance:    0.0344177
  band:
  - # 1
    frequency:    0.4863651123
  - # 2
    frequency:    1.1123407560
  - # 3
    frequency:    2.1435989369
  - # 4
    frequency:    4.5795011037
  - # 5
    frequency:    4.8598049009
  - # 6
    frequency:    4.8827825621
  - # 7
    frequency:    5.0183475646
  - # 8
    frequency:    6.0357929762
  - # 9
    frequency:    6.0549191628
  - # 10
    frequency:    7.0111107715
  - # 11
    frequency:   10.9854511835
  - # 12
    frequency:   11.7055222732
  - # 13
    frequency:   16.1365214770
  - # 14
    frequency:   17.5699116852
  - # 15
    frequency:   17.8240075791

- q-position: [    0.1060606,    0.0000000,    0.0000000 ]
  distance:    0.0361386
  band:
  - # 1
    frequency:    0.5349422949
  - # 2
    frequency:    1.1740466019
  - # 3
    frequency:    2.2499763710
  - # 4
    frequency:    4.5741628249
  - # 5
    frequency:    4.8911745096
  - # 6
    frequency:    4.9106953147
  - # 7
    frequency:    5.0449237676
  - # 8
    frequency:    6.0349806359
  - # 9
    frequency:    6.0532746640
  - # 10
    frequency:    7.0134822509
  - # 11
    frequency:   10.9702768574
  - # 12
    frequency:   11.6679029941
  - # 13
    frequency:   16.1315236764
  - # 14
    frequency:   17.5548851428
  - # 15
    frequency:   17.8278679664

- q-position: [    0.1111111,    0.0000000,    0.0000000 ]
  distance:    0.0378595
  band:
  - # 1
    frequency:    0.5855935824
  - # 2
    frequency:    1.2361203378
  - # 3
    frequency:    2.3557520472
  - # 4
    frequency:    4.5668950829
  - # 5
    frequency:    4.9196932340
  - # 6
    frequency:    4.9407342543
  - # 7
    frequency:    5.0749358304
  - # 8
    frequency:    6.0341564630
  - # 9
    frequency:    6.0512652041
  - # 10
    frequency:    7.0159757119
  - # 11
    frequency:   10.9544363191
  - # 12
    frequency:   11.6290071413
  - # 13
    frequency:   16.1262973389
  - # 14
    frequency:   17.5396316377
  - # 15
    frequency:   17.8311311348

- q-position: [    0.1161616,    0.0000000,    0.0000000 ]
  distance:    0.0395803
  band:
  - # 1
    frequency:    0.6382682476
  - # 2
    frequency:    1.2985017348
  - # 3
    frequency:    2.4608067999
  - # 4
    frequency:    4.5581803887
  - # 5
    frequency:    4.9453419381
  - # 6
    frequency:    4.9723330407
  - # 7
    frequency:    5.1081543111
  - # 8
    frequency:    6.0333328029
  - # 9
    frequency:    6.0489167178
  - # 10
    frequency:    7.0185544310
  - # 11
    frequency:   10.9379487029
  - # 12
    frequency:   11.5889069489
  - # 13
    frequency:   16.1208446755
  - # 14
    frequency:   17.5242176778
  - # 15
    frequency:   17.8337157883

- q-position: [    0.1212121,    0.0000000,    0.0000000 ]
  distance:    0.0413012
  band:
  - # 1
    frequency:    0.6929122664
  - # 2
    frequency:    1.3611290206
  - # 3
    frequency:    2.5650142371
  - # 4
    frequency:    4.5483965320
  - # 5
    frequency:    4.9684539766
  - # 6
    frequency:    5.0050317198
  - # 7
    frequency:    5.1439953356
  - # 8
    frequency:    6.0325240490
  - # 9
    frequency:    6.0462672884
  - # 10
    frequency:    7.0211764875
  - # 11
    frequency:   10.9208351884
  - # 12
    frequency:   11.5476764184
  - # 13
    frequency:   16.1151682021
  - # 14
    frequency:   17.5087113897
  - # 15
    frequency:   17.8355426872

- q-position: [    0.1262626,    0.0000000,    0.0000000 ]
  distance:    0.0430221
  band:
  - # 1
    frequency:    0.7494684152
  - # 2
    frequency:    1.4239395112
  - # 3
    frequency:    2.6682409309
  - # 4
    frequency:    4.5378365197
  - # 5
    frequency:    4.9895184035
  - # 6
    frequency:    5.0384566477
  - # 7
    frequency:    5.1817172184
  - # 8
    frequency:    6.0317467604
  - # 9
    frequency:    6.0433678499
  - # 10
    frequency:    7.0237954725
  - # 11
    frequency:   10.9031189531
  - # 12
    frequency:   11.5053911387
  - # 13
    frequency:   16.1092708020
  - # 14
    frequency:   17.4931822824
  - # 15
    frequency:   17.8365350932

- q-position: [    0.1313131,    0.0000000,    0.0000000 ]
  distance:    0.0447430
  band:
  - # 1
    frequency:    0.8078763904
  - # 2
    frequency:    1.4868701736
  - # 3
    frequency:    2.7703465695
  - # 4
    frequency:    4.5267296514
  - # 5
    frequency:    5.0090036961
  - # 6
    frequency:    5.0722992303
  - # 7
    frequency:    5.2205963892
  - # 8
    frequency:    6.0310197754
  - # 9
    frequency:    6.0402829808
  - # 10
    frequency:    7.0263612976
  - # 11
    frequency:   10.8848250954
  - # 12
    frequency:   11.4621281015
  - # 13
    frequency:   16.1031557868
  - # 14
    frequency:   17.4777009943
  - # 15
    frequency:   17.8366191823

- q-position: [    0.1363636,    0.0000000,    0.0000000 ]
  distance:    0.0464639
  band:
  - # 1
    frequency:    0.8680729461
  - # 2
    frequency:    1.5498581200
  - # 3
    frequency:    2.8711840646
  - # 4
    frequency:    4.5152586957
  - # 5
    frequency:    5.0272775169
  - # 6
    frequency:    5.1062985320
  - # 7
    frequency:    5.2600071156
  - # 8
    frequency:    6.0303643161
  - # 9
    frequency:    6.0370918212
  - # 10
    frequency:    7.0288210718
  - # 11
    frequency:   10.8659805294
  - # 12
    frequency:   11.4179655162
  - # 13
    frequency:   16.0968269574
  - # 14
    frequency:   17.4623390246
  - # 15
    frequency:   17.8357244228

- q-position: [    0.1414141,    0.0000000,    0.0000000 ]
  distance:    0.0481848
  band:
  - # 1
    frequency:    0.9299920461
  - # 2
    frequency:    1.6128410402
  - # 3
    frequency:    2.9705996092
  - # 4
    frequency:    4.5035725776
  - # 5
    frequency:    5.0445977841
  - # 6
    frequency:    5.1402283614
  - # 7
    frequency:    5.2994297805
  - # 8
    frequency:    6.0298040739
  - # 9
    frequency:    6.0338891231
  - # 10
    frequency:    7.0311200183
  - # 11
    frequency:   10.8466138491
  - # 12
    frequency:   11.3729826229
  - # 13
    frequency:   16.0902886592
  - # 14
    frequency:   17.4471684498
  - # 15
    frequency:   17.8337839192

- q-position: [    0.1464646,    0.0000000,    0.0000000 ]
  distance:    0.0499056
  band:
  - # 1
    frequency:    0.9935650275
  - # 2
    frequency:    1.6757575744
  - # 3
    frequency:    3.0684326784
  - # 4
    frequency:    4.4917953553
  - # 5
    frequency:    5.0611323635
  - # 6
    frequency:    5.1738880788
  - # 7
    frequency:    5.3384304912
  - # 8
    frequency:    6.0293652607
  - # 9
    frequency:    6.0307863862
  - # 10
    frequency:    7.0332024041
  - # 11
    frequency:   10.8267551634
  - # 12
    frequency:   11.3272595069
  - # 13
    frequency:   16.0835458311
  - # 14
    frequency:   17.4322616241
  - # 15
    frequency:   17.8307347206

- q-position: [    0.1515152,    0.0000000,    0.0000000 ]
  distance:    0.0516265
  band:
  - # 1
    frequency:    1.0587207715
  - # 2
    frequency:    1.7385476325
  - # 3
    frequency:    3.1645159697
  - # 4
    frequency:    4.4800324516
  - # 5
    frequency:    5.0769831646
  - # 6
    frequency:    5.2070961909
  - # 7
    frequency:    5.3766363946
  - # 8
    frequency:    6.0279129535
  - # 9
    frequency:    6.0290766056
  - # 10
    frequency:    7.0350124579
  - # 11
    frequency:   10.8064359007
  - # 12
    frequency:   11.2808769181
  - # 13
    frequency:   16.0766040445
  - # 14
    frequency:   17.4176908676
  - # 15
    frequency:   17.8265180931

- q-position: [    0.1565657,    0.0000000,    0.0000000 ]
  distance:    0.0533474
  band:
  - # 1
    frequency:    1.1253858780
  - # 2
    frequency:    1.8011526656
  - # 3
    frequency:    3.2586752744
  - # 4
    frequency:    4.4683749455
  - # 5
    frequency:    5.0922063009
  - # 6
    frequency:    5.2396859617
  - # 7
    frequency:    5.4137153411
  - # 8
    frequency:    6.0254167940
  - # 9
    frequency:    6.0289692667
  - # 10
    frequency:    7.0364952597
  - # 11
    frequency:   10.7856885794
  - # 12
    frequency:   11.2339160986
  - # 13
    frequency:   16.0694695309
  - # 14
    frequency:   17.4035281406
  - # 15
    frequency:   17.8210797578

- q-position: [    0.1616162,    0.0000000,    0.0000000 ]
  distance:    0.0550683
  band:
  - # 1
    frequency:    1.1934848406
  - # 2
    frequency:    1.8635158927
  - # 3
    frequency:    3.3507292777
  - # 4
    frequency:    4.4569025173
  - # 5
    frequency:    5.1068271113
  - # 6
    frequency:    5.2715024926
  - # 7
    frequency:    5.4493615999
  - # 8
    frequency:    6.0234644982
  - # 9
    frequency:    6.0290766211
  - # 10
    frequency:    7.0375975838
  - # 11
    frequency:   10.7645465428
  - # 12
    frequency:   11.1864586251
  - # 13
    frequency:   16.0621491941
  - # 14
    frequency:   17.3898447065
  - # 15
    frequency:   17.8143700929

- q-position: [    0.1666667,    0.0000000,    0.0000000 ]
  distance:    0.0567892
  band:
  - # 1
    frequency:    1.2629402185
  - # 2
    frequency:    1.9255824887
  - # 3
    frequency:    3.4404892836
  - # 4
    frequency:    4.4456854657
  - # 5
    frequency:    5.1208510156
  - # 6
    frequency:    5.3024009033
  - # 7
    frequency:    5.4832874221
  - # 8
    frequency:    6.0222397280
  - # 9
    frequency:    6.0294338861
  - # 10
    frequency:    7.0382686879
  - # 11
    frequency:   10.7430436512
  - # 12
    frequency:   11.1385862758
  - # 13
    frequency:   16.0546506068
  - # 14
    frequency:   17.3767107863
  - # 15
    frequency:   17.8063443034

- q-position: [    0.1717172,    0.0000000,    0.0000000 ]
  distance:    0.0585101
  band:
  - # 1
    frequency:    1.3336728012
  - # 2
    frequency:    1.9872997364
  - # 3
    frequency:    3.5277588686
  - # 4
    frequency:    4.4347860867
  - # 5
    frequency:    5.1342714696
  - # 6
    frequency:    5.3322453868
  - # 7
    frequency:    5.5152202663
  - # 8
    frequency:    6.0219390506
  - # 9
    frequency:    6.0300775166
  - # 10
    frequency:    7.0384610369
  - # 11
    frequency:   10.7212139201
  - # 12
    frequency:   11.0903809357
  - # 13
    frequency:   16.0469819875
  - # 14
    frequency:   17.3641952046
  - # 15
    frequency:   17.7969625566

- q-position: [    0.1767677,    0.0000000,    0.0000000 ]
  distance:    0.0602310
  band:
  - # 1
    frequency:    1.4056017630
  - # 2
    frequency:    2.0486171472
  - # 3
    frequency:    3.6123334756
  - # 4
    frequency:    4.4242596127
  - # 5
    frequency:    5.1470760577
  - # 6
    frequency:    5.3609089982
  - # 7
    frequency:    5.5449059403
  - # 8
    frequency:    6.0227638584
  - # 9
    frequency:    6.0310443219
  - # 10
    frequency:    7.0381309594
  - # 11
    frequency:   10.6990910883
  - # 12
    frequency:   11.0419245598
  - # 13
    frequency:   16.0391521586
  - # 14
    frequency:   17.3523650304
  - # 15
    frequency:   17.7861900876

- q-position: [    0.1818182,    0.0000000,    0.0000000 ]
  distance:    0.0619518
  band:
  - # 1
    frequency:    1.4786448040
  - # 2
    frequency:    2.1094865522
  - # 3
    frequency:    3.6939999735
  - # 4
    frequency:    4.4141548526
  - # 5
    frequency:    5.1592514566
  - # 6
    frequency:    5.3882740989
  - # 7
    frequency:    5.5721180728
  - # 8
    frequency:    6.0249072018
  - # 9
    frequency:    6.0323702476
  - # 10
    frequency:    7.0372392304
  - # 11
    frequency:   10.6767080858
  - # 12
    frequency:   10.9932992298
  - # 13
    frequency:   16.0311704829
  - # 14
    frequency:   17.3412852164
  - # 15
    frequency:   17.7739972737

- q-position: [    0.1868687,    0.0000000,    0.0000000 ]
  distance:    0.0636727
  band:
  - # 1
    frequency:    1.5527182723
  - # 2
    frequency:    2.1698621662
  - # 3
    frequency:    3.7725362341
  - # 4
    frequency:    4.4045146310
  - # 5
    frequency:    5.1707877581
  - # 6
    frequency:    5.4142333963
  - # 7
    frequency:    5.5966737042
  - # 8
    frequency:    6.0285352109
  - # 9
    frequency:    6.0340887851
  - # 10
    frequency:    7.0357515809
  - # 11
    frequency:   10.6540963513
  - # 12
    frequency:   10.9445873569
  - # 13
    frequency:   16.0230467790
  - # 14
    frequency:   17.3310182373
  - # 15
    frequency:   17.7603596820

- q-position: [    0.1919192,    0.0000000,    0.0000000 ]
  distance:    0.0653936
  band:
  - # 1
    frequency:    1.6277372652
  - # 2
    frequency:    2.2297006266
  - # 3
    frequency:    3.8477108110
  - # 4
    frequency:    4.3953760973
  - # 5
    frequency:    5.1816824372
  - # 6
    frequency:    5.4386915184
  - # 7
    frequency:    5.6184531002
  - # 8
    frequency:    6.0337646294
  - # 9
    frequency:    6.0362290037
  - # 10
    frequency:    7.0336391300
  - # 11
    frequency:   10.6312849141
  - # 12
    frequency:   10.8958721218
  - # 13
    frequency:   16.0147912147
  - # 14
    frequency:   17.3216237321
  - # 15
    frequency:   17.7452580899

- q-position: [    0.1969697,    0.0000000,    0.0000000 ]
  distance:    0.0671145
  band:
  - # 1
    frequency:    1.7036157038
  - # 2
    frequency:    2.2889610081
  - # 3
    frequency:    3.9192828577
  - # 4
    frequency:    4.3867709591
  - # 5
    frequency:    5.1919440788
  - # 6
    frequency:    5.4615670245
  - # 7
    frequency:    5.6374194456
  - # 8
    frequency:    6.0388132513
  - # 9
    frequency:    6.0406405513
  - # 10
    frequency:    7.0308787395
  - # 11
    frequency:   10.6082990837
  - # 12
    frequency:   10.8472383123
  - # 13
    frequency:   16.0064141809
  - # 14
    frequency:   17.3131581530
  - # 15
    frequency:   17.7286784819

- q-position: [    0.2020202,    0.0000000,    0.0000000 ]
  distance:    0.0688354
  band:
  - # 1
    frequency:    1.7802663746
  - # 2
    frequency:    2.3476048139
  - # 3
    frequency:    3.9870024922
  - # 4
    frequency:    4.3787256784
  - # 5
    frequency:    5.2015958158
  - # 6
    frequency:    5.4827947020
  - # 7
    frequency:    5.6536321239
  - # 8
    frequency:    6.0418546397
  - # 9
    frequency:    6.0491204959
  - # 10
    frequency:    7.0274532871
  - # 11
    frequency:   10.5851584595
  - # 12
    frequency:   10.7987738523
  - # 13
    frequency:   15.9979261453
  - # 14
    frequency:   17.3056744239
  - # 15
    frequency:   17.7106120242

- q-position: [    0.2070707,    0.0000000,    0.0000000 ]
  distance:    0.0705563
  band:
  - # 1
    frequency:    1.8576009351
  - # 2
    frequency:    2.4055959424
  - # 3
    frequency:    4.0506119008
  - # 4
    frequency:    4.3712616626
  - # 5
    frequency:    5.2106782610
  - # 6
    frequency:    5.5023279245
  - # 7
    frequency:    5.6672476517
  - # 8
    frequency:    6.0453545074
  - # 9
    frequency:    6.0590706752
  - # 10
    frequency:    7.0233518574
  - # 11
    frequency:   10.5618737009
  - # 12
    frequency:   10.7505725857
  - # 13
    frequency:   15.9893374891
  - # 14
    frequency:   17.2992216123
  - # 15
    frequency:   17.6910550195

- q-position: [    0.2121212,    0.0000000,    0.0000000 ]
  distance:    0.0722771
  band:
  - # 1
    frequency:    1.9355298714
  - # 2