nqpoint: 300    
npath: 3      
segment_nqpoint:
- 100
- 100
- 100
labels:
- [ 'G', 'M' ]
- [ 'M', 'K' ]
- [ 'K', 'G' ]
reciprocal_lattice:
- [   0.30486115,   0.17601167,   0.00000000 ] # a*
- [   0.00000000,   0.35202334,   0.00000000 ] # b*
- [   0.00000000,   0.00000000,   0.03850423 ] # c*
natom: 7      
lattice:
- [     3.280181795116930,     0.000000000000000,     0.000000000000000 ] # a
- [    -1.640090897558465,     2.840720763607603,     0.000000000000000 ] # b
- [     0.000000000000000,     0.000000000000000,    25.971171455607312 ] # c
points:
- symbol: Br # 1
  coordinates: [  0.666666984744047,  0.333332985985145,  0.346538084174746 ]
  mass: 79.904000
- symbol: C # 2
  coordinates: [  0.333332985432215,  0.666666983183674,  0.593698173015112 ]
  mass: 12.010700
- symbol: N # 3
  coordinates: [  0.000000000000000,  0.000000000000000,  0.456472742163063 ]
  mass: 14.006700
- symbol: N # 4
  coordinates: [  0.333332985432215,  0.666666983183674,  0.545512596509565 ]
  mass: 14.006700
- symbol: S # 5
  coordinates: [  0.333332985432215,  0.666666983183674,  0.653461915825254 ]
  mass: 32.065000
- symbol: Ti # 6
  coordinates: [  0.333332985432215,  0.666666983183674,  0.417872192683578 ]
  mass: 47.867000
- symbol: Ti # 7
  coordinates: [  0.666666984744047,  0.333332985985145,  0.496429109316298 ]
  mass: 47.867000

phonon:
- q-position: [    0.0000000,    0.0000000,    0.0000000 ]
  distance:    0.0000000
  band:
  - # 1
    frequency:   -0.0000116176
  - # 2
    frequency:   -0.0000000540
  - # 3
    frequency:    0.0000147368
  - # 4
    frequency:    0.8957645833
  - # 5
    frequency:    0.8957645834
  - # 6
    frequency:    3.2853809558
  - # 7
    frequency:    3.2853809559
  - # 8
    frequency:    4.7178255067
  - # 9
    frequency:    6.3459426915
  - # 10
    frequency:    6.3459426915
  - # 11
    frequency:    7.8756294852
  - # 12
    frequency:    7.8756294852
  - # 13
    frequency:    7.8996992626
  - # 14
    frequency:   11.3661982459
  - # 15
    frequency:   14.0461386174
  - # 16
    frequency:   14.0461386174
  - # 17
    frequency:   14.8117026108
  - # 18
    frequency:   16.0951377837
  - # 19
    frequency:   16.0951377837
  - # 20
    frequency:   27.3204738788
  - # 21
    frequency:   58.0062171851

- q-position: [    0.0050505,    0.0000000,    0.0000000 ]
  distance:    0.0017779
  band:
  - # 1
    frequency:    0.0030272992
  - # 2
    frequency:    0.0749376466
  - # 3
    frequency:    0.1242769245
  - # 4
    frequency:    0.8974558521
  - # 5
    frequency:    0.9019250807
  - # 6
    frequency:    3.2860096819
  - # 7
    frequency:    3.2871734509
  - # 8
    frequency:    4.7173664797
  - # 9
    frequency:    6.3457248394
  - # 10
    frequency:    6.3466118796
  - # 11
    frequency:    7.8732725535
  - # 12
    frequency:    7.8753100201
  - # 13
    frequency:    7.9021765961
  - # 14
    frequency:   11.3650666662
  - # 15
    frequency:   14.0461799687
  - # 16
    frequency:   14.0464393963
  - # 17
    frequency:   14.8114802600
  - # 18
    frequency:   16.0950759747
  - # 19
    frequency:   16.0952261625
  - # 20
    frequency:   27.3203699028
  - # 21
    frequency:   58.0051431228

- q-position: [    0.0101010,    0.0000000,    0.0000000 ]
  distance:    0.0035558
  band:
  - # 1
    frequency:    0.0119416706
  - # 2
    frequency:    0.1497664603
  - # 3
    frequency:    0.2483713130
  - # 4
    frequency:    0.9025147584
  - # 5
    frequency:    0.9201297268
  - # 6
    frequency:    3.2878945813
  - # 7
    frequency:    3.2925365664
  - # 8
    frequency:    4.7159961502
  - # 9
    frequency:    6.3450718703
  - # 10
    frequency:    6.3486140958
  - # 11
    frequency:    7.8678195662
  - # 12
    frequency:    7.8743523299
  - # 13
    frequency:    7.9079901822
  - # 14
    frequency:   11.3616747376
  - # 15
    frequency:   14.0463040797
  - # 16
    frequency:   14.0473412514
  - # 17
    frequency:   14.8108130586
  - # 18
    frequency:   16.0948910124
  - # 19
    frequency:   16.0954907561
  - # 20
    frequency:   27.3200580991
  - # 21
    frequency:   58.0019228278

- q-position: [    0.0151515,    0.0000000,    0.0000000 ]
  distance:    0.0053337
  band:
  - # 1
    frequency:    0.0262911032
  - # 2
    frequency:    0.2243756020
  - # 3
    frequency:    0.3720948838
  - # 4
    frequency:    0.9108979447
  - # 5
    frequency:    0.9496165251
  - # 6
    frequency:    3.2910318209
  - # 7
    frequency:    3.3014275210
  - # 8
    frequency:    4.7137346942
  - # 9
    frequency:    6.3439855480
  - # 10
    frequency:    6.3519334269
  - # 11
    frequency:    7.8610761308
  - # 12
    frequency:    7.8727585273
  - # 13
    frequency:    7.9153325905
  - # 14
    frequency:   11.3560308864
  - # 15
    frequency:   14.0465111210
  - # 16
    frequency:   14.0488427369
  - # 17
    frequency:   14.8097005787
  - # 18
    frequency:   16.0945842755
  - # 19
    frequency:   16.0959299373
  - # 20
    frequency:   27.3195388396
  - # 21
    frequency:   57.9965619718

- q-position: [    0.0202020,    0.0000000,    0.0000000 ]
  distance:    0.0071116
  band:
  - # 1
    frequency:    0.0454649827
  - # 2
    frequency:    0.2986500089
  - # 3
    frequency:    0.4952466821
  - # 4
    frequency:    0.9225375357
  - # 5
    frequency:    0.9893086633
  - # 6
    frequency:    3.2954150255
  - # 7
    frequency:    3.3137760763
  - # 8
    frequency:    4.7106154871
  - # 9
    frequency:    6.3424688154
  - # 10
    frequency:    6.3565437753
  - # 11
    frequency:    7.8537124789
  - # 12
    frequency:    7.8705321283
  - # 13
    frequency:    7.9235305442
  - # 14
    frequency:   11.3481491393
  - # 15
    frequency:   14.0468013738
  - # 16
    frequency:   14.0509414376
  - # 17
    frequency:   14.8081421743
  - # 18
    frequency:   16.0941580123
  - # 19
    frequency:   16.0965409949
  - # 20
    frequency:   27.3188127443
  - # 21
    frequency:   57.9890699917

- q-position: [    0.0252525,    0.0000000,    0.0000000 ]
  distance:    0.0088895
  band:
  - # 1
    frequency:    0.0688265521
  - # 2
    frequency:    0.3724677235
  - # 3
    frequency:    0.6176035091
  - # 4
    frequency:    0.9373474328
  - # 5
    frequency:    1.0380117104
  - # 6
    frequency:    3.3010352966
  - # 7
    frequency:    3.3294860277
  - # 8
    frequency:    4.7066847602
  - # 9
    frequency:    6.3405258003
  - # 10
    frequency:    6.3624094684
  - # 11
    frequency:    7.8459305549
  - # 12
    frequency:    7.8676780428
  - # 13
    frequency:    7.9323778212
  - # 14
    frequency:   11.3380490974
  - # 15
    frequency:   14.0471752250
  - # 16
    frequency:   14.0536339609
  - # 17
    frequency:   14.8061370790
  - # 18
    frequency:   16.0936152674
  - # 19
    frequency:   16.0973201359
  - # 20
    frequency:   27.3178806812
  - # 21
    frequency:   57.9794600653

- q-position: [    0.0303030,    0.0000000,    0.0000000 ]
  distance:    0.0106674
  band:
  - # 1
    frequency:    0.0958045938
  - # 2
    frequency:    0.4456964934
  - # 3
    frequency:    0.7389056076
  - # 4
    frequency:    0.9552316516
  - # 5
    frequency:    1.0945784722
  - # 6
    frequency:    3.3078812383
  - # 7
    frequency:    3.3484370980
  - # 8
    frequency:    4.7020011889
  - # 9
    frequency:    6.3381618223
  - # 10
    frequency:    6.3694860578
  - # 11
    frequency:    7.8377819405
  - # 12
    frequency:    7.8642025636
  - # 13
    frequency:    7.9418173219
  - # 14
    frequency:   11.3257559012
  - # 15
    frequency:   14.0476331609
  - # 16
    frequency:   14.0569159238
  - # 17
    frequency:   14.8036845412
  - # 18
    frequency:   16.0929597818
  - # 19
    frequency:   16.0982624880
  - # 20
    frequency:   27.3167437660
  - # 21
    frequency:   57.9677490780

- q-position: [    0.0353535,    0.0000000,    0.0000000 ]
  distance:    0.0124453
  band:
  - # 1
    frequency:    0.1259331075
  - # 2
    frequency:    0.5181893114
  - # 3
    frequency:    0.8588346566
  - # 4
    frequency:    0.9760944095
  - # 5
    frequency:    1.1580229864
  - # 6
    frequency:    3.3159389911
  - # 7
    frequency:    3.3704870630
  - # 8
    frequency:    4.6966354716
  - # 9
    frequency:    6.3353834022
  - # 10
    frequency:    6.3777212606
  - # 11
    frequency:    7.8292677294
  - # 12
    frequency:    7.8601133501
  - # 13
    frequency:    7.9518411902
  - # 14
    frequency:   11.3113001854
  - # 15
    frequency:   14.0481757589
  - # 16
    frequency:   14.0607819354
  - # 17
    frequency:   14.8007839941
  - # 18
    frequency:   16.0921958695
  - # 19
    frequency:   16.0993621031
  - # 20
    frequency:   27.3154033624
  - # 21
    frequency:   57.9539575801

- q-position: [    0.0404040,    0.0000000,    0.0000000 ]
  distance:    0.0142232
  band:
  - # 1
    frequency:    0.1588526736
  - # 2
    frequency:    0.5897785374
  - # 3
    frequency:    0.9769808197
  - # 4
    frequency:    0.9998517540
  - # 5
    frequency:    1.2275947281
  - # 6
    frequency:    3.3251922705
  - # 7
    frequency:    3.3954739230
  - # 8
    frequency:    4.6906699750
  - # 9
    frequency:    6.3321982718
  - # 10
    frequency:    6.3870559915
  - # 11
    frequency:    7.8203727875
  - # 12
    frequency:    7.8554194094
  - # 13
    frequency:    7.9624565588
  - # 14
    frequency:   11.2947180258
  - # 15
    frequency:   14.0488036780
  - # 16
    frequency:   14.0652255721
  - # 17
    frequency:   14.7974352564
  - # 18
    frequency:   16.0913282739
  - # 19
    frequency:   16.1006119620
  - # 20
    frequency:   27.3138610815
  - # 21
    frequency:   57.9381097343

- q-position: [    0.0454545,    0.0000000,    0.0000000 ]
  distance:    0.0160011
  band:
  - # 1
    frequency:    0.1942925601
  - # 2
    frequency:    0.6602683378
  - # 3
    frequency:    1.0264445414
  - # 4
    frequency:    1.0927993749
  - # 5
    frequency:    1.3028300847
  - # 6
    frequency:    3.3356224124
  - # 7
    frequency:    3.4232179324
  - # 8
    frequency:    4.6841985270
  - # 9
    frequency:    6.3286153850
  - # 10
    frequency:    6.3974254304
  - # 11
    frequency:    7.8110791504
  - # 12
    frequency:    7.8501310735
  - # 13
    frequency:    7.9736721736
  - # 14
    frequency:   11.2760508776
  - # 15
    frequency:   14.0495176472
  - # 16
    frequency:   14.0702393458
  - # 17
    frequency:   14.7936387615
  - # 18
    frequency:   16.0903620070
  - # 19
    frequency:   16.1020039798
  - # 20
    frequency:   27.3121187819
  - # 21
    frequency:   57.9202332546

- q-position: [    0.0505051,    0.0000000,    0.0000000 ]
  distance:    0.0177790
  band:
  - # 1
    frequency:    0.2320476345
  - # 2
    frequency:    0.7294256120
  - # 3
    frequency:    1.0558522878
  - # 4
    frequency:    1.2055764354
  - # 5
    frequency:    1.3835771721
  - # 6
    frequency:    3.3472084237
  - # 7
    frequency:    3.4535233066
  - # 8
    frequency:    4.6773264465
  - # 9
    frequency:    6.3246449296
  - # 10
    frequency:    6.4087600757
  - # 11
    frequency:    7.8013718034
  - # 12
    frequency:    7.8442599729
  - # 13
    frequency:    7.9854926570
  - # 14
    frequency:   11.2553455064
  - # 15
    frequency:   14.0503184532
  - # 16
    frequency:   14.0758146606
  - # 17
    frequency:   14.7893958118
  - # 18
    frequency:   16.0893021771
  - # 19
    frequency:   16.1035290127
  - # 20
    frequency:   27.3101785691
  - # 21
    frequency:   57.9003593358

- q-position: [    0.0555556,    0.0000000,    0.0000000 ]
  distance:    0.0195569
  band:
  - # 1
    frequency:    0.2719574623
  - # 2
    frequency:    0.7969708468
  - # 3
    frequency:    1.0881062822
  - # 4
    frequency:    1.3144764231
  - # 5
    frequency:    1.4699316005
  - # 6
    frequency:    3.3599270379
  - # 7
    frequency:    3.4861794441
  - # 8
    frequency:    4.6701709035
  - # 9
    frequency:    6.3202983385
  - # 10
    frequency:    6.4209867380
  - # 11
    frequency:    7.7912413024
  - # 12
    frequency:    7.8378190058
  - # 13
    frequency:    7.9979159582
  - # 14
    frequency:   11.2326539118
  - # 15
    frequency:   14.0512069269
  - # 16
    frequency:   14.0819417584
  - # 17
    frequency:   14.7847088541
  - # 18
    frequency:   16.0881538094
  - # 19
    frequency:   16.1051768664
  - # 20
    frequency:   27.3080427948
  - # 21
    frequency:   57.8785225747

- q-position: [    0.0606061,    0.0000000,    0.0000000 ]
  distance:    0.0213347
  band:
  - # 1
    frequency:    0.3138901991
  - # 2
    frequency:    0.8625732310
  - # 3
    frequency:    1.1232975843
  - # 4
    frequency:    1.4188019993
  - # 5
    frequency:    1.5619581767
  - # 6
    frequency:    3.3737527757
  - # 7
    frequency:    3.5209615200
  - # 8
    frequency:    4.6628617094
  - # 9
    frequency:    6.3155883006
  - # 10
    frequency:    6.4340294352
  - # 11
    frequency:    7.7806849526
  - # 12
    frequency:    7.8308223040
  - # 13
    frequency:    8.0109322825
  - # 14
    frequency:   11.2080332457
  - # 15
    frequency:   14.0521839286
  - # 16
    frequency:   14.0886096476
  - # 17
    frequency:   14.7795817744
  - # 18
    frequency:   16.0869216635
  - # 19
    frequency:   16.1069363061
  - # 20
    frequency:   27.3057140568
  - # 21
    frequency:   57.8547608820

- q-position: [    0.0656566,    0.0000000,    0.0000000 ]
  distance:    0.0231126
  band:
  - # 1
    frequency:    0.3577313749
  - # 2
    frequency:    0.9258594920
  - # 3
    frequency:    1.1615704813
  - # 4
    frequency:    1.5184488023
  - # 5
    frequency:    1.6592189097
  - # 6
    frequency:    3.3886580107
  - # 7
    frequency:    3.5576303289
  - # 8
    frequency:    4.6555426390
  - # 9
    frequency:    6.3105287699
  - # 10
    frequency:    6.4478101629
  - # 11
    frequency:    7.7697072857
  - # 12
    frequency:    7.8232851943
  - # 13
    frequency:    8.0245237627
  - # 14
    frequency:   11.1815457233
  - # 15
    frequency:   14.0532503333
  - # 16
    frequency:   14.0958060134
  - # 17
    frequency:   14.7740202080
  - # 18
    frequency:   16.0856100546
  - # 19
    frequency:   16.1087950677
  - # 20
    frequency:   27.3031951977
  - # 21
    frequency:   57.8291153872

- q-position: [    0.0707071,    0.0000000,    0.0000000 ]
  distance:    0.0248905
  band:
  - # 1
    frequency:    0.4033766706
  - # 2
    frequency:    0.9864513287
  - # 3
    frequency:    1.2030866258
  - # 4
    frequency:    1.6141116132
  - # 5
    frequency:    1.7605517539
  - # 6
    frequency:    3.4046130401
  - # 7
    frequency:    3.5959312723
  - # 8
    frequency:    4.6483733889
  - # 9
    frequency:    6.3051349722
  - # 10
    frequency:    6.4622495171
  - # 11
    frequency:    7.7583201955
  - # 12
    frequency:    7.8152241561
  - # 13
    frequency:    8.0386645211
  - # 14
    frequency:   11.1532585296
  - # 15
    frequency:   14.0544070143
  - # 16
    frequency:   14.1035171032
  - # 17
    frequency:   14.7680318667
  - # 18
    frequency:   16.0842226817
  - # 19
    frequency:   16.1107398721
  - # 20
    frequency:   27.3004893037
  - # 21
    frequency:   57.8016303338

- q-position: [    0.0757576,    0.0000000,    0.0000000 ]
  distance:    0.0266684
  band:
  - # 1
    frequency:    0.4507275951
  - # 2
    frequency:    1.0440430390
  - # 3
    frequency:    1.2479483737
  - # 4
    frequency:    1.7069122435
  - # 5
    frequency:    1.8644300080
  - # 6
    frequency:    3.4215861624
  - # 7
    frequency:    3.6355924139
  - # 8
    frequency:    4.6415322683
  - # 9
    frequency:    6.2994234100
  - # 10
    frequency:    6.4772671610
  - # 11
    frequency:    7.7465429170
  - # 12
    frequency:    7.8066567743
  - # 13
    frequency:    8.0533209425
  - # 14
    frequency:   11.1232437190
  - # 15
    frequency:   14.0556548273
  - # 16
    frequency:   14.1117275826
  - # 17
    frequency:   14.7616268801
  - # 18
    frequency:   16.0827624682
  - # 19
    frequency:   16.1127564410
  - # 20
    frequency:   27.2975997033
  - # 21
    frequency:   57.7723529680

- q-position: [    0.0808081,    0.0000000,    0.0000000 ]
  distance:    0.0284463
  band:
  - # 1
    frequency:    0.4996891080
  - # 2
    frequency:    1.0985050028
  - # 3
    frequency:    1.2960957847
  - # 4
    frequency:    1.7978793263
  - # 5
    frequency:    1.9694720206
  - # 6
    frequency:    3.4395437605
  - # 7
    frequency:    3.6763215662
  - # 8
    frequency:    4.6352196919
  - # 9
    frequency:    6.2934118615
  - # 10
    frequency:    6.4927821280
  - # 11
    frequency:    7.7344019497
  - # 12
    frequency:    7.7976016886
  - # 13
    frequency:    8.0684520602
  - # 14
    frequency:   11.0915781096
  - # 15
    frequency:   14.0569945945
  - # 16
    frequency:   14.1204203534
  - # 17
    frequency:   14.7548181567
  - # 18
    frequency:   16.0812314195
  - # 19
    frequency:   16.1148295158
  - # 20
    frequency:   27.2945299659
  - # 21
    frequency:   57.7413334198

- q-position: [    0.0858586,    0.0000000,    0.0000000 ]
  distance:    0.0302242
  band:
  - # 1
    frequency:    0.5501684619
  - # 2
    frequency:    1.1499573127
  - # 3
    frequency:    1.3472331095
  - # 4
    frequency:    1.8877274411
  - # 5
    frequency:    2.0746534595
  - # 6
    frequency:    3.4584503943
  - # 7
    frequency:    3.7178024504
  - # 8
    frequency:    4.6296624745
  - # 9
    frequency:    6.2871193769
  - # 10
    frequency:    6.5087129668
  - # 11
    frequency:    7.7219309841
  - # 12
    frequency:    7.7880785381
  - # 13
    frequency:    8.0840100026
  - # 14
    frequency:   11.0583431714
  - # 15
    frequency:   14.0584270879
  - # 16
    frequency:   14.1295763254
  - # 17
    frequency:   14.7476217674
  - # 18
    frequency:   16.0796305005
  - # 19
    frequency:   16.1169428789
  - # 20
    frequency:   27.2912838989
  - # 21
    frequency:   57.7086245763

- q-position: [    0.0909091,    0.0000000,    0.0000000 ]
  distance:    0.0320021
  band:
  - # 1
    frequency:    0.6020747583
  - # 2
    frequency:    1.1987532864
  - # 3
    frequency:    1.4008451283
  - # 4
    frequency:    1.9768823949
  - # 5
    frequency:    2.1792749750
  - # 6
    frequency:    3.4782689018
  - # 7
    frequency:    3.7596901292
  - # 8
    frequency:    4.6251187776
  - # 9
    frequency:    6.2805662672
  - # 10
    frequency:    6.5249777327
  - # 11
    frequency:    7.7091708599
  - # 12
    frequency:    7.7781079013
  - # 13
    frequency:    8.0999404712
  - # 14
    frequency:   11.0236249062
  - # 15
    frequency:   14.0599530136
  - # 16
    frequency:   14.1391741294
  - # 17
    frequency:   14.7400573616
  - # 18
    frequency:   16.0779595367
  - # 19
    frequency:   16.1190793790
  - # 20
    frequency:   27.2878655461
  - # 21
    frequency:   57.6742819494

- q-position: [    0.0959596,    0.0000000,    0.0000000 ]
  distance:    0.0337800
  band:
  - # 1
    frequency:    0.6553188829
  - # 2
    frequency:    1.2453769233
  - # 3
    frequency:    1.4562993570
  - # 4
    frequency:    2.0655726203
  - # 5
    frequency:    2.2828649715
  - # 6
    frequency:    3.4989605121
  - # 7
    frequency:    3.8016062047
  - # 8
    frequency:    4.6218832731
  - # 9
    frequency:    6.2737740870
  - # 10
    frequency:    6.5414938396
  - # 11
    frequency:    7.6961695712
  - # 12
    frequency:    7.7677112325
  - # 13
    frequency:    8.1161832357
  - # 14
    frequency:   10.9875137191
  - # 15
    frequency:   14.0615729964
  - # 16
    frequency:   14.1491897555
  - # 17
    frequency:   14.7321486277
  - # 18
    frequency:   16.0762171412
  - # 19
    frequency:   16.1212209595
  - # 20
    frequency:   27.2842791839
  - # 21
    frequency:   57.6383635362

- q-position: [    0.1010101,    0.0000000,    0.0000000 ]
  distance:    0.0355579
  band:
  - # 1
    frequency:    0.7098136121
  - # 2
    frequency:    1.2903224924
  - # 3
    frequency:    1.5129660011
  - # 4
    frequency:    2.1539060927
  - # 5
    frequency:    2.3850977888
  - # 6
    frequency:    3.5204849713
  - # 7
    frequency:    3.8431347797
  - # 8
    frequency:    4.6202915852
  - # 9
    frequency:    6.2667656098
  - # 10
    frequency:    6.5581777882
  - # 11
    frequency:    7.6829823218
  - # 12
    frequency:    7.7569107934
  - # 13
    frequency:    8.1326726400
  - # 14
    frequency:   10.9501042800
  - # 15
    frequency:   14.0632875644
  - # 16
    frequency:   14.1595960994
  - # 17
    frequency:   14.7239238153
  - # 18
    frequency:   16.0744006685
  - # 19
    frequency:   16.1233486906
  - # 20
    frequency:   27.2805293185
  - # 21
    frequency:   57.6009296741

- q-position: [    0.1060606,    0.0000000,    0.0000000 ]
  distance:    0.0373358
  band:
  - # 1
    frequency:    0.7654737693
  - # 2
    frequency:    1.3340153939
  - # 3
    frequency:    1.5702965567
  - # 4
    frequency:    2.2419204524
  - # 5
    frequency:    2.4857393513
  - # 6
    frequency:    3.5428006828
  - # 7
    frequency:    3.8838209743
  - # 8
    frequency:    4.6207222835
  - # 9
    frequency:    6.2595647938
  - # 10
    frequency:    6.5749447909
  - # 11
    frequency:    7.6696716247
  - # 12
    frequency:    7.7457295805
  - # 13
    frequency:    8.1493381171
  - # 14
    frequency:   10.9114953712
  - # 15
    frequency:   14.0650971353
  - # 16
    frequency:   14.1703623899
  - # 17
    frequency:   14.7154163444
  - # 18
    frequency:   16.0725061970
  - # 19
    frequency:   16.1254428065
  - # 20
    frequency:   27.2766206815
  - # 21
    frequency:   57.5620428900

- q-position: [    0.1111111,    0.0000000,    0.0000000 ]
  distance:    0.0391137
  band:
  - # 1
    frequency:    0.8222163635
  - # 2
    frequency:    1.3767844381
  - # 3
    frequency:    1.6278509519
  - # 4
    frequency:    2.3296129806
  - # 5
    frequency:    2.5846134073
  - # 6
    frequency:    3.5658648653
  - # 7
    frequency:    3.9231748545
  - # 8
    frequency:    4.6235936482
  - # 9
    frequency:    6.2521967384
  - # 10
    frequency:    6.5917083205
  - # 11
    frequency:    7.6563074320
  - # 12
    frequency:    7.7341912486
  - # 13
    frequency:    8.1661047149
  - # 14
    frequency:   10.8717897195
  - # 15
    frequency:   14.0670020027
  - # 16
    frequency:   14.1814534665
  - # 17
    frequency:   14.7066655317
  - # 18
    frequency:   16.0705285387
  - # 19
    frequency:   16.1274827459
  - # 20
    frequency:   27.2725582256
  - # 21
    frequency:   57.5217677448

- q-position: [    0.1161616,    0.0000000,    0.0000000 ]
  distance:    0.0408916
  band:
  - # 1
    frequency:    0.8799606805
  - # 2
    frequency:    1.4188666899
  - # 3
    frequency:    1.6852921010
  - # 4
    frequency:    2.4169580241
  - # 5
    frequency:    2.6815805580
  - # 6
    frequency:    3.5896337276
  - # 7
    frequency:    3.9606846705
  - # 8
    frequency:    4.6293513867
  - # 9
    frequency:    6.2446876302
  - # 10
    frequency:    6.6083796145
  - # 11
    frequency:    7.6429672733
  - # 12
    frequency:    7.7223200303
  - # 13
    frequency:    8.1828936362
  - # 14
    frequency:   10.8310938080
  - # 15
    frequency:   14.0690023235
  - # 16
    frequency:   14.1928288692
  - # 17
    frequency:   14.6977174748
  - # 18
    frequency:   16.0684612762
  - # 19
    frequency:   16.1294471992
  - # 20
    frequency:   27.2683471191
  - # 21
    frequency:   57.4801706729

- q-position: [    0.1212121,    0.0000000,    0.0000000 ]
  distance:    0.0426695
  band:
  - # 1
    frequency:    0.9386283129
  - # 2
    frequency:    1.4604249489
  - # 3
    frequency:    1.7423678154
  - # 4
    frequency:    2.5039170351
  - # 5
    frequency:    2.7765247127
  - # 6
    frequency:    3.6140626641
  - # 7
    frequency:    3.9958435511
  - # 8
    frequency:    4.6384432610
  - # 9
    frequency:    6.2370646773
  - # 10
    frequency:    6.6248671767
  - # 11
    frequency:    7.6297363693
  - # 12
    frequency:    7.7101406511
  - # 13
    frequency:    8.1996227973
  - # 14
    frequency:   10.7895176638
  - # 15
    frequency:   14.0710981070
  - # 16
    frequency:   14.2044416911
  - # 17
    frequency:   14.6886261445
  - # 18
    frequency:   16.0662968255
  - # 19
    frequency:   16.1313141590
  - # 20
    frequency:   27.2639927406
  - # 21
    frequency:   57.4373198183

- q-position: [    0.1262626,    0.0000000,    0.0000000 ]
  distance:    0.0444474
  band:
  - # 1
    frequency:    0.9981431333
  - # 2
    frequency:    1.5015665281
  - # 3
    frequency:    1.7988914188
  - # 4
    frequency:    2.5904443098
  - # 5
    frequency:    2.8693436885
  - # 6
    frequency:    3.6391064697
  - # 7
    frequency:    4.0281918852
  - # 8
    frequency:    4.6512785128
  - # 9
    frequency:    6.2293560315
  - # 10
    frequency:    6.6410763276
  - # 11
    frequency:    7.6167076769
  - # 12
    frequency:    7.6976782421
  - # 13
    frequency:    8.2162074100
  - # 14
    frequency:   10.7471746150
  - # 15
    frequency:   14.0732892039
  - # 16
    frequency:   14.2162371365
  - # 17
    frequency:   14.6794547436
  - # 18
    frequency:   16.0640265220
  - # 19
    frequency:   16.1330609775
  - # 20
    frequency:   27.2595006718
  - # 21
    frequency:   57.3932848661

- q-position: [    0.1313131,    0.0000000,    0.0000000 ]
  distance:    0.0462253
  band:
  - # 1
    frequency:    1.0584312148
  - # 2
    frequency:    1.5423589982
  - # 3
    frequency:    1.8547254007
  - # 4
    frequency:    2.6764901834
  - # 5
    frequency:    2.9599419820
  - # 6
    frequency:    3.6647195749
  - # 7
    frequency:    4.0573723792
  - # 8
    frequency:    4.6681752539
  - # 9
    frequency:    6.2215906983
  - # 10
    frequency:    6.6569088691
  - # 11
    frequency:    7.6039818047
  - # 12
    frequency:    7.6849582482
  - # 13
    frequency:    8.2325605944
  - # 14
    frequency:   10.7041810109
  - # 15
    frequency:   14.0755752979
  - # 16
    frequency:   14.2281507236
  - # 17
    frequency:   14.6702773981
  - # 18
    frequency:   16.0616407274
  - # 19
    frequency:   16.1346644294
  - # 20
    frequency:   27.2548766911
  - # 21
    frequency:   57.3481368718

- q-position: [    0.1363636,    0.0000000,    0.0000000 ]
  distance:    0.0480032
  band:
  - # 1
    frequency:    1.1194207090
  - # 2
    frequency:    1.5828421057
  - # 3
    frequency:    1.9097689063
  - # 4
    frequency:    2.7620026665
  - # 5
    frequency:    3.0482244809
  - # 6
    frequency:    3.6908563002
  - # 7
    frequency:    4.0831870149
  - # 8
    frequency:    4.6893067969
  - # 9
    frequency:    6.2137984328
  - # 10
    frequency:    6.6722629448
  - # 11
    frequency:    7.5916667236
  - # 12
    frequency:    7.6720063335
  - # 13
    frequency:    8.2485940273
  - # 14
    frequency:   10.6606558982
  - # 15
    frequency:   14.0779558973
  - # 16
    frequency:   14.2401060692
  - # 17
    frequency:   14.6611812436
  - # 18
    frequency:   16.0591289552
  - # 19
    frequency:   16.1361007801
  - # 20
    frequency:   27.2501267650
  - # 21
    frequency:   57.3019480873

- q-position: [    0.1414141,    0.0000000,    0.0000000 ]
  distance:    0.0497811
  band:
  - # 1
    frequency:    1.1810416915
  - # 2
    frequency:    1.6230363694
  - # 3
    frequency:    1.9639485529
  - # 4
    frequency:    2.8469280518
  - # 5
    frequency:    3.1340902875
  - # 6
    frequency:    3.7174711297
  - # 7
    frequency:    4.1056392787
  - # 8
    frequency:    4.7146638190
  - # 9
    frequency:    6.2060096234
  - # 10
    frequency:    6.6870331920
  - # 11
    frequency:    7.5798771775
  - # 12
    frequency:    7.6588482846
  - # 13
    frequency:    8.2642186359
  - # 14
    frequency:   10.6167206433
  - # 15
    frequency:   14.0804303286
  - # 16
    frequency:   14.2520122208
  - # 17
    frequency:   14.6522689475
  - # 18
    frequency:   16.0564800103
  - # 19
    frequency:   16.1373458610
  - # 20
    frequency:   27.2452570402
  - # 21
    frequency:   57.2547917853

- q-position: [    0.1464646,    0.0000000,    0.0000000 ]
  distance:    0.0515590
  band:
  - # 1
    frequency:    1.2432259831
  - # 2
    frequency:    1.6629491448
  - # 3
    frequency:    2.0172117888
  - # 4
    frequency:    2.9312107437
  - # 5
    frequency:    3.2174260404
  - # 6
    frequency:    3.7445189990
  - # 7
    frequency:    4.1249471012
  - # 8
    frequency:    4.7440472508
  - # 9
    frequency:    6.1982551613
  - # 10
    frequency:    6.7011112974
  - # 11
    frequency:    7.5687336870
  - # 12
    frequency:    7.6455099105
  - # 13
    frequency:    8.2793453439
  - # 14
    frequency:   10.5724984928
  - # 15
    frequency:   14.0829977308
  - # 16
    frequency:   14.2637605608
  - # 17
    frequency:   14.6436616436
  - # 18
    frequency:   16.0536821419
  - # 19
    frequency:   16.1383751504
  - # 20
    frequency:   27.2402738335
  - # 21
    frequency:   57.2067420823

- q-position: [    0.1515152,    0.0000000,    0.0000000 ]
  distance:    0.0533369
  band:
  - # 1
    frequency:    1.3059069553
  - # 2
    frequency:    1.7025788630
  - # 3
    frequency:    2.0695220836
  - # 4
    frequency:    3.0147923585
  - # 5
    frequency:    3.2980982592
  - # 6
    frequency:    3.7719555972
  - # 7
    frequency:    4.1415233674
  - # 8
    frequency:    4.7770954391
  - # 9
    frequency:    6.1905662980
  - # 10
    frequency:    6.7143870736
  - # 11
    frequency:    7.5583610266
  - # 12
    frequency:    7.6320169412
  - # 13
    frequency:    8.2938858780
  - # 14
    frequency:   10.5281140605
  - # 15
    frequency:   14.0856570510
  - # 16
    frequency:   14.2752214481
  - # 17
    frequency:   14.6355021170
  - # 18
    frequency:   16.0507232038
  - # 19
    frequency:   16.1391638610
  - # 20
    frequency:   27.2351836220
  - # 21