nqpoint: 300    
npath: 3      
segment_nqpoint:
- 100
- 100
- 100
labels:
- [ 'G', 'M' ]
- [ 'M', 'K' ]
- [ 'K', 'G' ]
reciprocal_lattice:
- [   0.30486115,   0.17601167,   0.00000000 ] # a*
- [   0.00000000,   0.35202334,   0.00000000 ] # b*
- [   0.00000000,   0.00000000,   0.03850423 ] # c*
natom: 7      
lattice:
- [     3.280181795116930,     0.000000000000000,     0.000000000000000 ] # a
- [    -1.640090897558465,     2.840720763607603,     0.000000000000000 ] # b
- [     0.000000000000000,     0.000000000000000,    25.971171455607312 ] # c
points:
- symbol: Br # 1
  coordinates: [  0.666666984744047,  0.333332985985145,  0.346538084174746 ]
  mass: 79.904000
- symbol: C # 2
  coordinates: [  0.333332985432215,  0.666666983183674,  0.593698173015112 ]
  mass: 12.010700
- symbol: N # 3
  coordinates: [  0.000000000000000,  0.000000000000000,  0.456472742163063 ]
  mass: 14.006700
- symbol: N # 4
  coordinates: [  0.333332985432215,  0.666666983183674,  0.545512596509565 ]
  mass: 14.006700
- symbol: S # 5
  coordinates: [  0.333332985432215,  0.666666983183674,  0.653461915825254 ]
  mass: 32.065000
- symbol: Ti # 6
  coordinates: [  0.333332985432215,  0.666666983183674,  0.417872192683578 ]
  mass: 47.867000
- symbol: Ti # 7
  coordinates: [  0.666666984744047,  0.333332985985145,  0.496429109316298 ]
  mass: 47.867000

phonon:
- q-position: [    0.0000000,    0.0000000,    0.0000000 ]
  distance:    0.0000000
  band:
  - # 1
    frequency:   -0.0000011424
  - # 2
    frequency:    0.0000007528
  - # 3
    frequency:    0.0000010816
  - # 4
    frequency:    0.6847018569
  - # 5
    frequency:    0.6847018569
  - # 6
    frequency:    3.4210656190
  - # 7
    frequency:    3.4210656190
  - # 8
    frequency:    4.6853135212
  - # 9
    frequency:    6.3115526695
  - # 10
    frequency:    6.3115526695
  - # 11
    frequency:    7.8222862114
  - # 12
    frequency:    7.8222862114
  - # 13
    frequency:    7.8887977035
  - # 14
    frequency:   11.4269824819
  - # 15
    frequency:   14.0584327167
  - # 16
    frequency:   14.0584327167
  - # 17
    frequency:   14.8084393854
  - # 18
    frequency:   16.1966190865
  - # 19
    frequency:   16.1966190865
  - # 20
    frequency:   27.3460195219
  - # 21
    frequency:   58.0677010190

- q-position: [    0.0050505,    0.0000000,    0.0000000 ]
  distance:    0.0017779
  band:
  - # 1
    frequency:   -0.0839619336
  - # 2
    frequency:    0.0772561298
  - # 3
    frequency:    0.1503156108
  - # 4
    frequency:    0.6870231010
  - # 5
    frequency:    0.6927323439
  - # 6
    frequency:    3.4216469228
  - # 7
    frequency:    3.4226256058
  - # 8
    frequency:    4.6849777085
  - # 9
    frequency:    6.3113504994
  - # 10
    frequency:    6.3123200013
  - # 11
    frequency:    7.8218049400
  - # 12
    frequency:    7.8220468678
  - # 13
    frequency:    7.8894621885
  - # 14
    frequency:   11.4257607914
  - # 15
    frequency:   14.0584729788
  - # 16
    frequency:   14.0587436094
  - # 17
    frequency:   14.8082418265
  - # 18
    frequency:   16.1961723961
  - # 19
    frequency:   16.1965856749
  - # 20
    frequency:   27.3458877639
  - # 21
    frequency:   58.0664776196

- q-position: [    0.0101010,    0.0000000,    0.0000000 ]
  distance:    0.0035558
  band:
  - # 1
    frequency:   -0.0852719065
  - # 2
    frequency:    0.1542731694
  - # 3
    frequency:    0.2634248266
  - # 4
    frequency:    0.6939709768
  - # 5
    frequency:    0.7162939488
  - # 6
    frequency:    3.4233896781
  - # 7
    frequency:    3.4272946116
  - # 8
    frequency:    4.6839750054
  - # 9
    frequency:    6.3107448482
  - # 10
    frequency:    6.3146165571
  - # 11
    frequency:    7.8203659043
  - # 12
    frequency:    7.8213290058
  - # 13
    frequency:    7.8914500976
  - # 14
    frequency:   11.4220985831
  - # 15
    frequency:   14.0585938046
  - # 16
    frequency:   14.0596757475
  - # 17
    frequency:   14.8076479257
  - # 18
    frequency:   16.1948367800
  - # 19
    frequency:   16.1964855655
  - # 20
    frequency:   27.3454927261
  - # 21
    frequency:   58.0628103579

- q-position: [    0.0151515,    0.0000000,    0.0000000 ]
  distance:    0.0053337
  band:
  - # 1
    frequency:   -0.0652560326
  - # 2
    frequency:    0.2307952639
  - # 3
    frequency:    0.3791650209
  - # 4
    frequency:    0.7055047456
  - # 5
    frequency:    0.7539889736
  - # 6
    frequency:    3.4262904179
  - # 7
    frequency:    3.4350399563
  - # 8
    frequency:    4.6823195858
  - # 9
    frequency:    6.3097382881
  - # 10
    frequency:    6.3184261073
  - # 11
    frequency:    7.8179821459
  - # 12
    frequency:    7.8201331330
  - # 13
    frequency:    7.8947460928
  - # 14
    frequency:   11.4160044478
  - # 15
    frequency:   14.0587953115
  - # 16
    frequency:   14.0612275091
  - # 17
    frequency:   14.8066540452
  - # 18
    frequency:   16.1926255457
  - # 19
    frequency:   16.1963191292
  - # 20
    frequency:   27.3448351164
  - # 21
    frequency:   58.0567080300

- q-position: [    0.0202020,    0.0000000,    0.0000000 ]
  distance:    0.0071116
  band:
  - # 1
    frequency:    0.0345154565
  - # 2
    frequency:    0.3065302860
  - # 3
    frequency:    0.4960037213
  - # 4
    frequency:    0.7215790422
  - # 5
    frequency:    0.8039983311
  - # 6
    frequency:    3.4303433669
  - # 7
    frequency:    3.4458077710
  - # 8
    frequency:    4.6800349789
  - # 9
    frequency:    6.3083350910
  - # 10
    frequency:    6.3237218935
  - # 11
    frequency:    7.8146720888
  - # 12
    frequency:    7.8184601000
  - # 13
    frequency:    7.8993279464
  - # 14
    frequency:   11.4074927095
  - # 15
    frequency:   14.0590776936
  - # 16
    frequency:   14.0633961855
  - # 17
    frequency:   14.8052542399
  - # 18
    frequency:   16.1895606794
  - # 19
    frequency:   16.1960869689
  - # 20
    frequency:   27.3439161134
  - # 21
    frequency:   58.0481852530

- q-position: [    0.0252525,    0.0000000,    0.0000000 ]
  distance:    0.0088895
  band:
  - # 1
    frequency:    0.0951842845
  - # 2
    frequency:    0.3811249602
  - # 3
    frequency:    0.6125733267
  - # 4
    frequency:    0.7421768047
  - # 5
    frequency:    0.8645386675
  - # 6
    frequency:    3.4355404469
  - # 7
    frequency:    3.4595238386
  - # 8
    frequency:    4.6771539498
  - # 9
    frequency:    6.3065412045
  - # 10
    frequency:    6.3304670498
  - # 11
    frequency:    7.8104569626
  - # 12
    frequency:    7.8163111068
  - # 13
    frequency:    7.9051691522
  - # 14
    frequency:   11.3965834326
  - # 15
    frequency:   14.0594412194
  - # 16
    frequency:   14.0661779711
  - # 17
    frequency:   14.8034404344
  - # 18
    frequency:   16.1856725571
  - # 19
    frequency:   16.1957898958
  - # 20
    frequency:   27.3427373641
  - # 21
    frequency:   58.0372623999

- q-position: [    0.0303030,    0.0000000,    0.0000000 ]
  distance:    0.0106674
  band:
  - # 1
    frequency:    0.1397694079
  - # 2
    frequency:    0.4541332765
  - # 3
    frequency:    0.7277965100
  - # 4
    frequency:    0.7673528218
  - # 5
    frequency:    0.9341849176
  - # 6
    frequency:    3.4418712840
  - # 7
    frequency:    3.4760946688
  - # 8
    frequency:    4.6737183772
  - # 9
    frequency:    6.3043642197
  - # 10
    frequency:    6.3386151611
  - # 11
    frequency:    7.8053595759
  - # 12
    frequency:    7.8136877123
  - # 13
    frequency:    7.9122402018
  - # 14
    frequency:   11.3833024330
  - # 15
    frequency:   14.0598862285
  - # 16
    frequency:   14.0695679496
  - # 17
    frequency:   14.8012026726
  - # 18
    frequency:   16.1809995412
  - # 19
    frequency:   16.1954288973
  - # 20
    frequency:   27.3413009803
  - # 21
    frequency:   58.0239655095

- q-position: [    0.0353535,    0.0000000,    0.0000000 ]
  distance:    0.0124453
  band:
  - # 1
    frequency:    0.1813055497
  - # 2
    frequency:    0.5249825441
  - # 3
    frequency:    0.7972806234
  - # 4
    frequency:    0.8406037822
  - # 5
    frequency:    1.0120324525
  - # 6
    frequency:    3.4493232188
  - # 7
    frequency:    3.4954087106
  - # 8
    frequency:    4.6697791700
  - # 9
    frequency:    6.3018133292
  - # 10
    frequency:    6.3481109332
  - # 11
    frequency:    7.7994043001
  - # 12
    frequency:    7.8105918468
  - # 13
    frequency:    7.9205086646
  - # 14
    frequency:   11.3676812899
  - # 15
    frequency:   14.0604131272
  - # 16
    frequency:   14.0735600732
  - # 17
    frequency:   14.7985294417
  - # 18
    frequency:   16.1755874649
  - # 19
    frequency:   16.1950050962
  - # 20
    frequency:   27.3396095348
  - # 21
    frequency:   58.0083261717

- q-position: [    0.0404040,    0.0000000,    0.0000000 ]
  distance:    0.0142232
  band:
  - # 1
    frequency:    0.2221600748
  - # 2
    frequency:    0.5929584406
  - # 3
    frequency:    0.8322792569
  - # 4
    frequency:    0.9498644056
  - # 5
    frequency:    1.0976579966
  - # 6
    frequency:    3.4578813189
  - # 7
    frequency:    3.5173375958
  - # 8
    frequency:    4.6653962733
  - # 9
    frequency:    6.2988992769
  - # 10
    frequency:    6.3588909424
  - # 11
    frequency:    7.7926176451
  - # 12
    frequency:    7.8070258267
  - # 13
    frequency:    7.9299386915
  - # 14
    frequency:   11.3497573597
  - # 15
    frequency:   14.0610223837
  - # 16
    frequency:   14.0781471343
  - # 17
    frequency:   14.7954080699
  - # 18
    frequency:   16.1694890060
  - # 19
    frequency:   16.1945197021
  - # 20
    frequency:   27.3376660564
  - # 21
    frequency:   57.9903813881

- q-position: [    0.0454545,    0.0000000,    0.0000000 ]
  distance:    0.0160011
  band:
  - # 1
    frequency:    0.2632396172
  - # 2
    frequency:    0.6572638037
  - # 3
    frequency:    0.8727640235
  - # 4
    frequency:    1.0546787664
  - # 5
    frequency:    1.1907368517
  - # 6
    frequency:    3.4675283960
  - # 7
    frequency:    3.5417372963
  - # 8
    frequency:    4.6606388237
  - # 9
    frequency:    6.2956342985
  - # 10
    frequency:    6.3708844337
  - # 11
    frequency:    7.7850289351
  - # 12
    frequency:    7.8029923732
  - # 13
    frequency:    7.9404904352
  - # 14
    frequency:   11.3295737891
  - # 15
    frequency:   14.0617145219
  - # 16
    frequency:   14.0833207278
  - # 17
    frequency:   14.7918252005
  - # 18
    frequency:   16.1627629551
  - # 19
    frequency:   16.1939739553
  - # 20
    frequency:   27.3354740234
  - # 21
    frequency:   57.9701734100

- q-position: [    0.0505051,    0.0000000,    0.0000000 ]
  distance:    0.0177790
  band:
  - # 1
    frequency:    0.3049910681
  - # 2
    frequency:    0.7172249451
  - # 3
    frequency:    0.9190470031
  - # 4
    frequency:    1.1549607969
  - # 5
    frequency:    1.2903854375
  - # 6
    frequency:    3.4782450265
  - # 7
    frequency:    3.5684490770
  - # 8
    frequency:    4.6555855216
  - # 9
    frequency:    6.2920320541
  - # 10
    frequency:    6.3840141369
  - # 11
    frequency:    7.7766708606
  - # 12
    frequency:    7.7984946330
  - # 13
    frequency:    7.9521196112
  - # 14
    frequency:   11.3071795286
  - # 15
    frequency:   14.0624901148
  - # 16
    frequency:   14.0890712006
  - # 17
    frequency:   14.7877673404
  - # 18
    frequency:   16.1554733839
  - # 19
    frequency:   16.1933690642
  - # 20
    frequency:   27.3330373567
  - # 21
    frequency:   57.9477495532

- q-position: [    0.0555556,    0.0000000,    0.0000000 ]
  distance:    0.0195569
  band:
  - # 1
    frequency:    0.3476640369
  - # 2
    frequency:    0.7726187205
  - # 3
    frequency:    0.9710142755
  - # 4
    frequency:    1.2516049572
  - # 5
    frequency:    1.3949343632
  - # 6
    frequency:    3.4900095776
  - # 7
    frequency:    3.5973001244
  - # 8
    frequency:    4.6503252944
  - # 9
    frequency:    6.2881075525
  - # 10
    frequency:    6.3981970711
  - # 11
    frequency:    7.7675798674
  - # 12
    frequency:    7.7935362031
  - # 13
    frequency:    7.9647772412
  - # 14
    frequency:   11.2826293421
  - # 15
    frequency:   14.0633497773
  - # 16
    frequency:   14.0953875855
  - # 17
    frequency:   14.7832214816
  - # 18
    frequency:   16.1476887216
  - # 19
    frequency:   16.1927061362
  - # 20
    frequency:   27.3303604115
  - # 21
    frequency:   57.9231619925

- q-position: [    0.0606061,    0.0000000,    0.0000000 ]
  distance:    0.0213347
  band:
  - # 1
    frequency:    0.3914052700
  - # 2
    frequency:    0.8238669407
  - # 3
    frequency:    1.0279336843
  - # 4
    frequency:    1.3458832506
  - # 5
    frequency:    1.5024851069
  - # 6
    frequency:    3.5027982402
  - # 7
    frequency:    3.6281037363
  - # 8
    frequency:    4.6449583334
  - # 9
    frequency:    6.2838770685
  - # 10
    frequency:    6.4133453138
  - # 11
    frequency:    7.7577964157
  - # 12
    frequency:    7.7881211573
  - # 13
    frequency:    7.9784095481
  - # 14
    frequency:   11.2559838145
  - # 15
    frequency:   14.0642941575
  - # 16
    frequency:   14.1022575157
  - # 17
    frequency:   14.7781757932
  - # 18
    frequency:   16.1394807507
  - # 19
    frequency:   16.1919861049
  - # 20
    frequency:   27.3274479679
  - # 21
    frequency:   57.8964675356

- q-position: [    0.0656566,    0.0000000,    0.0000000 ]
  distance:    0.0231126
  band:
  - # 1
    frequency:    0.4362998525
  - # 2
    frequency:    0.8718639035
  - # 3
    frequency:    1.0886278864
  - # 4
    frequency:    1.4388283449
  - # 5
    frequency:    1.6114918688
  - # 6
    frequency:    3.5165850686
  - # 7
    frequency:    3.6606589591
  - # 8
    frequency:    4.6395975955
  - # 9
    frequency:    6.2793580531
  - # 10
    frequency:    6.4293667139
  - # 11
    frequency:    7.7473651582
  - # 12
    frequency:    7.7822540766
  - # 13
    frequency:    7.9929579551
  - # 14
    frequency:   11.2273093538
  - # 15
    frequency:   14.0653239284
  - # 16
    frequency:   14.1096671143
  - # 17
    frequency:   14.7726203774
  - # 18
    frequency:   16.1309235372
  - # 19
    frequency:   16.1912096523
  - # 20
    frequency:   27.3243052208
  - # 21
    frequency:   57.8677273787

- q-position: [    0.0707071,    0.0000000,    0.0000000 ]
  distance:    0.0248905
  band:
  - # 1
    frequency:    0.4823920705
  - # 2
    frequency:    0.9175987150
  - # 3
    frequency:    1.1518515133
  - # 4
    frequency:    1.5310767189
  - # 5
    frequency:    1.7208922088
  - # 6
    frequency:    3.5313420307
  - # 7
    frequency:    3.6947495654
  - # 8
    frequency:    4.6343708657
  - # 9
    frequency:    6.2745690374
  - # 10
    frequency:    6.4461655322
  - # 11
    frequency:    7.7363350765
  - # 12
    frequency:    7.7759400815
  - # 13
    frequency:    8.0083591528
  - # 14
    frequency:   11.1966781865
  - # 15
    frequency:   14.0664397784
  - # 16
    frequency:   14.1176008528
  - # 17
    frequency:   14.7665480844
  - # 18
    frequency:   16.1220923108
  - # 19
    frequency:   16.1903771282
  - # 20
    frequency:   27.3209377676
  - # 21
    frequency:   57.8370068446

- q-position: [    0.0757576,    0.0000000,    0.0000000 ]
  distance:    0.0266684
  band:
  - # 1
    frequency:    0.5296973948
  - # 2
    frequency:    0.9618901491
  - # 3
    frequency:    1.2165551029
  - # 4
    frequency:    1.6229621919
  - # 5
    frequency:    1.8299939405
  - # 6
    frequency:    3.5470390684
  - # 7
    frequency:    3.7301422757
  - # 8
    frequency:    4.6294234779
  - # 9
    frequency:    6.2695295316
  - # 10
    frequency:    6.4636429976
  - # 11
    frequency:    7.7247596065
  - # 12
    frequency:    7.7691848667
  - # 13
    frequency:    8.0245452086
  - # 14
    frequency:   11.1641683449
  - # 15
    frequency:   14.0676424011
  - # 16
    frequency:   14.1260413695
  - # 17
    frequency:   14.7599553769
  - # 18
    frequency:   16.1130623174
  - # 19
    frequency:   16.1894884679
  - # 20
    frequency:   27.3173515962
  - # 21
    frequency:   57.8043751055

- q-position: [    0.0808081,    0.0000000,    0.0000000 ]
  distance:    0.0284463
  band:
  - # 1
    frequency:    0.5782101273
  - # 2
    frequency:    1.0053161713
  - # 3
    frequency:    1.2819539877
  - # 4
    frequency:    1.7146352568
  - # 5
    frequency:    1.9383411281
  - # 6
    frequency:    3.5636441716
  - # 7
    frequency:    3.7665841545
  - # 8
    frequency:    4.6249217727
  - # 9
    frequency:    6.2642599185
  - # 10
    frequency:    6.4816977705
  - # 11
    frequency:    7.7126967680
  - # 12
    frequency:    7.7619947376
  - # 13
    frequency:    8.0414437044
  - # 14
    frequency:   11.1298636448
  - # 15
    frequency:   14.0689324855
  - # 16
    frequency:   14.1349692384
  - # 17
    frequency:   14.7528432361
  - # 18
    frequency:   16.1039076676
  - # 19
    frequency:   16.1885431096
  - # 20
    frequency:   27.3135530704
  - # 21
    frequency:   57.7699048918

- q-position: [    0.0858586,    0.0000000,    0.0000000 ]
  distance:    0.0302242
  band:
  - # 1
    frequency:    0.6279086896
  - # 2
    frequency:    1.0482491138
  - # 3
    frequency:    1.3474913674
  - # 4
    frequency:    1.8061449453
  - # 5
    frequency:    2.0456211313
  - # 6
    frequency:    3.5811234667
  - # 7
    frequency:    3.8037991674
  - # 8
    frequency:    4.6210573218
  - # 9
    frequency:    6.2587813449
  - # 10
    frequency:    6.5002263093
  - # 11
    frequency:    7.7002093113
  - # 12
    frequency:    7.7543766477
  - # 13
    frequency:    8.0589778947
  - # 14
    frequency:   11.0938536509
  - # 15
    frequency:   14.0703107045
  - # 16
    frequency:   14.1443626739
  - # 17
    frequency:   14.7452181016
  - # 18
    frequency:   16.0947002067
  - # 19
    frequency:   16.1875399111
  - # 20
    frequency:   27.3095489149
  - # 21
    frequency:   57.7336721886

- q-position: [    0.0909091,    0.0000000,    0.0000000 ]
  distance:    0.0320021
  band:
  - # 1
    frequency:    0.6787594931
  - # 2
    frequency:    1.0909147130
  - # 3
    frequency:    1.4127774967
  - # 4
    frequency:    1.8974863752
  - # 5
    frequency:    2.1516085616
  - # 6
    frequency:    3.5994413227
  - # 7
    frequency:    3.8414840194
  - # 8
    frequency:    4.6180518270
  - # 9
    frequency:    6.2531156085
  - # 10
    frequency:    6.5191231367
  - # 11
    frequency:    7.6873648864
  - # 12
    frequency:    7.7463382367
  - # 13
    frequency:    8.0770668823
  - # 14
    frequency:   11.0562336284
  - # 15
    frequency:   14.0717777045
  - # 16
    frequency:   14.1541971542
  - # 17
    frequency:   14.7370928397
  - # 18
    frequency:   16.0855084340
  - # 19
    frequency:   16.1864770691
  - # 20
    frequency:   27.3053461992
  - # 21
    frequency:   57.6957559218

- q-position: [    0.0959596,    0.0000000,    0.0000000 ]
  distance:    0.0337800
  band:
  - # 1
    frequency:    0.7307198705
  - # 2
    frequency:    1.1334420581
  - # 3
    frequency:    1.4775380238
  - # 4
    frequency:    1.9886268917
  - # 5
    frequency:    2.2561325060
  - # 6
    frequency:    3.6185604757
  - # 7
    frequency:    3.8793036351
  - # 8
    frequency:    4.6161623620
  - # 9
    frequency:    6.2472850449
  - # 10
    frequency:    6.5382810086
  - # 11
    frequency:    7.6742362356
  - # 12
    frequency:    7.7378878682
  - # 13
    frequency:    8.0956258122
  - # 14
    frequency:   11.0171044778
  - # 15
    frequency:   14.0733340936
  - # 16
    frequency:   14.1644449398
  - # 17
    frequency:   14.7284877408
  - # 18
    frequency:   16.0763965005
  - # 19
    frequency:   16.1853520409
  - # 20
    frequency:   27.3009523195
  - # 21
    frequency:   57.6562376359

- q-position: [    0.1010101,    0.0000000,    0.0000000 ]
  distance:    0.0355579
  band:
  - # 1
    frequency:    0.7837403399
  - # 2
    frequency:    1.1758986620
  - # 3
    frequency:    1.5415773141
  - # 4
    frequency:    2.0795201989
  - # 5
    frequency:    2.3590570780
  - # 6
    frequency:    3.6384421739
  - # 7
    frequency:    3.9168870905
  - # 8
    frequency:    4.6156861859
  - # 9
    frequency:    6.2413124132
  - # 10
    frequency:    6.5575909885
  - # 11
    frequency:    7.6609014097
  - # 12
    frequency:    7.7290346657
  - # 13
    frequency:    8.1145660846
  - # 14
    frequency:   10.9765726516
  - # 15
    frequency:   14.0749804304
  - # 16
    frequency:   14.1750744574
  - # 17
    frequency:   14.7194315527
  - # 18
    frequency:   16.0674233100
  - # 19
    frequency:   16.1841614699
  - # 20
    frequency:   27.2963749804
  - # 21
    frequency:   57.6152011649

- q-position: [    0.1060606,    0.0000000,    0.0000000 ]
  distance:    0.0373358
  band:
  - # 1
    frequency:    0.8377663674
  - # 2
    frequency:    1.2183133861
  - # 3
    frequency:    1.6047540447
  - # 4
    frequency:    2.1701139507
  - # 5
    frequency:    2.4602694219
  - # 6
    frequency:    3.6590463458
  - # 7
    frequency:    3.9538255209
  - # 8
    frequency:    4.6169636527
  - # 9
    frequency:    6.2352207822
  - # 10
    frequency:    6.5769424367
  - # 11
    frequency:    7.6474439989
  - # 12
    frequency:    7.7197885471
  - # 13
    frequency:    8.1337955906
  - # 14
    frequency:   10.9347500476
  - # 15
    frequency:   14.0767172119
  - # 16
    frequency:   14.1860495097
  - # 17
    frequency:   14.7099625710
  - # 18
    frequency:   16.0586417495
  - # 19
    frequency:   16.1829011167
  - # 20
    frequency:   27.2916221749
  - # 21
    frequency:   57.5727322984

- q-position: [    0.1111111,    0.0000000,    0.0000000 ]
  distance:    0.0391137
  band:
  - # 1
    frequency:    0.8927397407
  - # 2
    frequency:    1.2606910274
  - # 3
    frequency:    1.6669652649
  - # 4
    frequency:    2.2603537826
  - # 5
    frequency:    2.5596718722
  - # 6
    frequency:    3.6803317897
  - # 7
    frequency:    3.9896745301
  - # 8
    frequency:    4.6203767423
  - # 9
    frequency:    6.2290334183
  - # 10
    frequency:    6.5962229295
  - # 11
    frequency:    7.6339533672
  - # 12
    frequency:    7.7101602553
  - # 13
    frequency:    8.1532189727
  - # 14
    frequency:   10.8917538777
  - # 15
    frequency:   14.0785448623
  - # 16
    frequency:   14.1973282606
  - # 17
    frequency:   14.7001298211
  - # 18
    frequency:   16.0500980681
  - # 19
    frequency:   16.1815657953
  - # 20
    frequency:   27.2867021634
  - # 21
    frequency:   57.5289184455

- q-position: [    0.1161616,    0.0000000,    0.0000000 ]
  distance:    0.0408916
  band:
  - # 1
    frequency:    0.9485996333
  - # 2
    frequency:    1.3030215323
  - # 3
    frequency:    1.7281359485
  - # 4
    frequency:    2.3501853879
  - # 5
    frequency:    2.6571764124
  - # 6
    frequency:    3.7022563879
  - # 7
    frequency:    4.0239647104
  - # 8
    frequency:    4.6263396742
  - # 9
    frequency:    6.2227736759
  - # 10
    frequency:    6.6153181302
  - # 11
    frequency:    7.6205248691
  - # 12
    frequency:    7.7001613840
  - # 13
    frequency:    8.1727379180
  - # 14
    frequency:   10.8477065054
  - # 15
    frequency:   14.0804637207
  - # 16
    frequency:   14.2088619322
  - # 17
    frequency:   14.6899943855
  - # 18
    frequency:   16.0418314175
  - # 19
    frequency:   16.1801493184
  - # 20
    frequency:   27.2816234517
  - # 21
    frequency:   57.4838482977

- q-position: [    0.1212121,    0.0000000,    0.0000000 ]
  distance:    0.0426695
  band:
  - # 1
    frequency:    1.0052834208
  - # 2
    frequency:    1.3452858231
  - # 3
    frequency:    1.7882120422
  - # 4
    frequency:    2.4395555032
  - # 5
    frequency:    2.7527003507
  - # 6
    frequency:    3.7247773435
  - # 7
    frequency:    4.0562243613
  - # 8
    frequency:    4.6352775969
  - # 9
    frequency:    6.2164648912
  - # 10
    frequency:    6.6341116453
  - # 11
    frequency:    7.6072600149
  - # 12
    frequency:    7.6898043986
  - # 13
    frequency:    8.1922514853
  - # 14
    frequency:   10.8027352488
  - # 15
    frequency:   14.0824740304
  - # 16
    frequency:   14.2205931325
  - # 17
    frequency:   14.6796309538
  - # 18
    frequency:   16.0338735649
  - # 19
    frequency:   16.1786444489
  - # 20
    frequency:   27.2763947681
  - # 21
    frequency:   57.4376114925

- q-position: [    0.1262626,    0.0000000,    0.0000000 ]
  distance:    0.0444474
  band:
  - # 1
    frequency:    1.0627272997
  - # 2
    frequency:    1.3874594993
  - # 3
    frequency:    1.8471557317
  - # 4
    frequency:    2.5284122705
  - # 5
    frequency:    2.8461625468
  - # 6
    frequency:    3.7478514390
  - # 7
    frequency:    4.0860171315
  - # 8
    frequency:    4.6475907372
  - # 9
    frequency:    6.2101302799
  - # 10
    frequency:    6.6524849149
  - # 11
    frequency:    7.5942665407
  - # 12
    frequency:    7.6791026498
  - # 13
    frequency:    8.2116564759
  - # 14
    frequency:   10.7569721414
  - # 15
    frequency:   14.0845759266
  - # 16
    frequency:   14.2324537220
  - # 17
    frequency:   14.6691296900
  - # 18
    frequency:   16.0262487765
  - # 19
    frequency:   16.1770428629
  - # 20
    frequency:   27.2710250397
  - # 21
    frequency:   57.3902982811

- q-position: [    0.1313131,    0.0000000,    0.0000000 ]
  distance:    0.0462253
  band:
  - # 1
    frequency:    1.1208667465
  - # 2
    frequency:    1.4295151997
  - # 3
    frequency:    1.9049421282
  - # 4
    frequency:    2.6167052232
  - # 5
    frequency:    2.9374797342
  - # 6
    frequency:    3.7714353163
  - # 7
    frequency:    4.1129927838
  - # 8
    frequency:    4.6636059399
  - # 9
    frequency:    6.2037928399
  - # 10
    frequency:    6.6703172011
  - # 11
    frequency:    7.5816583148
  - # 12
    frequency:    7.6680703793
  - # 13
    frequency:    8.2308478528
  - # 14
    frequency:   10.7105536430
  - # 15
    frequency:   14.0867694256
  - # 16
    frequency:   14.2443621188
  - # 17
    frequency:   14.6585985269
  - # 18
    frequency:   16.0189738660
  - # 19
    frequency:   16.1753351209
  - # 20
    frequency:   27.2655233673
  - # 21
    frequency:   57.3419992000

- q-position: [    0.1363636,    0.0000000,    0.0000000 ]
  distance:    0.0480032
  band:
  - # 1
    frequency:    1.1796368498
  - # 2
    frequency:    1.4714241144
  - # 3
    frequency:    1.9615568715
  - # 4
    frequency:    2.7043850225
  - # 5
    frequency:    3.0265625930
  - # 6
    frequency:    3.7954857731
  - # 7
    frequency:    4.1369419570
  - # 8
    frequency:    4.6835249059
  - # 9
    frequency:    6.1974752592
  - # 10
    frequency:    6.6874857621
  - # 11
    frequency:    7.5695549998
  - # 12
    frequency:    7.6567227164
  - # 13
    frequency:    8.2497192184
  - # 14
    frequency:   10.6636202932
  - # 15
    frequency:   14.0890544142
  - # 16
    frequency:   14.2562199606
  - # 17
    frequency:   14.6481659859
  - # 18
    frequency:   16.0120583972
  - # 19
    frequency:   16.1735106514
  - # 20
    frequency:   27.2598990008
  - # 21
    frequency:   57.2928047506

- q-position: [    0.1414141,    0.0000000,    0.0000000 ]
  distance:    0.0497811
  band:
  - # 1
    frequency:    1.2389725420
  - # 2
    frequency:    1.5131569537
  - # 3
    frequency:    2.0169943344
  - # 4
    frequency:    2.7914029902
  - # 5
    frequency:    3.1133112653
  - # 6
    frequency:    3.8199600750
  - # 7
    frequency:    4.1578394474
  - # 8
    frequency:    4.7073848225
  - # 9
    frequency:    6.1911998297
  - # 10
    frequency:    6.7038663163
  - # 11
    frequency:    7.5580813620
  - # 12
    frequency:    7.6450756651
  - # 13
    frequency:    8.2681633591
  - # 14
    frequency:   10.6163162935
  - # 15
    frequency:   14.0914306388
  - # 16
    frequency:   14.2679081124
  - # 17
    frequency:   14.6379845512
  - # 18
    frequency:   16.0055050209
  - # 19
    frequency:   16.1715577452
  - # 20
    frequency:   27.2541613127
  - # 21
    frequency:   57.2428050868

- q-position: [    0.1464646,    0.0000000,    0.0000000 ]
  distance:    0.0515590
  band:
  - # 1
    frequency:    1.2988087529
  - # 2
    frequency:    1.5546845690
  - # 3
    frequency:    2.0712562238
  - # 4
    frequency:    2.8777104250
  - # 5
    frequency:    3.1976100252
  - # 6
    frequency:    3.8448162778
  - # 7
    frequency:    4.1758611773
  - # 8
    frequency:    4.7350465028
  - # 9
    frequency:    6.1849883663
  - # 10
    frequency:    6.7193339220
  - # 11
    frequency:    7.5473661082
  - # 12
    frequency:    7.6331460798
  - # 13
    frequency:    8.2860728683
  - # 14
    frequency:   10.5687890081
  - # 15
    frequency:   14.0938976958
  - # 16
    frequency:   14.2792821874
  - # 17
    frequency:   14.6282344571
  - # 18
    frequency:   15.9993099254
  - # 19
    frequency:   16.1694635628
  - # 20
    frequency:   27.2483197718
  - # 21
    frequency:   57.1920897128

- q-position: [    0.1515152,    0.0000000,    0.0000000 ]
  distance:    0.0533369
  band:
  - # 1
    frequency:    1.3590805022
  - # 2
    frequency:    1.5959783466
  - # 3
    frequency:    2.1243504512
  - # 4
    frequency:    2.9632576353
  - # 5
    frequency:    3.2793208287
  - # 6
    frequency:    3.8700135549
  - # 7
    frequency:    4.1913699784
  - # 8
    frequency:    4.7662152272
  - # 9
    frequency:    6.1788621319
  - # 10
    frequency:    6.7337644004
  - # 11
    frequency:    7.5375401230
  - # 12
    frequency:    7.6209516300
  - # 13
    frequency:    8.3033408605
  - # 14
    frequency:   10.5211883674
  - # 15
    frequency:   14.0964550221
  - # 16
    frequency:   14.2901681248
  - # 17
    frequency:   14.6191273697
  - # 18
    frequency:   15.9934633766
  - # 19
    frequency:   16.1672141542
  - # 20
    frequency:   27.2423839168
  - # 21