nqpoint: 300    
npath: 3      
segment_nqpoint:
- 100
- 100
- 100
labels:
- [ 'G', 'M' ]
- [ 'M', 'K' ]
- [ 'K', 'G' ]
reciprocal_lattice:
- [   0.29733245,   0.17166497,   0.00000000 ] # a*
- [   0.00000000,   0.34332994,   0.00000000 ] # b*
- [   0.00000000,   0.00000000,   0.03743501 ] # c*
natom: 7      
lattice:
- [     3.363238720938420,     0.000000000000000,     0.000000000000000 ] # a
- [    -1.681619360469210,     2.912650171315274,     0.000000000000000 ] # b
- [     0.000000000000000,     0.000000000000000,    26.712965285899823 ] # c
points:
- symbol: C # 1
  coordinates: [  0.000000000000000,  0.000000000000000,  0.514940690337524 ]
  mass: 12.010700
- symbol: C # 2
  coordinates: [  0.333332985432215,  0.666666983183674,  0.617953384509987 ]
  mass: 12.010700
- symbol: N # 3
  coordinates: [  0.333332985432215,  0.666666983183674,  0.663084951308249 ]
  mass: 14.006700
- symbol: O # 4
  coordinates: [  0.666666984744047,  0.333332985985145,  0.336915048691751 ]
  mass: 15.999400
- symbol: P # 5
  coordinates: [  0.666666984744047,  0.333332985985145,  0.392809217603223 ]
  mass: 30.973762
- symbol: Zr # 6
  coordinates: [  0.333332985432215,  0.666666983183674,  0.467299855193368 ]
  mass: 91.224000
- symbol: Zr # 7
  coordinates: [  0.666666984744047,  0.333332985985145,  0.562547205613343 ]
  mass: 91.224000

phonon:
- q-position: [    0.0000000,    0.0000000,    0.0000000 ]
  distance:    0.0000000
  band:
  - # 1
    frequency:   -2.8558149950
  - # 2
    frequency:   -2.8558149950
  - # 3
    frequency:   -1.7618412538
  - # 4
    frequency:   -1.7618412538
  - # 5
    frequency:   -0.0000022052
  - # 6
    frequency:   -0.0000002899
  - # 7
    frequency:    0.0000020135
  - # 8
    frequency:    3.9906854068
  - # 9
    frequency:    3.9906854068
  - # 10
    frequency:    4.9562924013
  - # 11
    frequency:    4.9562924013
  - # 12
    frequency:    5.3455451071
  - # 13
    frequency:    8.0522016617
  - # 14
    frequency:    8.0522016617
  - # 15
    frequency:    8.3046691443
  - # 16
    frequency:    9.0137827640
  - # 17
    frequency:   15.8853173702
  - # 18
    frequency:   16.5520532466
  - # 19
    frequency:   16.5520532466
  - # 20
    frequency:   34.1676799544
  - # 21
    frequency:   60.4523984787

- q-position: [    0.0050505,    0.0000000,    0.0000000 ]
  distance:    0.0017340
  band:
  - # 1
    frequency:   -2.8569134431
  - # 2
    frequency:   -2.8560010505
  - # 3
    frequency:   -1.7628063590
  - # 4
    frequency:   -1.7615056702
  - # 5
    frequency:   -0.2346694969
  - # 6
    frequency:    0.0703108778
  - # 7
    frequency:    0.2589014098
  - # 8
    frequency:    3.9907136504
  - # 9
    frequency:    3.9911291498
  - # 10
    frequency:    4.9545862884
  - # 11
    frequency:    4.9561907066
  - # 12
    frequency:    5.3466468978
  - # 13
    frequency:    8.0519550512
  - # 14
    frequency:    8.0522789933
  - # 15
    frequency:    8.3044029843
  - # 16
    frequency:    9.0132579593
  - # 17
    frequency:   15.8850699416
  - # 18
    frequency:   16.5518518048
  - # 19
    frequency:   16.5521106381
  - # 20
    frequency:   34.1674436626
  - # 21
    frequency:   60.4520989105

- q-position: [    0.0101010,    0.0000000,    0.0000000 ]
  distance:    0.0034680
  band:
  - # 1
    frequency:   -2.8601867964
  - # 2
    frequency:   -2.8565761024
  - # 3
    frequency:   -1.7656807545
  - # 4
    frequency:   -1.7605054582
  - # 5
    frequency:   -0.3141286609
  - # 6
    frequency:    0.1405487814
  - # 7
    frequency:    0.3828556237
  - # 8
    frequency:    3.9907990131
  - # 9
    frequency:    3.9924559736
  - # 10
    frequency:    4.9495433948
  - # 11
    frequency:    4.9558873398
  - # 12
    frequency:    5.3498901695
  - # 13
    frequency:    8.0512227613
  - # 14
    frequency:    8.0525105075
  - # 15
    frequency:    8.3036031263
  - # 16
    frequency:    9.0116862295
  - # 17
    frequency:   15.8843256418
  - # 18
    frequency:   16.5512483935
  - # 19
    frequency:   16.5522814926
  - # 20
    frequency:   34.1667352733
  - # 21
    frequency:   60.4512017049

- q-position: [    0.0151515,    0.0000000,    0.0000000 ]
  distance:    0.0052020
  band:
  - # 1
    frequency:   -2.8655698416
  - # 2
    frequency:   -2.8575896772
  - # 3
    frequency:   -1.7704027783
  - # 4
    frequency:   -1.7588600619
  - # 5
    frequency:   -0.3623176153
  - # 6
    frequency:    0.2106433688
  - # 7
    frequency:    0.4891603310
  - # 8
    frequency:    3.9909433836
  - # 9
    frequency:    3.9946524330
  - # 10
    frequency:    4.9413768017
  - # 11
    frequency:    4.9553874544
  - # 12
    frequency:    5.3551020035
  - # 13
    frequency:    8.0500272496
  - # 14
    frequency:    8.0528947655
  - # 15
    frequency:    8.3022654452
  - # 16
    frequency:    9.0090756542
  - # 17
    frequency:   15.8830785165
  - # 18
    frequency:   16.5502457122
  - # 19
    frequency:   16.5525618604
  - # 20
    frequency:   34.1655562440
  - # 21
    frequency:   60.4497113490

- q-position: [    0.0202020,    0.0000000,    0.0000000 ]
  distance:    0.0069360
  band:
  - # 1
    frequency:   -2.8729563548
  - # 2
    frequency:   -2.8591205932
  - # 3
    frequency:   -1.7768732364
  - # 4
    frequency:   -1.7566013260
  - # 5
    frequency:   -0.3915185435
  - # 6
    frequency:    0.2805293018
  - # 7
    frequency:    0.5880826797
  - # 8
    frequency:    3.9911498873
  - # 9
    frequency:    3.9976953570
  - # 10
    frequency:    4.9304033963
  - # 11
    frequency:    4.9546996462
  - # 12
    frequency:    5.3620328739
  - # 13
    frequency:    8.0484053918
  - # 14
    frequency:    8.0534293818
  - # 15
    frequency:    8.3003830972
  - # 16
    frequency:    9.0054397870
  - # 17
    frequency:   15.8813189337
  - # 18
    frequency:   16.5488481154
  - # 19
    frequency:   16.5529451959
  - # 20
    frequency:   34.1639089983
  - # 21
    frequency:   60.4476352895

- q-position: [    0.0252525,    0.0000000,    0.0000000 ]
  distance:    0.0086699
  band:
  - # 1
    frequency:   -2.8822025758
  - # 2
    frequency:   -2.8612715189
  - # 3
    frequency:   -1.7849604589
  - # 4
    frequency:   -1.7537726931
  - # 5
    frequency:   -0.4063585871
  - # 6
    frequency:    0.3501481338
  - # 7
    frequency:    0.6834182910
  - # 8
    frequency:    3.9914228524
  - # 9
    frequency:    4.0015507158
  - # 10
    frequency:    4.9170029702
  - # 11
    frequency:    4.9538359593
  - # 12
    frequency:    5.3703981846
  - # 13
    frequency:    8.0464076673
  - # 14
    frequency:    8.0541110414
  - # 15
    frequency:    8.2979465702
  - # 16
    frequency:    9.0007977786
  - # 17
    frequency:   15.8790340105
  - # 18
    frequency:   16.5470614029
  - # 19
    frequency:   16.5534224111
  - # 20
    frequency:   34.1617969183
  - # 21
    frequency:   60.4449838845

- q-position: [    0.0303030,    0.0000000,    0.0000000 ]
  distance:    0.0104039
  band:
  - # 1
    frequency:   -2.8931316633
  - # 2
    frequency:   -2.8641616818
  - # 3
    frequency:   -1.7945067729
  - # 4
    frequency:   -1.7504281524
  - # 5
    frequency:   -0.4089079384
  - # 6
    frequency:    0.4194495583
  - # 7
    frequency:    0.7770421060
  - # 8
    frequency:    3.9917677628
  - # 9
    frequency:    4.0061720574
  - # 10
    frequency:    4.9015827968
  - # 11
    frequency:    4.9528118908
  - # 12
    frequency:    5.3799145758
  - # 13
    frequency:    8.0440970501
  - # 14
    frequency:    8.0549355246
  - # 15
    frequency:    8.2949437642
  - # 16
    frequency:    8.9951745318
  - # 17
    frequency:   15.8762081923
  - # 18
    frequency:   16.5448925385
  - # 19
    frequency:   16.5539819525
  - # 20
    frequency:   34.1592243332
  - # 21
    frequency:   60.4417703369

- q-position: [    0.0353535,    0.0000000,    0.0000000 ]
  distance:    0.0121379
  band:
  - # 1
    frequency:   -2.9055388043
  - # 2
    frequency:   -2.8679181029
  - # 3
    frequency:   -1.8053358239
  - # 4
    frequency:   -1.7466309931
  - # 5
    frequency:   -0.3999192209
  - # 6
    frequency:    0.4883919478
  - # 7
    frequency:    0.8700262597
  - # 8
    frequency:    3.9921911986
  - # 9
    frequency:    4.0114985432
  - # 10
    frequency:    4.8845539943
  - # 11
    frequency:    4.9516463872
  - # 12
    frequency:    5.3903246810
  - # 13
    frequency:    8.0415476322
  - # 14
    frequency:    8.0558977372
  - # 15
    frequency:    8.2913601108
  - # 16
    frequency:    8.9886008729
  - # 17
    frequency:   15.8728239625
  - # 18
    frequency:   16.5423493098
  - # 19
    frequency:   16.5546098982
  - # 20
    frequency:   34.1561965051
  - # 21
    frequency:   60.4380106099

- q-position: [    0.0404040,    0.0000000,    0.0000000 ]
  distance:    0.0138719
  band:
  - # 1
    frequency:   -2.9191966466
  - # 2
    frequency:   -2.8726658912
  - # 3
    frequency:   -1.8172600935
  - # 4
    frequency:   -1.7424524168
  - # 5
    frequency:   -0.3791222979
  - # 6
    frequency:    0.5569421960
  - # 7
    frequency:    0.9630313507
  - # 8
    frequency:    3.9927007639
  - # 9
    frequency:    4.0174526349
  - # 10
    frequency:    4.8663198972
  - # 11
    frequency:    4.9503618282
  - # 12
    frequency:    5.4014100761
  - # 13
    frequency:    8.0388430114
  - # 14
    frequency:    8.0569917466
  - # 15
    frequency:    8.2871787453
  - # 16
    frequency:    8.9811137207
  - # 17
    frequency:   15.8688626601
  - # 18
    frequency:   16.5394399457
  - # 19
    frequency:   16.5552900761
  - # 20
    frequency:   34.1527196122
  - # 21
    frequency:   60.4337233245

- q-position: [    0.0454545,    0.0000000,    0.0000000 ]
  distance:    0.0156059
  band:
  - # 1
    frequency:   -2.9338607584
  - # 2
    frequency:   -2.8785182706
  - # 3
    frequency:   -1.8300879580
  - # 4
    frequency:   -1.7379700525
  - # 5
    frequency:   -0.3449904008
  - # 6
    frequency:    0.6250749538
  - # 7
    frequency:    1.0564722569
  - # 8
    frequency:    3.9933050020
  - # 9
    frequency:    4.0239375177
  - # 10
    frequency:    4.8472734645
  - # 11
    frequency:    4.9489839917
  - # 12
    frequency:    5.4129953266
  - # 13
    frequency:    8.0360744747
  - # 14
    frequency:    8.0582108224
  - # 15
    frequency:    8.2823807540
  - # 16
    frequency:    8.9727562311
  - # 17
    frequency:   15.8643053758
  - # 18
    frequency:   16.5361727103
  - # 19
    frequency:   16.5560042029
  - # 20
    frequency:   34.1488007278
  - # 21
    frequency:   60.4289296405

- q-position: [    0.0505051,    0.0000000,    0.0000000 ]
  distance:    0.0173399
  band:
  - # 1
    frequency:   -2.9492748800
  - # 2
    frequency:   -2.8855671038
  - # 3
    frequency:   -1.8436297177
  - # 4
    frequency:   -1.7332664128
  - # 5
    frequency:   -0.2935996175
  - # 6
    frequency:    0.6927713970
  - # 7
    frequency:    1.1505983764
  - # 8
    frequency:    3.9940132994
  - # 9
    frequency:    4.0308344119
  - # 10
    frequency:    4.8278001300
  - # 11
    frequency:    4.9475419919
  - # 12
    frequency:    5.4249465921
  - # 13
    frequency:    8.0333390061
  - # 14
    frequency:    8.0595474817
  - # 15
    frequency:    8.2769455219
  - # 16
    frequency:    8.9635778946
  - # 17
    frequency:   15.8591338949
  - # 18
    frequency:   16.5325554945
  - # 19
    frequency:   16.5567320424
  - # 20
    frequency:   34.1444477979
  - # 21
    frequency:   60.4236531209

- q-position: [    0.0555556,    0.0000000,    0.0000000 ]
  distance:    0.0190739
  band:
  - # 1
    frequency:   -2.9651757990
  - # 2
    frequency:   -2.8938746885
  - # 3
    frequency:   -1.8577021815
  - # 4
    frequency:   -1.7284273206
  - # 5
    frequency:   -0.2137238079
  - # 6
    frequency:    0.7600176952
  - # 7
    frequency:    1.2455374589
  - # 8
    frequency:    3.9948357787
  - # 9
    frequency:    4.0380000220
  - # 10
    frequency:    4.8082831242
  - # 11
    frequency:    4.9460681861
  - # 12
    frequency:    5.4371675254
  - # 13
    frequency:    8.0307371385
  - # 14
    frequency:    8.0609935363
  - # 15
    frequency:    8.2708512200
  - # 16
    frequency:    8.9536345634
  - # 17
    frequency:   15.8533316527
  - # 18
    frequency:   16.5285954289
  - # 19
    frequency:   16.5574515822
  - # 20
    frequency:   34.1396696150
  - # 21
    frequency:   60.4179195822

- q-position: [    0.0606061,    0.0000000,    0.0000000 ]
  distance:    0.0208079
  band:
  - # 1
    frequency:   -2.9812977511
  - # 2
    frequency:   -2.9034674967
  - # 3
    frequency:   -1.8721316004
  - # 4
    frequency:   -1.7235403358
  - # 5
    frequency:    0.0466407907
  - # 6
    frequency:    0.8268033523
  - # 7
    frequency:    1.3413229804
  - # 8
    frequency:    3.9957831794
  - # 9
    frequency:    4.0452645299
  - # 10
    frequency:    4.7891091200
  - # 11
    frequency:    4.9445980434
  - # 12
    frequency:    5.4495942233
  - # 13
    frequency:    8.0283706554
  - # 14
    frequency:    8.0625401441
  - # 15
    frequency:    8.2640754836
  - # 16
    frequency:    8.9429883866
  - # 17
    frequency:   15.8468846670
  - # 18
    frequency:   16.5242985411
  - # 19
    frequency:   16.5581392292
  - # 20
    frequency:   34.1344757892
  - # 21
    frequency:   60.4117569299

- q-position: [    0.0656566,    0.0000000,    0.0000000 ]
  distance:    0.0225419
  band:
  - # 1
    frequency:   -2.9973763026
  - # 2
    frequency:   -2.9143323311
  - # 3
    frequency:   -1.8867549579
  - # 4
    frequency:   -1.7186932093
  - # 5
    frequency:    0.2387737591
  - # 6
    frequency:    0.8931195754
  - # 7
    frequency:    1.4379138292
  - # 8
    frequency:    3.9968667294
  - # 9
    frequency:    4.0524307515
  - # 10
    frequency:    4.7706726352
  - # 11
    frequency:    4.9431699694
  - # 12
    frequency:    5.4621901858
  - # 13
    frequency:    8.0263401212
  - # 14
    frequency:    8.0641778604
  - # 15
    frequency:    8.2565963570
  - # 16
    frequency:    8.9317076314
  - # 17
    frequency:   15.8397824143
  - # 18
    frequency:   16.5196694804
  - # 19
    frequency:   16.5587700209
  - # 20
    frequency:   34.1288767174
  - # 21
    frequency:   60.4051949815

- q-position: [    0.0707071,    0.0000000,    0.0000000 ]
  distance:    0.0242759
  band:
  - # 1
    frequency:   -3.0131517197
  - # 2
    frequency:   -2.9264150908
  - # 3
    frequency:   -1.9014198228
  - # 4
    frequency:   -1.7139723925
  - # 5
    frequency:    0.3442703899
  - # 6
    frequency:    0.9589577986
  - # 7
    frequency:    1.5352102067
  - # 8
    frequency:    3.9980980046
  - # 9
    frequency:    4.0592753431
  - # 10
    frequency:    4.7533778758
  - # 11
    frequency:    4.9418250845
  - # 12
    frequency:    5.4749417262
  - # 13
    frequency:    8.0247421808
  - # 14
    frequency:    8.0658966911
  - # 15
    frequency:    8.2483936108
  - # 16
    frequency:    8.9198663769
  - # 17
    frequency:   15.8320186183
  - # 18
    frequency:   16.5147113296
  - # 19
    frequency:   16.5593178514
  - # 20
    frequency:   34.1228835492
  - # 21
    frequency:   60.3982652786

- q-position: [    0.0757576,    0.0000000,    0.0000000 ]
  distance:    0.0260098
  band:
  - # 1
    frequency:   -3.0283718555
  - # 2
    frequency:   -2.9396220526
  - # 3
    frequency:   -1.9159831139
  - # 4
    frequency:   -1.7094616347
  - # 5
    frequency:    0.4317705568
  - # 6
    frequency:    1.0243084534
  - # 7
    frequency:    1.6330673677
  - # 8
    frequency:    3.9994887799
  - # 9
    frequency:    4.0655531944
  - # 10
    frequency:    4.7376367488
  - # 11
    frequency:    4.9406069515
  - # 12
    frequency:    5.4878539778
  - # 13
    frequency:    8.0236664975
  - # 14
    frequency:    8.0676861457
  - # 15
    frequency:    8.2394506014
  - # 16
    frequency:    8.9075440682
  - # 17
    frequency:   15.8235919227
  - # 18
    frequency:   16.5094255204
  - # 19
    frequency:   16.5597557114
  - # 20
    frequency:   34.1165081510
  - # 21
    frequency:   60.3910008879

- q-position: [    0.0808081,    0.0000000,    0.0000000 ]
  distance:    0.0277438
  band:
  - # 1
    frequency:   -3.0427946069
  - # 2
    frequency:   -2.9538233098
  - # 3
    frequency:   -1.9303092017
  - # 4
    frequency:   -1.7052406972
  - # 5
    frequency:    0.5103746347
  - # 6
    frequency:    1.0891600406
  - # 7
    frequency:    1.7313077411
  - # 8
    frequency:    4.0010508693
  - # 9
    frequency:    4.0710062456
  - # 10
    frequency:    4.7238618168
  - # 11
    frequency:    4.9395612509
  - # 12
    frequency:    5.5009474954
  - # 13
    frequency:    8.0231920817
  - # 14
    frequency:    8.0695352895
  - # 15
    frequency:    8.2297569460
  - # 16
    frequency:    8.8948249317
  - # 17
    frequency:   15.8145064280
  - # 18
    frequency:   16.5038118648
  - # 19
    frequency:   16.5600559387
  - # 20
    frequency:   34.1097630677
  - # 21
    frequency:   60.3834361940

- q-position: [    0.0858586,    0.0000000,    0.0000000 ]
  distance:    0.0294778
  band:
  - # 1
    frequency:   -3.0561900010
  - # 2
    frequency:   -2.9688578393
  - # 3
    frequency:   -1.9442677826
  - # 4
    frequency:   -1.7013842116
  - # 5
    frequency:    0.5835090705
  - # 6
    frequency:    1.1534985237
  - # 7
    frequency:    1.8297315110
  - # 8
    frequency:    4.0027959567
  - # 9
    frequency:    4.0753776859
  - # 10
    frequency:    4.7124533199
  - # 11
    frequency:    4.9387354052
  - # 12
    frequency:    5.5142553872
  - # 13
    frequency:    8.0233825473
  - # 14
    frequency:    8.0714327947
  - # 15
    frequency:    8.2193124847
  - # 16
    frequency:    8.8817972599
  - # 17
    frequency:   15.8047720769
  - # 18
    frequency:   16.4978687059
  - # 19
    frequency:   16.5601904786
  - # 20
    frequency:   34.1026614823
  - # 21
    frequency:   60.3756066853

- q-position: [    0.0909091,    0.0000000,    0.0000000 ]
  distance:    0.0312118
  band:
  - # 1
    frequency:   -3.0683419715
  - # 2
    frequency:   -2.9845395908
  - # 3
    frequency:   -1.9577319079
  - # 4
    frequency:   -1.6979607028
  - # 5
    frequency:    0.6528769400
  - # 6
    frequency:    1.2173070378
  - # 7
    frequency:    1.9281255989
  - # 8
    frequency:    4.0047354192
  - # 9
    frequency:    4.0784315680
  - # 10
    frequency:    4.7037803250
  - # 11
    frequency:    4.9381781517
  - # 12
    frequency:    5.5278208932
  - # 13
    frequency:    8.0242794244
  - # 14
    frequency:    8.0733669898
  - # 15
    frequency:    8.2081333929
  - # 16
    frequency:    8.8685525926
  - # 17
    frequency:   15.7944048811
  - # 18
    frequency:   16.4915931896
  - # 19
    frequency:   16.5601311496
  - # 20
    frequency:   34.0952171737
  - # 21
    frequency:   60.3675487332

- q-position: [    0.0959596,    0.0000000,    0.0000000 ]
  distance:    0.0329458
  band:
  - # 1
    frequency:   -3.0790498852
  - # 2
    frequency:   -3.0006640115
  - # 3
    frequency:   -1.9705764599
  - # 4
    frequency:   -1.6950317913
  - # 5
    frequency:    0.7194609778
  - # 6
    frequency:    1.2805658827
  - # 7
    frequency:    2.0262710098
  - # 8
    frequency:    4.0068801411
  - # 9
    frequency:    4.0799762315
  - # 10
    frequency:    4.6981577175
  - # 11
    frequency:    4.9379390689
  - # 12
    frequency:    5.5416953274
  - # 13
    frequency:    8.0258918484
  - # 14
    frequency:    8.0753259071
  - # 15
    frequency:    8.1962620895
  - # 16
    frequency:    8.8551848345
  - # 17
    frequency:   15.7834269896
  - # 18
    frequency:   16.4849816476
  - # 19
    frequency:   16.5598499142
  - # 20
    frequency:   34.0874444728
  - # 21
    frequency:   60.3592993685

- q-position: [    0.1010101,    0.0000000,    0.0000000 ]
  distance:    0.0346798
  band:
  - # 1
    frequency:   -3.0881298710
  - # 2
    frequency:   -3.0170145125
  - # 3
    frequency:   -1.9826772557
  - # 4
    frequency:   -1.6926515753
  - # 5
    frequency:    0.7838845996
  - # 6
    frequency:    1.3432527607
  - # 7
    frequency:    2.1239485826
  - # 8
    frequency:    4.0092403228
  - # 9
    frequency:    4.0798879085
  - # 10
    frequency:    4.6958227548
  - # 11
    frequency:    4.9380680581
  - # 12
    frequency:    5.5559363105
  - # 13
    frequency:    8.0281792959
  - # 14
    frequency:    8.0772973273
  - # 15
    frequency:    8.1837842192
  - # 16
    frequency:    8.8417893707
  - # 17
    frequency:   15.7718666033
  - # 18
    frequency:   16.4780300819
  - # 19
    frequency:   16.5593191502
  - # 20
    frequency:   34.0793582168
  - # 21
    frequency:   60.3508960544

- q-position: [    0.1060606,    0.0000000,    0.0000000 ]
  distance:    0.0364138
  band:
  - # 1
    frequency:   -3.0954160000
  - # 2
    frequency:   -3.0333685117
  - # 3
    frequency:   -1.9939108533
  - # 4
    frequency:   -1.6908661878
  - # 5
    frequency:    0.8465695790
  - # 6
    frequency:    1.4053432054
  - # 7
    frequency:    2.2209432758
  - # 8
    frequency:    4.0118252849
  - # 9
    frequency:    4.0781294347
  - # 10
    frequency:    4.6969163485
  - # 11
    frequency:    4.9386147874
  - # 12
    frequency:    5.5706062352
  - # 13
    frequency:    8.0310205921
  - # 14
    frequency:    8.0792688214
  - # 15
    frequency:    8.1708594051
  - # 16
    frequency:    8.8284622570
  - # 17
    frequency:   15.7597577496
  - # 18
    frequency:   16.4707347311
  - # 19
    frequency:   16.5585119203
  - # 20
    frequency:   34.0709737026
  - # 21
    frequency:   60.3423764586

- q-position: [    0.1111111,    0.0000000,    0.0000000 ]
  distance:    0.0381478
  band:
  - # 1
    frequency:   -3.1007613594
  - # 2
    frequency:   -3.0495028262
  - # 3
    frequency:   -2.0041550445
  - # 4
    frequency:   -1.6897135097
  - # 5
    frequency:    0.9078142917
  - # 6
    frequency:    1.4668111518
  - # 7
    frequency:    2.3170471707
  - # 8
    frequency:    4.0146432713
  - # 9
    frequency:    4.0747592204
  - # 10
    frequency:    4.7014740033
  - # 11
    frequency:    4.9396281037
  - # 12
    frequency:    5.5857709110
  - # 13
    frequency:    8.0341555492
  - # 14
    frequency:    8.0812277910
  - # 15
    frequency:    8.1577793168
  - # 16
    frequency:    8.8152995815
  - # 17
    frequency:   15.7471399307
  - # 18
    frequency:   16.4630927003
  - # 19
    frequency:   16.5574022362
  - # 20
    frequency:   34.0623066385
  - # 21
    frequency:   60.3337782271

- q-position: [    0.1161616,    0.0000000,    0.0000000 ]
  distance:    0.0398818
  band:
  - # 1
    frequency:   -3.1040390568
  - # 2
    frequency:   -3.0651983112
  - # 3
    frequency:   -2.0132899495
  - # 4
    frequency:   -1.6892230145
  - # 5
    frequency:    0.9678363464
  - # 6
    frequency:    1.5276295963
  - # 7
    frequency:    2.4120614082
  - # 8
    frequency:    4.0177012535
  - # 9
    frequency:    4.0699279755
  - # 10
    frequency:    4.7094289967
  - # 11
    frequency:    4.9411554204
  - # 12
    frequency:    5.6014983515
  - # 13
    frequency:    8.0370748825
  - # 14
    frequency:    8.0831615041
  - # 15
    frequency:    8.1450772973
  - # 16
    frequency:    8.8023971008
  - # 17
    frequency:   15.7340576646
  - # 18
    frequency:   16.4551026321
  - # 19
    frequency:   16.5559653156
  - # 20
    frequency:   34.0533730952
  - # 21
    frequency:   60.3251387591

- q-position: [    0.1212121,    0.0000000,    0.0000000 ]
  distance:    0.0416157
  band:
  - # 1
    frequency:   -3.1051431878
  - # 2
    frequency:   -3.0802437376
  - # 3
    frequency:   -2.0211995888
  - # 4
    frequency:   -1.6894157099
  - # 5
    frequency:    1.0267975927
  - # 6
    frequency:    1.5877712998
  - # 7
    frequency:    2.5057972623
  - # 8
    frequency:    4.0210047423
  - # 9
    frequency:    4.0638642651
  - # 10
    frequency:    4.7206268010
  - # 11
    frequency:    4.9432420879
  - # 12
    frequency:    5.6178576680
  - # 13
    frequency:    8.0388375103
  - # 14
    frequency:    8.0850571303
  - # 15
    frequency:    8.1337103276
  - # 16
    frequency:    8.7898502635
  - # 17
    frequency:   15.7205599384
  - # 18
    frequency:   16.4467653964
  - # 19
    frequency:   16.5541778270
  - # 20
    frequency:   34.0441894564
  - # 21
    frequency:   60.3164949868

- q-position: [    0.1262626,    0.0000000,    0.0000000 ]
  distance:    0.0433497
  band:
  - # 1
    frequency:   -3.1039897973
  - # 2
    frequency:   -3.0944389679
  - # 3
    frequency:   -2.0277737878
  - # 4
    frequency:   -1.6903041402
  - # 5
    frequency:    1.0848197338
  - # 6
    frequency:    1.6472094955
  - # 7
    frequency:    2.5980765274
  - # 8
    frequency:    4.0245576114
  - # 9
    frequency:    4.0568530190
  - # 10
    frequency:    4.7348467097
  - # 11
    frequency:    4.9459307557
  - # 12
    frequency:    5.6349180411
  - # 13
    frequency:    8.0379189130
  - # 14
    frequency:    8.0869017719
  - # 15
    frequency:    8.1252095426
  - # 16
    frequency:    8.7777547229
  - # 17
    frequency:   15.7066995912
  - # 18
    frequency:   16.4380847789
  - # 19
    frequency:   16.5520181207
  - # 20
    frequency:   34.0347723677
  - # 21
    frequency:   60.3078831606

- q-position: [    0.1313131,    0.0000000,    0.0000000 ]
  distance:    0.0450837
  band:
  - # 1
    frequency:   -3.1075975277
  - # 2
    frequency:   -3.1005178615
  - # 3
    frequency:   -2.0329102687
  - # 4
    frequency:   -1.6918924051
  - # 5
    frequency:    1.1419946234
  - # 6
    frequency:    1.7059185663
  - # 7
    frequency:    2.6887313453
  - # 8
    frequency:    4.0283619397
  - # 9
    frequency:    4.0492122705
  - # 10
    frequency:    4.7518254844
  - # 11
    frequency:    4.9492607347
  - # 12
    frequency:    5.6527477414
  - # 13
    frequency:    8.0325965875
  - # 14
    frequency:    8.0886824951
  - # 15
    frequency:    8.1212931651
  - # 16
    frequency:    8.7662074300
  - # 17
    frequency:   15.6925326463
  - # 18
    frequency:   16.4290681489
  - # 19
    frequency:   16.5494664423
  - # 20
    frequency:   34.0251386865
  - # 21
    frequency:   60.2993386405

- q-position: [    0.1363636,    0.0000000,    0.0000000 ]
  distance:    0.0468177
  band:
  - # 1
    frequency:   -3.1195486857
  - # 2
    frequency:   -3.0946903155
  - # 3
    frequency:   -2.0365167957
  - # 4
    frequency:   -1.6941761524
  - # 5
    frequency:    1.1983914038
  - # 6
    frequency:    1.7638746643
  - # 7
    frequency:    2.7776035385
  - # 8
    frequency:    4.0324178791
  - # 9
    frequency:    4.0412725777
  - # 10
    frequency:    4.7712786894
  - # 11
    frequency:    4.9532673690
  - # 12
    frequency:    5.6714131744
  - # 13
    frequency:    8.0221665312
  - # 14
    frequency:    8.0903863578
  - # 15
    frequency:    8.1226478613
  - # 16
    frequency:    8.7553083665
  - # 17
    frequency:   15.6781176064
  - # 18
    frequency:   16.4197270891
  - # 19
    frequency:   16.5465051259
  - # 20
    frequency:   34.0153054310
  - # 21
    frequency:   60.2908956976

- q-position: [    0.1414141,    0.0000000,    0.0000000 ]
  distance:    0.0485517
  band:
  - # 1
    frequency:   -3.1301391564
  - # 2
    frequency:   -3.0864951543
  - # 3
    frequency:   -2.0385132579
  - # 4
    frequency:   -1.6971424996
  - # 5
    frequency:    1.2540616883
  - # 6
    frequency:    1.8210562488
  - # 7
    frequency:    2.8645434450
  - # 8
    frequency:    4.0333617045
  - # 9
    frequency:    4.0367235567
  - # 10
    frequency:    4.7929172769
  - # 11
    frequency:    4.9579814258
  - # 12
    frequency:    5.6909779207
  - # 13
    frequency:    8.0074060741
  - # 14
    frequency:    8.0920004383
  - # 15
    frequency:    8.1284631736
  - # 16
    frequency:    8.7451629354
  - # 17
    frequency:   15.6635147264
  - # 18
    frequency:   16.4100779757
  - # 19
    frequency:   16.5431187652
  - # 20
    frequency:   34.0052897294
  - # 21
    frequency:   60.2825873237

- q-position: [    0.1464646,    0.0000000,    0.0000000 ]
  distance:    0.0502857
  band:
  - # 1
    frequency:   -3.1392345282
  - # 2
    frequency:   -3.0759466296
  - # 3
    frequency:   -2.0388335974
  - # 4
    frequency:   -1.7007698386
  - # 5
    frequency:    1.3090434865
  - # 6
    frequency:    1.8774445256
  - # 7
    frequency:    2.9494081694
  - # 8
    frequency:    4.0257953163
  - # 9
    frequency:    4.0412750197
  - # 10
    frequency:    4.8164588593
  - # 11
    frequency:    4.9634285124
  - # 12
    frequency:    5.7115017463
  - # 13
    frequency:    7.9895645128
  - # 14
    frequency:    8.0935118630
  - # 15
    frequency:    8.1374376224
  - # 16
    frequency:    8.7358849630
  - # 17
    frequency:   15.6487852744
  - # 18
    frequency:   16.4001424961
  - # 19
    frequency:   16.5392943588
  - # 20
    frequency:   33.9951087693
  - # 21
    frequency:   60.2744450536

- q-position: [    0.1515152,    0.0000000,    0.0000000 ]
  distance:    0.0520197
  band:
  - # 1
    frequency:   -3.1467205057
  - # 2
    frequency:   -3.0630865676
  - # 3
    frequency:   -2.0374275129
  - # 4
    frequency:   -1.7050274818
  - # 5
    frequency:    1.3633642968
  - # 6
    frequency:    1.9330237725
  - # 7
    frequency:    3.0320590764
  - # 8
    frequency:    4.0188732714
  - # 9
    frequency:    4.0460662297
  - # 10
    frequency:    4.8416343348
  - # 11
    frequency:    4.9696285311
  - # 12
    frequency:    5.7330395576
  - # 13
    frequency:    7.9696054425
  - # 14
    frequency:    8.0949078347
  - # 15
    frequency:    8.1485327230
  - # 16
    frequency:    8.7276001699
  - # 17
    frequency:   15.6339907903
  - # 18
    frequency:   16.3899480972
  - # 19
    frequency:   16.5350214285
  - # 20
    frequency:   33.9847797480
  - # 21
    frequency:   60.2664987985