nqpoint: 300    
npath: 3      
segment_nqpoint:
- 100
- 100
- 100
labels:
- [ 'G', 'M' ]
- [ 'M', 'K' ]
- [ 'K', 'G' ]
reciprocal_lattice:
- [   0.31502470,   0.18187959,   0.00000000 ] # a*
- [   0.00000000,   0.36375919,   0.00000000 ] # b*
- [   0.00000000,   0.00000000,   0.03770357 ] # c*
natom: 8      
lattice:
- [     3.174354305373708,     0.000000000000000,     0.000000000000000 ] # a
- [    -1.587177152686854,     2.749071469053870,     0.000000000000000 ] # b
- [     0.000000000000000,     0.000000000000000,    26.522685733466535 ] # c
points:
- symbol: C # 1
  coordinates: [  0.333332985432215,  0.666666983183674,  0.615321461497535 ]
  mass: 12.010700
- symbol: C # 2
  coordinates: [  0.666666984744047,  0.333332985985145,  0.384115589779007 ]
  mass: 12.010700
- symbol: N # 3
  coordinates: [  0.000000000000000,  0.000000000000000,  0.521640580101900 ]
  mass: 14.006700
- symbol: N # 4
  coordinates: [  0.333332985432215,  0.666666983183674,  0.660667849008831 ]
  mass: 14.006700
- symbol: N # 5
  coordinates: [  0.666666984744047,  0.333332985985145,  0.339332150991169 ]
  mass: 14.006700
- symbol: O # 6
  coordinates: [  0.666666984744047,  0.333332985985145,  0.434495353164368 ]
  mass: 15.999400
- symbol: Ti # 7
  coordinates: [  0.333332985432215,  0.666666983183674,  0.482931286306097 ]
  mass: 47.867000
- symbol: Ti # 8
  coordinates: [  0.666666984744047,  0.333332985985145,  0.561972539688569 ]
  mass: 47.867000

phonon:
- q-position: [    0.0000000,    0.0000000,    0.0000000 ]
  distance:    0.0000000
  band:
  - # 1
    frequency:   -0.7148079197
  - # 2
    frequency:   -0.7148079196
  - # 3
    frequency:   -0.0000291587
  - # 4
    frequency:   -0.0000006547
  - # 5
    frequency:    0.0000207851
  - # 6
    frequency:    0.9267736224
  - # 7
    frequency:    0.9267736227
  - # 8
    frequency:    5.1001420178
  - # 9
    frequency:    5.1001420179
  - # 10
    frequency:    6.5809670149
  - # 11
    frequency:    7.7126816070
  - # 12
    frequency:    7.7126816070
  - # 13
    frequency:    8.2620831627
  - # 14
    frequency:    8.2620831627
  - # 15
    frequency:    9.8073322586
  - # 16
    frequency:   12.2323643835
  - # 17
    frequency:   14.0362167702
  - # 18
    frequency:   14.0362167703
  - # 19
    frequency:   16.2636971872
  - # 20
    frequency:   17.5976884353
  - # 21
    frequency:   17.5976884353
  - # 22
    frequency:   31.8919923649
  - # 23
    frequency:   61.3271658248
  - # 24
    frequency:   67.7356157433

- q-position: [    0.0050505,    0.0000000,    0.0000000 ]
  distance:    0.0018372
  band:
  - # 1
    frequency:   -0.7158983097
  - # 2
    frequency:   -0.7135802227
  - # 3
    frequency:    0.0026803874
  - # 4
    frequency:    0.0923931743
  - # 5
    frequency:    0.1485048911
  - # 6
    frequency:    0.9283871754
  - # 7
    frequency:    0.9325554828
  - # 8
    frequency:    5.1002447881
  - # 9
    frequency:    5.1009252928
  - # 10
    frequency:    6.5804362774
  - # 11
    frequency:    7.7121850380
  - # 12
    frequency:    7.7132369565
  - # 13
    frequency:    8.2622480579
  - # 14
    frequency:    8.2630610789
  - # 15
    frequency:    9.8071688067
  - # 16
    frequency:   12.2312560021
  - # 17
    frequency:   14.0362405717
  - # 18
    frequency:   14.0365169946
  - # 19
    frequency:   16.2634055668
  - # 20
    frequency:   17.5977445055
  - # 21
    frequency:   17.5978016250
  - # 22
    frequency:   31.8915658027
  - # 23
    frequency:   61.3270651131
  - # 24
    frequency:   67.7354135713

- q-position: [    0.0101010,    0.0000000,    0.0000000 ]
  distance:    0.0036743
  band:
  - # 1
    frequency:   -0.7190691298
  - # 2
    frequency:   -0.7097976144
  - # 3
    frequency:    0.0107510122
  - # 4
    frequency:    0.1840417264
  - # 5
    frequency:    0.2956922996
  - # 6
    frequency:    0.9332726852
  - # 7
    frequency:    0.9499559375
  - # 8
    frequency:    5.1005527667
  - # 9
    frequency:    5.1032728267
  - # 10
    frequency:    6.5788520587
  - # 11
    frequency:    7.7107002118
  - # 12
    frequency:    7.7149037069
  - # 13
    frequency:    8.2627387572
  - # 14
    frequency:    8.2659839817
  - # 15
    frequency:    9.8066792125
  - # 16
    frequency:   12.2279339217
  - # 17
    frequency:   14.0363120646
  - # 18
    frequency:   14.0374169123
  - # 19
    frequency:   16.2625311354
  - # 20
    frequency:   17.5979122755
  - # 21
    frequency:   17.5981400117
  - # 22
    frequency:   31.8902871600
  - # 23
    frequency:   61.3267631572
  - # 24
    frequency:   67.7348074507

- q-position: [    0.0151515,    0.0000000,    0.0000000 ]
  distance:    0.0055115
  band:
  - # 1
    frequency:   -0.7240713188
  - # 2
    frequency:   -0.7032774881
  - # 3
    frequency:    0.0243080761
  - # 4
    frequency:    0.2742822506
  - # 5
    frequency:    0.4401808903
  - # 6
    frequency:    0.9415725180
  - # 7
    frequency:    0.9792342697
  - # 8
    frequency:    5.1010649651
  - # 9
    frequency:    5.1071777674
  - # 10
    frequency:    6.5762381052
  - # 11
    frequency:    7.7082416066
  - # 12
    frequency:    7.7176838944
  - # 13
    frequency:    8.2635434639
  - # 14
    frequency:    8.2708196390
  - # 15
    frequency:    9.8058657612
  - # 16
    frequency:   12.2224073129
  - # 17
    frequency:   14.0364315147
  - # 18
    frequency:   14.0389142699
  - # 19
    frequency:   16.2610751871
  - # 20
    frequency:   17.5981904218
  - # 21
    frequency:   17.5987000547
  - # 22
    frequency:   31.8881595655
  - # 23
    frequency:   61.3262604939
  - # 24
    frequency:   67.7337985665

- q-position: [    0.0202020,    0.0000000,    0.0000000 ]
  distance:    0.0073487
  band:
  - # 1
    frequency:   -0.7306163273
  - # 2
    frequency:   -0.6939494891
  - # 3
    frequency:    0.0435308455
  - # 4
    frequency:    0.3625286613
  - # 5
    frequency:    0.5801946963
  - # 6
    frequency:    0.9535508165
  - # 7
    frequency:    1.0211438604
  - # 8
    frequency:    5.1017797618
  - # 9
    frequency:    5.1126287655
  - # 10
    frequency:    6.5726332305
  - # 11
    frequency:    7.7048328205
  - # 12
    frequency:    7.7215806853
  - # 13
    frequency:    8.2646430408
  - # 14
    frequency:    8.2775153246
  - # 15
    frequency:    9.8047322624
  - # 16
    frequency:   12.2146913936
  - # 17
    frequency:   14.0365993627
  - # 18
    frequency:   14.0410053511
  - # 19
    frequency:   16.2590398909
  - # 20
    frequency:   17.5985767317
  - # 21
    frequency:   17.5994758784
  - # 22
    frequency:   31.8851882217
  - # 23
    frequency:   61.3255580164
  - # 24
    frequency:   67.7323888898

- q-position: [    0.0252525,    0.0000000,    0.0000000 ]
  distance:    0.0091858
  band:
  - # 1
    frequency:   -0.7384625174
  - # 2
    frequency:   -0.6819563308
  - # 3
    frequency:    0.0686944350
  - # 4
    frequency:    0.4481793766
  - # 5
    frequency:    0.7130446994
  - # 6
    frequency:    0.9696356219
  - # 7
    frequency:    1.0773702226
  - # 8
    frequency:    5.1026949418
  - # 9
    frequency:    5.1196100783
  - # 10
    frequency:    6.5680902309
  - # 11
    frequency:    7.7005058239
  - # 12
    frequency:    7.7265980582
  - # 13
    frequency:    8.2660117460
  - # 14
    frequency:    8.2859992286
  - # 15
    frequency:    9.8032840510
  - # 16
    frequency:   12.2048073323
  - # 17
    frequency:   14.0368162213
  - # 18
    frequency:   14.0436850347
  - # 19
    frequency:   16.2564283092
  - # 20
    frequency:   17.5990680941
  - # 21
    frequency:   17.6004593091
  - # 22
    frequency:   31.8813803867
  - # 23
    frequency:   61.3246569715
  - # 24
    frequency:   67.7305811719

- q-position: [    0.0303030,    0.0000000,    0.0000000 ]
  distance:    0.0110230
  band:
  - # 1
    frequency:   -0.7474463951
  - # 2
    frequency:   -0.6676840423
  - # 3
    frequency:    0.1001597810
  - # 4
    frequency:    0.5304885352
  - # 5
    frequency:    0.8349576523
  - # 6
    frequency:    0.9904759160
  - # 7
    frequency:    1.1506749414
  - # 8
    frequency:    5.1038077514
  - # 9
    frequency:    5.1281017118
  - # 10
    frequency:    6.5626744838
  - # 11
    frequency:    7.6953000040
  - # 12
    frequency:    7.7327403994
  - # 13
    frequency:    8.2676181704
  - # 14
    frequency:    8.2961822808
  - # 15
    frequency:    9.8015279869
  - # 16
    frequency:   12.1927821169
  - # 17
    frequency:   14.0370828709
  - # 18
    frequency:   14.0469468704
  - # 19
    frequency:   16.2532444222
  - # 20
    frequency:   17.5996604862
  - # 21
    frequency:   17.6016399272
  - # 22
    frequency:   31.8767453489
  - # 23
    frequency:   61.3235589566
  - # 24
    frequency:   67.7283789356

- q-position: [    0.0353535,    0.0000000,    0.0000000 ]
  distance:    0.0128602
  band:
  - # 1
    frequency:   -0.7574742818
  - # 2
    frequency:   -0.6517908194
  - # 3
    frequency:    0.1383173596
  - # 4
    frequency:    0.6084607135
  - # 5
    frequency:    0.9425631133
  - # 6
    frequency:    1.0169921994
  - # 7
    frequency:    1.2434305332
  - # 8
    frequency:    5.1051149682
  - # 9
    frequency:    5.1380795964
  - # 10
    frequency:    6.5564623260
  - # 11
    frequency:    7.6892610775
  - # 12
    frequency:    7.7400120445
  - # 13
    frequency:    8.2694263022
  - # 14
    frequency:    8.3079602628
  - # 15
    frequency:    9.7994724508
  - # 16
    frequency:   12.1786483955
  - # 17
    frequency:   14.0374002539
  - # 18
    frequency:   14.0507831708
  - # 19
    frequency:   16.2494931570
  - # 20
    frequency:   17.6003489569
  - # 21
    frequency:   17.6030051329
  - # 22
    frequency:   31.8712943953
  - # 23
    frequency:   61.3222659146
  - # 24
    frequency:   67.7257864651

- q-position: [    0.0404040,    0.0000000,    0.0000000 ]
  distance:    0.0146973
  band:
  - # 1
    frequency:   -0.7684998761
  - # 2
    frequency:   -0.6352361594
  - # 3
    frequency:    0.1834607533
  - # 4
    frequency:    0.6808451733
  - # 5
    frequency:    1.0360499787
  - # 6
    frequency:    1.0503530923
  - # 7
    frequency:    1.3544974922
  - # 8
    frequency:    5.1066129861
  - # 9
    frequency:    5.1495157936
  - # 10
    frequency:    6.5495393190
  - # 11
    frequency:    7.6824399447
  - # 12
    frequency:    7.7484167962
  - # 13
    frequency:    8.2713966428
  - # 14
    frequency:    8.3212160803
  - # 15
    frequency:    9.7971273351
  - # 16
    frequency:   12.1624442925
  - # 17
    frequency:   14.0377694678
  - # 18
    frequency:   14.0551851140
  - # 19
    frequency:   16.2451804208
  - # 20
    frequency:   17.6011276070
  - # 21
    frequency:   17.6045402265
  - # 22
    frequency:   31.8650407721
  - # 23
    frequency:   61.3207801290
  - # 24
    frequency:   67.7228087928

- q-position: [    0.0454545,    0.0000000,    0.0000000 ]
  distance:    0.0165345
  band:
  - # 1
    frequency:   -0.7805029637
  - # 2
    frequency:   -0.6192472830
  - # 3
    frequency:    0.2355889378
  - # 4
    frequency:    0.7463495601
  - # 5
    frequency:    1.0917512383
  - # 6
    frequency:    1.1194790399
  - # 7
    frequency:    1.4789362332
  - # 8
    frequency:    5.1082979153
  - # 9
    frequency:    5.1623787274
  - # 10
    frequency:    6.5419985019
  - # 11
    frequency:    7.6748915539
  - # 12
    frequency:    7.7579574461
  - # 13
    frequency:    8.2734873059
  - # 14
    frequency:    8.3358220743
  - # 15
    frequency:    9.7945040270
  - # 16
    frequency:   12.1442132080
  - # 17
    frequency:   14.0381917566
  - # 18
    frequency:   14.0601428527
  - # 19
    frequency:   16.2403131363
  - # 20
    frequency:   17.6019895667
  - # 21
    frequency:   17.6062285008
  - # 22
    frequency:   31.8579996390
  - # 23
    frequency:   61.3191042174
  - # 24
    frequency:   67.7194516844

- q-position: [    0.0505051,    0.0000000,    0.0000000 ]
  distance:    0.0183717
  band:
  - # 1
    frequency:   -0.7934742400
  - # 2
    frequency:   -0.6051418054
  - # 3
    frequency:    0.2942055616
  - # 4
    frequency:    0.8041357158
  - # 5
    frequency:    1.1419070980
  - # 6
    frequency:    1.1974205933
  - # 7
    frequency:    1.6113809762
  - # 8
    frequency:    5.1101656954
  - # 9
    frequency:    5.1766334373
  - # 10
    frequency:    6.5339387239
  - # 11
    frequency:    7.6666738276
  - # 12
    frequency:    7.7686353198
  - # 13
    frequency:    8.2756550475
  - # 14
    frequency:    8.3516422692
  - # 15
    frequency:    9.7916153789
  - # 16
    frequency:   12.1240036038
  - # 17
    frequency:   14.0386685017
  - # 18
    frequency:   14.0656456263
  - # 19
    frequency:   16.2348992773
  - # 20
    frequency:   17.6029269713
  - # 21
    frequency:   17.6080513460
  - # 22
    frequency:   31.8501880173
  - # 23
    frequency:   61.3172411244
  - # 24
    frequency:   67.7157216214

- q-position: [    0.0555556,    0.0000000,    0.0000000 ]
  distance:    0.0202088
  band:
  - # 1
    frequency:   -0.8074060995
  - # 2
    frequency:   -0.5940074346
  - # 3
    frequency:    0.3582634957
  - # 4
    frequency:    0.8543356821
  - # 5
    frequency:    1.2005566197
  - # 6
    frequency:    1.2729320705
  - # 7
    frequency:    1.7480634754
  - # 8
    frequency:    5.1122122225
  - # 9
    frequency:    5.1922418489
  - # 10
    frequency:    6.5254631281
  - # 11
    frequency:    7.6578466887
  - # 12
    frequency:    7.7804498575
  - # 13
    frequency:    8.2778561862
  - # 14
    frequency:    8.3685344845
  - # 15
    frequency:    9.7884756639
  - # 16
    frequency:   12.1018687841
  - # 17
    frequency:   14.0392012096
  - # 18
    frequency:   14.0716818707
  - # 19
    frequency:   16.2289479040
  - # 20
    frequency:   17.6039309341
  - # 21
    frequency:   17.6099883662
  - # 22
    frequency:   31.8416247308
  - # 23
    frequency:   61.3151941131
  - # 24
    frequency:   67.7116257820

- q-position: [    0.0606061,    0.0000000,    0.0000000 ]
  distance:    0.0220460
  band:
  - # 1
    frequency:   -0.8222877516
  - # 2
    frequency:   -0.5863998953
  - # 3
    frequency:    0.4263602967
  - # 4
    frequency:    0.8980808585
  - # 5
    frequency:    1.2664267327
  - # 6
    frequency:    1.3476544529
  - # 7
    frequency:    1.8867117665
  - # 8
    frequency:    5.1144334881
  - # 9
    frequency:    5.2091630569
  - # 10
    frequency:    6.5166778407
  - # 11
    frequency:    7.6484712071
  - # 12
    frequency:    7.7933982359
  - # 13
    frequency:    8.2800473961
  - # 14
    frequency:    8.3863522593
  - # 15
    frequency:    9.7851005104
  - # 16
    frequency:   12.0778666735
  - # 17
    frequency:   14.0397915001
  - # 18
    frequency:   14.0782393240
  - # 19
    frequency:   16.2224691956
  - # 20
    frequency:   17.6049915193
  - # 21
    frequency:   17.6120175059
  - # 22
    frequency:   31.8323303419
  - # 23
    frequency:   61.3129667569
  - # 24
    frequency:   67.7071720193

- q-position: [    0.0656566,    0.0000000,    0.0000000 ]
  distance:    0.0238832
  band:
  - # 1
    frequency:   -0.8381030648
  - # 2
    frequency:   -0.5822608966
  - # 3
    frequency:    0.4970876841
  - # 4
    frequency:    0.9369866353
  - # 5
    frequency:    1.3377550397
  - # 6
    frequency:    1.4223805090
  - # 7
    frequency:    2.0259739952
  - # 8
    frequency:    5.1168257290
  - # 9
    frequency:    5.2273536203
  - # 10
    frequency:    6.5076908962
  - # 11
    frequency:    7.6386088725
  - # 12
    frequency:    7.8074750322
  - # 13
    frequency:    8.2821863616
  - # 14
    frequency:    8.4049465675
  - # 15
    frequency:    9.7815068111
  - # 16
    frequency:   12.0520595981
  - # 17
    frequency:   14.0404410916
  - # 18
    frequency:   14.0853051238
  - # 19
    frequency:   16.2154744788
  - # 20
    frequency:   17.6060977133
  - # 21
    frequency:   17.6141151856
  - # 22
    frequency:   31.8223270809
  - # 23
    frequency:   61.3105629287
  - # 24
    frequency:   67.7023688386

- q-position: [    0.0707071,    0.0000000,    0.0000000 ]
  distance:    0.0257203
  band:
  - # 1
    frequency:   -0.8548299781
  - # 2
    frequency:   -0.5810756101
  - # 3
    frequency:    0.5693109719
  - # 4
    frequency:    0.9725933646
  - # 5
    frequency:    1.4128524310
  - # 6
    frequency:    1.4974563486
  - # 7
    frequency:    2.1650078504
  - # 8
    frequency:    5.1193855870
  - # 9
    frequency:    5.2467678669
  - # 10
    frequency:    6.4986114129
  - # 11
    frequency:    7.6283209898
  - # 12
    frequency:    7.8226719271
  - # 13
    frequency:    8.2842323003
  - # 14
    frequency:    8.4241673222
  - # 15
    frequency:    9.7777126008
  - # 16
    frequency:   12.0245140722
  - # 17
    frequency:   14.0411517852
  - # 18
    frequency:   14.0928658963
  - # 19
    frequency:   16.2079762515
  - # 20
    frequency:   17.6072373970
  - # 21
    frequency:   17.6162564455
  - # 22
    frequency:   31.8116387704
  - # 23
    frequency:   61.3079867914
  - # 24
    frequency:   67.6972253717

- q-position: [    0.0757576,    0.0000000,    0.0000000 ]
  distance:    0.0275575
  band:
  - # 1
    frequency:   -0.8724407395
  - # 2
    frequency:   -0.5821138850
  - # 3
    frequency:    0.6422620715
  - # 4
    frequency:    1.0061026563
  - # 5
    frequency:    1.4903695996
  - # 6
    frequency:    1.5730009316
  - # 7
    frequency:    2.3032521145
  - # 8
    frequency:    5.1221102759
  - # 9
    frequency:    5.2673582074
  - # 10
    frequency:    6.4895490163
  - # 11
    frequency:    7.6176681845
  - # 12
    frequency:    7.8389774408
  - # 13
    frequency:    8.2861463640
  - # 14
    frequency:    8.4438646851
  - # 15
    frequency:    9.7737368956
  - # 16
    frequency:   11.9953005943
  - # 17
    frequency:   14.0419254476
  - # 18
    frequency:   14.1009078331
  - # 19
    frequency:   16.1999881993
  - # 20
    frequency:   17.6083973184
  - # 21
    frequency:   17.6184150960
  - # 22
    frequency:   31.8002907446
  - # 23
    frequency:   61.3052427857
  - # 24
    frequency:   67.6917513502

- q-position: [    0.0808081,    0.0000000,    0.0000000 ]
  distance:    0.0293947
  band:
  - # 1
    frequency:   -0.8909025254
  - # 2
    frequency:   -0.5846161005
  - # 3
    frequency:    0.7154925308
  - # 4
    frequency:    1.0383588611
  - # 5
    frequency:    1.5693176955
  - # 6
    frequency:    1.6490191282
  - # 7
    frequency:    2.4403053212
  - # 8
    frequency:    5.1249977537
  - # 9
    frequency:    5.2890754619
  - # 10
    frequency:    6.4806134932
  - # 11
    frequency:    7.6067100039
  - # 12
    frequency:    7.8563766981
  - # 13
    frequency:    8.2878919337
  - # 14
    frequency:    8.4638902075
  - # 15
    frequency:    9.7695994880
  - # 16
    frequency:   11.9644934519
  - # 17
    frequency:   14.0427639919
  - # 18
    frequency:   14.1094167585
  - # 19
    frequency:   16.1915252057
  - # 20
    frequency:   17.6095630672
  - # 21
    frequency:   17.6205638724
  - # 22
    frequency:   31.7883097634
  - # 23
    frequency:   61.3023356189
  - # 24
    frequency:   67.6859570773

- q-position: [    0.0858586,    0.0000000,    0.0000000 ]
  distance:    0.0312318
  band:
  - # 1
    frequency:   -0.9101781905
  - # 2
    frequency:   -0.5878884405
  - # 3
    frequency:    0.7887790088
  - # 4
    frequency:    1.0699246989
  - # 5
    frequency:    1.6489942845
  - # 6
    frequency:    1.7254597605
  - # 7
    frequency:    2.5758603263
  - # 8
    frequency:    5.1280468990
  - # 9
    frequency:    5.3118692010
  - # 10
    frequency:    6.4719146540
  - # 11
    frequency:    7.5955045940
  - # 12
    frequency:    7.8748512142
  - # 13
    frequency:    8.2894348251
  - # 14
    frequency:    8.4840978381
  - # 15
    frequency:    9.7653206905
  - # 16
    frequency:   11.9321705379
  - # 17
    frequency:   14.0436693578
  - # 18
    frequency:   14.1183781844
  - # 19
    frequency:   16.1826033534
  - # 20
    frequency:   17.6107190524
  - # 21
    frequency:   17.6226745949
  - # 22
    frequency:   31.7757239222
  - # 23
    frequency:   61.2992702518
  - # 24
    frequency:   67.6798533969

- q-position: [    0.0909091,    0.0000000,    0.0000000 ]
  distance:    0.0330690
  band:
  - # 1
    frequency:   -0.9302270095
  - # 2
    frequency:   -0.5913327222
  - # 3
    frequency:    0.8620372712
  - # 4
    frequency:    1.1011648290
  - # 5
    frequency:    1.7289009342
  - # 6
    frequency:    1.8022457173
  - # 7
    frequency:    2.7096677432
  - # 8
    frequency:    5.1312576861
  - # 9
    frequency:    5.3356881081
  - # 10
    frequency:    6.4635623690
  - # 11
    frequency:    7.5841084380
  - # 12
    frequency:    7.8943786968
  - # 13
    frequency:    8.2907434232
  - # 14
    frequency:    8.5043448354
  - # 15
    frequency:    9.7609210216
  - # 16
    frequency:   11.8984131779
  - # 17
    frequency:   14.0446434895
  - # 18
    frequency:   14.1277773562
  - # 19
    frequency:   16.1732399167
  - # 20
    frequency:   17.6118484832
  - # 21
    frequency:   17.6247183302
  - # 22
    frequency:   31.7625625581
  - # 23
    frequency:   61.2960518855
  - # 24
    frequency:   67.6734516632

- q-position: [    0.0959596,    0.0000000,    0.0000000 ]
  distance:    0.0349062
  band:
  - # 1
    frequency:   -0.9510053433
  - # 2
    frequency:   -0.5944431605
  - # 3
    frequency:    0.9352611472
  - # 4
    frequency:    1.1323108972
  - # 5
    frequency:    1.8086789851
  - # 6
    frequency:    1.8792897108
  - # 7
    frequency:    2.8415146223
  - # 8
    frequency:    5.1346313577
  - # 9
    frequency:    5.3604803687
  - # 10
    frequency:    6.4556667448
  - # 11
    frequency:    7.5725761385
  - # 12
    frequency:    7.9149328568
  - # 13
    frequency:    8.2917887600
  - # 14
    frequency:    8.5244926239
  - # 15
    frequency:    9.7564208286
  - # 16
    frequency:   11.8633059672
  - # 17
    frequency:   14.0456883129
  - # 18
    frequency:   14.1375992881
  - # 19
    frequency:   16.1634533454
  - # 20
    frequency:   17.6129333545
  - # 21
    frequency:   17.6266655549
  - # 22
    frequency:   31.7488561519
  - # 23
    frequency:   61.2926859479
  - # 24
    frequency:   67.6667637068

- q-position: [    0.1010101,    0.0000000,    0.0000000 ]
  distance:    0.0367434
  band:
  - # 1
    frequency:   -0.9724671988
  - # 2
    frequency:   -0.5967908956
  - # 3
    frequency:    1.0084841797
  - # 4
    frequency:    1.1635065894
  - # 5
    frequency:    1.8880650568
  - # 6
    frequency:    1.9565024950
  - # 7
    frequency:    2.9712114565
  - # 8
    frequency:    5.1381705912
  - # 9
    frequency:    5.3861940947
  - # 10
    frequency:    6.4483383993
  - # 11
    frequency:    7.5609602317
  - # 12
    frequency:    7.9364832215
  - # 13
    frequency:    8.2925445497
  - # 14
    frequency:    8.5444076297
  - # 15
    frequency:    9.7518398435
  - # 16
    frequency:   11.8269366163
  - # 17
    frequency:   14.0468057117
  - # 18
    frequency:   14.1478287911
  - # 19
    frequency:   16.1532632389
  - # 20
    frequency:   17.6139544383
  - # 21
    frequency:   17.6284863185
  - # 22
    frequency:   31.7346362266
  - # 23
    frequency:   61.2891780791
  - # 24
    frequency:   67.6598018018

- q-position: [    0.1060606,    0.0000000,    0.0000000 ]
  distance:    0.0385805
  band:
  - # 1
    frequency:   -0.9945646777
  - # 2
    frequency:   -0.5980062326
  - # 3
    frequency:    1.0817571885
  - # 4
    frequency:    1.1948375219
  - # 5
    frequency:    1.9668615186
  - # 6
    frequency:    2.0337970547
  - # 7
    frequency:    3.0985838990
  - # 8
    frequency:    5.1418796543
  - # 9
    frequency:    5.4127777931
  - # 10
    frequency:    6.4416887938
  - # 11
    frequency:    7.5493110231
  - # 12
    frequency:    7.9589949415
  - # 13
    frequency:    8.2929871938
  - # 14
    frequency:    8.5639621314
  - # 15
    frequency:    9.7471966703
  - # 16
    frequency:   11.7893958040
  - # 17
    frequency:   14.0479975022
  - # 18
    frequency:   14.1584504937
  - # 19
    frequency:   16.1426903107
  - # 20
    frequency:   17.6148912811
  - # 21
    frequency:   17.6301504061
  - # 22
    frequency:   31.7199352440
  - # 23
    frequency:   61.2855341168
  - # 24
    frequency:   67.6525786301

- q-position: [    0.1111111,    0.0000000,    0.0000000 ]
  distance:    0.0404177
  band:
  - # 1
    frequency:   -1.0172483188
  - # 2
    frequency:   -0.5977622642
  - # 3
    frequency:    1.1551358007
  - # 4
    frequency:    1.2263508369
  - # 5
    frequency:    2.0449171026
  - # 6
    frequency:    2.1110906124
  - # 7
    frequency:    3.2234672502
  - # 8
    frequency:    5.1457645460
  - # 9
    frequency:    5.4401808861
  - # 10
    frequency:    6.4358305787
  - # 11
    frequency:    7.5376764362
  - # 12
    frequency:    7.9824285821
  - # 13
    frequency:    8.2930957633
  - # 14
    frequency:    8.5830351527
  - # 15
    frequency:    9.7425082060
  - # 16
    frequency:   11.7507770337
  - # 17
    frequency:   14.0492654076
  - # 18
    frequency:   14.1694488576
  - # 19
    frequency:   16.1317563435
  - # 20
    frequency:   17.6157222101
  - # 21
    frequency:   17.6316274989
  - # 22
    frequency:   31.7047864976
  - # 23
    frequency:   61.2817600813
  - # 24
    frequency:   67.6451072457

- q-position: [    0.1161616,    0.0000000,    0.0000000 ]
  distance:    0.0422549
  band:
  - # 1
    frequency:   -1.0404673483
  - # 2
    frequency:   -0.5957606260
  - # 3
    frequency:    1.2286738726
  - # 4
    frequency:    1.2580680745
  - # 5
    frequency:    2.1221141266
  - # 6
    frequency:    2.1883054492
  - # 7
    frequency:    3.3457026358
  - # 8
    frequency:    5.1498331198
  - # 9
    frequency:    5.4683542867
  - # 10
    frequency:    6.4308779046
  - # 11
    frequency:    7.5261018696
  - # 12
    frequency:    8.0067398855
  - # 13
    frequency:    8.2928519666
  - # 14
    frequency:    8.6015134238
  - # 15
    frequency:    9.7377890026
  - # 16
    frequency:   11.7111764916
  - # 17
    frequency:   14.0506110318
  - # 18
    frequency:   14.1808081892
  - # 19
    frequency:   16.1204841352
  - # 20
    frequency:   17.6164243463
  - # 21
    frequency:   17.6328873318
  - # 22
    frequency:   31.6892240046
  - # 23
    frequency:   61.2778621596
  - # 24
    frequency:   67.6374010381

- q-position: [    0.1212121,    0.0000000,    0.0000000 ]
  distance:    0.0440920
  band:
  - # 1
    frequency:   -1.0641698534
  - # 2
    frequency:   -0.5917189447
  - # 3
    frequency:    1.2899936991
  - # 4
    frequency:    1.3024202719
  - # 5
    frequency:    2.1983599778
  - # 6
    frequency:    2.2653690884
  - # 7
    frequency:    3.4651342749
  - # 8
    frequency:    5.1540951834
  - # 9
    frequency:    5.4972510314
  - # 10
    frequency:    6.4269466515
  - # 11
    frequency:    7.5146300585
  - # 12
    frequency:    8.0318794883
  - # 13
    frequency:    8.2922401080
  - # 14
    frequency:    8.6192924299
  - # 15
    frequency:    9.7330505820
  - # 16
    frequency:   11.6706929020
  - # 17
    frequency:   14.0520358328
  - # 18
    frequency:   14.1925126488
  - # 19
    frequency:   16.1088974351
  - # 20
    frequency:   17.6169736290
  - # 21
    frequency:   17.6338998486
  - # 22
    frequency:   31.6732823953
  - # 23
    frequency:   61.2738466900
  - # 24
    frequency:   67.6294736949

- q-position: [    0.1262626,    0.0000000,    0.0000000 ]
  distance:    0.0459292
  band:
  - # 1
    frequency:   -1.0883028951
  - # 2
    frequency:   -0.5853590781
  - # 3
    frequency:    1.3221208033
  - # 4
    frequency:    1.3764175267
  - # 5
    frequency:    2.2735813543
  - # 6
    frequency:    2.3422141459
  - # 7
    frequency:    3.5816075054
  - # 8
    frequency:    5.1585625727
  - # 9
    frequency:    5.5268269591
  - # 10
    frequency:    6.4241545235
  - # 11
    frequency:    7.5033009413
  - # 12
    frequency:    8.0577925732
  - # 13
    frequency:    8.2912470387
  - # 14
    frequency:    8.6362775611
  - # 15
    frequency:    9.7283007231
  - # 16
    frequency:   11.6294273760
  - # 17
    frequency:   14.0535410959
  - # 18
    frequency:   14.2045462577
  - # 19
    frequency:   16.0970208716
  - # 20
    frequency:   17.6173448491
  - # 21
    frequency:   17.6346353527
  - # 22
    frequency:   31.6569968021
  - # 23
    frequency:   61.2697201458
  - # 24
    frequency:   67.6213391641

- q-position: [    0.1313131,    0.0000000,    0.0000000 ]
  distance:    0.0477664
  band:
  - # 1
    frequency:   -1.1128125793
  - # 2
    frequency:   -0.5763949971
  - # 3
    frequency:    1.3544349642
  - # 4
    frequency:    1.4507014791
  - # 5
    frequency:    2.3477203085
  - # 6
    frequency:    2.4187780183
  - # 7
    frequency:    3.6949673995
  - # 8
    frequency:    5.1632491946
  - # 9
    frequency:    5.5570414131
  - # 10
    frequency:    6.4226209578
  - # 11
    frequency:    7.4921515291
  - # 12
    frequency:    8.0844184254
  - # 13
    frequency:    8.2898621059
  - # 14
    frequency:    8.6523853767
  - # 15
    frequency:    9.7235427498
  - # 16
    frequency:   11.5874832483
  - # 17
    frequency:   14.0551279079
  - # 18
    frequency:   14.2168929058
  - # 19
    frequency:   16.0848798712
  - # 20
    frequency:   17.6175116948
  - # 21
    frequency:   17.6350646543
  - # 22
    frequency:   31.6404027473
  - # 23
    frequency:   61.2654891194
  - # 24
    frequency:   67.6130116157

- q-position: [    0.1363636,    0.0000000,    0.0000000 ]
  distance:    0.0496035
  band:
  - # 1
    frequency:   -1.1376440988
  - # 2
    frequency:   -0.5645188416
  - # 3
    frequency:    1.3869168728
  - # 4
    frequency:    1.5253014542
  - # 5
    frequency:    2.4207314828
  - # 6
    frequency:    2.4950025051
  - # 7