nqpoint: 300    
npath: 3      
segment_nqpoint:
- 100
- 100
- 100
labels:
- [ 'G', 'M' ]
- [ 'M', 'K' ]
- [ 'K', 'G' ]
reciprocal_lattice:
- [   0.31530836,   0.18204337,   0.00000000 ] # a*
- [   0.00000000,   0.36408673,   0.00000000 ] # b*
- [   0.00000000,   0.00000000,   0.04316915 ] # c*
natom: 5      
lattice:
- [     3.171498519989632,     0.000000000000000,     0.000000000000000 ] # a
- [    -1.585749259994816,     2.746598286374081,     0.000000000000000 ] # b
- [     0.000000000000000,     0.000000000000000,    23.164689521271423 ] # c
points:
- symbol: Br # 1
  coordinates: [  0.666666984744047,  0.333332985985145,  0.388522366843535 ]
  mass: 79.904000
- symbol: C # 2
  coordinates: [  0.000000000000000,  0.000000000000000,  0.516121909873030 ]
  mass: 12.010700
- symbol: O # 3
  coordinates: [  0.333332985432215,  0.666666983183674,  0.611477633156465 ]
  mass: 15.999400
- symbol: Ti # 4
  coordinates: [  0.333332985432215,  0.666666983183674,  0.469285024783775 ]
  mass: 47.867000
- symbol: Ti # 5
  coordinates: [  0.666666984744047,  0.333332985985145,  0.573935573792261 ]
  mass: 47.867000

phonon:
- q-position: [    0.0000000,    0.0000000,    0.0000000 ]
  distance:    0.0000000
  band:
  - # 1
    frequency:   -0.0000011270
  - # 2
    frequency:   -0.0000001429
  - # 3
    frequency:    0.0000011246
  - # 4
    frequency:    2.9177443360
  - # 5
    frequency:    2.9177443360
  - # 6
    frequency:    4.8890601598
  - # 7
    frequency:    4.8890601598
  - # 8
    frequency:    5.4850207860
  - # 9
    frequency:    8.4583142356
  - # 10
    frequency:    8.4583142356
  - # 11
    frequency:   10.3573416856
  - # 12
    frequency:   15.1691463352
  - # 13
    frequency:   15.1691463352
  - # 14
    frequency:   15.7801309173
  - # 15
    frequency:   17.7719921150

- q-position: [    0.0050505,    0.0000000,    0.0000000 ]
  distance:    0.0018388
  band:
  - # 1
    frequency:   -0.2845205914
  - # 2
    frequency:    0.0581567527
  - # 3
    frequency:    0.3068279254
  - # 4
    frequency:    2.9171093390
  - # 5
    frequency:    2.9185279131
  - # 6
    frequency:    4.8877965598
  - # 7
    frequency:    4.8879497661
  - # 8
    frequency:    5.4867340360
  - # 9
    frequency:    8.4526149279
  - # 10
    frequency:    8.4537831993
  - # 11
    frequency:   10.3566644168
  - # 12
    frequency:   15.1658271964
  - # 13
    frequency:   15.1673412248
  - # 14
    frequency:   15.7805544292
  - # 15
    frequency:   17.7726945102

- q-position: [    0.0101010,    0.0000000,    0.0000000 ]
  distance:    0.0036776
  band:
  - # 1
    frequency:   -0.3882827689
  - # 2
    frequency:    0.1159354129
  - # 3
    frequency:    0.4510701858
  - # 4
    frequency:    2.9151821768
  - # 5
    frequency:    2.9207666014
  - # 6
    frequency:    4.8840789966
  - # 7
    frequency:    4.8846123452
  - # 8
    frequency:    5.4918091052
  - # 9
    frequency:    8.4355515115
  - # 10
    frequency:    8.4402201916
  - # 11
    frequency:   10.3546296560
  - # 12
    frequency:   15.1559960683
  - # 13
    frequency:   15.1619364921
  - # 14
    frequency:   15.7817352001
  - # 15
    frequency:   17.7747807872

- q-position: [    0.0151515,    0.0000000,    0.0000000 ]
  distance:    0.0055165
  band:
  - # 1
    frequency:   -0.4596942112
  - # 2
    frequency:    0.1729373053
  - # 3
    frequency:    0.5741249095
  - # 4
    frequency:    2.9118959388
  - # 5
    frequency:    2.9241275894
  - # 6
    frequency:    4.8781187162
  - # 7
    frequency:    4.8790295590
  - # 8
    frequency:    5.5000609455
  - # 9
    frequency:    8.4072292466
  - # 10
    frequency:    8.4177161466
  - # 11
    frequency:   10.3512289602
  - # 12
    frequency:   15.1400114370
  - # 13
    frequency:   15.1529638120
  - # 14
    frequency:   15.7834227565
  - # 15
    frequency:   17.7781892163

- q-position: [    0.0202020,    0.0000000,    0.0000000 ]
  distance:    0.0073553
  band:
  - # 1
    frequency:   -0.5139803164
  - # 2
    frequency:    0.2287204369
  - # 3
    frequency:    0.6882410560
  - # 4
    frequency:    2.9071378407
  - # 5
    frequency:    2.9280673026
  - # 6
    frequency:    4.8702425901
  - # 7
    frequency:    4.8711721671
  - # 8
    frequency:    5.5112080337
  - # 9
    frequency:    8.3678294478
  - # 10
    frequency:    8.3864247072
  - # 11
    frequency:   10.3464495960
  - # 12
    frequency:   15.1184108978
  - # 13
    frequency:   15.1404755779
  - # 14
    frequency:   15.7852544514
  - # 15
    frequency:   17.7828201437

- q-position: [    0.0252525,    0.0000000,    0.0000000 ]
  distance:    0.0091941
  band:
  - # 1
    frequency:   -0.5572270532
  - # 2
    frequency:    0.2827720431
  - # 3
    frequency:    0.7974158995
  - # 4
    frequency:    2.9007475408
  - # 5
    frequency:    2.9318485912
  - # 6
    frequency:    4.8608640581
  - # 7
    frequency:    4.8610021796
  - # 8
    frequency:    5.5249036655
  - # 9
    frequency:    8.3176185680
  - # 10
    frequency:    8.3465653058
  - # 11
    frequency:   10.3402763425
  - # 12
    frequency:   15.0918440330
  - # 13
    frequency:   15.1245443137
  - # 14
    frequency:   15.7868153775
  - # 15
    frequency:   17.7885405392

- q-position: [    0.0303030,    0.0000000,    0.0000000 ]
  distance:    0.0110329
  band:
  - # 1
    frequency:   -0.5925408944
  - # 2
    frequency:    0.3344728900
  - # 3
    frequency:    0.9029876750
  - # 4
    frequency:    2.8925152961
  - # 5
    frequency:    2.9345670724
  - # 6
    frequency:    4.8484762167
  - # 7
    frequency:    4.8504549570
  - # 8
    frequency:    5.5407665908
  - # 9
    frequency:    8.2569613568
  - # 10
    frequency:    8.2984273611
  - # 11
    frequency:   10.3326936568
  - # 12
    frequency:   15.0610094899
  - # 13
    frequency:   15.1052618718
  - # 14
    frequency:   15.7876919475
  - # 15
    frequency:   17.7951898101

- q-position: [    0.0353535,    0.0000000,    0.0000000 ]
  distance:    0.0128718
  band:
  - # 1
    frequency:   -0.6217246134
  - # 2
    frequency:    0.3830479788
  - # 3
    frequency:    1.0050208079
  - # 4
    frequency:    2.8821806689
  - # 5
    frequency:    2.9351918292
  - # 6
    frequency:    4.8335504239
  - # 7
    frequency:    4.8395228848
  - # 8
    frequency:    5.5584055126
  - # 9
    frequency:    8.1863383439
  - # 10
    frequency:    8.2423754411
  - # 11
    frequency:   10.3236879375
  - # 12
    frequency:   15.0266066031
  - # 13
    frequency:   15.0827384351
  - # 14
    frequency:   15.7875094443
  - # 15
    frequency:   17.8025864266

- q-position: [    0.0404040,    0.0000000,    0.0000000 ]
  distance:    0.0147106
  band:
  - # 1
    frequency:   -0.6459850932
  - # 2
    frequency:    0.4274949074
  - # 3
    frequency:    1.1027463286
  - # 4
    frequency:    2.8694330369
  - # 5
    frequency:    2.9326315241
  - # 6
    frequency:    4.8161873877
  - # 7
    frequency:    4.8285948170
  - # 8
    frequency:    5.5774354733
  - # 9
    frequency:    8.1063676993
  - # 10
    frequency:    8.1788551391
  - # 11
    frequency:   10.3132496493
  - # 12
    frequency:   14.9893035377
  - # 13
    frequency:   15.0571013473
  - # 14
    frequency:   15.7859522641
  - # 15
    frequency:   17.8105348806

- q-position: [    0.0454545,    0.0000000,    0.0000000 ]
  distance:    0.0165494
  band:
  - # 1
    frequency:   -0.6663526433
  - # 2
    frequency:    0.4664746422
  - # 3
    frequency:    1.1946460193
  - # 4
    frequency:    2.8539160339
  - # 5
    frequency:    2.9258465223
  - # 6
    frequency:    4.7963655577
  - # 7
    frequency:    4.8182045692
  - # 8
    frequency:    5.5974868412
  - # 9
    frequency:    8.0178310934
  - # 10
    frequency:    8.1083992690
  - # 11
    frequency:   10.3013751349
  - # 12
    frequency:   14.9497190291
  - # 13
    frequency:   15.0284937976
  - # 14
    frequency:   15.7827704656
  - # 15
    frequency:   17.8188325347

- q-position: [    0.0505051,    0.0000000,    0.0000000 ]
  distance:    0.0183882
  band:
  - # 1
    frequency:   -0.6840326129
  - # 2
    frequency:    0.4981362214
  - # 3
    frequency:    1.2783211704
  - # 4
    frequency:    2.8352394172
  - # 5
    frequency:    2.9140414600
  - # 6
    frequency:    4.7740916631
  - # 7
    frequency:    4.8088800811
  - # 8
    frequency:    5.6182089691
  - # 9
    frequency:    7.9217024430
  - # 10
    frequency:    8.0316337879
  - # 11
    frequency:   10.2880680073
  - # 12
    frequency:   14.9084134378
  - # 13
    frequency:   14.9970733897
  - # 14
    frequency:   15.7777775315
  - # 15
    frequency:   17.8272759918

- q-position: [    0.0555556,    0.0000000,    0.0000000 ]
  distance:    0.0202270
  band:
  - # 1
    frequency:   -0.7008207918
  - # 2
    frequency:    0.5198174040
  - # 3
    frequency:    1.3501696461
  - # 4
    frequency:    2.8130038844
  - # 5
    frequency:    2.8969877545
  - # 6
    frequency:    4.7494164369
  - # 7
    frequency:    4.8011263980
  - # 8
    frequency:    5.6392709536
  - # 9
    frequency:    7.8191772482
  - # 10
    frequency:    7.9492826031
  - # 11
    frequency:   10.2733400902
  - # 12
    frequency:   14.8658854349
  - # 13
    frequency:   14.9630106252
  - # 14
    frequency:   15.7708435413
  - # 15
    frequency:   17.8356667106

- q-position: [    0.0606061,    0.0000000,    0.0000000 ]
  distance:    0.0220659
  band:
  - # 1
    frequency:   -0.7197315378
  - # 2
    frequency:    0.5274886877
  - # 3
    frequency:    1.4048843118
  - # 4
    frequency:    2.7868470464
  - # 5
    frequency:    2.8755236284
  - # 6
    frequency:    4.7224535291
  - # 7
    frequency:    4.7954014926
  - # 8
    frequency:    5.6603618415
  - # 9
    frequency:    7.7116985015
  - # 10
    frequency:    7.8621701291
  - # 11
    frequency:   10.2572119256
  - # 12
    frequency:   14.8225718182
  - # 13
    frequency:   14.9264873328
  - # 14
    frequency:   15.7618866427
  - # 15
    frequency:   17.8438156966

- q-position: [    0.0656566,    0.0000000,    0.0000000 ]
  distance:    0.0239047
  band:
  - # 1
    frequency:   -0.7460670928
  - # 2
    frequency:    0.5145830764
  - # 3
    frequency:    1.4349254734
  - # 4
    frequency:    2.7565215777
  - # 5
    frequency:    2.8521999120
  - # 6
    frequency:    4.6934006762
  - # 7
    frequency:    4.7920845765
  - # 8
    frequency:    5.6811925096
  - # 9
    frequency:    7.6009728688
  - # 10
    frequency:    7.7712201650
  - # 11
    frequency:   10.2397129040
  - # 12
    frequency:   14.7788489988
  - # 13
    frequency:   14.8876950725
  - # 14
    frequency:   15.7508645311
  - # 15
    frequency:   17.8515471926

- q-position: [    0.0707071,    0.0000000,    0.0000000 ]
  distance:    0.0257435
  band:
  - # 1
    frequency:   -0.7892571084
  - # 2
    frequency:    0.4689713053
  - # 3
    frequency:    1.4306274769
  - # 4
    frequency:    2.7220175099
  - # 5
    frequency:    2.8317651251
  - # 6
    frequency:    4.6625609347
  - # 7
    frequency:    4.7914398658
  - # 8
    frequency:    5.7015014845
  - # 9
    frequency:    7.4889682909
  - # 10
    frequency:    7.6774494526
  - # 11
    frequency:   10.2208810911
  - # 12
    frequency:   14.7350354136
  - # 13
    frequency:   14.8468335427
  - # 14
    frequency:   15.7377667990
  - # 15
    frequency:   17.8587013746

- q-position: [    0.0757576,    0.0000000,    0.0000000 ]
  distance:    0.0275823
  band:
  - # 1
    frequency:   -0.8656166300
  - # 2
    frequency:    0.3613493998
  - # 3
    frequency:    1.3827670066
  - # 4
    frequency:    2.6837346768
  - # 5
    frequency:    2.8207243117
  - # 6
    frequency:    4.6303601693
  - # 7
    frequency:    4.7935819508
  - # 8
    frequency:    5.7210671178
  - # 9
    frequency:    7.3778821363
  - # 10
    frequency:    7.5819542581
  - # 11
    frequency:   10.2007628274
  - # 12
    frequency:   14.6913945260
  - # 13
    frequency:   14.8041090167
  - # 14
    frequency:   15.7226084954
  - # 15
    frequency:   17.8651361164

- q-position: [    0.0808081,    0.0000000,    0.0000000 ]
  distance:    0.0294212
  band:
  - # 1
    frequency:   -1.0001897603
  - # 2
    frequency:   -0.1417203674
  - # 3
    frequency:    1.2907593988
  - # 4
    frequency:    2.6426890648
  - # 5
    frequency:    2.8252896420
  - # 6
    frequency:    4.5973554320
  - # 7
    frequency:    4.7984506267
  - # 8
    frequency:    5.7397284995
  - # 9
    frequency:    7.2700690692
  - # 10
    frequency:    7.4858886753
  - # 11
    frequency:   10.1794121711
  - # 12
    frequency:   14.6481382786
  - # 13
    frequency:   14.7597328299
  - # 14
    frequency:   15.7054249352
  - # 15
    frequency:   17.8707279281

- q-position: [    0.0858586,    0.0000000,    0.0000000 ]
  distance:    0.0312600
  band:
  - # 1
    frequency:   -1.2188639867
  - # 2
    frequency:   -0.5025820250
  - # 3
    frequency:    1.1760518286
  - # 4
    frequency:    2.6006883390
  - # 5
    frequency:    2.8486891475
  - # 6
    frequency:    4.5642282026
  - # 7
    frequency:    4.8058023384
  - # 8
    frequency:    5.7574166503
  - # 9
    frequency:    7.1679219097
  - # 10
    frequency:    7.3904341836
  - # 11
    frequency:   10.1568902458
  - # 12
    frequency:   14.6054309369
  - # 13
    frequency:   14.7139199355
  - # 14
    frequency:   15.6862676531
  - # 15
    frequency:   17.8753721924

- q-position: [    0.0909091,    0.0000000,    0.0000000 ]
  distance:    0.0330988
  band:
  - # 1
    frequency:   -1.5228482822
  - # 2
    frequency:   -0.7682032323
  - # 3
    frequency:    1.0801291967
  - # 4
    frequency:    2.5603461813
  - # 5
    frequency:    2.8902303413
  - # 6
    frequency:    4.5317577851
  - # 7
    frequency:    4.8152224739
  - # 8
    frequency:    5.7741949518
  - # 9
    frequency:    7.0737085950
  - # 10
    frequency:    7.2967613832
  - # 11
    frequency:   10.1332645389
  - # 12
    frequency:   14.5633932801
  - # 13
    frequency:   14.6668875442
  - # 14
    frequency:   15.6652013301
  - # 15
    frequency:   17.8789828308

- q-position: [    0.0959596,    0.0000000,    0.0000000 ]
  distance:    0.0349376
  band:
  - # 1
    frequency:   -1.8806197314
  - # 2
    frequency:   -1.0275292573
  - # 3
    frequency:    1.0301578195
  - # 4
    frequency:    2.5247851896
  - # 5
    frequency:    2.9466774649
  - # 6
    frequency:    4.5007741758
  - # 7
    frequency:    4.8261589505
  - # 8
    frequency:    5.7903026463
  - # 9
    frequency:    6.9893834239
  - # 10
    frequency:    7.2059865769
  - # 11
    frequency:   10.1086081882
  - # 12
    frequency:   14.5221070837
  - # 13
    frequency:   14.6188538575
  - # 14
    frequency:   15.6423015052
  - # 15
    frequency:   17.8814915277

- q-position: [    0.1010101,    0.0000000,    0.0000000 ]
  distance:    0.0367764
  band:
  - # 1
    frequency:   -2.2586840816
  - # 2
    frequency:   -1.2916985259
  - # 3
    frequency:    1.0239914463
  - # 4
    frequency:    2.4970076160
  - # 5
    frequency:    3.0141390965
  - # 6
    frequency:    4.4720958702
  - # 7
    frequency:    4.8379743101
  - # 8
    frequency:    5.8061881001
  - # 9
    frequency:    6.9164068539
  - # 10
    frequency:    7.1191275797
  - # 11
    frequency:   10.0829992828
  - # 12
    frequency:   14.4816198254
  - # 13
    frequency:   14.5700369000
  - # 14
    frequency:   15.6176528929
  - # 15
    frequency:   17.8828466281

- q-position: [    0.1060606,    0.0000000,    0.0000000 ]
  distance:    0.0386153
  band:
  - # 1
    frequency:   -2.6383410291
  - # 2
    frequency:   -1.5616578089
  - # 3
    frequency:    1.0487035230
  - # 4
    frequency:    2.4791796125
  - # 5
    frequency:    3.0891489598
  - # 6
    frequency:    4.4464640008
  - # 7
    frequency:    4.8500113047
  - # 8
    frequency:    5.8225127713
  - # 9
    frequency:    6.8556171651
  - # 10
    frequency:    7.0370641985
  - # 11
    frequency:   10.0565201950
  - # 12
    frequency:   14.4419495342
  - # 13
    frequency:   14.5206534556
  - # 14
    frequency:   15.5913481458
  - # 15
    frequency:   17.8830118138

- q-position: [    0.1111111,    0.0000000,    0.0000000 ]
  distance:    0.0404541
  band:
  - # 1
    frequency:   -3.0111471740
  - # 2
    frequency:   -1.8349629387
  - # 3
    frequency:    1.0931616164
  - # 4
    frequency:    2.4722153878
  - # 5
    frequency:    3.1689633164
  - # 6
    frequency:    4.4244867322
  - # 7
    frequency:    4.8616650788
  - # 8
    frequency:    5.8401086511
  - # 9
    frequency:    6.8071909568
  - # 10
    frequency:    6.9605087031
  - # 11
    frequency:   10.0292569569
  - # 12
    frequency:   14.4030897026
  - # 13
    frequency:   14.4709181049
  - # 14
    frequency:   15.5634869242
  - # 15
    frequency:   17.8819646435

- q-position: [    0.1161616,    0.0000000,    0.0000000 ]
  distance:    0.0422929
  band:
  - # 1
    frequency:   -3.3731987743
  - # 2
    frequency:   -2.1081253162
  - # 3
    frequency:    1.1499771624
  - # 4
    frequency:    2.4758426359
  - # 5
    frequency:    3.2514948944
  - # 6
    frequency:    4.4066051366
  - # 7
    frequency:    4.8724529297
  - # 8
    frequency:    5.8598858100
  - # 9
    frequency:    6.7707054805
  - # 10
    frequency:    6.8899901174
  - # 11
    frequency:   10.0012986894
  - # 12
    frequency:   14.3650141818
  - # 13
    frequency:   14.4210423633
  - # 14
    frequency:   15.5341751600
  - # 15
    frequency:   17.8796950294

- q-position: [    0.1212121,    0.0000000,    0.0000000 ]
  distance:    0.0441317
  band:
  - # 1
    frequency:   -3.7224396646
  - # 2
    frequency:   -2.3777036065
  - # 3
    frequency:    1.2145319539
  - # 4
    frequency:    2.4889921169
  - # 5
    frequency:    3.3351540558
  - # 6
    frequency:    4.3930849654
  - # 7
    frequency:    4.8820709405
  - # 8
    frequency:    5.8827085278
  - # 9
    frequency:    6.7452833077
  - # 10
    frequency:    6.8258536554
  - # 11
    frequency:    9.9727370902
  - # 12
    frequency:   14.3276819937
  - # 13
    frequency:   14.3712339121
  - # 14
    frequency:   15.5035244221
  - # 15
    frequency:   17.8762037073

- q-position: [    0.1262626,    0.0000000,    0.0000000 ]
  distance:    0.0459705
  band:
  - # 1
    frequency:   -4.0576227652
  - # 2
    frequency:   -2.6407459473
  - # 3
    frequency:    1.2839359969
  - # 4
    frequency:    2.5102339710
  - # 5
    frequency:    3.4187006079
  - # 6
    frequency:    4.3840312596
  - # 7
    frequency:    4.8904275284
  - # 8
    frequency:    5.9092749808
  - # 9
    frequency:    6.7297756563
  - # 10
    frequency:    6.7682738909
  - # 11
    frequency:    9.9436659844
  - # 12
    frequency:   14.2910419996
  - # 13
    frequency:   14.3216959194
  - # 14
    frequency:   15.4716513159
  - # 15
    frequency:   17.8715007441

- q-position: [    0.1313131,    0.0000000,    0.0000000 ]
  distance:    0.0478094
  band:
  - # 1
    frequency:   -4.3779189057
  - # 2
    frequency:   -2.8948842373
  - # 3
    frequency:    1.3563391819
  - # 4
    frequency:    2.5380936693
  - # 5
    frequency:    3.5011301693
  - # 6
    frequency:    4.3794178997
  - # 7
    frequency:    4.8976486057
  - # 8
    frequency:    5.9400344681
  - # 9
    frequency:    6.7172781228
  - # 10
    frequency:    6.7229372421
  - # 11
    frequency:    9.9141809426
  - # 12
    frequency:   14.2550373789
  - # 13
    frequency:   14.2726264405
  - # 14
    frequency:   15.4386768645
  - # 15
    frequency:   17.8656041155

- q-position: [    0.1363636,    0.0000000,    0.0000000 ]
  distance:    0.0496482
  band:
  - # 1
    frequency:   -4.6827589870
  - # 2
    frequency:   -3.1382800272
  - # 3
    frequency:    1.4305204991
  - # 4
    frequency:    2.5712217394
  - # 5
    frequency:    3.5815928945
  - # 6
    frequency:    4.3791231624
  - # 7
    frequency:    4.9040564916
  - # 8
    frequency:    5.9751584914
  - # 9
    frequency:    6.6727754070
  - # 10
    frequency:    6.7235608884
  - # 11
    frequency:    9.8843789691
  - # 12
    frequency:   14.2196098775
  - # 13
    frequency:   14.2242178925
  - # 14
    frequency:   15.4047258441
  - # 15
    frequency:   17.8585383777

- q-position: [    0.1414141,    0.0000000,    0.0000000 ]
  distance:    0.0514870
  band:
  - # 1
    frequency:   -4.9717584883
  - # 2
    frequency:   -3.3695294779
  - # 3
    frequency:    1.5056473845
  - # 4
    frequency:    2.6084580367
  - # 5
    frequency:    3.6593372488
  - # 6
    frequency:    4.3829641754
  - # 7
    frequency:    4.9101312227
  - # 8
    frequency:    6.0145602617
  - # 9
    frequency:    6.6345868992
  - # 10
    frequency:    6.7305617440
  - # 11
    frequency:    9.8543582633
  - # 12
    frequency:   14.1766565942
  - # 13
    frequency:   14.1847037921
  - # 14
    frequency:   15.3699260586
  - # 15
    frequency:   17.8503334468

- q-position: [    0.1464646,    0.0000000,    0.0000000 ]
  distance:    0.0533258
  band:
  - # 1
    frequency:   -5.2446718579
  - # 2
    frequency:   -3.5875714286
  - # 3
    frequency:    1.5811334263
  - # 4
    frequency:    2.6488377765
  - # 5
    frequency:    3.7336728490
  - # 6
    frequency:    4.3907260880
  - # 7
    frequency:    4.9164650387
  - # 8
    frequency:    6.0579438234
  - # 9
    frequency:    6.6024741340
  - # 10
    frequency:    6.7430171421
  - # 11
    frequency:    9.8242180585
  - # 12
    frequency:   14.1301223629
  - # 13
    frequency:   14.1502696556
  - # 14
    frequency:   15.3344075594
  - # 15
    frequency:   17.8410234960

- q-position: [    0.1515152,    0.0000000,    0.0000000 ]
  distance:    0.0551647
  band:
  - # 1
    frequency:   -5.5013594628
  - # 2
    frequency:   -3.7916111033
  - # 3
    frequency:    1.6565525501
  - # 4
    frequency:    2.6915719028
  - # 5
    frequency:    3.8039490859
  - # 6
    frequency:    4.4021844067
  - # 7
    frequency:    4.9237179859
  - # 8
    frequency:    6.1048624891
  - # 9
    frequency:    6.5761631678
  - # 10
    frequency:    6.7601749548
  - # 11
    frequency:    9.7940585372
  - # 12
    frequency:   14.0847881635
  - # 13
    frequency:   14.1162675888
  - # 14
    frequency:   15.2983018315
  - # 15
    frequency:   17.8306459727

- q-position: [    0.1565657,    0.0000000,    0.0000000 ]
  distance:    0.0570035
  band:
  - # 1
    frequency:   -5.7417616796
  - # 2
    frequency:   -3.9810600700
  - # 3
    frequency:    1.7315860211
  - # 4
    frequency:    2.7360196096
  - # 5
    frequency:    3.8695487369
  - # 6
    frequency:    4.4171206989
  - # 7
    frequency:    4.9325771266
  - # 8
    frequency:    6.1547724736
  - # 9
    frequency:    6.5553637303
  - # 10
    frequency:    6.7814430299
  - # 11
    frequency:    9.7639808261
  - # 12
    frequency:   14.0408198011
  - # 13
    frequency:   14.0826702777
  - # 14
    frequency:   15.2617409804
  - # 15
    frequency:   17.8192407354

- q-position: [    0.1616162,    0.0000000,    0.0000000 ]
  distance:    0.0588423
  band:
  - # 1
    frequency:   -5.9658783825
  - # 2
    frequency:   -4.1554898430
  - # 3
    frequency:    1.8059888770
  - # 4
    frequency:    2.7816612452
  - # 5
    frequency:    3.9298973569
  - # 6
    frequency:    4.4353327317
  - # 7
    frequency:    4.9437169850
  - # 8
    frequency:    6.2070755700
  - # 9
    frequency:    6.5397834357
  - # 10
    frequency:    6.8063688410
  - # 11
    frequency:    9.7340870675
  - # 12
    frequency:   13.9983756532
  - # 13
    frequency:   14.0494655293
  - # 14
    frequency:   15.2248569700
  - # 15
    frequency:   17.8068493052

- q-position: [    0.1666667,    0.0000000,    0.0000000 ]
  distance:    0.0606811
  band:
  - # 1
    frequency:   -6.1737530093
  - # 2
    frequency:   -4.3145962723
  - # 3
    frequency:    1.8795681075
  - # 4
    frequency:    2.8280746987
  - # 5
    frequency:    3.9844891237
  - # 6
    frequency:    4.4566403571
  - # 7
    frequency:    4.9577569604
  - # 8
    frequency:    6.2611507560
  - # 9
    frequency:    6.5291376562
  - # 10
    frequency:    6.8346146444
  - # 11
    frequency:    9.7044805626
  - # 12
    frequency:   13.9576064354
  - # 13
    frequency:   14.0166583523
  - # 14
    frequency:   15.1877809681
  - # 15
    frequency:   17.7935142266

- q-position: [    0.1717172,    0.0000000,    0.0000000 ]
  distance:    0.0625199
  band:
  - # 1
    frequency:   -6.3654605365
  - # 2
    frequency:   -4.4581723550
  - # 3
    frequency:    1.9521680785
  - # 4
    frequency:    2.8749159613
  - # 5
    frequency:    4.0329272112
  - # 6
    frequency:    4.4808883580
  - # 7
    frequency:    4.9752135806
  - # 8
    frequency:    6.3163778197
  - # 9
    frequency:    6.5231559017
  - # 10
    frequency:    6.8659304614
  - # 11
    frequency:    9.6752659766
  - # 12
    frequency:   13.9186549982
  - # 13
    frequency:   13.9842725051
  - # 14
    frequency:   15.1506428647
  - # 15
    frequency:   17.7792785290

- q-position: [    0.1767677,    0.0000000,    0.0000000 ]
  distance:    0.0643588
  band:
  - # 1
    frequency:   -6.5410986969
  - # 2
    frequency:   -4.5860876265
  - # 3
    frequency:    2.0236605040
  - # 4
    frequency:    2.9219035673
  - # 5
    frequency:    4.0749716225
  - # 6
    frequency:    4.5079472332
  - # 7
    frequency:    4.9964511245
  - # 8
    frequency:    6.3721569673
  - # 9
    frequency:    6.5215855835
  - # 10
    frequency:    6.9001254392
  - # 11
    frequency:    9.6465495904
  - # 12
    frequency:   13.8816561505
  - # 13
    frequency:   13.9523514472
  - # 14
    frequency:   15.1135710292
  - # 15
    frequency:   17.7641852800

- q-position: [    0.1818182,    0.0000000,    0.0000000 ]
  distance:    0.0661976
  band:
  - # 1
    frequency:   -6.7007817992
  - # 2
    frequency:   -4.6982727059
  - # 3
    frequency:    2.0939373108
  - # 4
    frequency:    2.9688063086
  - # 5
    frequency:    4.1105817436
  - # 6
    frequency:    4.5377126451
  - # 7
    frequency:    5.0216407398
  - # 8
    frequency:    6.4279276957
  - # 9
    frequency:    6.5241939473
  - # 10
    frequency:    6.9370375697
  - # 11
    frequency:    9.6184395726
  - # 12
    frequency:   13.8467365083
  - # 13
    frequency:   13.9209586353
  - # 14
    frequency:   15.0766923708
  - # 15
    frequency:   17.7482772221

- q-position: [    0.1868687,    0.0000000,    0.0000000 ]
  distance:    0.0680364
  band:
  - # 1
    frequency:   -6.8446365772
  - # 2
    frequency:   -4.7947078826
  - # 3
    frequency:    2.1629053551
  - # 4
    frequency:    3.0154335900
  - # 5
    frequency:    4.1399387547
  - # 6
    frequency:    4.5701040313
  - # 7
    frequency:    5.0507412001
  - # 8
    frequency:    6.4831885334
  - # 9
    frequency:    6.5307688187
  - # 10
    frequency:    6.9765022677
  - # 11
    frequency:    9.5910462390
  - # 12
    frequency:   13.8140143665
  - # 13
    frequency:   13.8901771027
  - # 14
    frequency:   15.0401327572
  - # 15
    frequency:   17.7315964827

- q-position: [    0.1919192,    0.0000000,    0.0000000 ]
  distance:    0.0698752
  band:
  - # 1
    frequency:   -6.9727995874
  - # 2
    frequency:   -4.8754148703
  - # 3
    frequency:    2.2304823222
  - # 4
    frequency:    3.0616278683
  - # 5
    frequency:    4.1634379473
  - # 6
    frequency:    4.6050627095
  - # 7
    frequency:    5.0835102476
  - # 8
    frequency:    6.5375169948
  - # 9
    frequency:    6.5411186541
  - # 10
    frequency:    7.0183216872
  - # 11
    frequency:    9.5644822475
  - # 12
    frequency:   13.7835995932
  - # 13
    frequency:   13.8601082737
  - # 14
    frequency:   15.0040178400
  - # 15
    frequency:   17.7141843501

- q-position: [    0.1969697,    0.0000000,    0.0000000 ]
  distance:    0.0717141
  band:
  - # 1
    frequency:   -7.0854157653
  - # 2
    frequency:   -4.9404510398
  - # 3
    frequency:    2.2965933697
  - # 4
    frequency:    3.1072587256
  - # 5
    frequency:    4.1816518149
  - # 6
    frequency:    4.6425496737
  - # 7
    frequency:    5.1195451346
  - # 8
    frequency:    6.5550722461
  - # 9
    frequency:    6.5905868904
  - # 10
    frequency:    7.0622382699
  - # 11
    frequency:    9.5388626647
  - # 12
    frequency:   13.7555935458
  - # 13
    frequency:   13.8308699699
  - # 14
    frequency:   14.9684743181
  - # 15
    frequency:   17.6960811075

- q-position: [    0.2020202,    0.0000000,    0.0000000 ]
  distance:    0.0735529
  band:
  - # 1
    frequency:   -7.1826378417
  - # 2
    frequency:   -4.9899055904
  - # 3
    frequency:    2.3611682213
  - # 4
    frequency:    3.1522182185
  - # 5
    frequency:    4.1952753514
  - # 6
    frequency:    4.6825431955
  - # 7
    frequency:    5.1583407091
  - # 8
    frequency:    6.5724783231
  - # 9
    frequency:    6.6421789096
  - # 10
    frequency:    7.1079168870
  - # 11
    frequency:    9.5143048201
  - # 12
    frequency:   13.7300890088
  - # 13
    frequency:   13.8025935782
  - # 14
    frequency:   14.9336316564
  - # 15
    frequency:   17.6773259178

- q-position: [    0.2070707,    0.0000000,    0.0000000 ]
  distance:    0.0753917
  band:
  - # 1
    frequency:   -7.2646263916
  - # 2
    frequency:   -5.0238972338
  - # 3
    frequency:    2.4241385208
  - # 4
    frequency:    3.1964172251
  - # 5
    frequency:    4.2050691615
  - # 6
    frequency:    4.7250362718
  - # 7
    frequency:    5.1993493858
  - # 8
    frequency:    6.5932051916
  - # 9
    frequency:    6.6921810102
  - # 10
    frequency:    7.1549391314
  - # 11
    frequency:    9.4909278440
  - # 12
    frequency:   13.7071701533
  - # 13
    frequency:   13.7754203667
  - # 14
    frequency:   14.8996242631
  - # 15
    frequency:   17.6579567557

- q-position: [    0.2121212,    0.0000000,    0.0000000 ]
  distance:    0.0772305
  band:
  - # 1
    frequency:   -7.3315503507