nqpoint: 300    
npath: 3      
segment_nqpoint:
- 100
- 100
- 100
labels:
- [ 'G', 'M' ]
- [ 'M', 'K' ]
- [ 'K', 'G' ]
reciprocal_lattice:
- [   0.30857756,   0.17815734,   0.00000000 ] # a*
- [   0.00000000,   0.35631468,   0.00000000 ] # b*
- [   0.00000000,   0.00000000,   0.04338727 ] # c*
natom: 5      
lattice:
- [     3.240676327688929,     0.000000000000000,     0.000000000000000 ] # a
- [    -1.620338163844464,     2.806508025218168,     0.000000000000000 ] # b
- [     0.000000000000000,     0.000000000000000,    23.048235736444671 ] # c
points:
- symbol: C # 1
  coordinates: [  0.000000000000000,  0.000000000000000,  0.510863617479950 ]
  mass: 12.010700
- symbol: Cl # 2
  coordinates: [  0.666666984744048,  0.333332985985145,  0.390485419487830 ]
  mass: 35.453000
- symbol: F # 3
  coordinates: [  0.333332985432215,  0.666666983183674,  0.609514580512170 ]
  mass: 18.998403
- symbol: Ti # 4
  coordinates: [  0.333332985432215,  0.666666983183674,  0.462976357753828 ]
  mass: 47.867000
- symbol: Ti # 5
  coordinates: [  0.666666984744048,  0.333332985985145,  0.557780834297433 ]
  mass: 47.867000

phonon:
- q-position: [    0.0000000,    0.0000000,    0.0000000 ]
  distance:    0.0000000
  band:
  - # 1
    frequency:   -0.0000134428
  - # 2
    frequency:   -0.0000003132
  - # 3
    frequency:    0.0000110777
  - # 4
    frequency:    5.1155243013
  - # 5
    frequency:    5.1155243013
  - # 6
    frequency:    6.2353161741
  - # 7
    frequency:    6.2353161741
  - # 8
    frequency:    7.1698616014
  - # 9
    frequency:    7.2827563397
  - # 10
    frequency:    7.2827563397
  - # 11
    frequency:   11.2884951032
  - # 12
    frequency:   13.5684828912
  - # 13
    frequency:   17.7025484941
  - # 14
    frequency:   18.0187835408
  - # 15
    frequency:   18.0187835408

- q-position: [    0.0050505,    0.0000000,    0.0000000 ]
  distance:    0.0017996
  band:
  - # 1
    frequency:    0.0019614371
  - # 2
    frequency:    0.0710053971
  - # 3
    frequency:    0.1190533339
  - # 4
    frequency:    5.1154699420
  - # 5
    frequency:    5.1164671733
  - # 6
    frequency:    6.2350486221
  - # 7
    frequency:    6.2356758387
  - # 8
    frequency:    7.1630160989
  - # 9
    frequency:    7.2827690407
  - # 10
    frequency:    7.2903049817
  - # 11
    frequency:   11.2880765589
  - # 12
    frequency:   13.5674216245
  - # 13
    frequency:   17.7020300141
  - # 14
    frequency:   18.0179663721
  - # 15
    frequency:   18.0187370233

- q-position: [    0.0101010,    0.0000000,    0.0000000 ]
  distance:    0.0035991
  band:
  - # 1
    frequency:    0.0078380177
  - # 2
    frequency:    0.1420468443
  - # 3
    frequency:    0.2381196241
  - # 4
    frequency:    5.1153077491
  - # 5
    frequency:    5.1192901428
  - # 6
    frequency:    6.2342470463
  - # 7
    frequency:    6.2367444014
  - # 8
    frequency:    7.1462755990
  - # 9
    frequency:    7.2828065672
  - # 10
    frequency:    7.3091615619
  - # 11
    frequency:   11.2868210101
  - # 12
    frequency:   13.5642396658
  - # 13
    frequency:   17.7004757027
  - # 14
    frequency:   18.0155177059
  - # 15
    frequency:   18.0185958615

- q-position: [    0.0151515,    0.0000000,    0.0000000 ]
  distance:    0.0053987
  band:
  - # 1
    frequency:    0.0176100891
  - # 2
    frequency:    0.2131599847
  - # 3
    frequency:    0.3572112920
  - # 4
    frequency:    5.1150403650
  - # 5
    frequency:    5.1239763482
  - # 6
    frequency:    6.2329146800
  - # 7
    frequency:    6.2384906431
  - # 8
    frequency:    7.1250825288
  - # 9
    frequency:    7.2828671987
  - # 10
    frequency:    7.3339036289
  - # 11
    frequency:   11.2847287110
  - # 12
    frequency:   13.5589425347
  - # 13
    frequency:   17.6978889293
  - # 14
    frequency:   18.0114460570
  - # 15
    frequency:   18.0183552503

- q-position: [    0.0202020,    0.0000000,    0.0000000 ]
  distance:    0.0071983
  band:
  - # 1
    frequency:    0.0312446465
  - # 2
    frequency:    0.2843796492
  - # 3
    frequency:    0.4763396962
  - # 4
    frequency:    5.1146721490
  - # 5
    frequency:    5.1304979446
  - # 6
    frequency:    6.2310568871
  - # 7
    frequency:    6.2408628008
  - # 8
    frequency:    7.1023727201
  - # 9
    frequency:    7.2829481002
  - # 10
    frequency:    7.3616285928
  - # 11
    frequency:   11.2818000932
  - # 12
    frequency:   13.5515394137
  - # 13
    frequency:   17.6942752586
  - # 14
    frequency:   18.0057656023
  - # 15
    frequency:   18.0180072570

- q-position: [    0.0252525,    0.0000000,    0.0000000 ]
  distance:    0.0089978
  band:
  - # 1
    frequency:    0.0486961487
  - # 2
    frequency:    0.3557394628
  - # 3
    frequency:    0.5955146069
  - # 4
    frequency:    5.1142091116
  - # 5
    frequency:    5.1388164778
  - # 6
    frequency:    6.2286811257
  - # 7
    frequency:    6.2437890360
  - # 8
    frequency:    7.0794949483
  - # 9
    frequency:    7.2830453691
  - # 10
    frequency:    7.3910340401
  - # 11
    frequency:   11.2780357771
  - # 12
    frequency:   13.5420431243
  - # 13
    frequency:   17.6896423771
  - # 14
    frequency:   17.9984961579
  - # 15
    frequency:   18.0175409310

- q-position: [    0.0303030,    0.0000000,    0.0000000 ]
  distance:    0.0107974
  band:
  - # 1
    frequency:    0.0699071532
  - # 2
    frequency:    0.4272714628
  - # 3
    frequency:    0.7147436905
  - # 4
    frequency:    5.1136588239
  - # 5
    frequency:    5.1488833846
  - # 6
    frequency:    6.2257968969
  - # 7
    frequency:    6.2471782275
  - # 8
    frequency:    7.0571378345
  - # 9
    frequency:    7.2831541008
  - # 10
    frequency:    7.4214904786
  - # 11
    frequency:   11.2734365880
  - # 12
    frequency:   13.5304700937
  - # 13
    frequency:   17.6839999979
  - # 14
    frequency:   17.9896631478
  - # 15
    frequency:   18.0169424496

- q-position: [    0.0353535,    0.0000000,    0.0000000 ]
  distance:    0.0125970
  band:
  - # 1
    frequency:    0.0948090927
  - # 2
    frequency:    0.4990057349
  - # 3
    frequency:    0.8340320058
  - # 4
    frequency:    5.1130303032
  - # 5
    frequency:    5.1606405978
  - # 6
    frequency:    6.2224156803
  - # 7
    frequency:    6.2509212325
  - # 8
    frequency:    7.0357172033
  - # 9
    frequency:    7.2832684704
  - # 10
    frequency:    7.4526532708
  - # 11
    frequency:   11.2680035766
  - # 12
    frequency:   13.5168403138
  - # 13
    frequency:   17.6773597486
  - # 14
    frequency:   17.9792975617
  - # 15
    frequency:   18.0161952956

- q-position: [    0.0404040,    0.0000000,    0.0000000 ]
  distance:    0.0143966
  band:
  - # 1
    frequency:    0.1233231652
  - # 2
    frequency:    0.5709700702
  - # 3
    frequency:    0.9533815155
  - # 4
    frequency:    5.1123338767
  - # 5
    frequency:    5.1740212298
  - # 6
    frequency:    6.2185508576
  - # 7
    frequency:    6.2548928054
  - # 8
    frequency:    7.0155278180
  - # 9
    frequency:    7.2833818298
  - # 10
    frequency:    7.4843096306
  - # 11
    frequency:   11.2617380430
  - # 12
    frequency:   13.5011772945
  - # 13
    frequency:   17.6697350496
  - # 14
    frequency:   17.9674359035
  - # 15
    frequency:   18.0152804585

- q-position: [    0.0454545,    0.0000000,    0.0000000 ]
  distance:    0.0161961
  band:
  - # 1
    frequency:    0.1553613102
  - # 2
    frequency:    0.6431896460
  - # 3
    frequency:    1.0727906138
  - # 4
    frequency:    5.1115810264
  - # 5
    frequency:    5.1889503075
  - # 6
    frequency:    6.2142176231
  - # 7
    frequency:    6.2589544016
  - # 8
    frequency:    6.9968060122
  - # 9
    frequency:    7.2834868186
  - # 10
    frequency:    7.5163139275
  - # 11
    frequency:   11.2546415647
  - # 12
    frequency:   13.4835080105
  - # 13
    frequency:   17.6611409870
  - # 14
    frequency:   17.9541201277
  - # 15
    frequency:   18.0141766546

- q-position: [    0.0505051,    0.0000000,    0.0000000 ]
  distance:    0.0179957
  band:
  - # 1
    frequency:    0.1908272404
  - # 2
    frequency:    0.7156867337
  - # 3
    frequency:    1.1922536752
  - # 4
    frequency:    5.1107842156
  - # 5
    frequency:    5.2053455292
  - # 6
    frequency:    6.2094328842
  - # 7
    frequency:    6.2629581052
  - # 8
    frequency:    6.9797564289
  - # 9
    frequency:    7.2835754861
  - # 10
    frequency:    7.5485578349
  - # 11
    frequency:   11.2467160286
  - # 12
    frequency:   13.4638628450
  - # 13
    frequency:   17.6515941855
  - # 14
    frequency:   17.9393975649
  - # 15
    frequency:   18.0128605621

- q-position: [    0.0555556,    0.0000000,    0.0000000 ]
  distance:    0.0197953
  band:
  - # 1
    frequency:    0.2296175012
  - # 2
    frequency:    0.7884804373
  - # 3
    frequency:    1.3117606255
  - # 4
    frequency:    5.1099567010
  - # 5
    frequency:    5.2231180150
  - # 6
    frequency:    6.2042151525
  - # 7
    frequency:    6.2667518813
  - # 8
    frequency:    6.9645625844
  - # 9
    frequency:    7.2836394240
  - # 10
    frequency:    7.5809553924
  - # 11
    frequency:   11.2379636646
  - # 12
    frequency:   13.4422755307
  - # 13
    frequency:   17.6411126847
  - # 14
    frequency:   17.9233208336
  - # 15
    frequency:   18.0113070654

- q-position: [    0.0606061,    0.0000000,    0.0000000 ]
  distance:    0.0215948
  band:
  - # 1
    frequency:    0.2716225313
  - # 2
    frequency:    0.8615864617
  - # 3
    frequency:    1.4312965380
  - # 4
    frequency:    5.1091123330
  - # 5
    frequency:    5.2421730230
  - # 6
    frequency:    6.1985844254
  - # 7
    frequency:    6.2701862400
  - # 8
    frequency:    6.9513891619
  - # 9
    frequency:    7.2836699062
  - # 10
    frequency:    7.6134349790
  - # 11
    frequency:   11.2283870840
  - # 12
    frequency:   13.4187830892
  - # 13
    frequency:   17.6297158206
  - # 14
    frequency:   17.9059477397
  - # 15
    frequency:   18.0094895084

- q-position: [    0.0656566,    0.0000000,    0.0000000 ]
  distance:    0.0233944
  band:
  - # 1
    frequency:    0.3167277023
  - # 2
    frequency:    0.9350169156
  - # 3
    frequency:    1.5508412569
  - # 4
    frequency:    5.1082653462
  - # 5
    frequency:    5.2624106079
  - # 6
    frequency:    6.1925620617
  - # 7
    frequency:    6.2731221888
  - # 8
    frequency:    6.9403796228
  - # 9
    frequency:    7.2836580343
  - # 10
    frequency:    7.6459347202
  - # 11
    frequency:   11.2179893186
  - # 12
    frequency:   13.3934257705
  - # 13
    frequency:   17.6174241145
  - # 14
    frequency:   17.8873411601
  - # 15
    frequency:   18.0073799536

- q-position: [    0.0707071,    0.0000000,    0.0000000 ]
  distance:    0.0251940
  band:
  - # 1
    frequency:    0.3648143161
  - # 2
    frequency:    1.0087801470
  - # 3
    frequency:    1.6703690518
  - # 4
    frequency:    5.1074301443
  - # 5
    frequency:    5.2837261976
  - # 6
    frequency:    6.1861706503
  - # 7
    frequency:    6.2754400484
  - # 8
    frequency:    6.9316511716
  - # 9
    frequency:    7.2835948869
  - # 10
    frequency:    7.6783997103
  - # 11
    frequency:   11.2067738632
  - # 12
    frequency:   13.3662469935
  - # 13
    frequency:   17.6042591690
  - # 14
    frequency:   17.8675689121
  - # 15
    frequency:   18.0049494483

- q-position: [    0.0757576,    0.0000000,    0.0000000 ]
  distance:    0.0269935
  band:
  - # 1
    frequency:    0.4157605470
  - # 2
    frequency:    1.0828806143
  - # 3
    frequency:    1.7898483035
  - # 4
    frequency:    5.1066210808
  - # 5
    frequency:    5.3060110721
  - # 6
    frequency:    6.1794338754
  - # 7
    frequency:    6.2770483698
  - # 8
    frequency:    6.9252886323
  - # 9
    frequency:    7.2834716700
  - # 10
    frequency:    7.7107802434
  - # 11
    frequency:   11.1947447195
  - # 12
    frequency:   13.3372932875
  - # 13
    frequency:   17.5902435710
  - # 14
    frequency:   17.8467036050
  - # 15
    frequency:   18.0021682958

- q-position: [    0.0808081,    0.0000000,    0.0000000 ]
  distance:    0.0287931
  band:
  - # 1
    frequency:    0.4694423155
  - # 2
    frequency:    1.1573187905
  - # 3
    frequency:    1.9092412256
  - # 4
    frequency:    5.1058522397
  - # 5
    frequency:    5.3291527278
  - # 6
    frequency:    6.1723763779
  - # 7
    frequency:    6.2778919239
  - # 8
    frequency:    6.9213386822
  - # 9
    frequency:    7.2832798671
  - # 10
    frequency:    7.7430306303
  - # 11
    frequency:   11.1819064412
  - # 12
    frequency:   13.3066142360
  - # 13
    frequency:   17.5754008016
  - # 14
    frequency:   17.8248224752
  - # 15
    frequency:   17.9990063328

- q-position: [    0.0858586,    0.0000000,    0.0000000 ]
  distance:    0.0305927
  band:
  - # 1
    frequency:    0.5257340876
  - # 2
    frequency:    1.2320911031
  - # 3
    frequency:    2.0285036224
  - # 4
    frequency:    5.1051372191
  - # 5
    frequency:    5.3530351201
  - # 6
    frequency:    6.1650236153
  - # 7
    frequency:    6.2779576541
  - # 8
    frequency:    6.9198057764
  - # 9
    frequency:    7.2830113862
  - # 10
    frequency:    7.7751083702
  - # 11
    frequency:   11.1682641815
  - # 12
    frequency:   13.2742624230
  - # 13
    frequency:   17.5597551531
  - # 14
    frequency:   17.8020072022
  - # 15
    frequency:   17.9954332133

- q-position: [    0.0909091,    0.0000000,    0.0000000 ]
  distance:    0.0323922
  band:
  - # 1
    frequency:    0.5845095945
  - # 2
    frequency:    1.3071899056
  - # 3
    frequency:    2.1475846876
  - # 4
    frequency:    5.1044889189
  - # 5
    frequency:    5.3775387780
  - # 6
    frequency:    6.1574017214
  - # 7
    frequency:    6.2772776981
  - # 8
    frequency:    6.9206507830
  - # 9
    frequency:    7.2826587028
  - # 10
    frequency:    7.8069735403
  - # 11
    frequency:   11.1538237406
  - # 12
    frequency:   13.2402933804
  - # 13
    frequency:   17.5433316512
  - # 14
    frequency:   17.7783437056
  - # 15
    frequency:   17.9914186982

- q-position: [    0.0959596,    0.0000000,    0.0000000 ]
  distance:    0.0341918
  band:
  - # 1
    frequency:    0.6456424729
  - # 2
    frequency:    1.3826034828
  - # 3
    frequency:    2.2664268437
  - # 4
    frequency:    5.1039193376
  - # 5
    frequency:    5.4025407967
  - # 6
    frequency:    6.1495373673
  - # 7
    frequency:    6.2759290626
  - # 8
    frequency:    6.9237928149
  - # 9
    frequency:    7.2822149960
  - # 10
    frequency:    7.8385883268
  - # 11
    frequency:   11.1385916147
  - # 12
    frequency:   13.2047655373
  - # 13
    frequency:   17.5261559835
  - # 14
    frequency:   17.7539219211
  - # 15
    frequency:   17.9869329503

- q-position: [    0.1010101,    0.0000000,    0.0000000 ]
  distance:    0.0359914
  band:
  - # 1
    frequency:    0.7090068265
  - # 2
    frequency:    1.4583160857
  - # 3
    frequency:    2.3849656274
  - # 4
    frequency:    5.1034393784
  - # 5
    frequency:    5.4279147204
  - # 6
    frequency:    6.1414576245
  - # 7
    frequency:    6.2740301546
  - # 8
    frequency:    6.9291140845
  - # 9
    frequency:    7.2816742769
  - # 10
    frequency:    7.8699166447
  - # 11
    frequency:   11.1225750458
  - # 12
    frequency:   13.1677401702
  - # 13
    frequency:   17.5082544339
  - # 14
    frequency:   17.7288355566
  - # 15
    frequency:   17.9819468348

- q-position: [    0.1060606,    0.0000000,    0.0000000 ]
  distance:    0.0377910
  band:
  - # 1
    frequency:    0.7744777120
  - # 2
    frequency:    1.5343079966
  - # 3
    frequency:    2.5031296204
  - # 4
    frequency:    5.1030586690
  - # 5
    frequency:    5.4535303436
  - # 6
    frequency:    6.1331898327
  - # 7
    frequency:    6.2717349223
  - # 8
    frequency:    6.9364670328
  - # 9
    frequency:    7.2810315065
  - # 10
    frequency:    7.9009238183
  - # 11
    frequency:   11.1057820711
  - # 12
    frequency:   13.1292813525
  - # 13
    frequency:   17.4896538222
  - # 14
    frequency:   17.7031818256
  - # 15
    frequency:   17.9764322228

- q-position: [    0.1111111,    0.0000000,    0.0000000 ]
  distance:    0.0395905
  band:
  - # 1
    frequency:    0.8419315547
  - # 2
    frequency:    1.6105556211
  - # 3
    frequency:    2.6208404313
  - # 4
    frequency:    5.1027853951
  - # 5
    frequency:    5.4792534784
  - # 6
    frequency:    6.1247614722
  - # 7
    frequency:    6.2692256612
  - # 8
    frequency:    6.9456826532
  - # 9
    frequency:    7.2802827029
  - # 10
    frequency:    7.9315762988
  - # 11
    frequency:   11.0882215727
  - # 12
    frequency:   13.0894559021
  - # 13
    frequency:   17.4703814508
  - # 14
    frequency:   17.6770611593
  - # 15
    frequency:   17.9703622967

- q-position: [    0.1161616,    0.0000000,    0.0000000 ]
  distance:    0.0413901
  band:
  - # 1
    frequency:    0.9112464987
  - # 2
    frequency:    1.6870316055
  - # 3
    frequency:    2.7380127282
  - # 4
    frequency:    5.1026261516
  - # 5
    frequency:    5.5049457624
  - # 6
    frequency:    6.1162000429
  - # 7
    frequency:    6.2667055336
  - # 8
    frequency:    6.9565789036
  - # 9
    frequency:    7.2794250352
  - # 10
    frequency:    7.9618414085
  - # 11
    frequency:   11.0699033276
  - # 12
    frequency:   13.0483333259
  - # 13
    frequency:   17.4504650565
  - # 14
    frequency:   17.6505768962
  - # 15
    frequency:   17.9637118567

- q-position: [    0.1212121,    0.0000000,    0.0000000 ]
  distance:    0.0431897
  band:
  - # 1
    frequency:    0.9823026984
  - # 2
    frequency:    1.7637049783
  - # 3
    frequency:    2.8545543262
  - # 4
    frequency:    5.1025858116
  - # 5
    frequency:    5.5304646161
  - # 6
    frequency:    6.1075329515
  - # 7
    frequency:    6.2643915928
  - # 8
    frequency:    6.9689683238
  - # 9
    frequency:    7.2784569026
  - # 10
    frequency:    7.9916871010
  - # 11
    frequency:   11.0508380553
  - # 12
    frequency:   13.0059857596
  - # 13
    frequency:   17.4299327697
  - # 14
    frequency:   17.6238349492
  - # 15
    frequency:   17.9564576233

- q-position: [    0.1262626,    0.0000000,    0.0000000 ]
  distance:    0.0449892
  band:
  - # 1
    frequency:    1.0549825566
  - # 2
    frequency:    1.8405413115
  - # 3
    frequency:    2.9703663324
  - # 4
    frequency:    5.1026674155
  - # 5
    frequency:    5.5556635017
  - # 6
    frequency:    6.0987874076
  - # 7
    frequency:    6.2625087169
  - # 8
    frequency:    6.9826643145
  - # 9
    frequency:    7.2773779984
  - # 10
    frequency:    8.0210817322
  - # 11
    frequency:   11.0310374656
  - # 12
    frequency:   12.9624879000
  - # 13
    frequency:   17.4088130797
  - # 14
    frequency:   17.5969434502
  - # 15
    frequency:   17.9485785362

- q-position: [    0.1313131,    0.0000000,    0.0000000 ]
  distance:    0.0467888
  band:
  - # 1
    frequency:    1.1291709163
  - # 2
    frequency:    1.9175029020
  - # 3
    frequency:    3.0853433496
  - # 4
    frequency:    5.1028720808
  - # 5
    frequency:    5.5803926841
  - # 6
    frequency:    6.0899903291
  - # 7
    frequency:    6.2612844701
  - # 8
    frequency:    6.9974858734
  - # 9
    frequency:    7.2761893567
  - # 10
    frequency:    8.0499938392
  - # 11
    frequency:   11.0105143020
  - # 12
    frequency:   12.9179169288
  - # 13
    frequency:   17.3871348073
  - # 14
    frequency:   17.5700123737
  - # 15
    frequency:   17.9400560443

- q-position: [    0.1363636,    0.0000000,    0.0000000 ]
  distance:    0.0485884
  band:
  - # 1
    frequency:    1.2047552116
  - # 2
    frequency:    1.9945489688
  - # 3
    frequency:    3.1993737424
  - # 4
    frequency:    5.1031989343
  - # 5
    frequency:    5.6045007336
  - # 6
    frequency:    6.0811682589
  - # 7
    frequency:    6.2609446110
  - # 8
    frequency:    7.0132608385
  - # 9
    frequency:    7.2748933808
  - # 10
    frequency:    8.0783919241
  - # 11
    frequency:   10.9892823839
  - # 12
    frequency:   12.8723524257
  - # 13
    frequency:   17.3649270839
  - # 14
    frequency:   17.5431531385
  - # 15
    frequency:   17.9308743849

- q-position: [    0.1414141,    0.0000000,    0.0000000 ]
  distance:    0.0503879
  band:
  - # 1
    frequency:    1.2816255826
  - # 2
    frequency:    2.0716358649
  - # 3
    frequency:    3.3123399673
  - # 4
    frequency:    5.1036450671
  - # 5
    frequency:    5.6278370299
  - # 6
    frequency:    6.0723472936
  - # 7
    frequency:    6.2617087962
  - # 8
    frequency:    7.0298278462
  - # 9
    frequency:    7.2734938523
  - # 10
    frequency:    8.1062442432
  - # 11
    frequency:   10.9673566420
  - # 12
    frequency:   12.8258762677
  - # 13
    frequency:   17.3422193365
  - # 14
    frequency:   17.5164781893
  - # 15
    frequency:   17.9210208478

- q-position: [    0.1464646,    0.0000000,    0.0000000 ]
  distance:    0.0521875
  band:
  - # 1
    frequency:    1.3596749612
  - # 2
    frequency:    2.1487173006
  - # 3
    frequency:    3.4241189701
  - # 4
    frequency:    5.1042055127
  - # 5
    frequency:    5.6502554886
  - # 6
    frequency:    6.0635530232
  - # 7
    frequency:    6.2637859974
  - # 8
    frequency:    7.0470372707
  - # 9
    frequency:    7.2719959205
  - # 10
    frequency:    8.1335186023
  - # 11
    frequency:   10.9447531491
  - # 12
    frequency:   12.7785725144
  - # 13
    frequency:   17.3190412794
  - # 14
    frequency:   17.4901005599
  - # 15
    frequency:   17.9104860221

- q-position: [    0.1515152,    0.0000000,    0.0000000 ]
  distance:    0.0539871
  band:
  - # 1
    frequency:    1.4387991298
  - # 2
    frequency:    2.2257445765
  - # 3
    frequency:    3.5345826515
  - # 4
    frequency:    5.1048732498
  - # 5
    frequency:    5.6716196152
  - # 6
    frequency:    6.0548104842
  - # 7
    frequency:    6.2673692694
  - # 8
    frequency:    7.0647514148
  - # 9
    frequency:    7.2704060700
  - # 10
    frequency:    8.1601821601
  - # 11
    frequency:   10.9214891424
  - # 12
    frequency:   12.7305272750
  - # 13
    frequency:   17.2954229099
  - # 14
    frequency:   17.4641334181
  - # 15
    frequency:   17.8992640205

- q-position: [    0.1565657,    0.0000000,    0.0000000 ]
  distance:    0.0557866
  band:
  - # 1
    frequency:    1.5188967583
  - # 2
    frequency:    2.3026668232
  - # 3
    frequency:    3.6435984051
  - # 4
    frequency:    5.1056392283
  - # 5
    frequency:    5.6918087576
  - # 6
    frequency:    6.0461441247
  - # 7
    frequency:    6.2726297699
  - # 8
    frequency:    7.0828441864
  - # 9
    frequency:    7.2687320679
  - # 10
    frequency:    8.1862012424
  - # 11
    frequency:   10.8975830363
  - # 12
    frequency:   12.6818285571
  - # 13
    frequency:   17.2713945087
  - # 14
    frequency:   17.4386895960
  - # 15
    frequency:   17.8873526783

- q-position: [    0.1616162,    0.0000000,    0.0000000 ]
  distance:    0.0575862
  band:
  - # 1
    frequency:    1.5998694231
  - # 2
    frequency:    2.3794312457
  - # 3
    frequency:    3.7510297282
  - # 4
    frequency:    5.1064924207
  - # 5
    frequency:    5.7107250951
  - # 6
    frequency:    6.0375777821
  - # 7
    frequency:    6.2797103097
  - # 8
    frequency:    7.1012004514
  - # 9
    frequency:    7.2669828883
  - # 10
    frequency:    8.2115411727
  - # 11
    frequency:   10.8730544232
  - # 12
    frequency:   12.6325660929
  - # 13
    frequency:   17.2469866415
  - # 14
    frequency:   17.4138811060
  - # 15
    frequency:   17.8747537250

- q-position: [    0.1666667,    0.0000000,    0.0000000 ]
  distance:    0.0593858
  band:
  - # 1
    frequency:    1.6816216094
  - # 2
    frequency:    2.4559833699
  - # 3
    frequency:    3.8567369094
  - # 4
    frequency:    5.1074198980
  - # 5
    frequency:    5.7283005331
  - # 6
    frequency:    6.0291346723
  - # 7
    frequency:    6.2887191276
  - # 8
    frequency:    7.1197152039
  - # 9
    frequency:    7.2651686156
  - # 10
    frequency:    8.2361661240
  - # 11
    frequency:   10.8479240603
  - # 12
    frequency:   12.5828311431
  - # 13
    frequency:   17.2222301620
  - # 14
    frequency:   17.3898186459
  - # 15
    frequency:   17.8614729223

- q-position: [    0.1717172,    0.0000000,    0.0000000 ]
  distance:    0.0611853
  band:
  - # 1
    frequency:    1.7640607008
  - # 2
    frequency:    2.5322672878
  - # 3
    frequency:    3.9605777938
  - # 4
    frequency:    5.1084069306
  - # 5
    frequency:    5.7445023912
  - # 6
    frequency:    6.0208373898
  - # 7
    frequency:    6.2997249008
  - # 8
    frequency:    7.1382926595
  - # 9
    frequency:    7.2633003257
  - # 10
    frequency:    8.2600389997
  - # 11
    frequency:   10.8222138403
  - # 12
    frequency:   12.5327162740
  - # 13
    frequency:   17.1971562128
  - # 14
    frequency:   17.3666110964
  - # 15
    frequency:   17.8475201685

- q-position: [    0.1767677,    0.0000000,    0.0000000 ]
  distance:    0.0629849
  band:
  - # 1
    frequency:    1.8470969562
  - # 2
    frequency:    2.6082258999
  - # 3
    frequency:    4.0624086284
  - # 4
    frequency:    5.1094371147
  - # 5
    frequency:    5.7593367436
  - # 6
    frequency:    6.0127079176
  - # 7
    frequency:    6.3127540621
  - # 8
    frequency:    7.1568453408
  - # 9
    frequency:    7.2613899473
  - # 10
    frequency:    8.2831213524
  - # 11
    frequency:   10.7959467433
  - # 12
    frequency:   12.4823151075
  - # 13
    frequency:   17.1717962215
  - # 14
    frequency:   17.3443650117
  - # 15
    frequency:   17.8329095645

- q-position: [    0.1818182,    0.0000000,    0.0000000 ]
  distance:    0.0647845
  band:
  - # 1
    frequency:    1.9306434781
  - # 2
    frequency:    2.6838011510
  - # 3
    frequency:    4.1620849886
  - # 4
    frequency:    5.1104925256
  - # 5
    frequency:    5.7728485851
  - # 6
    frequency:    6.0047676447
  - # 7
    frequency:    6.3277912015
  - # 8
    frequency:    7.1752932056
  - # 9
    frequency:    7.2594501023
  - # 10
    frequency:    8.3053733506
  - # 11
    frequency:   10.7691467687
  - # 12
    frequency:   12.4317220404
  - # 13
    frequency:   17.1461818903
  - # 14
    frequency:   17.3231841090
  - # 15
    frequency:   17.8176594407

- q-position: [    0.1868687,    0.0000000,    0.0000000 ]
  distance:    0.0665841
  band:
  - # 1
    frequency:    2.0146161700
  - # 2
    frequency:    2.7589342562
  - # 3
    frequency:    4.2594627874
  - # 4
    frequency:    5.1115538968
  - # 5
    frequency:    5.7851186077
  - # 6
    frequency:    5.9970373893
  - # 7
    frequency:    6.3447827328
  - # 8
    frequency:    7.1935628491
  - # 9
    frequency:    7.2574939283
  - # 10
    frequency:    8.3267538045
  - # 11
    frequency:   10.7418388459
  - # 12
    frequency:   12.3810319318
  - # 13
    frequency:   17.1203451757
  - # 14
    frequency:   17.3031687582
  - # 15
    frequency:   17.8017923420

- q-position: [    0.1919192,    0.0000000,    0.0000000 ]
  distance:    0.0683836
  band:
  - # 1
    frequency:    2.0989336861
  - # 2
    frequency:    2.8335659144
  - # 3
    frequency:    4.3543993636
  - # 4
    frequency:    5.1126008294
  - # 5
    frequency:    5.7962570923
  - # 6
    frequency:    5.9895374255
  - # 7
    frequency:    6.3636432982
  - # 8
    frequency:    7.2115867987
  - # 9
    frequency:    7.2555348853
  - # 10
    frequency:    8.3472202643
  - # 11
    frequency:   10.7140487224
  - # 12
    frequency:   12.3303397547
  - # 13
    frequency:   17.0943182540
  - # 14
    frequency:   17.2844154766
  - # 15
    frequency:   17.7853349701

- q-position: [    0.1969697,    0.0000000,    0.0000000 ]
  distance:    0.0701832
  band:
  - # 1
    frequency:    2.1835173733
  - # 2
    frequency:    2.9076365052
  - # 3
    frequency:    4.4467546473
  - # 4
    frequency:    5.1136120304
  - # 5
    frequency:    5.8063959759
  - # 6
    frequency:    5.9822875091
  - # 7
    frequency:    6.3842638351
  - # 8
    frequency:    7.2293029160
  - # 9
    frequency:    7.2535865471
  - # 10
    frequency:    8.3667292031
  - # 11
    frequency:   10.6858028314
  - # 12
    frequency:   12.2797402112
  - # 13
    frequency:   17.0681334713
  - # 14
    frequency:   17.2670164306
  - # 15
    frequency:   17.7683180831

- q-position: [    0.2020202,    0.0000000,    0.0000000 ]
  distance:    0.0719828
  band:
  - # 1
    frequency:    2.2682912038
  - # 2
    frequency:    2.9810862655
  - # 3
    frequency:    4.5363923931
  - # 4
    frequency:    5.1145655847
  - # 5
    frequency:    5.8156803796
  - # 6
    frequency:    5.9753069011
  - # 7
    frequency:    6.4065200122
  - # 8
    frequency:    7.2466539106
  - # 9
    frequency:    7.2516623832
  - # 10
    frequency:    8.3852362973
  - # 11
    frequency:   10.6571281394
  - # 12
    frequency:   12.2293273079
  - # 13
    frequency:   17.0418232730
  - # 14
    frequency:   17.2510589504
  - # 15
    frequency:   17.7507763517

- q-position: [    0.2070707,    0.0000000,    0.0000000 ]
  distance:    0.0737823
  band:
  - # 1
    frequency:    2.3531817004
  - # 2
    frequency:    3.0538554403
  - # 3
    frequency:    4.6231814670
  - # 4
    frequency:    5.1154392628
  - # 5
    frequency:    5.8242607484
  - # 6
    frequency:    5.9686143827
  - # 7
    frequency:    6.4302798827
  - # 8
    frequency:    7.2497755314
  - # 9
    frequency:    7.2635869700
  - # 10
    frequency:    8.4026968168
  - # 11
    frequency:   10.6280519788
  - # 12
    frequency:   12.1791938894
  - # 13
    frequency:   17.0154201109
  - # 14
    frequency:   17.2366250582
  - # 15
    frequency:   17.7327481734

- q-position: [    0.2121212,    0.0000000,    0.0000000 ]
  distance:    0.0755819
  band:
  - # 1
    frequency:    2.4381178529