nqpoint: 300    
npath: 3      
segment_nqpoint:
- 100
- 100
- 100
labels:
- [ 'G', 'M' ]
- [ 'M', 'K' ]
- [ 'K', 'G' ]
reciprocal_lattice:
- [   0.30857756,   0.17815734,   0.00000000 ] # a*
- [   0.00000000,   0.35631468,   0.00000000 ] # b*
- [   0.00000000,   0.00000000,   0.04338727 ] # c*
natom: 5      
lattice:
- [     3.240676327688929,     0.000000000000000,     0.000000000000000 ] # a
- [    -1.620338163844464,     2.806508025218168,     0.000000000000000 ] # b
- [     0.000000000000000,     0.000000000000000,    23.048235736444671 ] # c
points:
- symbol: C # 1
  coordinates: [  0.000000000000000,  0.000000000000000,  0.510863617479950 ]
  mass: 12.010700
- symbol: Cl # 2
  coordinates: [  0.666666984744048,  0.333332985985145,  0.390485419487830 ]
  mass: 35.453000
- symbol: F # 3
  coordinates: [  0.333332985432215,  0.666666983183674,  0.609514580512170 ]
  mass: 18.998403
- symbol: Ti # 4
  coordinates: [  0.333332985432215,  0.666666983183674,  0.462976357753828 ]
  mass: 47.867000
- symbol: Ti # 5
  coordinates: [  0.666666984744048,  0.333332985985145,  0.557780834297433 ]
  mass: 47.867000

phonon:
- q-position: [    0.0000000,    0.0000000,    0.0000000 ]
  distance:    0.0000000
  band:
  - # 1
    frequency:   -0.0000017424
  - # 2
    frequency:   -0.0000003352
  - # 3
    frequency:    0.0000017812
  - # 4
    frequency:    4.5239146212
  - # 5
    frequency:    4.5239146212
  - # 6
    frequency:    6.0340645476
  - # 7
    frequency:    6.0340645476
  - # 8
    frequency:    7.1337724246
  - # 9
    frequency:    7.1829945146
  - # 10
    frequency:    7.1829945146
  - # 11
    frequency:   11.2802041958
  - # 12
    frequency:   13.5395059448
  - # 13
    frequency:   17.1466810030
  - # 14
    frequency:   17.1466810030
  - # 15
    frequency:   17.5719024988

- q-position: [    0.0050505,    0.0000000,    0.0000000 ]
  distance:    0.0017996
  band:
  - # 1
    frequency:   -0.0263074443
  - # 2
    frequency:    0.0831633329
  - # 3
    frequency:    0.1298892858
  - # 4
    frequency:    4.5243232686
  - # 5
    frequency:    4.5254204377
  - # 6
    frequency:    6.0341836360
  - # 7
    frequency:    6.0349313416
  - # 8
    frequency:    7.1212347948
  - # 9
    frequency:    7.1833363697
  - # 10
    frequency:    7.1963479501
  - # 11
    frequency:   11.2798295045
  - # 12
    frequency:   13.5385125595
  - # 13
    frequency:   17.1478008339
  - # 14
    frequency:   17.1485238051
  - # 15
    frequency:   17.5716958714

- q-position: [    0.0101010,    0.0000000,    0.0000000 ]
  distance:    0.0035991
  band:
  - # 1
    frequency:   -0.0356055223
  - # 2
    frequency:    0.1663127713
  - # 3
    frequency:    0.2569664909
  - # 4
    frequency:    4.5255480404
  - # 5
    frequency:    4.5299284941
  - # 6
    frequency:    6.0345370354
  - # 7
    frequency:    6.0375213683
  - # 8
    frequency:    7.0982265337
  - # 9
    frequency:    7.1843603120
  - # 10
    frequency:    7.2218059918
  - # 11
    frequency:   11.2787054027
  - # 12
    frequency:   13.5355338196
  - # 13
    frequency:   17.1511490726
  - # 14
    frequency:   17.1540321674
  - # 15
    frequency:   17.5710782918

- q-position: [    0.0151515,    0.0000000,    0.0000000 ]
  distance:    0.0053987
  band:
  - # 1
    frequency:   -0.0447525813
  - # 2
    frequency:    0.2494342125
  - # 3
    frequency:    0.3845753242
  - # 4
    frequency:    4.5275854145
  - # 5
    frequency:    4.5374108123
  - # 6
    frequency:    6.0351132666
  - # 7
    frequency:    6.0418035439
  - # 8
    frequency:    7.0737026691
  - # 9
    frequency:    7.1860614399
  - # 10
    frequency:    7.2504208180
  - # 11
    frequency:   11.2768317981
  - # 12
    frequency:   13.5305739722
  - # 13
    frequency:   17.1566920820
  - # 14
    frequency:   17.1631458137
  - # 15
    frequency:   17.5700570184

- q-position: [    0.0202020,    0.0000000,    0.0000000 ]
  distance:    0.0071983
  band:
  - # 1
    frequency:   -0.0509460518
  - # 2
    frequency:    0.3325131427
  - # 3
    frequency:    0.5122480848
  - # 4
    frequency:    4.5304294835
  - # 5
    frequency:    4.5478214232
  - # 6
    frequency:    6.0358935894
  - # 7
    frequency:    6.0477260030
  - # 8
    frequency:    7.0494194469
  - # 9
    frequency:    7.1884314777
  - # 10
    frequency:    7.2804485792
  - # 11
    frequency:   11.2742085100
  - # 12
    frequency:   13.5236400903
  - # 13
    frequency:   17.1643742155
  - # 14
    frequency:   17.1757637149
  - # 15
    frequency:   17.5686454024

- q-position: [    0.0252525,    0.0000000,    0.0000000 ]
  distance:    0.0089978
  band:
  - # 1
    frequency:   -0.0512276851
  - # 2
    frequency:    0.4155344434
  - # 3
    frequency:    0.6398596349
  - # 4
    frequency:    4.5340719041
  - # 5
    frequency:    4.5610973174
  - # 6
    frequency:    6.0368525708
  - # 7
    frequency:    6.0552160160
  - # 8
    frequency:    7.0258929679
  - # 9
    frequency:    7.1914586256
  - # 10
    frequency:    7.3113913264
  - # 11
    frequency:   11.2708352309
  - # 12
    frequency:   13.5147420665
  - # 13
    frequency:   17.1741184328
  - # 14
    frequency:   17.1917429018
  - # 15
    frequency:   17.5668650857

- q-position: [    0.0303030,    0.0000000,    0.0000000 ]
  distance:    0.0107974
  band:
  - # 1
    frequency:   -0.0395250113
  - # 2
    frequency:    0.4984822119
  - # 3
    frequency:    0.7673456492
  - # 4
    frequency:    4.5385018328
  - # 5
    frequency:    4.5771597055
  - # 6
    frequency:    6.0379588444
  - # 7
    frequency:    6.0641798864
  - # 8
    frequency:    7.0033637488
  - # 9
    frequency:    7.1951273695
  - # 10
    frequency:    7.3430332107
  - # 11
    frequency:   11.2667114785
  - # 12
    frequency:   13.5038926035
  - # 13
    frequency:   17.1858271499
  - # 14
    frequency:   17.2108960103
  - # 15
    frequency:   17.5647498428

- q-position: [    0.0353535,    0.0000000,    0.0000000 ]
  distance:    0.0125970
  band:
  - # 1
    frequency:    0.0348029269
  - # 2
    frequency:    0.5813396002
  - # 3
    frequency:    0.8946587984
  - # 4
    frequency:    4.5437058552
  - # 5
    frequency:    4.5959155183
  - # 6
    frequency:    6.0391760282
  - # 7
    frequency:    6.0745028558
  - # 8
    frequency:    6.9819907090
  - # 9
    frequency:    7.1994182674
  - # 10
    frequency:    7.3752474123
  - # 11
    frequency:   11.2618365437
  - # 12
    frequency:   13.4911072049
  - # 13
    frequency:   17.1993833096
  - # 14
    frequency:   17.2329863992
  - # 15
    frequency:   17.5623521970

- q-position: [    0.0404040,    0.0000000,    0.0000000 ]
  distance:    0.0143966
  band:
  - # 1
    frequency:    0.0799865834
  - # 2
    frequency:    0.6640886745
  - # 3
    frequency:    1.0217573804
  - # 4
    frequency:    4.5496679182
  - # 5
    frequency:    4.6172590778
  - # 6
    frequency:    6.0404637585
  - # 7
    frequency:    6.0860490622
  - # 8
    frequency:    6.9619063094
  - # 9
    frequency:    7.2043077348
  - # 10
    frequency:    7.4079420067
  - # 11
    frequency:   11.2562094374
  - # 12
    frequency:   13.4764041644
  - # 13
    frequency:   17.2146516585
  - # 14
    frequency:   17.2577185955
  - # 15
    frequency:   17.5597550231

- q-position: [    0.0454545,    0.0000000,    0.0000000 ]
  distance:    0.0161961
  band:
  - # 1
    frequency:    0.1215195446
  - # 2
    frequency:    0.7467102988
  - # 3
    frequency:    1.1486013567
  - # 4
    frequency:    4.5563692706
  - # 5
    frequency:    4.6410738608
  - # 6
    frequency:    6.0417787992
  - # 7
    frequency:    6.0986616365
  - # 8
    frequency:    6.9432365998
  - # 9
    frequency:    7.2097678509
  - # 10
    frequency:    7.4410409065
  - # 11
    frequency:   11.2498288450
  - # 12
    frequency:   13.4598045563
  - # 13
    frequency:   17.2314802110
  - # 14
    frequency:   17.2847195753
  - # 15
    frequency:   17.5570925892

- q-position: [    0.0505051,    0.0000000,    0.0000000 ]
  distance:    0.0179957
  band:
  - # 1
    frequency:    0.1647478739
  - # 2
    frequency:    0.8291840439
  - # 3
    frequency:    1.2751506369
  - # 4
    frequency:    4.5637884221
  - # 5
    frequency:    4.6672342856
  - # 6
    frequency:    6.0430761771
  - # 7
    frequency:    6.1121630741
  - # 8
    frequency:    6.9261098656
  - # 9
    frequency:    7.2157662100
  - # 10
    frequency:    7.4744760309
  - # 11
    frequency:   11.2426930914
  - # 12
    frequency:   13.4413322273
  - # 13
    frequency:   17.2497018813
  - # 14
    frequency:   17.3135016137
  - # 15
    frequency:   17.5545902657

- q-position: [    0.0555556,    0.0000000,    0.0000000 ]
  distance:    0.0197953
  band:
  - # 1
    frequency:    0.2106786008
  - # 2
    frequency:    0.9114881232
  - # 3
    frequency:    1.4013641876
  - # 4
    frequency:    4.5719011271
  - # 5
    frequency:    4.6956074544
  - # 6
    frequency:    6.0443103030
  - # 7
    frequency:    6.1263560904
  - # 8
    frequency:    6.9106606117
  - # 9
    frequency:    7.2222658400
  - # 10
    frequency:    7.5081837350
  - # 11
    frequency:   11.2348001229
  - # 12
    frequency:   13.4210137890
  - # 13
    frequency:   17.2691362612
  - # 14
    frequency:   17.3433873928
  - # 15
    frequency:   17.5526421681

- q-position: [    0.0606061,    0.0000000,    0.0000000 ]
  distance:    0.0215948
  band:
  - # 1
    frequency:    0.2595902981
  - # 2
    frequency:    0.9935993547
  - # 3
    frequency:    1.5271994850
  - # 4
    frequency:    4.5806803989
  - # 5
    frequency:    4.7260547989
  - # 6
    frequency:    6.0454360336
  - # 7
    frequency:    6.1410252527
  - # 8
    frequency:    6.8970309930
  - # 9
    frequency:    7.2292252084
  - # 10
    frequency:    7.5421030745
  - # 11
    frequency:   11.2261475098
  - # 12
    frequency:   13.3988786128
  - # 13
    frequency:   17.2895915197
  - # 14
    frequency:   17.3733599078
  - # 15
    frequency:   17.5519641509

- q-position: [    0.0656566,    0.0000000,    0.0000000 ]
  distance:    0.0233944
  band:
  - # 1
    frequency:    0.3115275314
  - # 2
    frequency:    1.0754931498
  - # 3
    frequency:    1.6526121273
  - # 4
    frequency:    4.5900965586
  - # 5
    frequency:    4.7584335840
  - # 6
    frequency:    6.0464096413
  - # 7
    frequency:    6.1559397753
  - # 8
    frequency:    6.8853702500
  - # 9
    frequency:    7.2365983306
  - # 10
    frequency:    7.5761749441
  - # 11
    frequency:   11.2167324714
  - # 12
    frequency:   13.3749588265
  - # 13
    frequency:   17.3108664024
  - # 14
    frequency:   17.4017903632
  - # 15
    frequency:   17.5538689217

- q-position: [    0.0707071,    0.0000000,    0.0000000 ]
  distance:    0.0251940
  band:
  - # 1
    frequency:    0.3664370546
  - # 2
    frequency:    1.1571435277
  - # 3
    frequency:    1.7775555285
  - # 4
    frequency:    4.6001173226
  - # 5
    frequency:    4.7925982390
  - # 6
    frequency:    6.0471896631
  - # 7
    frequency:    6.1708579247
  - # 8
    frequency:    6.8758321110
  - # 9
    frequency:    7.2443349910
  - # 10
    frequency:    7.6103416617
  - # 11
    frequency:   11.2065519262
  - # 12
    frequency:   13.3492893117
  - # 13
    frequency:   17.3327523046
  - # 14
    frequency:   17.4261436425
  - # 15
    frequency:   17.5605636488

- q-position: [    0.0757576,    0.0000000,    0.0000000 ]
  distance:    0.0269935
  band:
  - # 1
    frequency:    0.4242183586
  - # 2
    frequency:    1.2385231532
  - # 3
    frequency:    1.9019806561
  - # 4
    frequency:    4.6107079273
  - # 5
    frequency:    4.8284014937
  - # 6
    frequency:    6.0477376069
  - # 7
    frequency:    6.1855334751
  - # 8
    frequency:    6.8685699149
  - # 9
    frequency:    7.2523810821
  - # 10
    frequency:    7.6445467926
  - # 11
    frequency:   11.1956025677
  - # 12
    frequency:   13.3219077026
  - # 13
    frequency:   17.3550353959
  - # 14
    frequency:   17.4434375725
  - # 15
    frequency:   17.5746938072

- q-position: [    0.0808081,    0.0000000,    0.0000000 ]
  distance:    0.0287931
  band:
  - # 1
    frequency:    0.4847462099
  - # 2
    frequency:    1.3196033966
  - # 3
    frequency:    2.0258357958
  - # 4
    frequency:    4.6218312925
  - # 5
    frequency:    4.8656953090
  - # 6
    frequency:    6.0480185067
  - # 7
    frequency:    6.1997245051
  - # 8
    frequency:    6.8637292617
  - # 9
    frequency:    7.2606790588
  - # 10
    frequency:    7.6787351035
  - # 11
    frequency:   11.1838809642
  - # 12
    frequency:   13.2928543844
  - # 13
    frequency:   17.3774987715
  - # 14
    frequency:   17.4523231327
  - # 15
    frequency:   17.5972660769

- q-position: [    0.0858586,    0.0000000,    0.0000000 ]
  distance:    0.0305927
  band:
  - # 1
    frequency:    0.5478820935
  - # 2
    frequency:    1.4003544140
  - # 3
    frequency:    2.1490663336
  - # 4
    frequency:    4.6334482199
  - # 5
    frequency:    4.9043315952
  - # 6
    frequency:    6.0480013214
  - # 7
    frequency:    6.2132044734
  - # 8
    frequency:    6.8614383084
  - # 9
    frequency:    7.2691685009
  - # 10
    frequency:    7.7128525840
  - # 11
    frequency:   11.1713836815
  - # 12
    frequency:   13.2621724920
  - # 13
    frequency:   17.3999246091
  - # 14
    frequency:   17.4542039821
  - # 15
    frequency:   17.6265318921

- q-position: [    0.0909091,    0.0000000,    0.0000000 ]
  distance:    0.0323922
  band:
  - # 1
    frequency:    0.6134806190
  - # 2
    frequency:    1.4807452445
  - # 3
    frequency:    2.2716145522
  - # 4
    frequency:    4.6455176229
  - # 5
    frequency:    4.9441627191
  - # 6
    frequency:    6.0476591837
  - # 7
    frequency:    6.2257749443
  - # 8
    frequency:    6.8617963737
  - # 9
    frequency:    7.2777867698
  - # 10
    frequency:    7.7468464981
  - # 11
    frequency:   11.1581074259
  - # 12
    frequency:   13.2299079062
  - # 13
    frequency:   17.4220963083
  - # 14
    frequency:   17.4513793629
  - # 15
    frequency:   17.6598475540

- q-position: [    0.0959596,    0.0000000,    0.0000000 ]
  distance:    0.0341918
  band:
  - # 1
    frequency:    0.6813933875
  - # 2
    frequency:    1.5607439228
  - # 3
    frequency:    2.3934194396
  - # 4
    frequency:    4.6579967846
  - # 5
    frequency:    4.9850418025
  - # 6
    frequency:    6.0469695109
  - # 7
    frequency:    6.2372786447
  - # 8
    frequency:    6.8648621943
  - # 9
    frequency:    7.2864697429
  - # 10
    frequency:    7.7806654406
  - # 11
    frequency:   11.1440492042
  - # 12
    frequency:   13.1961092482
  - # 13
    frequency:   17.4438005946
  - # 14
    frequency:   17.4455260441
  - # 15
    frequency:   17.6951952209

- q-position: [    0.1010101,    0.0000000,    0.0000000 ]
  distance:    0.0359914
  band:
  - # 1
    frequency:    0.7514714598
  - # 2
    frequency:    1.6403176049
  - # 3
    frequency:    2.5144165086
  - # 4
    frequency:    4.6708416366
  - # 5
    frequency:    5.0268228162
  - # 6
    frequency:    6.0459139940
  - # 7
    frequency:    6.2476109618
  - # 8
    frequency:    6.8706437429
  - # 9
    frequency:    7.2951526028
  - # 10
    frequency:    7.8142593839
  - # 11
    frequency:   11.1292064974
  - # 12
    frequency:   13.1608278712
  - # 13
    frequency:   17.4376097829
  - # 14
    frequency:   17.4648295681
  - # 15
    frequency:   17.7312742792

- q-position: [    0.1060606,    0.0000000,    0.0000000 ]
  distance:    0.0377910
  band:
  - # 1
    frequency:    0.8235669976
  - # 2
    frequency:    1.7194327036
  - # 3
    frequency:    2.6345376308
  - # 4
    frequency:    4.6840070556
  - # 5
    frequency:    5.0693604739
  - # 6
    frequency:    6.0444784861
  - # 7
    frequency:    6.2567278436
  - # 8
    frequency:    6.8790916655
  - # 9
    frequency:    7.3037706618
  - # 10
    frequency:    7.8475797033
  - # 11
    frequency:   11.1135774432
  - # 12
    frequency:   13.1241178470
  - # 13
    frequency:   17.4281624434
  - # 14
    frequency:   17.4849826797
  - # 15
    frequency:   17.7672269363

- q-position: [    0.1111111,    0.0000000,    0.0000000 ]
  distance:    0.0395905
  band:
  - # 1
    frequency:    0.8975343834
  - # 2
    frequency:    1.7980550319
  - # 3
    frequency:    2.7537108838
  - # 4
    frequency:    4.6974471694
  - # 5
    frequency:    5.1125099289
  - # 6
    frequency:    6.0426528124
  - # 7
    frequency:    6.2646485616
  - # 8
    frequency:    6.8900978937
  - # 9
    frequency:    7.3122601945
  - # 10
    frequency:    7.8805791749
  - # 11
    frequency:   11.0971610252
  - # 12
    frequency:   13.0860359495
  - # 13
    frequency:   17.4174832987
  - # 14
    frequency:   17.5040686217
  - # 15
    frequency:   17.8024394987

- q-position: [    0.1161616,    0.0000000,    0.0000000 ]
  distance:    0.0413901
  band:
  - # 1
    frequency:    0.9732309936
  - # 2
    frequency:    1.8761499535
  - # 3
    frequency:    2.8718604154
  - # 4
    frequency:    4.7111156695
  - # 5
    frequency:    5.1561262768
  - # 6
    frequency:    6.0404305245
  - # 7
    frequency:    6.2714528760
  - # 8
    frequency:    6.9034999085
  - # 9
    frequency:    7.3205592605
  - # 10
    frequency:    7.9132119422
  - # 11
    frequency:   11.0799572620
  - # 12
    frequency:   13.0466416312
  - # 13
    frequency:   17.4057474671
  - # 14
    frequency:   17.5219071167
  - # 15
    frequency:   17.8364363709

- q-position: [    0.1212121,    0.0000000,    0.0000000 ]
  distance:    0.0431897
  band:
  - # 1
    frequency:    1.0505177332
  - # 2
    frequency:    1.9536825352
  - # 3
    frequency:    2.9889063267
  - # 4
    frequency:    4.7249661230
  - # 5
    frequency:    5.2000638642
  - # 6
    frequency:    6.0378086203
  - # 7
    frequency:    6.2772734268
  - # 8
    frequency:    6.9190898486
  - # 9
    frequency:    7.3286084917
  - # 10
    frequency:    7.9454334510
  - # 11
    frequency:   11.0619673954
  - # 12
    frequency:   13.0059969946
  - # 13
    frequency:   17.3930616533
  - # 14
    frequency:   17.5383305942
  - # 15
    frequency:   17.8688265944

- q-position: [    0.1262626,    0.0000000,    0.0000000 ]
  distance:    0.0449892
  band:
  - # 1
    frequency:    1.1292593989
  - # 2
    frequency:    2.0306177030
  - # 3
    frequency:    3.1047645779
  - # 4
    frequency:    4.7389522805
  - # 5
    frequency:    5.2441754094
  - # 6
    frequency:    6.0347872507
  - # 7
    frequency:    6.2822851478
  - # 8
    frequency:    6.9366266741
  - # 9
    frequency:    7.3363518296
  - # 10
    frequency:    7.9772003524
  - # 11
    frequency:   11.0431940713
  - # 12
    frequency:   12.9641667569
  - # 13
    frequency:   17.3794934012
  - # 14
    frequency:   17.5531857447
  - # 15
    frequency:   17.8992767164

- q-position: [    0.1313131,    0.0000000,    0.0000000 ]
  distance:    0.0467888
  band:
  - # 1
    frequency:    1.2093249167
  - # 2
    frequency:    2.1069203962
  - # 3
    frequency:    3.2193469193
  - # 4
    frequency:    4.7530283748
  - # 5
    frequency:    5.2883109426
  - # 6
    frequency:    6.0313694296
  - # 7
    frequency:    6.2866938442
  - # 8
    frequency:    6.9558492489
  - # 9
    frequency:    7.3437371949
  - # 10
    frequency:    8.0084703773
  - # 11
    frequency:   11.0236415117
  - # 12
    frequency:   12.9212182071
  - # 13
    frequency:   17.3650870754
  - # 14
    frequency:   17.5663349412
  - # 15
    frequency:   17.9274967607

- q-position: [    0.1363636,    0.0000000,    0.0000000 ]
  distance:    0.0485884
  band:
  - # 1
    frequency:    1.2905874872
  - # 2
    frequency:    2.1825557210
  - # 3
    frequency:    3.3325608517
  - # 4
    frequency:    4.7671494088
  - # 5
    frequency:    5.3323165883
  - # 6
    frequency:    6.0275607607
  - # 7
    frequency:    6.2907257688
  - # 8
    frequency:    6.9764884955
  - # 9
    frequency:    7.3507170774
  - # 10
    frequency:    8.0392021860
  - # 11
    frequency:   11.0033156725
  - # 12
    frequency:   12.8772211557
  - # 13
    frequency:   17.3498729908
  - # 14
    frequency:   17.5776575209
  - # 15
    frequency:   17.9532328794

- q-position: [    0.1414141,    0.0000000,    0.0000000 ]
  distance:    0.0503879
  band:
  - # 1
    frequency:    1.3729246596
  - # 2
    frequency:    2.2574890994
  - # 3
    frequency:    3.4443096219
  - # 4
    frequency:    4.7812714275
  - # 5
    frequency:    5.3760332339
  - # 6
    frequency:    6.0233691948
  - # 7
    frequency:    6.2946193467
  - # 8
    frequency:    6.9982774342
  - # 9
    frequency:    7.3572490374
  - # 10
    frequency:    8.0693551990
  - # 11
    frequency:   10.9822243858
  - # 12
    frequency:   12.8322478759
  - # 13
    frequency:   17.3338728608
  - # 14
    frequency:   17.5870509202
  - # 15
    frequency:   17.9762635113

- q-position: [    0.1464646,    0.0000000,    0.0000000 ]
  distance:    0.0521875
  band:
  - # 1
    frequency:    1.4562183537
  - # 2
    frequency:    2.3316864124
  - # 3
    frequency:    3.5544922555
  - # 4
    frequency:    4.7953517741
  - # 5
    frequency:    5.4192951668
  - # 6
    frequency:    6.0188048222
  - # 7
    frequency:    6.2986194405
  - # 8
    frequency:    7.0209586388
  - # 9
    frequency:    7.3632961113
  - # 10
    frequency:    8.0988894146
  - # 11
    frequency:   10.9603774827
  - # 12
    frequency:   12.7863730357
  - # 13
    frequency:   17.3171031827
  - # 14
    frequency:   17.5944316582
  - # 15
    frequency:   17.9963974221

- q-position: [    0.1515152,    0.0000000,    0.0000000 ]
  distance:    0.0539871
  band:
  - # 1
    frequency:    1.5403548402
  - # 2
    frequency:    2.4051141359
  - # 3
    frequency:    3.6630036356
  - # 4
    frequency:    4.8093493270
  - # 5
    frequency:    5.4619288210
  - # 6
    frequency:    6.0138797085
  - # 7
    frequency:    6.3029739363
  - # 8
    frequency:    7.0442891912
  - # 9
    frequency:    7.3688271190
  - # 10
    frequency:    8.1277652212
  - # 11
    frequency:   10.9377868932
  - # 12
    frequency:   12.7396736207
  - # 13
    frequency:   17.2995774240
  - # 14
    frequency:   17.5997361624
  - # 15
    frequency:   18.0134727646

- q-position: [    0.1565657,    0.0000000,    0.0000000 ]
  distance:    0.0557866
  band:
  - # 1
    frequency:    1.6252246907
  - # 2
    frequency:    2.4777394667
  - # 3
    frequency:    3.7697346292
  - # 4
    frequency:    4.8232247182
  - # 5
    frequency:    5.5037518602
  - # 6
    frequency:    6.0086077743
  - # 7
    frequency:    6.3079320233
  - # 8
    frequency:    7.0680435391
  - # 9
    frequency:    7.3738168720
  - # 10
    frequency:    8.1559432120
  - # 11
    frequency:   10.9144667225
  - # 12
    frequency:   12.6922288454
  - # 13
    frequency:   17.2813074817
  - # 14
    frequency:   17.6029214345
  - # 15
    frequency:   18.0273566784

- q-position: [    0.1616162,    0.0000000,    0.0000000 ]
  distance:    0.0575862
  band:
  - # 1
    frequency:    1.7107227050
  - # 2
    frequency:    2.5495304372
  - # 3
    frequency:    3.8745722709
  - # 4
    frequency:    4.8369405312
  - # 5
    frequency:    5.5445729355
  - # 6
    frequency:    6.0030047192
  - # 7
    frequency:    6.3137433181
  - # 8
    frequency:    7.0920147667
  - # 9
    frequency:    7.3782462822
  - # 10
    frequency:    8.1833840111
  - # 11
    frequency:   10.8904332990
  - # 12
    frequency:   12.6441200533
  - # 13
    frequency:   17.2623046889
  - # 14
    frequency:   17.6039655510
  - # 15
    frequency:   18.0379451569

- q-position: [    0.1666667,    0.0000000,    0.0000000 ]
  distance:    0.0593858
  band:
  - # 1
    frequency:    1.7967478198
  - # 2
    frequency:    2.6204560157
  - # 3
    frequency:    3.9774000059
  - # 4
    frequency:    4.8504614782
  - # 5
    frequency:    5.5841925869
  - # 6
    frequency:    5.9970879887
  - # 7
    frequency:    6.3206568706
  - # 8
    frequency:    7.1160147769
  - # 9
    frequency:    7.3821023764
  - # 10
    frequency:    8.2100481192
  - # 11
    frequency:   10.8657051935
  - # 12
    frequency:   12.5954306031
  - # 13
    frequency:   17.2425805269
  - # 14
    frequency:   17.6028679980
  - # 15
    frequency:   18.0451630171

- q-position: [    0.1717172,    0.0000000,    0.0000000 ]
  distance:    0.0611853
  band:
  - # 1
    frequency:    1.8832030054
  - # 2
    frequency:    2.6904861917
  - # 3
    frequency:    4.0780980002
  - # 4
    frequency:    4.8637545586
  - # 5
    frequency:    5.6224058780
  - # 6
    frequency:    5.9908767802
  - # 7
    frequency:    6.3289190528
  - # 8
    frequency:    7.1398737928
  - # 9
    frequency:    7.3853782196
  - # 10
    frequency:    8.2358957897
  - # 11
    frequency:   10.8403032072
  - # 12
    frequency:   12.5462457397
  - # 13
    frequency:   17.2221471430
  - # 14
    frequency:   17.5996498362
  - # 15
    frequency:   18.0489638705

- q-position: [    0.1767677,    0.0000000,    0.0000000 ]
  distance:    0.0629849
  band:
  - # 1
    frequency:    1.9699951519
  - # 2
    frequency:    2.7595920421
  - # 3
    frequency:    4.1765435204
  - # 4
    frequency:    4.8767891958
  - # 5
    frequency:    5.6590073975
  - # 6
    frequency:    5.9843920830
  - # 7
    frequency:    6.3387693894
  - # 8
    frequency:    7.1634394915
  - # 9
    frequency:    7.3880727547
  - # 10
    frequency:    8.2608869428
  - # 11
    frequency:   10.8142503268
  - # 12
    frequency:   12.4966524482
  - # 13
    frequency:   17.2010177338
  - # 14
    frequency:   17.5943536953
  - # 15
    frequency:   18.0493300298

- q-position: [    0.1818182,    0.0000000,    0.0000000 ]
  distance:    0.0647845
  band:
  - # 1
    frequency:    2.0570349492
  - # 2
    frequency:    2.8277457767
  - # 3
    frequency:    4.2726113863
  - # 4
    frequency:    4.8895373560
  - # 5
    frequency:    5.6937991388
  - # 6
    frequency:    5.9776567460
  - # 7
    frequency:    6.3504336013
  - # 8
    frequency:    7.1865759884
  - # 9
    frequency:    7.3901905647
  - # 10
    frequency:    8.2849811281
  - # 11
    frequency:   10.7875716456
  - # 12
    frequency:   12.4467392867
  - # 13
    frequency:   17.1792068363
  - # 14
    frequency:   17.5870435967
  - # 15
    frequency:   18.0462723068

- q-position: [    0.1868687,    0.0000000,    0.0000000 ]
  distance:    0.0665841
  band:
  - # 1
    frequency:    2.1442367617
  - # 2
    frequency:    2.8949207612
  - # 3
    frequency:    4.3661744957
  - # 4
    frequency:    4.9019736477
  - # 5
    frequency:    5.7266013699
  - # 6
    frequency:    5.9706955666
  - # 7
    frequency:    6.3641136119
  - # 8
    frequency:    7.2091628195
  - # 9
    frequency:    7.3917415654
  - # 10
    frequency:    8.3081375451
  - # 11
    frequency:   10.7602942513
  - # 12
    frequency:   12.3965961959
  - # 13
    frequency:   17.1567305543
  - # 14
    frequency:   17.5778046029
  - # 15
    frequency:   18.0398296687

- q-position: [    0.1919192,    0.0000000,    0.0000000 ]
  distance:    0.0683836
  band:
  - # 1
    frequency:    2.2315184998
  - # 2
    frequency:    2.9610915140
  - # 3
    frequency:    4.4571044177
  - # 4
    frequency:    4.9140754045
  - # 5
    frequency:    5.7572658684
  - # 6
    frequency:    5.9635353933
  - # 7
    frequency:    6.3799750547
  - # 8
    frequency:    7.2310940162
  - # 9
    frequency:    7.3927406396
  - # 10
    frequency:    8.3303151312
  - # 11
    frequency:   10.7324470787
  - # 12
    frequency:   12.3463142813
  - # 13
    frequency:   17.1336067382
  - # 14
    frequency:   17.5667422942
  - # 15
    frequency:   18.0300687290

- q-position: [    0.1969697,    0.0000000,    0.0000000 ]
  distance:    0.0701832
  band:
  - # 1
    frequency:    2.3188014890
  - # 2
    frequency:    3.0262336748
  - # 3
    frequency:    4.5452720477
  - # 4
    frequency:    4.9258227510
  - # 5
    frequency:    5.7856899345
  - # 6
    frequency:    5.9562052324
  - # 7
    frequency:    6.3981338288
  - # 8
    frequency:    7.2522773281
  - # 9
    frequency:    7.3932072192
  - # 10
    frequency:    8.3514727254
  - # 11
    frequency:   10.7040607317
  - # 12
    frequency:   12.2959855624
  - # 13
    frequency:   17.1098551359
  - # 14
    frequency:   17.5539820722
  - # 15
    frequency:   18.0170830520

- q-position: [    0.2020202,    0.0000000,    0.0000000 ]
  distance:    0.0719828
  band:
  - # 1
    frequency:    2.4060103368
  - # 2
    frequency:    3.0903239432
  - # 3
    frequency:    4.6305483098
  - # 4
    frequency:    4.9371986559
  - # 5
    frequency:    5.8118287216
  - # 6
    frequency:    5.9487363513
  - # 7
    frequency:    6.4186441449
  - # 8
    frequency:    7.2726336288
  - # 9
    frequency:    7.3931648286
  - # 10
    frequency:    8.3715693161
  - # 11
    frequency:   10.6751672742
  - # 12
    frequency:   12.2457026860
  - # 13
    frequency:   17.0854975245
  - # 14
    frequency:   17.5396682920
  - # 15
    frequency:   18.0009922543

- q-position: [    0.2070707,    0.0000000,    0.0000000 ]
  distance:    0.0737823
  band:
  - # 1
    frequency:    2.4930727990
  - # 2
    frequency:    3.1533399833
  - # 3
    frequency:    4.7128048917
  - # 4
    frequency:    4.9481889727
  - # 5
    frequency:    5.8357031517
  - # 6
    frequency:    5.9411623686
  - # 7
    frequency:    6.4414908019
  - # 8
    frequency:    7.2920965206
  - # 9
    frequency:    7.3926405970
  - # 10
    frequency:    8.3905643814
  - # 11
    frequency:   10.6457999961
  - # 12
    frequency:   12.1955585952
  - # 13
    frequency:   17.0605578349
  - # 14
    frequency:   17.5239632234
  - # 15
    frequency:   17.9819408892

- q-position: [    0.2121212,    0.0000000,    0.0000000 ]
  distance:    0.0755819
  band:
  - # 1
    frequency:    2.5799196433