nqpoint: 300    
npath: 3      
segment_nqpoint:
- 100
- 100
- 100
labels:
- [ 'G', 'M' ]
- [ 'M', 'K' ]
- [ 'K', 'G' ]
reciprocal_lattice:
- [   0.31963526,   0.18454151,   0.00000000 ] # a*
- [   0.00000000,   0.36908301,   0.00000000 ] # b*
- [   0.00000000,   0.00000000,   0.04016707 ] # c*
natom: 7      
lattice:
- [     3.128565936517211,     0.000000000000000,     0.000000000000000 ] # a
- [    -1.564282968258605,     2.709417578439596,     0.000000000000000 ] # b
- [     0.000000000000000,     0.000000000000000,    24.896015003820608 ] # c
points:
- symbol: C # 1
  coordinates: [  0.333332985432215,  0.666666983183674,  0.590138241435692 ]
  mass: 12.010700
- symbol: H # 2
  coordinates: [  0.666666984744048,  0.333332985985145,  0.361503638177389 ]
  mass: 1.007940
- symbol: N # 3
  coordinates: [  0.000000000000000,  0.000000000000000,  0.443294731628031 ]
  mass: 14.006700
- symbol: N # 4
  coordinates: [  0.333332985432215,  0.666666983183674,  0.540072563777858 ]
  mass: 14.006700
- symbol: O # 5
  coordinates: [  0.333332985432215,  0.666666983183674,  0.638496361822612 ]
  mass: 15.999400
- symbol: Ti # 6
  coordinates: [  0.333332985432215,  0.666666983183674,  0.400683086972491 ]
  mass: 47.867000
- symbol: Ti # 7
  coordinates: [  0.666666984744048,  0.333332985985145,  0.485968767056568 ]
  mass: 47.867000

phonon:
- q-position: [    0.0000000,    0.0000000,    0.0000000 ]
  distance:    0.0000000
  band:
  - # 1
    frequency:   -1.0087399811
  - # 2
    frequency:   -1.0087399811
  - # 3
    frequency:   -0.0000069155
  - # 4
    frequency:   -0.0000004013
  - # 5
    frequency:    0.0000089798
  - # 6
    frequency:    5.1107645134
  - # 7
    frequency:    5.1107645134
  - # 8
    frequency:    7.3032140266
  - # 9
    frequency:    7.8953276996
  - # 10
    frequency:    7.8953276996
  - # 11
    frequency:   11.2986535656
  - # 12
    frequency:   16.7014328736
  - # 13
    frequency:   17.0947606566
  - # 14
    frequency:   17.0947606566
  - # 15
    frequency:   17.7529574778
  - # 16
    frequency:   17.7529574778
  - # 17
    frequency:   27.9047734061
  - # 18
    frequency:   27.9047734061
  - # 19
    frequency:   29.7052740774
  - # 20
    frequency:   38.5019571683
  - # 21
    frequency:   69.3358122771

- q-position: [    0.0050505,    0.0000000,    0.0000000 ]
  distance:    0.0018641
  band:
  - # 1
    frequency:   -1.0073955055
  - # 2
    frequency:   -1.0042015401
  - # 3
    frequency:    0.0023823190
  - # 4
    frequency:    0.0972897826
  - # 5
    frequency:    0.1524847049
  - # 6
    frequency:    5.1101193021
  - # 7
    frequency:    5.1115858271
  - # 8
    frequency:    7.3025982245
  - # 9
    frequency:    7.8951779771
  - # 10
    frequency:    7.8970613819
  - # 11
    frequency:   11.2979917816
  - # 12
    frequency:   16.7009721906
  - # 13
    frequency:   17.0947739976
  - # 14
    frequency:   17.0951480446
  - # 15
    frequency:   17.7529479133
  - # 16
    frequency:   17.7536980818
  - # 17
    frequency:   27.9045735188
  - # 18
    frequency:   27.9050297955
  - # 19
    frequency:   29.7049822536
  - # 20
    frequency:   38.5019493611
  - # 21
    frequency:   69.3344894841

- q-position: [    0.0101010,    0.0000000,    0.0000000 ]
  distance:    0.0037281
  band:
  - # 1
    frequency:   -1.0033932839
  - # 2
    frequency:   -0.9907046968
  - # 3
    frequency:    0.0095624530
  - # 4
    frequency:    0.1947017823
  - # 5
    frequency:    0.3055737648
  - # 6
    frequency:    5.1081846017
  - # 7
    frequency:    5.1140523434
  - # 8
    frequency:    7.3007737515
  - # 9
    frequency:    7.8947305525
  - # 10
    frequency:    7.9022361074
  - # 11
    frequency:   11.2960080921
  - # 12
    frequency:   16.6995925979
  - # 13
    frequency:   17.0948140824
  - # 14
    frequency:   17.0963092216
  - # 15
    frequency:   17.7529194254
  - # 16
    frequency:   17.7559130558
  - # 17
    frequency:   27.9039741062
  - # 18
    frequency:   27.9057991093
  - # 19
    frequency:   29.7041074150
  - # 20
    frequency:   38.5019259778
  - # 21
    frequency:   69.3305238242

- q-position: [    0.0151515,    0.0000000,    0.0000000 ]
  distance:    0.0055922
  band:
  - # 1
    frequency:   -0.9968199869
  - # 2
    frequency:   -0.9685348674
  - # 3
    frequency:    0.0216445362
  - # 4
    frequency:    0.2923303235
  - # 5
    frequency:    0.4596799977
  - # 6
    frequency:    5.1049632546
  - # 7
    frequency:    5.1181717127
  - # 8
    frequency:    7.2978068269
  - # 9
    frequency:    7.8939906311
  - # 10
    frequency:    7.9107755189
  - # 11
    frequency:   11.2927074770
  - # 12
    frequency:   16.6973013928
  - # 13
    frequency:   17.0948810977
  - # 14
    frequency:   17.0982412122
  - # 15
    frequency:   17.7528726217
  - # 16
    frequency:   17.7595820318
  - # 17
    frequency:   27.9029759166
  - # 18
    frequency:   27.9070817753
  - # 19
    frequency:   29.7026514590
  - # 20
    frequency:   38.5018871341
  - # 21
    frequency:   69.3239234478

- q-position: [    0.0202020,    0.0000000,    0.0000000 ]
  distance:    0.0074562
  band:
  - # 1
    frequency:   -0.9877989560
  - # 2
    frequency:   -0.9379699537
  - # 3
    frequency:    0.0388266435
  - # 4
    frequency:    0.3902207920
  - # 5
    frequency:    0.6149194399
  - # 6
    frequency:    5.1004601393
  - # 7
    frequency:    5.1239564358
  - # 8
    frequency:    7.2937998621
  - # 9
    frequency:    7.8929668078
  - # 10
    frequency:    7.9225603956
  - # 11
    frequency:   11.2880982101
  - # 12
    frequency:   16.6941105037
  - # 13
    frequency:   17.0949753570
  - # 14
    frequency:   17.1009390145
  - # 15
    frequency:   17.7528084852
  - # 16
    frequency:   17.7646715385
  - # 17
    frequency:   27.9015801971
  - # 18
    frequency:   27.9088784760
  - # 19
    frequency:   29.7006175452
  - # 20
    frequency:   38.5018330216
  - # 21
    frequency:   69.3147019134

- q-position: [    0.0252525,    0.0000000,    0.0000000 ]
  distance:    0.0093203
  band:
  - # 1
    frequency:   -0.9764649051
  - # 2
    frequency:   -0.8990859887
  - # 3
    frequency:    0.0614452431
  - # 4
    frequency:    0.4883599033
  - # 5
    frequency:    0.7711262780
  - # 6
    frequency:    5.0946823806
  - # 7
    frequency:    5.1314234951
  - # 8
    frequency:    7.2888815292
  - # 9
    frequency:    7.8916709483
  - # 10
    frequency:    7.9374387140
  - # 11
    frequency:   11.2821918210
  - # 12
    frequency:   16.6900361540
  - # 13
    frequency:   17.0950973046
  - # 14
    frequency:   17.1043955500
  - # 15
    frequency:   17.7527283303
  - # 16
    frequency:   17.7711356826
  - # 17
    frequency:   27.8997886934
  - # 18
    frequency:   27.9111901026
  - # 19
    frequency:   29.6980100914
  - # 20
    frequency:   38.5017639072
  - # 21
    frequency:   69.3028781502

- q-position: [    0.0303030,    0.0000000,    0.0000000 ]
  distance:    0.0111843
  band:
  - # 1
    frequency:   -0.9629386794
  - # 2
    frequency:   -0.8516223429
  - # 3
    frequency:    0.0900584709
  - # 4
    frequency:    0.5866779743
  - # 5
    frequency:    0.9279525550
  - # 6
    frequency:    5.0876396423
  - # 7
    frequency:    5.1405938453
  - # 8
    frequency:    7.2831960380
  - # 9
    frequency:    7.8901180249
  - # 10
    frequency:    7.9552365524
  - # 11
    frequency:   11.2750030425
  - # 12
    frequency:   16.6850984205
  - # 13
    frequency:   17.0952475208
  - # 14
    frequency:   17.1086016164
  - # 15
    frequency:   17.7526337421
  - # 16
    frequency:   17.7789170432
  - # 17
    frequency:   27.8976036500
  - # 18
    frequency:   27.9140176929
  - # 19
    frequency:   29.6948347680
  - # 20
    frequency:   38.5016801314
  - # 21
    frequency:   69.2884764053

- q-position: [    0.0353535,    0.0000000,    0.0000000 ]
  distance:    0.0130484
  band:
  - # 1
    frequency:   -0.9473073867
  - # 2
    frequency:   -0.7949438194
  - # 3
    frequency:    0.1255994948
  - # 4
    frequency:    0.6850603107
  - # 5
    frequency:    1.0849839551
  - # 6
    frequency:    5.0793444996
  - # 7
    frequency:    5.1514917759
  - # 8
    frequency:    7.2768933755
  - # 9
    frequency:    7.8883259089
  - # 10
    frequency:    7.9757680812
  - # 11
    frequency:   11.2665497448
  - # 12
    frequency:   16.6793207107
  - # 13
    frequency:   17.0954267281
  - # 14
    frequency:   17.1135458610
  - # 15
    frequency:   17.7525264989
  - # 16
    frequency:   17.7879477283
  - # 17
    frequency:   27.8950278095
  - # 18
    frequency:   27.9173623506
  - # 19
    frequency:   29.6910984911
  - # 20
    frequency:   38.5015821066
  - # 21
    frequency:   69.2715261764

- q-position: [    0.0404040,    0.0000000,    0.0000000 ]
  distance:    0.0149124
  band:
  - # 1
    frequency:   -0.9296123074
  - # 2
    frequency:   -0.7281302940
  - # 3
    frequency:    0.1696553341
  - # 4
    frequency:    0.7833629209
  - # 5
    frequency:    1.2418223382
  - # 6
    frequency:    5.0698128890
  - # 7
    frequency:    5.1641441545
  - # 8
    frequency:    7.2701215907
  - # 9
    frequency:    7.8863151238
  - # 10
    frequency:    7.9988435588
  - # 11
    frequency:   11.2568528588
  - # 12
    frequency:   16.6727291926
  - # 13
    frequency:   17.0956357976
  - # 14
    frequency:   17.1192147890
  - # 15
    frequency:   17.7524084810
  - # 16
    frequency:   17.7981505409
  - # 17
    frequency:   27.8920644123
  - # 18
    frequency:   27.9212251502
  - # 19
    frequency:   29.6868094141
  - # 20
    frequency:   38.5014703144
  - # 21
    frequency:   69.2520621293

- q-position: [    0.0454545,    0.0000000,    0.0000000 ]
  distance:    0.0167765
  band:
  - # 1
    frequency:   -0.9098439420
  - # 2
    frequency:   -0.6503500106
  - # 3
    frequency:    0.2249268314
  - # 4
    frequency:    0.8814279865
  - # 5
    frequency:    1.3981242736
  - # 6
    frequency:    5.0590646318
  - # 7
    frequency:    5.1785795656
  - # 8
    frequency:    7.2630214904
  - # 9
    frequency:    7.8841085624
  - # 10
    frequency:    8.0242749624
  - # 11
    frequency:   11.2459362880
  - # 12
    frequency:   16.6653522066
  - # 13
    frequency:   17.0958757571
  - # 14
    frequency:   17.1255928131
  - # 15
    frequency:   17.7522815642
  - # 16
    frequency:   17.8094402036
  - # 17
    frequency:   27.8887171958
  - # 18
    frequency:   27.9256070260
  - # 19
    frequency:   29.6819769188
  - # 20
    frequency:   38.5013453033
  - # 21
    frequency:   69.2301240017

- q-position: [    0.0505051,    0.0000000,    0.0000000 ]
  distance:    0.0186406
  band:
  - # 1
    frequency:   -0.8879416103
  - # 2
    frequency:   -0.5620188375
  - # 3
    frequency:    0.2956573881
  - # 4
    frequency:    0.9790961625
  - # 5
    frequency:    1.5536082478
  - # 6
    frequency:    5.0471240266
  - # 7
    frequency:    5.1948273607
  - # 8
    frequency:    7.2557235875
  - # 9
    frequency:    7.8817311721
  - # 10
    frequency:    8.0518794133
  - # 11
    frequency:   11.2338268129
  - # 12
    frequency:   16.6572196909
  - # 13
    frequency:   17.0961477976
  - # 14
    frequency:   17.1326623485
  - # 15
    frequency:   17.7521475021
  - # 16
    frequency:   17.8217245974
  - # 17
    frequency:   27.8849903933
  - # 18
    frequency:   27.9305086487
  - # 19
    frequency:   29.6766116044
  - # 20
    frequency:   38.5012076856
  - # 21
    frequency:   69.2057564923

- q-position: [    0.0555556,    0.0000000,    0.0000000 ]
  distance:    0.0205046
  band:
  - # 1
    frequency:   -0.8637944550
  - # 2
    frequency:   -0.4671991595
  - # 3
    frequency:    0.3864157265
  - # 4
    frequency:    1.0762146994
  - # 5
    frequency:    1.7080467740
  - # 6
    frequency:    5.0340205068
  - # 7
    frequency:    5.2129166368
  - # 8
    frequency:    7.2483468583
  - # 9
    frequency:    7.8792096139
  - # 10
    frequency:    8.0814808379
  - # 11
    frequency:   11.2205539876
  - # 12
    frequency:   16.6483626488
  - # 13
    frequency:   17.0964532806
  - # 14
    frequency:   17.1404039492
  - # 15
    frequency:   17.7520077970
  - # 16
    frequency:   17.8349059792
  - # 17
    frequency:   27.8808887324
  - # 18
    frequency:   27.9359302892
  - # 19
    frequency:   29.6707252772
  - # 20
    frequency:   38.5010581337
  - # 21
    frequency:   69.1790091364

- q-position: [    0.0606061,    0.0000000,    0.0000000 ]
  distance:    0.0223687
  band:
  - # 1
    frequency:   -0.8372410564
  - # 2
    frequency:   -0.3735570342
  - # 3
    frequency:    0.4963811468
  - # 4
    frequency:    1.1726417583
  - # 5
    frequency:    1.8612542544
  - # 6
    frequency:    5.0197893543
  - # 7
    frequency:    5.2328751624
  - # 8
    frequency:    7.2409987938
  - # 9
    frequency:    7.8765719002
  - # 10
    frequency:    8.1129103774
  - # 11
    frequency:   11.2061500321
  - # 12
    frequency:   16.6388126763
  - # 13
    frequency:   17.0967937437
  - # 14
    frequency:   17.1487964766
  - # 15
    frequency:   17.7518635621
  - # 16
    frequency:   17.8488821512
  - # 17
    frequency:   27.8764174327
  - # 18
    frequency:   27.9418716719
  - # 19
    frequency:   29.6643309387
  - # 20
    frequency:   38.5008973769
  - # 21
    frequency:   69.1499361673

- q-position: [    0.0656566,    0.0000000,    0.0000000 ]
  distance:    0.0242327
  band:
  - # 1
    frequency:   -0.8080653917
  - # 2
    frequency:   -0.2823513153
  - # 3
    frequency:    0.6159798655
  - # 4
    frequency:    1.2682479146
  - # 5
    frequency:    2.0130756958
  - # 6
    frequency:    5.0044724654
  - # 7
    frequency:    5.2547282715
  - # 8
    frequency:    7.2337762746
  - # 9
    frequency:    7.8738470179
  - # 10
    frequency:    8.1460060162
  - # 11
    frequency:   11.1906497208
  - # 12
    frequency:   16.6286015665
  - # 13
    frequency:   17.0971709052
  - # 14
    frequency:   17.1578172927
  - # 15
    frequency:   17.7517153774
  - # 16
    frequency:   17.8635475673
  - # 17
    frequency:   27.8715822029
  - # 18
    frequency:   27.9483318198
  - # 19
    frequency:   29.6574427743
  - # 20
    frequency:   38.5007261970
  - # 21
    frequency:   69.1185963652

- q-position: [    0.0707071,    0.0000000,    0.0000000 ]
  distance:    0.0260968
  band:
  - # 1
    frequency:   -0.7759870121
  - # 2
    frequency:   -0.1749735213
  - # 3
    frequency:    0.7355074601
  - # 4
    frequency:    1.3629159070
  - # 5
    frequency:    2.1633778720
  - # 6
    frequency:    4.9881191577
  - # 7
    frequency:    5.2784977471
  - # 8
    frequency:    7.2267669020
  - # 9
    frequency:    7.8710645427
  - # 10
    frequency:    8.1806117938
  - # 11
    frequency:   11.1740902693
  - # 12
    frequency:   16.6177609958
  - # 13
    frequency:   17.0975866664
  - # 14
    frequency:   17.1674424645
  - # 15
    frequency:   17.7515631399
  - # 16
    frequency:   17.8787943652
  - # 17
    frequency:   27.8663892375
  - # 18
    frequency:   27.9553088930
  - # 19
    frequency:   29.6500761410
  - # 20
    frequency:   38.5005454246
  - # 21
    frequency:   69.0850528931

- q-position: [    0.0757576,    0.0000000,    0.0000000 ]
  distance:    0.0279608
  band:
  - # 1
    frequency:   -0.7406426496
  - # 2
    frequency:    0.1250157788
  - # 3
    frequency:    0.8508136867
  - # 4
    frequency:    1.4565394735
  - # 5
    frequency:    2.3120429523
  - # 6
    frequency:    4.9707870096
  - # 7
    frequency:    5.3042007138
  - # 8
    frequency:    7.2200505254
  - # 9
    frequency:    7.8682542523
  - # 10
    frequency:    8.2165768590
  - # 11
    frequency:   11.1565112212
  - # 12
    frequency:   16.6063222928
  - # 13
    frequency:   17.0980431122
  - # 14
    frequency:   17.1776469712
  - # 15
    frequency:   17.7514059131
  - # 16
    frequency:   17.8945133239
  - # 17
    frequency:   27.8608452117
  - # 18
    frequency:   27.9628000217
  - # 19
    frequency:   29.6422475568
  - # 20
    frequency:   38.5003559341
  - # 21
    frequency:   69.0493731199

- q-position: [    0.0808081,    0.0000000,    0.0000000 ]
  distance:    0.0298249
  band:
  - # 1
    frequency:   -0.7015544672
  - # 2
    frequency:    0.2529803467
  - # 3
    frequency:    0.9611920440
  - # 4
    frequency:    1.5490218377
  - # 5
    frequency:    2.4589640976
  - # 6
    frequency:    4.9525427212
  - # 7
    frequency:    5.3318485632
  - # 8
    frequency:    7.2137007980
  - # 9
    frequency:    7.8654457436
  - # 10
    frequency:    8.2537545314
  - # 11
    frequency:   11.1379543358
  - # 12
    frequency:   16.5943162856
  - # 13
    frequency:   17.0985425081
  - # 14
    frequency:   17.1884049048
  - # 15
    frequency:   17.7512417752
  - # 16
    frequency:   17.9105947455
  - # 17
    frequency:   27.8549572762
  - # 18
    frequency:   27.9708011376
  - # 19
    frequency:   29.6339746898
  - # 20
    frequency:   38.5001586394
  - # 21
    frequency:   69.0116284326

- q-position: [    0.0858586,    0.0000000,    0.0000000 ]
  distance:    0.0316889
  band:
  - # 1
    frequency:   -0.6580755986
  - # 2
    frequency:    0.3428503525
  - # 3
    frequency:    1.0670644909
  - # 4
    frequency:    1.6402741701
  - # 5
    frequency:    2.6040424753
  - # 6
    frequency:    4.9334629834
  - # 7
    frequency:    5.3614459319
  - # 8
    frequency:    7.2077866640
  - # 9
    frequency:    7.8626680625
  - # 10
    frequency:    8.2920014654
  - # 11
    frequency:   11.1184634784
  - # 12
    frequency:   16.5817732186
  - # 13
    frequency:   17.0990872942
  - # 14
    frequency:   17.1996896594
  - # 15
    frequency:   17.7510676712
  - # 16
    frequency:   17.9269292654
  - # 17
    frequency:   27.8487330500
  - # 18
    frequency:   27.9793068040
  - # 19
    frequency:   29.6252763484
  - # 20
    frequency:   38.4999544894
  - # 21
    frequency:   68.9718940359

- q-position: [    0.0909091,    0.0000000,    0.0000000 ]
  distance:    0.0335530
  band:
  - # 1
    frequency:   -0.6092931303
  - # 2
    frequency:    0.4222755042
  - # 3
    frequency:    1.1690649182
  - # 4
    frequency:    1.7302141870
  - # 5
    frequency:    2.7471852385
  - # 6
    frequency:    4.9136353416
  - # 7
    frequency:    5.3929897527
  - # 8
    frequency:    7.2023737290
  - # 9
    frequency:    7.8599493513
  - # 10
    frequency:    8.3311769627
  - # 11
    frequency:   11.0980845141
  - # 12
    frequency:   16.5687227274
  - # 13
    frequency:   17.0996800763
  - # 14
    frequency:   17.2114741023
  - # 15
    frequency:   17.7508792701
  - # 16
    frequency:   17.9434085967
  - # 17
    frequency:   27.8421806127
  - # 18
    frequency:   27.9883100486
  - # 19
    frequency:   29.6161724730
  - # 20
    frequency:   38.4997444625
  - # 21
    frequency:   68.9302487425

- q-position: [    0.0959596,    0.0000000,    0.0000000 ]
  distance:    0.0354171
  band:
  - # 1
    frequency:   -0.5538422351
  - # 2
    frequency:    0.4978370243
  - # 3
    frequency:    1.2677754391
  - # 4
    frequency:    1.8187649474
  - # 5
    frequency:    2.8883041341
  - # 6
    frequency:    4.8931590351
  - # 7
    frequency:    5.4264683993
  - # 8
    frequency:    7.1975254938
  - # 9
    frequency:    7.8573165201
  - # 10
    frequency:    8.3711424476
  - # 11
    frequency:   11.0768652056
  - # 12
    frequency:   16.5551938621
  - # 13
    frequency:   17.1003236122
  - # 14
    frequency:   17.2237307270
  - # 15
    frequency:   17.7506708299
  - # 16
    frequency:   17.9599262112
  - # 17
    frequency:   27.8353084949
  - # 18
    frequency:   27.9978021996
  - # 19
    frequency:   29.6066841292
  - # 20
    frequency:   38.4995295623
  - # 21
    frequency:   68.8867747517

- q-position: [    0.1010101,    0.0000000,    0.0000000 ]
  distance:    0.0372811
  band:
  - # 1
    frequency:   -0.4895081058
  - # 2
    frequency:    0.5721675943
  - # 3
    frequency:    1.3636731844
  - # 4
    frequency:    1.9058538569
  - # 5
    frequency:    3.0273145093
  - # 6
    frequency:    4.8721457954
  - # 7
    frequency:    5.4618609426
  - # 8
    frequency:    7.1933044529
  - # 9
    frequency:    7.8547949486
  - # 10
    frequency:    8.4117611002
  - # 11
    frequency:   11.0548551160
  - # 12
    frequency:   16.5412151444
  - # 13
    frequency:   17.1010207947
  - # 14
    frequency:   17.2364317861
  - # 15
    frequency:   17.7504350736
  - # 16
    frequency:   17.9763779633
  - # 17
    frequency:   27.8281256675
  - # 18
    frequency:   28.0077727284
  - # 19
    frequency:   29.5968335028
  - # 20
    frequency:   38.4993108120
  - # 21
    frequency:   68.8415574198

- q-position: [    0.1060606,    0.0000000,    0.0000000 ]
  distance:    0.0391452
  band:
  - # 1
    frequency:   -0.4122146632
  - # 2
    frequency:    0.6465359149
  - # 3
    frequency:    1.4571356403
  - # 4
    frequency:    1.9914118633
  - # 5
    frequency:    3.1641345567
  - # 6
    frequency:    4.8507205776
  - # 7
    frequency:    5.4991365362
  - # 8
    frequency:    7.1897730656
  - # 9
    frequency:    7.8524082206
  - # 10
    frequency:    8.4528976342
  - # 11
    frequency:   11.0321055172
  - # 12
    frequency:   16.5268146507
  - # 13
    frequency:   17.1017746302
  - # 14
    frequency:   17.2495494037
  - # 15
    frequency:   17.7501630783
  - # 16
    frequency:   17.9926626587
  - # 17
    frequency:   27.8206415287
  - # 18
    frequency:   28.0182091003
  - # 19
    frequency:   29.5866438973
  - # 20
    frequency:   38.4990892498
  - # 21
    frequency:   68.7946850207

- q-position: [    0.1111111,    0.0000000,    0.0000000 ]
  distance:    0.0410092
  band:
  - # 1
    frequency:   -0.3125820673
  - # 2
    frequency:    0.7216110250
  - # 3
    frequency:    1.5484585987
  - # 4
    frequency:    2.0753728253
  - # 5
    frequency:    3.2986846937
  - # 6
    frequency:    4.8290221995
  - # 7
    frequency:    5.5382539493
  - # 8
    frequency:    7.1869946091
  - # 9
    frequency:    7.8501778983
  - # 10
    frequency:    8.4944181985
  - # 11
    frequency:   11.0086693029
  - # 12
    frequency:   16.5120201078
  - # 13
    frequency:   17.1025882137
  - # 14
    frequency:   17.2630556707
  - # 15
    frequency:   17.7498441793
  - # 16
    frequency:   18.0086825708
  - # 17
    frequency:   27.8128658906
  - # 18
    frequency:   28.0290966359
  - # 19
    frequency:   29.5761397333
  - # 20
    frequency:   38.4988659237
  - # 21
    frequency:   68.7462484987

- q-position: [    0.1161616,    0.0000000,    0.0000000 ]
  distance:    0.0428733
  band:
  - # 1
    frequency:   -0.1517955356
  - # 2
    frequency:    0.7977589937
  - # 3
    frequency:    1.6378738668
  - # 4
    frequency:    2.1576730366
  - # 5
    frequency:    3.4308870068
  - # 6
    frequency:    4.8072038544
  - # 7
    frequency:    5.5791612621
  - # 8
    frequency:    7.1850339255
  - # 9
    frequency:    7.8481233351
  - # 10
    frequency:    8.5361903840
  - # 11
    frequency:   10.9846009073
  - # 12
    frequency:   16.4968589963
  - # 13
    frequency:   17.1034646991
  - # 14
    frequency:   17.2769227214
  - # 15
    frequency:   17.7494658925
  - # 16
    frequency:   18.0243439072
  - # 17
    frequency:   27.8048089634
  - # 18
    frequency:   28.0404183845
  - # 19
    frequency:   29.5653465507
  - # 20
    frequency:   38.4986418864
  - # 21
    frequency:   68.6963412140

- q-position: [    0.1212121,    0.0000000,    0.0000000 ]
  distance:    0.0447373
  band:
  - # 1
    frequency:    0.2323939797
  - # 2
    frequency:    0.8751779124
  - # 3
    frequency:    1.7255637963
  - # 4
    frequency:    2.2382509013
  - # 5
    frequency:    3.5606647166
  - # 6
    frequency:    4.7854334583
  - # 7
    frequency:    5.6217957401
  - # 8
    frequency:    7.1839580640
  - # 9
    frequency:    7.8462615325
  - # 10
    frequency:    8.5780833167
  - # 11
    frequency:   10.9599562290
  - # 12
    frequency:   16.4813586518
  - # 13
    frequency:   17.1044072670
  - # 14
    frequency:   17.2911227968
  - # 15
    frequency:   17.7490138565
  - # 16
    frequency:   18.0395572268
  - # 17
    frequency:   27.7964813377
  - # 18
    frequency:   28.0521550116
  - # 19
    frequency:   29.5542910139
  - # 20
    frequency:   38.4984181907
  - # 21
    frequency:   68.6450586817

- q-position: [    0.1262626,    0.0000000,    0.0000000 ]
  distance:    0.0466014
  band:
  - # 1
    frequency:    0.3651918736
  - # 2
    frequency:    0.9539662695
  - # 3
    frequency:    1.8116725291
  - # 4
    frequency:    2.3170467650
  - # 5
    frequency:    3.6879416337
  - # 6
    frequency:    4.7638937842
  - # 7
    frequency:    5.6660839036
  - # 8
    frequency:    7.1838368205
  - # 9
    frequency:    7.8446070392
  - # 10
    frequency:    8.6199678177
  - # 11
    frequency:   10.9347925587
  - # 12
    frequency:   16.4655463588
  - # 13
    frequency:   17.1054190881
  - # 14
    frequency:   17.3056282931
  - # 15
    frequency:   17.7484717957
  - # 16
    frequency:   18.0542378083
  - # 17
    frequency:   27.7878939656
  - # 18
    frequency:   28.0642847018
  - # 19
    frequency:   29.5430009194
  - # 20
    frequency:   38.4981958844
  - # 21
    frequency:   68.5924983043

- q-position: [    0.1313131,    0.0000000,    0.0000000 ]
  distance:    0.0484654
  band:
  - # 1
    frequency:    0.4636316869
  - # 2
    frequency:    1.0341604278
  - # 3
    frequency:    1.8963145372
  - # 4
    frequency:    2.3940029227
  - # 5
    frequency:    3.8126415946
  - # 6
    frequency:    4.7427823257
  - # 7
    frequency:    5.7119418090
  - # 8
    frequency:    7.1847431621
  - # 9
    frequency:    7.8431718924
  - # 10
    frequency:    8.6617166187
  - # 11
    frequency:   10.9091685095
  - # 12
    frequency:   16.4494494344
  - # 13
    frequency:   17.1065032840
  - # 14
    frequency:   17.3204118002
  - # 15
    frequency:   17.7478215075
  - # 16
    frequency:   18.0683059724
  - # 17
    frequency:   27.7790581402
  - # 18
    frequency:   28.0767830789
  - # 19
    frequency:   29.5315052055
  - # 20
    frequency:   38.4979760058
  - # 21
    frequency:   68.5387590997

- q-position: [    0.1363636,    0.0000000,    0.0000000 ]
  distance:    0.0503295
  band:
  - # 1
    frequency:    0.5465277671
  - # 2
    frequency:    1.1157564624
  - # 3
    frequency:    1.9795810874
  - # 4
    frequency:    2.4690638358
  - # 5
    frequency:    3.9346878711
  - # 6
    frequency:    4.7223108216
  - # 7
    frequency:    5.7592755570
  - # 8
    frequency:    7.1867535206
  - # 9
    frequency:    7.8419656010
  - # 10
    frequency:    8.7032046187
  - # 11
    frequency:   10.8831439499
  - # 12
    frequency:   16.4330952955
  - # 13
    frequency:   17.1076628853
  - # 14
    frequency:   17.3354461299
  - # 15
    frequency:   17.7470428729
  - # 16
    frequency:   18.0816873559
  - # 17
    frequency:   27.7699854731
  - # 18
    frequency:   28.0896231438
  - # 19
    frequency:   29.5198339659
  - # 20
    frequency:   38.4977595790
  - # 21
    frequency:   68.4839414256

- q-position: [    0.1414141,    0.0000000,    0.0000000 ]
  distance:    0.0521936
  band:
  - # 1
    frequency:    0.6200760984
  - # 2
    frequency:    1.1987235300
  - # 3
    frequency:    2.0615451537
  - # 4
    frequency:    2.5421766101
  - # 5
    frequency:    4.0540025615
  - # 6
    frequency:    4.7027043617
  - # 7
    frequency:    5.8079820469
  - # 8
    frequency:    7.1899479246
  - # 9
    frequency:    7.8409951663
  - # 10
    frequency:    8.7443091734
  - # 11
    frequency:   10.8567799357
  - # 12
    frequency:   16.4165115089
  - # 13
    frequency:   17.1089007882
  - # 14
    frequency:   17.3507043358
  - # 15
    frequency:   17.7461138928
  - # 16
    frequency:   18.0943131415
  - # 17
    frequency:   27.7606878706
  - # 18
    frequency:   28.1027752329
  - # 19
    frequency:   29.5080184630
  - # 20
    frequency:   38.4975476096
  - # 21
    frequency:   68.4281466995

- q-position: [    0.1464646,    0.0000000,    0.0000000 ]
  distance:    0.0540576
  band:
  - # 1
    frequency:    0.6872198276
  - # 2
    frequency:    1.2830123927
  - # 3
    frequency:    2.1422651773
  - # 4
    frequency:    2.6132917957
  - # 5
    frequency:    4.1705059824
  - # 6
    frequency:    4.6841999829
  - # 7
    frequency:    5.8579499901
  - # 8
    frequency:    7.1944099335
  - # 9
    frequency:    7.8402651397
  - # 10
    frequency:    8.7849104107
  - # 11
    frequency:   10.8301386395
  - # 12
    frequency:   16.3997258226
  - # 13
    frequency:   17.1102197088
  - # 14
    frequency:   17.3661597268
  - # 15
    frequency:   17.7450107510
  - # 16
    frequency:   18.1061202434
  - # 17
    frequency:   27.7511775085
  - # 18
    frequency:   28.1162069954
  - # 19
    frequency:   29.4960911438
  - # 20
    frequency:   38.4973410806
  - # 21
    frequency:   68.3714771174

- q-position: [    0.1515152,    0.0000000,    0.0000000 ]
  distance:    0.0559217
  band:
  - # 1
    frequency:    0.7496209480
  - # 2
    frequency:    1.3685610387
  - # 3
    frequency:    2.2217879702
  - # 4
    frequency:    2.6823645834
  - # 5
    frequency:    4.2841160896
  - # 6
    frequency:    4.6670446564
  - # 7
    frequency:    5.9090611978
  - # 8
    frequency:    7.2002263221
  - # 9
    frequency:    7.8397777110
  - # 10
    frequency:    8.8248915659
  - # 11
    frequency:   10.8032832745
  - # 12
    frequency:   16.3827661749
  - # 13
    frequency:   17.1116221364
  - # 14
    frequency:   17.3817858738
  - # 15
    frequency:   17.7437079029
  - # 16
    frequency:   18.1170514502
  - # 17
    frequency:   27.7414668051
  - # 18
    frequency:   28.1298833928
  - # 19
    frequency:   29.4840856553
  - # 20
    frequency:   38.4971409481
  - # 21
    frequency:   68.3140353710
