nqpoint: 300    
npath: 3      
segment_nqpoint:
- 100
- 100
- 100
labels:
- [ 'G', 'M' ]
- [ 'M', 'K' ]
- [ 'K', 'G' ]
reciprocal_lattice:
- [   0.29577869,   0.17076790,   0.00000000 ] # a*
- [   0.00000000,   0.34153581,   0.00000000 ] # b*
- [   0.00000000,   0.00000000,   0.04099318 ] # c*
natom: 6      
lattice:
- [     3.380906219309034,     0.000000000000000,     0.000000000000000 ] # a
- [    -1.690453109654516,     2.927950673727929,     0.000000000000000 ] # b
- [     0.000000000000000,     0.000000000000000,    24.394303877301915 ] # c
points:
- symbol: C # 1
  coordinates: [  0.000000000000000,  0.000000000000000,  0.510700739667894 ]
  mass: 12.010700
- symbol: Cl # 2
  coordinates: [  0.333332985432215,  0.666666983183674,  0.631061413136933 ]
  mass: 35.453000
- symbol: H # 3
  coordinates: [  0.666666984744048,  0.333332985985145,  0.368938586863067 ]
  mass: 1.007940
- symbol: O # 4
  coordinates: [  0.666666984744048,  0.333332985985145,  0.409278601402003 ]
  mass: 15.999400
- symbol: Sc # 5
  coordinates: [  0.333332985432215,  0.666666983183674,  0.458910083050304 ]
  mass: 44.955912
- symbol: Sc # 6
  coordinates: [  0.666666984744048,  0.333332985985145,  0.561260250519509 ]
  mass: 44.955912

phonon:
- q-position: [    0.0000000,    0.0000000,    0.0000000 ]
  distance:    0.0000000
  band:
  - # 1
    frequency:   -0.0000023840
  - # 2
    frequency:    0.0000012278
  - # 3
    frequency:    0.0000022223
  - # 4
    frequency:    3.9827744471
  - # 5
    frequency:    3.9827744471
  - # 6
    frequency:    5.8081017147
  - # 7
    frequency:    5.8081017147
  - # 8
    frequency:    6.6657039390
  - # 9
    frequency:    6.7191077083
  - # 10
    frequency:    6.7191077083
  - # 11
    frequency:   10.6313659842
  - # 12
    frequency:   10.6313659842
  - # 13
    frequency:   11.0086116338
  - # 14
    frequency:   11.5798784690
  - # 15
    frequency:   11.5798784690
  - # 16
    frequency:   13.7367830258
  - # 17
    frequency:   19.0455064826
  - # 18
    frequency:  114.9736578329

- q-position: [    0.0050505,    0.0000000,    0.0000000 ]
  distance:    0.0017249
  band:
  - # 1
    frequency:   -0.0331928855
  - # 2
    frequency:    0.0837721238
  - # 3
    frequency:    0.1327685561
  - # 4
    frequency:    3.9832466044
  - # 5
    frequency:    3.9853349450
  - # 6
    frequency:    5.8085060568
  - # 7
    frequency:    5.8114319595
  - # 8
    frequency:    6.6660214957
  - # 9
    frequency:    6.7193358144
  - # 10
    frequency:    6.7219320590
  - # 11
    frequency:   10.6318104366
  - # 12
    frequency:   10.6329709171
  - # 13
    frequency:   11.0084933288
  - # 14
    frequency:   11.5804745781
  - # 15
    frequency:   11.5857999617
  - # 16
    frequency:   13.7375474577
  - # 17
    frequency:   19.0439514127
  - # 18
    frequency:  114.9736259703

- q-position: [    0.0101010,    0.0000000,    0.0000000 ]
  distance:    0.0034499
  band:
  - # 1
    frequency:   -0.0436748271
  - # 2
    frequency:    0.1675040095
  - # 3
    frequency:    0.2608980684
  - # 4
    frequency:    3.9846612539
  - # 5
    frequency:    3.9929621622
  - # 6
    frequency:    5.8097162507
  - # 7
    frequency:    5.8211717561
  - # 8
    frequency:    6.6672494555
  - # 9
    frequency:    6.7200175533
  - # 10
    frequency:    6.7302024249
  - # 11
    frequency:   10.6331408486
  - # 12
    frequency:   10.6374795642
  - # 13
    frequency:   11.0084177429
  - # 14
    frequency:   11.5822602119
  - # 15
    frequency:   11.6035835598
  - # 16
    frequency:   13.7398524765
  - # 17
    frequency:   19.0392899321
  - # 18
    frequency:  114.9735304953

- q-position: [    0.0151515,    0.0000000,    0.0000000 ]
  distance:    0.0051748
  band:
  - # 1
    frequency:   -0.0546641916
  - # 2
    frequency:    0.2511556128
  - # 3
    frequency:    0.3899500860
  - # 4
    frequency:    3.9870129495
  - # 5
    frequency:    4.0054993892
  - # 6
    frequency:    5.8117238414
  - # 7
    frequency:    5.8365897584
  - # 8
    frequency:    6.6699557703
  - # 9
    frequency:    6.7211452198
  - # 10
    frequency:    6.7435568103
  - # 11
    frequency:   10.6353484244
  - # 12
    frequency:   10.6439983440
  - # 13
    frequency:   11.0091634880
  - # 14
    frequency:   11.5852272887
  - # 15
    frequency:   11.6333175104
  - # 16
    frequency:   13.7437329720
  - # 17
    frequency:   19.0315332164
  - # 18
    frequency:  114.9733717447

- q-position: [    0.0202020,    0.0000000,    0.0000000 ]
  distance:    0.0068997
  band:
  - # 1
    frequency:   -0.0635852358
  - # 2
    frequency:    0.3346872741
  - # 3
    frequency:    0.5192093392
  - # 4
    frequency:    3.9902926818
  - # 5
    frequency:    4.0227044216
  - # 6
    frequency:    5.8145148781
  - # 7
    frequency:    5.8565399364
  - # 8
    frequency:    6.6746113405
  - # 9
    frequency:    6.7227060810
  - # 10
    frequency:    6.7618263581
  - # 11
    frequency:   10.6384186355
  - # 12
    frequency:   10.6511424453
  - # 13
    frequency:   11.0118334636
  - # 14
    frequency:   11.5893623342
  - # 15
    frequency:   11.6752274210
  - # 16
    frequency:   13.7492461594
  - # 17
    frequency:   19.0206998548
  - # 18
    frequency:  114.9731502784

- q-position: [    0.0252525,    0.0000000,    0.0000000 ]
  distance:    0.0086246
  band:
  - # 1
    frequency:   -0.0681557646
  - # 2
    frequency:    0.4180599026
  - # 3
    frequency:    0.6485006964
  - # 4
    frequency:    3.9944879773
  - # 5
    frequency:    4.0442735645
  - # 6
    frequency:    5.8180701201
  - # 7
    frequency:    5.8795735006
  - # 8
    frequency:    6.6814347167
  - # 9
    frequency:    6.7246825386
  - # 10
    frequency:    6.7851247074
  - # 11
    frequency:   10.6423314150
  - # 12
    frequency:   10.6572511088
  - # 13
    frequency:   11.0175706582
  - # 14
    frequency:   11.5946464794
  - # 15
    frequency:   11.7297285393
  - # 16
    frequency:   13.7564701678
  - # 17
    frequency:   19.0068157956
  - # 18
    frequency:  114.9728668762

- q-position: [    0.0303030,    0.0000000,    0.0000000 ]
  distance:    0.0103496
  band:
  - # 1
    frequency:   -0.0653586810
  - # 2
    frequency:    0.5012351508
  - # 3
    frequency:    0.7777498255
  - # 4
    frequency:    3.9995830356
  - # 5
    frequency:    4.0698679053
  - # 6
    frequency:    5.8223653167
  - # 7
    frequency:    5.9040937919
  - # 8
    frequency:    6.6904000713
  - # 9
    frequency:    6.7270523529
  - # 10
    frequency:    6.8137459912
  - # 11
    frequency:   10.6470614223
  - # 12
    frequency:   10.6607356437
  - # 13
    frequency:   11.0271969783
  - # 14
    frequency:   11.6010554627
  - # 15
    frequency:   11.7974176822
  - # 16
    frequency:   13.7655020536
  - # 17
    frequency:   18.9899142738
  - # 18
    frequency:  114.9725225342

- q-position: [    0.0353535,    0.0000000,    0.0000000 ]
  distance:    0.0120745
  band:
  - # 1
    frequency:   -0.0481964046
  - # 2
    frequency:    0.5841755773
  - # 3
    frequency:    0.9069111889
  - # 4
    frequency:    4.0055588992
  - # 5
    frequency:    4.0991374689
  - # 6
    frequency:    5.8273715508
  - # 7
    frequency:    5.9285382787
  - # 8
    frequency:    6.7012991509
  - # 9
    frequency:    6.7297889257
  - # 10
    frequency:    6.8479923783
  - # 11
    frequency:   10.6525783717
  - # 12
    frequency:   10.6604591441
  - # 13
    frequency:   11.0408912558
  - # 14
    frequency:   11.6085596446
  - # 15
    frequency:   11.8789918084
  - # 16
    frequency:   13.7764552431
  - # 17
    frequency:   18.9700357213
  - # 18
    frequency:  114.9721184594

- q-position: [    0.0404040,    0.0000000,    0.0000000 ]
  distance:    0.0137994
  band:
  - # 1
    frequency:    0.0431346576
  - # 2
    frequency:    0.6668447950
  - # 3
    frequency:    1.0359491153
  - # 4
    frequency:    4.0123936559
  - # 5
    frequency:    4.1317403067
  - # 6
    frequency:    5.8330556377
  - # 7
    frequency:    5.9515556344
  - # 8
    frequency:    6.7138207965
  - # 9
    frequency:    6.7328616379
  - # 10
    frequency:    6.8879939256
  - # 11
    frequency:   10.6559522461
  - # 12
    frequency:   10.6588474188
  - # 13
    frequency:   11.0580851896
  - # 14
    frequency:   11.6171240425
  - # 15
    frequency:   11.9751127546
  - # 16
    frequency:   13.7894564410
  - # 17
    frequency:   18.9472276666
  - # 18
    frequency:  114.9716560643

- q-position: [    0.0454545,    0.0000000,    0.0000000 ]
  distance:    0.0155244
  band:
  - # 1
    frequency:    0.0947665382
  - # 2
    frequency:    0.7492076024
  - # 3
    frequency:    1.1648312068
  - # 4
    frequency:    4.0200626663
  - # 5
    frequency:    4.1673553438
  - # 6
    frequency:    5.8393805672
  - # 7
    frequency:    5.9721371800
  - # 8
    frequency:    6.7276282361
  - # 9
    frequency:    6.7362362370
  - # 10
    frequency:    6.9335747941
  - # 11
    frequency:   10.6473549872
  - # 12
    frequency:   10.6658295923
  - # 13
    frequency:   11.0776493320
  - # 14
    frequency:   11.6267083924
  - # 15
    frequency:   12.0862588565
  - # 16
    frequency:   13.8046420869
  - # 17
    frequency:   18.9215446261
  - # 18
    frequency:  114.9711369592

- q-position: [    0.0505051,    0.0000000,    0.0000000 ]
  distance:    0.0172493
  band:
  - # 1
    frequency:    0.1405951639
  - # 2
    frequency:    0.8312300976
  - # 3
    frequency:    1.2935255263
  - # 4
    frequency:    4.0285388161
  - # 5
    frequency:    4.2056893002
  - # 6
    frequency:    5.8463059762
  - # 7
    frequency:    5.9896719324
  - # 8
    frequency:    6.7398752686
  - # 9
    frequency:    6.7424147646
  - # 10
    frequency:    6.9842097120
  - # 11
    frequency:   10.6351783984
  - # 12
    frequency:   10.6734822630
  - # 13
    frequency:   11.0982347227
  - # 14
    frequency:   11.6372672496
  - # 15
    frequency:   12.2126069563
  - # 16
    frequency:   13.8221545291
  - # 17
    frequency:   18.8930479976
  - # 18
    frequency:  114.9705629452

- q-position: [    0.0555556,    0.0000000,    0.0000000 ]
  distance:    0.0189742
  band:
  - # 1
    frequency:    0.1869848145
  - # 2
    frequency:    0.9128797724
  - # 3
    frequency:    1.4219991738
  - # 4
    frequency:    4.0377927852
  - # 5
    frequency:    4.2464789029
  - # 6
    frequency:    5.8537886413
  - # 7
    frequency:    6.0039217267
  - # 8
    frequency:    6.7437385456
  - # 9
    frequency:    6.7579297135
  - # 10
    frequency:    7.0390772376
  - # 11
    frequency:   10.6200611929
  - # 12
    frequency:   10.6817596391
  - # 13
    frequency:   11.1185697130
  - # 14
    frequency:   11.6487501345
  - # 15
    frequency:   12.3539719742
  - # 16
    frequency:   13.8421382206
  - # 17
    frequency:   18.8618059610
  - # 18
    frequency:  114.9699360044

- q-position: [    0.0606061,    0.0000000,    0.0000000 ]
  distance:    0.0206991
  band:
  - # 1
    frequency:    0.2351936914
  - # 2
    frequency:    0.9941255872
  - # 3
    frequency:    1.5502174429
  - # 4
    frequency:    4.0477933325
  - # 5
    frequency:    4.2894899099
  - # 6
    frequency:    5.8617829804
  - # 7
    frequency:    6.0149407622
  - # 8
    frequency:    6.7477836474
  - # 9
    frequency:    6.7739807063
  - # 10
    frequency:    7.0971763198
  - # 11
    frequency:   10.6026165576
  - # 12
    frequency:   10.6906132735
  - # 13
    frequency:   11.1376159840
  - # 14
    frequency:   11.6611017345
  - # 15
    frequency:   12.5098059049
  - # 16
    frequency:   13.8647364856
  - # 17
    frequency:   18.8278934023
  - # 18
    frequency:  114.9692582908

- q-position: [    0.0656566,    0.0000000,    0.0000000 ]
  distance:    0.0224241
  band:
  - # 1
    frequency:    0.2855948164
  - # 2
    frequency:    1.0749380257
  - # 3
    frequency:    1.6781432446
  - # 4
    frequency:    4.0585075895
  - # 5
    frequency:    4.3345143472
  - # 6
    frequency:    5.8702415517
  - # 7
    frequency:    6.0229755139
  - # 8
    frequency:    6.7519664423
  - # 9
    frequency:    6.7904237893
  - # 10
    frequency:    7.1574576841
  - # 11
    frequency:   10.5833679789
  - # 12
    frequency:   10.6999925753
  - # 13
    frequency:   11.1546016701
  - # 14
    frequency:   11.6742621675
  - # 15
    frequency:   12.6792385696
  - # 16
    frequency:   13.8900898943
  - # 17
    frequency:   18.7913918732
  - # 18
    frequency:  114.9685321198

- q-position: [    0.0707071,    0.0000000,    0.0000000 ]
  distance:    0.0241490
  band:
  - # 1
    frequency:    0.3382778802
  - # 2
    frequency:    1.1552891299
  - # 3
    frequency:    1.8057366623
  - # 4
    frequency:    4.0699013604
  - # 5
    frequency:    4.3813670302
  - # 6
    frequency:    5.8791155427
  - # 7
    frequency:    6.0283740912
  - # 8
    frequency:    6.7562416234
  - # 9
    frequency:    6.8071506161
  - # 10
    frequency:    7.2189329104
  - # 11
    frequency:   10.5627382256
  - # 12
    frequency:   10.7098453126
  - # 13
    frequency:   11.1689886070
  - # 14
    frequency:   11.6881673141
  - # 15
    frequency:   12.8611357874
  - # 16
    frequency:   13.9183384022
  - # 17
    frequency:   18.7523896092
  - # 18
    frequency:  114.9677599565

- q-position: [    0.0757576,    0.0000000,    0.0000000 ]
  distance:    0.0258739
  band:
  - # 1
    frequency:    0.3932174604
  - # 2
    frequency:    1.2351525153
  - # 3
    frequency:    1.9329545750
  - # 4
    frequency:    4.0819394240
  - # 5
    frequency:    4.4298820685
  - # 6
    frequency:    5.8883552415
  - # 7
    frequency:    6.0315191168
  - # 8
    frequency:    6.7605632513
  - # 9
    frequency:    6.8240772659
  - # 10
    frequency:    7.2807452285
  - # 11
    frequency:   10.5410611216
  - # 12
    frequency:   10.7201180962
  - # 13
    frequency:   11.1804195015
  - # 14
    frequency:   11.7027492221
  - # 15
    frequency:   13.0541523461
  - # 16
    frequency:   13.9496324265
  - # 17
    frequency:   18.7109816343
  - # 18
    frequency:  114.9669444046

- q-position: [    0.0808081,    0.0000000,    0.0000000 ]
  distance:    0.0275989
  band:
  - # 1
    frequency:    0.4503355414
  - # 2
    frequency:    1.3145033675
  - # 3
    frequency:    2.0597503161
  - # 4
    frequency:    4.0945858333
  - # 5
    frequency:    4.4799097400
  - # 6
    frequency:    5.8979104854
  - # 7
    frequency:    6.0327855185
  - # 8
    frequency:    6.7648852936
  - # 9
    frequency:    6.8411359900
  - # 10
    frequency:    7.3422028872
  - # 11
    frequency:   10.5185994548
  - # 12
    frequency:   10.7307568378
  - # 13
    frequency:   11.1886687428
  - # 14
    frequency:   11.7179365844
  - # 15
    frequency:   13.2567554434
  - # 16
    frequency:   13.9841675447
  - # 17
    frequency:   18.6672699909
  - # 18
    frequency:  114.9660881933

- q-position: [    0.0858586,    0.0000000,    0.0000000 ]
  distance:    0.0293238
  band:
  - # 1
    frequency:    0.5095290042
  - # 2
    frequency:    1.3933184218
  - # 3
    frequency:    2.1860733539
  - # 4
    frequency:    4.1078042115
  - # 5
    frequency:    4.5313138885
  - # 6
    frequency:    5.9077310827
  - # 7
    frequency:    6.0325181641
  - # 8
    frequency:    6.7691621555
  - # 9
    frequency:    6.8582696550
  - # 10
    frequency:    7.4027841110
  - # 11
    frequency:   10.4955619964
  - # 12
    frequency:   10.7417071732
  - # 13
    frequency:   11.1936047495
  - # 14
    frequency:   11.7336552893
  - # 15
    frequency:   13.4671637916
  - # 16
    frequency:   14.0222940851
  - # 17
    frequency:   18.6213641492
  - # 18
    frequency:  114.9651941648

- q-position: [    0.0909091,    0.0000000,    0.0000000 ]
  distance:    0.0310487
  band:
  - # 1
    frequency:    0.5706831307
  - # 2
    frequency:    1.4715759254
  - # 3
    frequency:    2.3118689817
  - # 4
    frequency:    4.1215580383
  - # 5
    frequency:    4.5839698624
  - # 6
    frequency:    5.9177672058
  - # 7
    frequency:    6.0310228199
  - # 8
    frequency:    6.7733491913
  - # 9
    frequency:    6.8754282226
  - # 10
    frequency:    7.4621241682
  - # 11
    frequency:   10.4721174611
  - # 12
    frequency:   10.7529148473
  - # 13
    frequency:   11.1951638874
  - # 14
    frequency:   11.7498290392
  - # 15
    frequency:   13.6829653906
  - # 16
    frequency:   14.0649383735
  - # 17
    frequency:   18.5733816742
  - # 18
    frequency:  114.9642652606

- q-position: [    0.0959596,    0.0000000,    0.0000000 ]
  distance:    0.0327736
  band:
  - # 1
    frequency:    0.6336787606
  - # 2
    frequency:    1.5492555853
  - # 3
    frequency:    2.4370780152
  - # 4
    frequency:    4.1358109279
  - # 5
    frequency:    4.6377629341
  - # 6
    frequency:    5.9279697554
  - # 7
    frequency:    6.0285649544
  - # 8
    frequency:    6.7774031932
  - # 9
    frequency:    6.8925666328
  - # 10
    frequency:    7.5199933042
  - # 11
    frequency:   10.4484052374
  - # 12
    frequency:   10.7643260561
  - # 13
    frequency:   11.1933332876
  - # 14
    frequency:   11.7663800316
  - # 15
    frequency:   13.8987317412
  - # 16
    frequency:   14.1160188831
  - # 17
    frequency:   18.5234492620
  - # 18
    frequency:  114.9633045079

- q-position: [    0.1010101,    0.0000000,    0.0000000 ]
  distance:    0.0344986
  band:
  - # 1
    frequency:    0.6983962815
  - # 2
    frequency:    1.6263385016
  - # 3
    frequency:    2.5616364933
  - # 4
    frequency:    4.1505268922
  - # 5
    frequency:    4.6925871110
  - # 6
    frequency:    5.9382906968
  - # 7
    frequency:    6.0253725846
  - # 8
    frequency:    6.7812828483
  - # 9
    frequency:    6.9096436136
  - # 10
    frequency:    7.5762716438
  - # 11
    frequency:   10.4245433720
  - # 12
    frequency:   10.7758877453
  - # 13
    frequency:   11.1881396358
  - # 14
    frequency:   11.7832296925
  - # 15
    frequency:   14.0831221836
  - # 16
    frequency:   14.2053648186
  - # 17
    frequency:   18.4717043108
  - # 18
    frequency:  114.9623150059

- q-position: [    0.1060606,    0.0000000,    0.0000000 ]
  distance:    0.0362235
  band:
  - # 1
    frequency:    0.7647179163
  - # 2
    frequency:    1.7028070899
  - # 3
    frequency:    2.6854753811
  - # 4
    frequency:    4.1656705920
  - # 5
    frequency:    4.7483442461
  - # 6
    frequency:    5.9486833690
  - # 7
    frequency:    6.0216408366
  - # 8
    frequency:    6.7849491621
  - # 9
    frequency:    6.9266210913
  - # 10
    frequency:    7.6309247776
  - # 11
    frequency:   10.4006344092
  - # 12
    frequency:   10.7875478653
  - # 13
    frequency:   11.1796416209
  - # 14
    frequency:   11.8002994513
  - # 15
    frequency:   14.1720597171
  - # 16
    frequency:   14.3955567898
  - # 17
    frequency:   18.4182972792
  - # 18
    frequency:  114.9612999110

- q-position: [    0.1111111,    0.0000000,    0.0000000 ]
  distance:    0.0379484
  band:
  - # 1
    frequency:    0.8325290414
  - # 2
    frequency:    1.7786449923
  - # 3
    frequency:    2.8085202761
  - # 4
    frequency:    4.1812075704
  - # 5
    frequency:    4.8049433634
  - # 6
    frequency:    5.9591027692
  - # 7
    frequency:    6.0175369315
  - # 8
    frequency:    6.7883658423
  - # 9
    frequency:    6.9434639878
  - # 10
    frequency:    7.6839819719
  - # 11
    frequency:   10.3767696123
  - # 12
    frequency:   10.7992555848
  - # 13
    frequency:   11.1679244749
  - # 14
    frequency:   11.8175115443
  - # 15
    frequency:   14.2308909804
  - # 16
    frequency:   14.6197775629
  - # 17
    frequency:   18.3633952196
  - # 18
    frequency:  114.9602624232

- q-position: [    0.1161616,    0.0000000,    0.0000000 ]
  distance:    0.0396734
  band:
  - # 1
    frequency:    0.9017189282
  - # 2
    frequency:    1.8538369795
  - # 3
    frequency:    2.9306911165
  - # 4
    frequency:    4.1971044701
  - # 5
    frequency:    4.8623001262
  - # 6
    frequency:    5.9695058172
  - # 7
    frequency:    6.0132049571
  - # 8
    frequency:    6.7914996411
  - # 9
    frequency:    6.9601402654
  - # 10
    frequency:    7.7355177734
  - # 11
    frequency:   10.3530319904
  - # 12
    frequency:   10.8109614668
  - # 13
    frequency:   11.1530956533
  - # 14
    frequency:   11.8347898313
  - # 15
    frequency:   14.2869964968
  - # 16
    frequency:   14.8492070442
  - # 17
    frequency:   18.3071871042
  - # 18
    frequency:  114.9592057712

- q-position: [    0.1212121,    0.0000000,    0.0000000 ]
  distance:    0.0413983
  band:
  - # 1
    frequency:    0.9721811262
  - # 2
    frequency:    1.9283688461
  - # 3
    frequency:    3.0519018953
  - # 4
    frequency:    4.2133292337
  - # 5
    frequency:    4.9203363919
  - # 6
    frequency:    5.9798515990
  - # 7
    frequency:    6.0087701622
  - # 8
    frequency:    6.7943206551
  - # 9
    frequency:    6.9766211286
  - # 10
    frequency:    7.7856370748
  - # 11
    frequency:   10.3294984447
  - # 12
    frequency:   10.8226176108
  - # 13
    frequency:   11.1352811415
  - # 14
    frequency:   11.8520606121
  - # 15
    frequency:   14.3438957924
  - # 16
    frequency:   15.0789166038
  - # 17
    frequency:   18.2498919507
  - # 18
    frequency:  114.9581331985

- q-position: [    0.1262626,    0.0000000,    0.0000000 ]
  distance:    0.0431232
  band:
  - # 1
    frequency:    1.0438136211
  - # 2
    frequency:    2.0022272997
  - # 3
    frequency:    3.1720603803
  - # 4
    frequency:    4.2298512841
  - # 5
    frequency:    4.9789798031
  - # 6
    frequency:    5.9901015959
  - # 7
    frequency:    6.0043427120
  - # 8
    frequency:    6.7968025804
  - # 9
    frequency:    6.9928813201
  - # 10
    frequency:    7.8344633439
  - # 11
    frequency:   10.3062412729
  - # 12
    frequency:   10.8341777667
  - # 13
    frequency:   11.1146221428
  - # 14
    frequency:   11.8692534240
  - # 15
    frequency:   14.4022959439
  - # 16
    frequency:   15.3068130895
  - # 17
    frequency:   18.1917714363
  - # 18
    frequency:  114.9570479492

- q-position: [    0.1313131,    0.0000000,    0.0000000 ]
  distance:    0.0448481
  band:
  - # 1
    frequency:    1.1165188480
  - # 2
    frequency:    2.0753998464
  - # 3
    frequency:    3.2910678439
  - # 4
    frequency:    4.2466416884
  - # 5
    frequency:    5.0381633722
  - # 6
    frequency:    6.0000209454
  - # 7
    frequency:    6.0002198984
  - # 8
    frequency:    6.7989229244
  - # 9
    frequency:    7.0088994652
  - # 10
    frequency:    7.8821295473
  - # 11
    frequency:   10.2833292038
  - # 12
    frequency:   10.8455974270
  - # 13
    frequency:   11.0912720649
  - # 14
    frequency:   11.8863018085
  - # 15
    frequency:   14.4623186976
  - # 16
    frequency:   15.5313949657
  - # 17
    frequency:   18.1331499204
  - # 18
    frequency:  114.9559532540

- q-position: [    0.1363636,    0.0000000,    0.0000000 ]
  distance:    0.0465731
  band:
  - # 1
    frequency:    1.1902036111
  - # 2
    frequency:    2.1478746734
  - # 3
    frequency:    3.4088188078
  - # 4
    frequency:    4.2636733021
  - # 5
    frequency:    5.0978250169
  - # 6
    frequency:    5.9958942233
  - # 7
    frequency:    6.0101734085
  - # 8
    frequency:    6.8006631741
  - # 9
    frequency:    7.0246584310
  - # 10
    frequency:    7.9287712722
  - # 11
    frequency:   10.2608280927
  - # 12
    frequency:   10.8568339018
  - # 13
    frequency:   11.0653937952
  - # 14
    frequency:   11.9031440288
  - # 15
    frequency:   14.5239018876
  - # 16
    frequency:   15.7513200368
  - # 17
    frequency:   18.0744470892
  - # 18
    frequency:  114.9548523169

- q-position: [    0.1414141,    0.0000000,    0.0000000 ]
  distance:    0.0482980
  band:
  - # 1
    frequency:    1.2647789451
  - # 2
    frequency:    2.2196405306
  - # 3
    frequency:    3.5252008061
  - # 4
    frequency:    4.2809208966
  - # 5
    frequency:    5.1579069938
  - # 6
    frequency:    5.9920454805
  - # 7
    frequency:    6.0199320303
  - # 8
    frequency:    6.8020089233
  - # 9
    frequency:    7.0401456714
  - # 10
    frequency:    7.9745215718
  - # 11
    frequency:   10.2388013733
  - # 12
    frequency:   10.8678463844
  - # 13
    frequency:   11.0371572889
  - # 14
    frequency:   11.9197237272
  - # 15
    frequency:   14.5869098526
  - # 16
    frequency:   15.9652407848
  - # 17
    frequency:   18.0162328305
  - # 18
    frequency:  114.9537483013

- q-position: [    0.1464646,    0.0000000,    0.0000000 ]
  distance:    0.0500229
  band:
  - # 1
    frequency:    1.3401599408
  - # 2
    frequency:    2.2906866129
  - # 3
    frequency:    3.6400941744
  - # 4
    frequency:    4.2983612685
  - # 5
    frequency:    5.2183551651
  - # 6
    frequency:    5.9885536141
  - # 7
    frequency:    6.0294688497
  - # 8
    frequency:    6.8029499593
  - # 9
    frequency:    7.0553535353
  - # 10
    frequency:    8.0195071226
  - # 11
    frequency:   10.2173103382
  - # 12
    frequency:   10.8785960110
  - # 13
    frequency:   11.0067374947
  - # 14
    frequency:   11.9359905076
  - # 15
    frequency:   14.6511733345
  - # 16
    frequency:   16.1716688989
  - # 17
    frequency:   17.9593225420
  - # 18
    frequency:  114.9526443179

- q-position: [    0.1515152,    0.0000000,    0.0000000 ]
  distance:    0.0517478
  band:
  - # 1
    frequency:    1.4162655507
  - # 2
    frequency:    2.3610024438
  - # 3
    frequency:    3.7533718718
  - # 4
    frequency:    4.3159733331
  - # 5
    frequency:    5.2791179937
  - # 6
    frequency:    5.9854958675
  - # 7
    frequency:    6.0387603026
  - # 8
    frequency:    6.8034803118
  - # 9
    frequency:    7.0702795164
  - # 10
    frequency:    8.0638453526
  - # 11
    frequency:   10.1964143009
  - # 12
    frequency:   10.8890459223
  - # 13
    frequency:   10.9743126398
  - # 14
    frequency:   11.9519004322
  - # 15
    frequency:   14.7165070526
  - # 16
    frequency:   16.3687859724
  - # 17
    frequency:   17.9049479278
  - # 18
    frequency:  114.9515434117

- q-position: [    0.1565657,    0.0000000,    0.0000000 ]
  distance:    0.0534728
  band:
  - # 1
    frequency:    1.4930183859
  - # 2
    frequency:    2.4305777622
  - # 3
    frequency:    3.8648993449
  - # 4
    frequency:    4.3337382026
  - # 5
    frequency:    5.3401451037
  - # 6
    frequency:    5.9829504232
  - # 7
    frequency:    6.0477863297
  - # 8
    frequency:    6.8035982657
  - # 9
    frequency:    7.0849264295
  - # 10
    frequency:    8.1076422612
  - # 11
    frequency:   10.1761706779
  - # 12
    frequency:   10.8991613303
  - # 13
    frequency:   10.9400628823
  - # 14
    frequency:   11.9674164250
  - # 15
    frequency:   14.7827186900
  - # 16
    frequency:   16.5541206674
  - # 17
    frequency:   17.8550694220
  - # 18
    frequency:  114.9504485505

- q-position: [    0.1616162,    0.0000000,    0.0000000 ]
  distance:    0.0551977
  band:
  - # 1
    frequency:    1.5703445107
  - # 2
    frequency:    2.4994024137
  - # 3
    frequency:    3.9745344435
  - # 4
    frequency:    4.3516392496
  - # 5
    frequency:    5.4013851213
  - # 6
    frequency:    5.9809995279
  - # 7
    frequency:    6.0565305175
  - # 8
    frequency:    6.8033063408
  - # 9
    frequency:    7.0993024981
  - # 10
    frequency:    8.1509907150
  - # 11
    frequency:   10.1566350148
  - # 12
    frequency:   10.9041693351
  - # 13
    frequency:   10.9089095939
  - # 14
    frequency:   11.9825085717
  - # 15
    frequency:   14.8496139968
  - # 16
    frequency:   16.7239787353
  - # 17
    frequency:   17.8129392875
  - # 18
    frequency:  114.9493626140

- q-position: [    0.1666667,    0.0000000,    0.0000000 ]
  distance:    0.0569226
  band:
  - # 1
    frequency:    1.6481732423
  - # 2
    frequency:    2.5674662466
  - # 3
    frequency:    4.0821273980
  - # 4
    frequency:    4.3696621578
  - # 5
    frequency:    5.4627822719
  - # 6
    frequency:    5.9797337045
  - # 7
    frequency:    6.0649802209
  - # 8
    frequency:    6.8026112386
  - # 9
    frequency:    7.1134213433
  - # 10
    frequency:    8.1939690482
  - # 11
    frequency:   10.1378609662
  - # 12
    frequency:   10.8668134607
  - # 13
    frequency:   10.9182603091
  - # 14
    frequency:   11.9971543124
  - # 15
    frequency:   14.9169998570
  - # 16
    frequency:   16.8725430327
  - # 17
    frequency:   17.7839965184
  - # 18
    frequency:  114.9482883823

- q-position: [    0.1717172,    0.0000000,    0.0000000 ]
  distance:    0.0586476
  band:
  - # 1
    frequency:    1.7264369561
  - # 2
    frequency:    2.6347590140
  - # 3
    frequency:    4.1875208705
  - # 4
    frequency:    4.3877949611
  - # 5
    frequency:    5.5242707094
  - # 6
    frequency:    5.9792580975
  - # 7
    frequency:    6.0731266651
  - # 8
    frequency:    6.8015237598
  - # 9
    frequency:    7.1273018694
  - # 10
    frequency:    8.2366398402
  - # 11
    frequency:   10.1199002249
  - # 12
    frequency:   10.8281768436
  - # 13
    frequency:   10.9271854131
  - # 14
    frequency:   12.0113385232
  - # 15
    frequency:   14.9846861235
  - # 16
    frequency:   16.9911051265
  - # 17
    frequency:   17.7766312350
  - # 18
    frequency:  114.9472285272

- q-position: [    0.1767677,    0.0000000,    0.0000000 ]
  distance:    0.0603725
  band:
  - # 1
    frequency:    1.8050709005
  - # 2
    frequency:    2.7012702827
  - # 3
    frequency:    4.2905500902
  - # 4
    frequency:    4.4060280721
  - # 5
    frequency:    5.5857644247
  - # 6
    frequency:    5.9797031197
  - # 7
    frequency:    6.0809650238
  - # 8
    frequency:    6.8000586935
  - # 9
    frequency:    7.1409680426
  - # 10
    frequency:    8.2790487721
  - # 11
    frequency:   10.1028023746
  - # 12
    frequency:   10.7884413558
  - # 13
    frequency:   10.9356593064
  - # 14