nqpoint: 300    
npath: 3      
segment_nqpoint:
- 100
- 100
- 100
labels:
- [ 'G', 'M' ]
- [ 'M', 'K' ]
- [ 'K', 'G' ]
reciprocal_lattice:
- [   0.29209043,   0.16863849,   0.00000000 ] # a*
- [   0.00000000,   0.33727698,   0.00000000 ] # b*
- [   0.00000000,   0.00000000,   0.03828269 ] # c*
natom: 7      
lattice:
- [     3.423597234277334,     0.000000000000000,     0.000000000000000 ] # a
- [    -1.711798617138667,     2.964922177209584,     0.000000000000000 ] # b
- [     0.000000000000000,     0.000000000000000,    26.121467311125215 ] # c
points:
- symbol: C # 1
  coordinates: [  0.000000000000000,  0.000000000000000,  0.539527228429584 ]
  mass: 12.010700
- symbol: C # 2
  coordinates: [  0.666666984744048,  0.333332985985145,  0.390035722705388 ]
  mass: 12.010700
- symbol: Cl # 3
  coordinates: [  0.333332985432215,  0.666666983183674,  0.655455802202701 ]
  mass: 35.453000
- symbol: N # 4
  coordinates: [  0.666666984744048,  0.333332985985145,  0.344544197797299 ]
  mass: 14.006700
- symbol: O # 5
  coordinates: [  0.666666984744048,  0.333332985985145,  0.441147868620608 ]
  mass: 15.999400
- symbol: Zr # 6
  coordinates: [  0.333332985432215,  0.666666983183674,  0.494063491010672 ]
  mass: 91.224000
- symbol: Zr # 7
  coordinates: [  0.666666984744048,  0.333332985985145,  0.586356734036130 ]
  mass: 91.224000

phonon:
- q-position: [    0.0000000,    0.0000000,    0.0000000 ]
  distance:    0.0000000
  band:
  - # 1
    frequency:   -0.0000050887
  - # 2
    frequency:   -0.0000001007
  - # 3
    frequency:    0.0000037409
  - # 4
    frequency:    1.5830977746
  - # 5
    frequency:    1.5830977746
  - # 6
    frequency:    4.2296681510
  - # 7
    frequency:    4.2296681510
  - # 8
    frequency:    5.5564615990
  - # 9
    frequency:    5.5564615990
  - # 10
    frequency:    5.6359905752
  - # 11
    frequency:    5.8614416607
  - # 12
    frequency:    5.8614416607
  - # 13
    frequency:    8.3842753885
  - # 14
    frequency:   10.1967266804
  - # 15
    frequency:   14.0633704342
  - # 16
    frequency:   14.0633704342
  - # 17
    frequency:   15.7074479345
  - # 18
    frequency:   17.5503790249
  - # 19
    frequency:   17.5503790249
  - # 20
    frequency:   31.8708892374
  - # 21
    frequency:   67.7615186505

- q-position: [    0.0050505,    0.0000000,    0.0000000 ]
  distance:    0.0017034
  band:
  - # 1
    frequency:    0.0015726453
  - # 2
    frequency:    0.0546805666
  - # 3
    frequency:    0.1045974155
  - # 4
    frequency:    1.5825399526
  - # 5
    frequency:    1.5843091579
  - # 6
    frequency:    4.2295982588
  - # 7
    frequency:    4.2304559880
  - # 8
    frequency:    5.5565838906
  - # 9
    frequency:    5.5569557125
  - # 10
    frequency:    5.6345021541
  - # 11
    frequency:    5.8614028055
  - # 12
    frequency:    5.8633530150
  - # 13
    frequency:    8.3839913374
  - # 14
    frequency:   10.1956824302
  - # 15
    frequency:   14.0634143945
  - # 16
    frequency:   14.0635062176
  - # 17
    frequency:   15.7072191543
  - # 18
    frequency:   17.5499717496
  - # 19
    frequency:   17.5504951748
  - # 20
    frequency:   31.8704908107
  - # 21
    frequency:   67.7613054693

- q-position: [    0.0101010,    0.0000000,    0.0000000 ]
  distance:    0.0034068
  band:
  - # 1
    frequency:    0.0062812218
  - # 2
    frequency:    0.1093545916
  - # 3
    frequency:    0.2091102509
  - # 4
    frequency:    1.5808702087
  - # 5
    frequency:    1.5879438126
  - # 6
    frequency:    4.2293889059
  - # 7
    frequency:    4.2328163800
  - # 8
    frequency:    5.5569472126
  - # 9
    frequency:    5.5583815052
  - # 10
    frequency:    5.6302481116
  - # 11
    frequency:    5.8612899448
  - # 12
    frequency:    5.8689283140
  - # 13
    frequency:    8.3831398022
  - # 14
    frequency:   10.1925519700
  - # 15
    frequency:   14.0635462177
  - # 16
    frequency:   14.0639134068
  - # 17
    frequency:   15.7065333792
  - # 18
    frequency:   17.5487515332
  - # 19
    frequency:   17.5508412149
  - # 20
    frequency:   31.8692964616
  - # 21
    frequency:   67.7606663725

- q-position: [    0.0151515,    0.0000000,    0.0000000 ]
  distance:    0.0051103
  band:
  - # 1
    frequency:    0.0140975886
  - # 2
    frequency:    0.1640144169
  - # 3
    frequency:    0.3134487988
  - # 4
    frequency:    1.5780998145
  - # 5
    frequency:    1.5940043792
  - # 6
    frequency:    4.2290410779
  - # 7
    frequency:    4.2367399857
  - # 8
    frequency:    5.5575409172
  - # 9
    frequency:    5.5605328897
  - # 10
    frequency:    5.6238361574
  - # 11
    frequency:    5.8611141779
  - # 12
    frequency:    5.8777536981
  - # 13
    frequency:    8.3817226414
  - # 14
    frequency:   10.1873421554
  - # 15
    frequency:   14.0637657305
  - # 16
    frequency:   14.0645915189
  - # 17
    frequency:   15.7053923042
  - # 18
    frequency:   17.5467232009
  - # 19
    frequency:   17.5514099437
  - # 20
    frequency:   31.8673089807
  - # 21
    frequency:   67.7596026991

- q-position: [    0.0202020,    0.0000000,    0.0000000 ]
  distance:    0.0068137
  band:
  - # 1
    frequency:    0.0249763329
  - # 2
    frequency:    0.2186500926
  - # 3
    frequency:    0.4175125878
  - # 4
    frequency:    1.5742479167
  - # 5
    frequency:    1.6024990632
  - # 6
    frequency:    4.2285564636
  - # 7
    frequency:    4.2422112877
  - # 8
    frequency:    5.5583472949
  - # 9
    frequency:    5.5629072151
  - # 10
    frequency:    5.6162802202
  - # 11
    frequency:    5.8608939491
  - # 12
    frequency:    5.8892976121
  - # 13
    frequency:    8.3797429705
  - # 14
    frequency:   10.1800643593
  - # 15
    frequency:   14.0640726423
  - # 16
    frequency:   14.0655397470
  - # 17
    frequency:   15.7037987497
  - # 18
    frequency:   17.5438947798
  - # 19
    frequency:   17.5521894483
  - # 20
    frequency:   31.8645330090
  - # 21
    frequency:   67.7581166760

- q-position: [    0.0252525,    0.0000000,    0.0000000 ]
  distance:    0.0085171
  band:
  - # 1
    frequency:    0.0388566742
  - # 2
    frequency:    0.2732480815
  - # 3
    frequency:    0.5211836439
  - # 4
    frequency:    1.5693421147
  - # 5
    frequency:    1.6134475460
  - # 6
    frequency:    4.2279375229
  - # 7
    frequency:    4.2492086698
  - # 8
    frequency:    5.5593416498
  - # 9
    frequency:    5.5643378603
  - # 10
    frequency:    5.6092444841
  - # 11
    frequency:    5.8606549472
  - # 12
    frequency:    5.9030343491
  - # 13
    frequency:    8.3772051864
  - # 14
    frequency:   10.1707343935
  - # 15
    frequency:   14.0644665426
  - # 16
    frequency:   14.0667569584
  - # 17
    frequency:   15.7017566547
  - # 18
    frequency:   17.5402774783
  - # 19
    frequency:   17.5531632374
  - # 20
    frequency:   31.8609750230
  - # 21
    frequency:   67.7562114109

- q-position: [    0.0303030,    0.0000000,    0.0000000 ]
  distance:    0.0102205
  band:
  - # 1
    frequency:    0.0556649223
  - # 2
    frequency:    0.3277897588
  - # 3
    frequency:    0.6243178962
  - # 4
    frequency:    1.5634193497
  - # 5
    frequency:    1.6268897470
  - # 6
    frequency:    4.2271875790
  - # 7
    frequency:    4.2577045283
  - # 8
    frequency:    5.5604924421
  - # 9
    frequency:    5.5626373400
  - # 10
    frequency:    5.6053340611
  - # 11
    frequency:    5.8604299275
  - # 12
    frequency:    5.9185105135
  - # 13
    frequency:    8.3741150017
  - # 14
    frequency:   10.1593724020
  - # 15
    frequency:   14.0649468984
  - # 16
    frequency:   14.0682416912
  - # 17
    frequency:   15.6992710670
  - # 18
    frequency:   17.5358856558
  - # 19
    frequency:   17.5543104236
  - # 20
    frequency:   31.8566433138
  - # 21
    frequency:   67.7538908823

- q-position: [    0.0353535,    0.0000000,    0.0000000 ]
  distance:    0.0119239
  band:
  - # 1
    frequency:    0.0753172154
  - # 2
    frequency:    0.3822496020
  - # 3
    frequency:    0.7267337002
  - # 4
    frequency:    1.5565271961
  - # 5
    frequency:    1.6428981109
  - # 6
    frequency:    4.2263109305
  - # 7
    frequency:    4.2676654164
  - # 8
    frequency:    5.5560901491
  - # 9
    frequency:    5.5617615362
  - # 10
    frequency:    5.6065851227
  - # 11
    frequency:    5.8602584196
  - # 12
    frequency:    5.9353623471
  - # 13
    frequency:    8.3704794870
  - # 14
    frequency:   10.1460027273
  - # 15
    frequency:   14.0655130491
  - # 16
    frequency:   14.0699921506
  - # 17
    frequency:   15.6963481311
  - # 18
    frequency:   17.5307367842
  - # 19
    frequency:   17.5556059522
  - # 20
    frequency:   31.8515479607
  - # 21
    frequency:   67.7511599268

- q-position: [    0.0404040,    0.0000000,    0.0000000 ]
  distance:    0.0136274
  band:
  - # 1
    frequency:    0.0977223221
  - # 2
    frequency:    0.4365929176
  - # 3
    frequency:    0.8281960812
  - # 4
    frequency:    1.5487256991
  - # 5
    frequency:    1.6615945069
  - # 6
    frequency:    4.2253129821
  - # 7
    frequency:    4.2790522252
  - # 8
    frequency:    5.5456240440
  - # 9
    frequency:    5.5631046031
  - # 10
    frequency:    5.6123023009
  - # 11
    frequency:    5.8601862731
  - # 12
    frequency:    5.9533074076
  - # 13
    frequency:    8.3663071186
  - # 14
    frequency:   10.1306537541
  - # 15
    frequency:   14.0661642027
  - # 16
    frequency:   14.0720062044
  - # 17
    frequency:   15.6929950725
  - # 18
    frequency:   17.5248514002
  - # 19
    frequency:   17.5570208722
  - # 20
    frequency:   31.8457007990
  - # 21
    frequency:   67.7480242237

- q-position: [    0.0454545,    0.0000000,    0.0000000 ]
  distance:    0.0153308
  band:
  - # 1
    frequency:    0.1227843152
  - # 2
    frequency:    0.4907728860
  - # 3
    frequency:    0.9283948984
  - # 4
    frequency:    1.5400899689
  - # 5
    frequency:    1.6831732888
  - # 6
    frequency:    4.2242003863
  - # 7
    frequency:    4.2918203997
  - # 8
    frequency:    5.5329825512
  - # 9
    frequency:    5.5644717296
  - # 10
    frequency:    5.6209031697
  - # 11
    frequency:    5.8602649893
  - # 12
    frequency:    5.9721279929
  - # 13
    frequency:    8.3616078315
  - # 14
    frequency:   10.1133577326
  - # 15
    frequency:   14.0668994304
  - # 16
    frequency:   14.0742813786
  - # 17
    frequency:   15.6892201800
  - # 18
    frequency:   17.5182530493
  - # 19
    frequency:   17.5585226444
  - # 20
    frequency:   31.8391153817
  - # 21
    frequency:   67.7444902770

- q-position: [    0.0505051,    0.0000000,    0.0000000 ]
  distance:    0.0170342
  band:
  - # 1
    frequency:    0.1504049735
  - # 2
    frequency:    0.5447266039
  - # 3
    frequency:    1.0269150043
  - # 4
    frequency:    1.5307138511
  - # 5
    frequency:    1.7079322536
  - # 6
    frequency:    4.2229811951
  - # 7
    frequency:    4.3059201929
  - # 8
    frequency:    5.5192238072
  - # 9
    frequency:    5.5658082933
  - # 10
    frequency:    5.6314363023
  - # 11
    frequency:    5.8605507815
  - # 12
    frequency:    5.9916547061
  - # 13
    frequency:    8.3563930745
  - # 14
    frequency:   10.0941505862
  - # 15
    frequency:   14.0677176613
  - # 16
    frequency:   14.0768148525
  - # 17
    frequency:   15.6850327850
  - # 18
    frequency:   17.5109682202
  - # 19
    frequency:   17.5600754819
  - # 20
    frequency:   31.8318069368
  - # 21
    frequency:   67.7405653944

- q-position: [    0.0555556,    0.0000000,    0.0000000 ]
  distance:    0.0187376
  band:
  - # 1
    frequency:    0.1804858199
  - # 2
    frequency:    0.5983696440
  - # 3
    frequency:    1.1231975871
  - # 4
    frequency:    1.5207151499
  - # 5
    frequency:    1.7363121906
  - # 6
    frequency:    4.2216650129
  - # 7
    frequency:    4.3212969546
  - # 8
    frequency:    5.5048871418
  - # 9
    frequency:    5.5670561481
  - # 10
    frequency:    5.6434286785
  - # 11
    frequency:    5.8611033192
  - # 12
    frequency:    6.0117529726
  - # 13
    frequency:    8.3506758659
  - # 14
    frequency:   10.0730717060
  - # 15
    frequency:   14.0686176770
  - # 16
    frequency:   14.0796034543
  - # 17
    frequency:   15.6804432374
  - # 18
    frequency:   17.5030262705
  - # 19
    frequency:   17.5616407165
  - # 20
    frequency:   31.8237923186
  - # 21
    frequency:   67.7362576646

- q-position: [    0.0606061,    0.0000000,    0.0000000 ]
  distance:    0.0204410
  band:
  - # 1
    frequency:    0.2129297510
  - # 2
    frequency:    0.6515884136
  - # 3
    frequency:    1.2164966601
  - # 4
    frequency:    1.5102431232
  - # 5
    frequency:    1.7689409938
  - # 6
    frequency:    4.2202631484
  - # 7
    frequency:    4.3378914571
  - # 8
    frequency:    5.4902683622
  - # 9
    frequency:    5.5681551516
  - # 10
    frequency:    5.6566211563
  - # 11
    frequency:    5.8619841281
  - # 12
    frequency:    6.0323128293
  - # 13
    frequency:    8.3444708474
  - # 14
    frequency:   10.0501637388
  - # 15
    frequency:   14.0695981069
  - # 16
    frequency:   14.0826436565
  - # 17
    frequency:   15.6754628801
  - # 18
    frequency:   17.4944593432
  - # 19
    frequency:   17.5631771859
  - # 20
    frequency:   31.8150899543
  - # 21
    frequency:   67.7315759317

- q-position: [    0.0656566,    0.0000000,    0.0000000 ]
  distance:    0.0221444
  band:
  - # 1
    frequency:    0.2476422568
  - # 2
    frequency:    0.7042292371
  - # 3
    frequency:    1.3058478549
  - # 4
    frequency:    1.4994893232
  - # 5
    frequency:    1.8066651675
  - # 6
    frequency:    4.2187887584
  - # 7
    frequency:    4.3556402519
  - # 8
    frequency:    5.4755496010
  - # 9
    frequency:    5.5690450226
  - # 10
    frequency:    5.6708466524
  - # 11
    frequency:    5.8632546551
  - # 12
    frequency:    6.0532414798
  - # 13
    frequency:    8.3377943328
  - # 14
    frequency:   10.0254723688
  - # 15
    frequency:   14.0706574228
  - # 16
    frequency:   14.0859315725
  - # 17
    frequency:   15.6701040196
  - # 18
    frequency:   17.4853022731
  - # 19
    frequency:   17.5646416348
  - # 20
    frequency:   31.8057197855
  - # 21
    frequency:   67.7265297670

- q-position: [    0.0707071,    0.0000000,    0.0000000 ]
  distance:    0.0238479
  band:
  - # 1
    frequency:    0.2845322584
  - # 2
    frequency:    0.7560825856
  - # 3
    frequency:    1.3900928415
  - # 4
    frequency:    1.4887033623
  - # 5
    frequency:    1.8505254164
  - # 6
    frequency:    4.2172569787
  - # 7
    frequency:    4.3744760590
  - # 8
    frequency:    5.4608554421
  - # 9
    frequency:    5.5696674736
  - # 10
    frequency:    5.6859799581
  - # 11
    frequency:    5.8649740600
  - # 12
    frequency:    6.0744579654
  - # 13
    frequency:    8.3306643504
  - # 14
    frequency:    9.9990461010
  - # 15
    frequency:   14.0717939360
  - # 16
    frequency:   14.0894629534
  - # 17
    frequency:   15.6643798947
  - # 18
    frequency:   17.4755924844
  - # 19
    frequency:   17.5659891248
  - # 20
    frequency:   31.7957032055
  - # 21
    frequency:   67.7211294393

- q-position: [    0.0757576,    0.0000000,    0.0000000 ]
  distance:    0.0255513
  band:
  - # 1
    frequency:    0.3235126103
  - # 2
    frequency:    0.8068602455
  - # 3
    frequency:    1.4680303823
  - # 4
    frequency:    1.4782158113
  - # 5
    frequency:    1.9016053570
  - # 6
    frequency:    4.2156850371
  - # 7
    frequency:    4.3943281833
  - # 8
    frequency:    5.4462788687
  - # 9
    frequency:    5.5699684981
  - # 10
    frequency:    5.7019162091
  - # 11
    frequency:    5.8671968489
  - # 12
    frequency:    6.0958893923
  - # 13
    frequency:    8.3231006749
  - # 14
    frequency:    9.9709360457
  - # 15
    frequency:   14.0730057932
  - # 16
    frequency:   14.0932331868
  - # 17
    frequency:   15.6583046428
  - # 18
    frequency:   17.4653698781
  - # 19
    frequency:   17.5671734466
  - # 20
    frequency:   31.7850629918
  - # 21
    frequency:   67.7153858831

- q-position: [    0.0808081,    0.0000000,    0.0000000 ]
  distance:    0.0272547
  band:
  - # 1
    frequency:    0.3645003230
  - # 2
    frequency:    0.8561627067
  - # 3
    frequency:    1.4684709506
  - # 4
    frequency:    1.5387366706
  - # 5
    frequency:    1.9607107441
  - # 6
    frequency:    4.2140923446
  - # 7
    frequency:    4.4151229568
  - # 8
    frequency:    5.4318943940
  - # 9
    frequency:    5.5699006420
  - # 10
    frequency:    5.7185610718
  - # 11
    frequency:    5.8699705271
  - # 12
    frequency:    6.1174682844
  - # 13
    frequency:    8.3151248467
  - # 14
    frequency:    9.9411957112
  - # 15
    frequency:   14.0742909759
  - # 16
    frequency:   14.0972372959
  - # 17
    frequency:   15.6518932637
  - # 18
    frequency:   17.4546767098
  - # 19
    frequency:   17.5681475292
  - # 20
    frequency:   31.7738232347
  - # 21
    frequency:   67.7093106639

- q-position: [    0.0858586,    0.0000000,    0.0000000 ]
  distance:    0.0289581
  band:
  - # 1
    frequency:    0.4074165651
  - # 2
    frequency:    0.9034345626
  - # 3
    frequency:    1.4600715834
  - # 4
    frequency:    1.6019434607
  - # 5
    frequency:    2.0279907619
  - # 6
    frequency:    4.2125005579
  - # 7
    frequency:    4.4367842046
  - # 8
    frequency:    5.4177652860
  - # 9
    frequency:    5.5694250496
  - # 10
    frequency:    5.7358260467
  - # 11
    frequency:    5.8733334775
  - # 12
    frequency:    6.1391307518
  - # 13
    frequency:    8.3067601755
  - # 14
    frequency:    9.9098808045
  - # 15
    frequency:   14.0756472992
  - # 16
    frequency:   14.1014699407
  - # 17
    frequency:   15.6451615814
  - # 18
    frequency:   17.4435574576
  - # 19
    frequency:   17.5688638411
  - # 20
    frequency:   31.7620092619
  - # 21
    frequency:   67.7029159434

- q-position: [    0.0909091,    0.0000000,    0.0000000 ]
  distance:    0.0306615
  band:
  - # 1
    frequency:    0.4521864989
  - # 2
    frequency:    0.9479098883
  - # 3
    frequency:    1.4538339419
  - # 4
    frequency:    1.6581971622
  - # 5
    frequency:    2.1027782494
  - # 6
    frequency:    4.2109336123
  - # 7
    frequency:    4.4592337334
  - # 8
    frequency:    5.4039478298
  - # 9
    frequency:    5.5685130729
  - # 10
    frequency:    5.7536261607
  - # 11
    frequency:    5.8773132806
  - # 12
    frequency:    6.1608152553
  - # 13
    frequency:    8.2980317254
  - # 14
    frequency:    9.8770490439
  - # 15
    frequency:   14.0770724140
  - # 16
    frequency:   14.1059254208
  - # 17
    frequency:   15.6381262034
  - # 18
    frequency:   17.4320586794
  - # 19
    frequency:   17.5692747788
  - # 20
    frequency:   31.7496475598
  - # 21
    frequency:   67.6962144412

- q-position: [    0.0959596,    0.0000000,    0.0000000 ]
  distance:    0.0323650
  band:
  - # 1
    frequency:    0.4987389996
  - # 2
    frequency:    0.9885633371
  - # 3
    frequency:    1.4508369491
  - # 4
    frequency:    1.7086452685
  - # 5
    frequency:    2.1838025330
  - # 6
    frequency:    4.2094177188
  - # 7
    frequency:    4.4823918442
  - # 8
    frequency:    5.3904939912
  - # 9
    frequency:    5.5671472743
  - # 10
    frequency:    5.7718788398
  - # 11
    frequency:    5.8819256448
  - # 12
    frequency:    6.1824618105
  - # 13
    frequency:    8.2889662778
  - # 14
    frequency:    9.8427599857
  - # 15
    frequency:   14.0785638095
  - # 16
    frequency:   14.1105976800
  - # 17
    frequency:   15.6308044784
  - # 18
    frequency:   17.4202288606
  - # 19
    frequency:   17.5693330387
  - # 20
    frequency:   31.7367656911
  - # 21
    frequency:   67.6892193967

- q-position: [    0.1010101,    0.0000000,    0.0000000 ]
  distance:    0.0340684
  band:
  - # 1
    frequency:    0.5470062977
  - # 2
    frequency:    1.0241139298
  - # 3
    frequency:    1.4524188539
  - # 4
    frequency:    1.7546335770
  - # 5
    frequency:    2.2695914404
  - # 6
    frequency:    4.2079813238
  - # 7
    frequency:    4.5061778703
  - # 8
    frequency:    5.3774531614
  - # 9
    frequency:    5.5653217262
  - # 10
    frequency:    5.7905033892
  - # 11
    frequency:    5.8871740460
  - # 12
    frequency:    6.2040115225
  - # 13
    frequency:    8.2795922704
  - # 14
    frequency:    9.8070748657
  - # 15
    frequency:   14.0801188192
  - # 16
    frequency:   14.1154803133
  - # 17
    frequency:   15.6232144525
  - # 18
    frequency:   17.4081182518
  - # 19
    frequency:   17.5689919681
  - # 20
    frequency:   31.7233922095
  - # 21
    frequency:   67.6819445284

- q-position: [    0.1060606,    0.0000000,    0.0000000 ]
  distance:    0.0357718
  band:
  - # 1
    frequency:    0.5969235802
  - # 2
    frequency:    1.0531693428
  - # 3
    frequency:    1.4600334363
  - # 4
    frequency:    1.7973921197
  - # 5
    frequency:    2.3587845976
  - # 6
    frequency:    4.2066550289
  - # 7
    frequency:    4.5305107479
  - # 8
    frequency:    5.3648733440
  - # 9
    frequency:    5.5630416116
  - # 10
    frequency:    5.8094207951
  - # 11
    frequency:    5.8930500734
  - # 12
    frequency:    6.2254063730
  - # 13
    frequency:    8.2699397078
  - # 14
    frequency:    9.7700564572
  - # 15
    frequency:   14.0817346279
  - # 16
    frequency:   14.1205665754
  - # 17
    frequency:   15.6153748221
  - # 18
    frequency:   17.3957786957
  - # 19
    frequency:   17.5682058935
  - # 20
    frequency:   31.7095565716
  - # 21
    frequency:   67.6744039927

- q-position: [    0.1111111,    0.0000000,    0.0000000 ]
  distance:    0.0374752
  band:
  - # 1
    frequency:    0.6484285753
  - # 2
    frequency:    1.0745811889
  - # 3
    frequency:    1.4748952762
  - # 4
    frequency:    1.8379039655
  - # 5
    frequency:    2.4502638622
  - # 6
    frequency:    4.2054714681
  - # 7
    frequency:    4.5553096260
  - # 8
    frequency:    5.3528019882
  - # 9
    frequency:    5.5603222178
  - # 10
    frequency:    5.8285536948
  - # 11
    frequency:    5.8995343906
  - # 12
    frequency:    6.2465892019
  - # 13
    frequency:    8.2600400410
  - # 14
    frequency:    9.7317689461
  - # 15
    frequency:   14.0834082820
  - # 16
    frequency:   14.1258493923
  - # 17
    frequency:   15.6073048867
  - # 18
    frequency:   17.3832634449
  - # 19
    frequency:   17.5669304233
  - # 20
    frequency:   31.6952890467
  - # 21
    frequency:   67.6666123415

- q-position: [    0.1161616,    0.0000000,    0.0000000 ]
  distance:    0.0391786
  band:
  - # 1
    frequency:    0.7014611393
  - # 2
    frequency:    1.0879011642
  - # 3
    frequency:    1.4975242083
  - # 4
    frequency:    1.8769001760
  - # 5
    frequency:    2.5431576181
  - # 6
    frequency:    4.2044651429
  - # 7
    frequency:    4.5804945290
  - # 8
    frequency:    5.3412865872
  - # 9
    frequency:    5.5571874854
  - # 10
    frequency:    5.8478264342
  - # 11
    frequency:    5.9065981517
  - # 12
    frequency:    6.2675038438
  - # 13
    frequency:    8.2499260127
  - # 14
    frequency:    9.6922778242
  - # 15
    frequency:   14.0851367009
  - # 16
    frequency:   14.1313213748
  - # 17
    frequency:   15.5990244982
  - # 18
    frequency:   17.3706269691
  - # 19
    frequency:   17.5651227223
  - # 20
    frequency:   31.6806206238
  - # 21
    frequency:   67.6585844790

- q-position: [    0.1212121,    0.0000000,    0.0000000 ]
  distance:    0.0408821
  band:
  - # 1
    frequency:    0.7559628604
  - # 2
    frequency:    1.0936021366
  - # 3
    frequency:    1.5275248722
  - # 4
    frequency:    1.9149049479
  - # 5
    frequency:    2.6367948968
  - # 6
    frequency:    4.2036722137
  - # 7
    frequency:    4.6059870870
  - # 8
    frequency:    5.3303751098
  - # 9
    frequency:    5.5536683011
  - # 10
    frequency:    5.8671651629
  - # 11
    frequency:    5.9142046840
  - # 12
    frequency:    6.2880953854
  - # 13
    frequency:    8.2396314662
  - # 14
    frequency:    9.6516497999
  - # 15
    frequency:   14.0869166918
  - # 16
    frequency:   14.1369748347
  - # 17
    frequency:   15.5905540093
  - # 18
    frequency:   17.3579247537
  - # 19
    frequency:   17.5627417595
  - # 20
    frequency:   31.6655829170
  - # 21
    frequency:   67.6503356175

- q-position: [    0.1262626,    0.0000000,    0.0000000 ]
  distance:    0.0425855
  band:
  - # 1
    frequency:    0.8118766877
  - # 2
    frequency:    1.0928581089
  - # 3
    frequency:    1.5638074082
  - # 4
    frequency:    1.9522878002
  - # 5
    frequency:    2.7306524645
  - # 6
    frequency:    4.2031302488
  - # 7
    frequency:    4.6317113535
  - # 8
    frequency:    5.3201163055
  - # 9
    frequency:    5.5498007186
  - # 10
    frequency:    5.8864979408
  - # 11
    frequency:    5.9223112549
  - # 12
    frequency:    6.3083105222
  - # 13
    frequency:    8.2291911118
  - # 14
    frequency:    9.6099527276
  - # 15
    frequency:   14.0887449660
  - # 16
    frequency:   14.1428018028
  - # 17
    frequency:   15.5819142184
  - # 18
    frequency:   17.3452130886
  - # 19
    frequency:   17.5597485252
  - # 20
    frequency:   31.6502080700
  - # 21
    frequency:   67.6418812334

- q-position: [    0.1313131,    0.0000000,    0.0000000 ]
  distance:    0.0442889
  band:
  - # 1
    frequency:    0.8691465893
  - # 2
    frequency:    1.0870966582
  - # 3
    frequency:    1.6050356730
  - # 4
    frequency:    1.9893071853
  - # 5
    frequency:    2.8243104888
  - # 6
    frequency:    4.2028779331
  - # 7
    frequency:    4.6575947348
  - # 8
    frequency:    5.3105598998
  - # 9
    frequency:    5.5456242576
  - # 10
    frequency:    5.9057548388
  - # 11
    frequency:    5.9308707735
  - # 12
    frequency:    6.3280979939
  - # 13
    frequency:    8.2186402511
  - # 14
    frequency:    9.5672555554
  - # 15
    frequency:   14.0906181578
  - # 16
    frequency:   14.1487940508
  - # 17
    frequency:   15.5731263133
  - # 18
    frequency:   17.3325488486
  - # 19
    frequency:   17.5561062200
  - # 20
    frequency:   31.6345286578
  - # 21
    frequency:   67.6332370220

- q-position: [    0.1363636,    0.0000000,    0.0000000 ]
  distance:    0.0459923
  band:
  - # 1
    frequency:    0.9277172426
  - # 2
    frequency:    1.0776536996
  - # 3
    frequency:    1.6499730972
  - # 4
    frequency:    2.0261429330
  - # 5
    frequency:    2.9174193687
  - # 6
    frequency:    4.2029547380
  - # 7
    frequency:    4.6835690547
  - # 8
    frequency:    5.3017566847
  - # 9
    frequency:    5.5411803836
  - # 10
    frequency:    5.9248680246
  - # 11
    frequency:    5.9398333245
  - # 12
    frequency:    6.3474090848
  - # 13
    frequency:    8.2080144533
  - # 14
    frequency:    9.5236282909
  - # 15
    frequency:   14.0925328444
  - # 16
    frequency:   14.1549431138
  - # 17
    frequency:   15.5642118108
  - # 18
    frequency:   17.3199892661
  - # 19
    frequency:   17.5517804155
  - # 20
    frequency:   31.6185775892
  - # 21
    frequency:   67.6244188527

- q-position: [    0.1414141,    0.0000000,    0.0000000 ]
  distance:    0.0476957
  band:
  - # 1
    frequency:    0.9875337552
  - # 2
    frequency:    1.0656336815
  - # 3
    frequency:    1.6976230349
  - # 4
    frequency:    2.0629192550
  - # 5
    frequency:    3.0096759988
  - # 6
    frequency:    4.2034005561
  - # 7
    frequency:    4.7095717821
  - # 8
    frequency:    5.2937584959
  - # 9
    frequency:    5.5365112276
  - # 10
    frequency:    5.9437718273
  - # 11
    frequency:    5.9491474768
  - # 12
    frequency:    6.3661981745
  - # 13
    frequency:    8.1973491816
  - # 14
    frequency:    9.4791419869
  - # 15
    frequency:   14.0944855685
  - # 16
    frequency:   14.1612403167
  - # 17
    frequency:   15.5551924939
  - # 18
    frequency:   17.3075916964
  - # 19
    frequency:   17.5467391866
  - # 20
    frequency:   31.6023880075
  - # 21
    frequency:   67.6154427237

- q-position: [    0.1464646,    0.0000000,    0.0000000 ]
  distance:    0.0493992
  band:
  - # 1
    frequency:    1.0485414159
  - # 2
    frequency:    1.0519050795
  - # 3
    frequency:    1.7472336888
  - # 4
    frequency:    2.0997207739
  - # 5
    frequency:    3.1008070064
  - # 6
    frequency:    4.2042553061
  - # 7
    frequency:    4.7355474386
  - # 8
    frequency:    5.2866180621
  - # 9
    frequency:    5.5316585637
  - # 10
    frequency:    5.9587613463
  - # 11
    frequency:    5.9624027779
  - # 12
    frequency:    6.3844233294
  - # 13
    frequency:    8.1866793665
  - # 14
    frequency:    9.4338687464
  - # 15
    frequency:   14.0964728613
  - # 16
    frequency:   14.1676768022
  - # 17
    frequency:   15.5460903448
  - # 18
    frequency:   17.2954133766
  - # 19
    frequency:   17.5409532182
  - # 20
    frequency:   31.5859931910
  - # 21
    frequency:   67.6063247177

- q-position: [    0.1515152,    0.0000000,    0.0000000 ]
  distance:    0.0511026
  band:
  - # 1
    frequency:    1.0371464641
  - # 2
    frequency:    1.1106854696
  - # 3
    frequency:    1.7982522726
  - # 4
    frequency:    2.1366036743
  - # 5
    frequency:    3.1905568810
  - # 6
    frequency:    4.2055585123
  - # 7
    frequency:    4.7614491945
  - # 8
    frequency:    5.2803887100
  - # 9
    frequency:    5.5266630361
  - # 10
    frequency:    5.9686234245
  - # 11
    frequency:    5.9806996247
  - # 12
    frequency:    6.4020469237
  - # 13
    frequency:    8.1760389234
  - # 14
    frequency:    9.3878817501
  - # 15
    frequency:   14.0984912666
  - # 16
    frequency:   14.1742435610
  - # 17
    frequency:   15.5369274741
  - # 18
    frequency:   17.2835111794
  - # 19
    frequency:   17.5343958864
  - # 20
    frequency:   31.5694264543
  - # 21