nqpoint: 300    
npath: 3      
segment_nqpoint:
- 100
- 100
- 100
labels:
- [ 'G', 'M' ]
- [ 'M', 'K' ]
- [ 'K', 'G' ]
reciprocal_lattice:
- [   0.29209043,   0.16863849,   0.00000000 ] # a*
- [   0.00000000,   0.33727698,   0.00000000 ] # b*
- [   0.00000000,   0.00000000,   0.03828269 ] # c*
natom: 7      
lattice:
- [     3.423597234277334,     0.000000000000000,     0.000000000000000 ] # a
- [    -1.711798617138667,     2.964922177209584,     0.000000000000000 ] # b
- [     0.000000000000000,     0.000000000000000,    26.121467311125215 ] # c
points:
- symbol: C # 1
  coordinates: [  0.000000000000000,  0.000000000000000,  0.539527228429584 ]
  mass: 12.010700
- symbol: C # 2
  coordinates: [  0.666666984744048,  0.333332985985145,  0.390035722705388 ]
  mass: 12.010700
- symbol: Cl # 3
  coordinates: [  0.333332985432215,  0.666666983183674,  0.655455802202701 ]
  mass: 35.453000
- symbol: N # 4
  coordinates: [  0.666666984744048,  0.333332985985145,  0.344544197797299 ]
  mass: 14.006700
- symbol: O # 5
  coordinates: [  0.666666984744048,  0.333332985985145,  0.441147868620608 ]
  mass: 15.999400
- symbol: Zr # 6
  coordinates: [  0.333332985432215,  0.666666983183674,  0.494063491010672 ]
  mass: 91.224000
- symbol: Zr # 7
  coordinates: [  0.666666984744048,  0.333332985985145,  0.586356734036130 ]
  mass: 91.224000

phonon:
- q-position: [    0.0000000,    0.0000000,    0.0000000 ]
  distance:    0.0000000
  band:
  - # 1
    frequency:   -0.8144089933
  - # 2
    frequency:   -0.8144089933
  - # 3
    frequency:   -0.0000006987
  - # 4
    frequency:    0.0000001113
  - # 5
    frequency:    0.0000009196
  - # 6
    frequency:    4.1393765117
  - # 7
    frequency:    4.1393765117
  - # 8
    frequency:    5.1891624557
  - # 9
    frequency:    5.1891624557
  - # 10
    frequency:    5.5811271186
  - # 11
    frequency:    5.7499339258
  - # 12
    frequency:    5.7499339258
  - # 13
    frequency:    8.2970992312
  - # 14
    frequency:   10.1379792706
  - # 15
    frequency:   14.0457515376
  - # 16
    frequency:   14.0457515376
  - # 17
    frequency:   15.6290473275
  - # 18
    frequency:   17.2327456919
  - # 19
    frequency:   17.2327456919
  - # 20
    frequency:   31.9406950840
  - # 21
    frequency:   67.7807634349

- q-position: [    0.0050505,    0.0000000,    0.0000000 ]
  distance:    0.0017034
  band:
  - # 1
    frequency:   -0.8135347529
  - # 2
    frequency:   -0.8110974319
  - # 3
    frequency:   -0.0555479361
  - # 4
    frequency:    0.0700593338
  - # 5
    frequency:    0.1049754692
  - # 6
    frequency:    4.1398858400
  - # 7
    frequency:    4.1405857193
  - # 8
    frequency:    5.1903840236
  - # 9
    frequency:    5.1905196004
  - # 10
    frequency:    5.5798772761
  - # 11
    frequency:    5.7500256648
  - # 12
    frequency:    5.7520547271
  - # 13
    frequency:    8.2969485965
  - # 14
    frequency:   10.1370528181
  - # 15
    frequency:   14.0458276765
  - # 16
    frequency:   14.0459529152
  - # 17
    frequency:   15.6289991779
  - # 18
    frequency:   17.2333401888
  - # 19
    frequency:   17.2339616360
  - # 20
    frequency:   31.9401370764
  - # 21
    frequency:   67.7805064141

- q-position: [    0.0101010,    0.0000000,    0.0000000 ]
  distance:    0.0034068
  band:
  - # 1
    frequency:   -0.8109210723
  - # 2
    frequency:   -0.8011133082
  - # 3
    frequency:   -0.0761086306
  - # 4
    frequency:    0.1401715576
  - # 5
    frequency:    0.1940421542
  - # 6
    frequency:    4.1414099264
  - # 7
    frequency:    4.1442019656
  - # 8
    frequency:    5.1940376562
  - # 9
    frequency:    5.1945773191
  - # 10
    frequency:    5.5763133516
  - # 11
    frequency:    5.7503008249
  - # 12
    frequency:    5.7582301155
  - # 13
    frequency:    8.2964966390
  - # 14
    frequency:   10.1342752658
  - # 15
    frequency:   14.0460558052
  - # 16
    frequency:   14.0465564385
  - # 17
    frequency:   15.6288539568
  - # 18
    frequency:   17.2351179486
  - # 19
    frequency:   17.2375983460
  - # 20
    frequency:   31.9384650815
  - # 21
    frequency:   67.7797361106

- q-position: [    0.0151515,    0.0000000,    0.0000000 ]
  distance:    0.0051103
  band:
  - # 1
    frequency:   -0.8065932574
  - # 2
    frequency:   -0.7842995201
  - # 3
    frequency:   -0.0978169243
  - # 4
    frequency:    0.2103811302
  - # 5
    frequency:    0.2858439493
  - # 6
    frequency:    4.1439371158
  - # 7
    frequency:    4.1501914426
  - # 8
    frequency:    5.2000902332
  - # 9
    frequency:    5.2012943743
  - # 10
    frequency:    5.5709026327
  - # 11
    frequency:    5.7507593034
  - # 12
    frequency:    5.7679888628
  - # 13
    frequency:    8.2957432070
  - # 14
    frequency:   10.1296520079
  - # 15
    frequency:   14.0464350600
  - # 16
    frequency:   14.0475602822
  - # 17
    frequency:   15.6286093685
  - # 18
    frequency:   17.2380618424
  - # 19
    frequency:   17.2436225692
  - # 20
    frequency:   31.9356851709
  - # 21
    frequency:   67.7784547968

- q-position: [    0.0202020,    0.0000000,    0.0000000 ]
  distance:    0.0068137
  band:
  - # 1
    frequency:   -0.8005878580
  - # 2
    frequency:   -0.7603635490
  - # 3
    frequency:   -0.1194983294
  - # 4
    frequency:    0.2807172426
  - # 5
    frequency:    0.3789914874
  - # 6
    frequency:    4.1474481177
  - # 7
    frequency:    4.1584988553
  - # 8
    frequency:    5.2084868558
  - # 9
    frequency:    5.2106016596
  - # 10
    frequency:    5.5642110056
  - # 11
    frequency:    5.7514011582
  - # 12
    frequency:    5.7807595700
  - # 13
    frequency:    8.2946880735
  - # 14
    frequency:   10.1231919633
  - # 15
    frequency:   14.0469640044
  - # 16
    frequency:   14.0489614130
  - # 17
    frequency:   15.6282616569
  - # 18
    frequency:   17.2421435322
  - # 19
    frequency:   17.2519792610
  - # 20
    frequency:   31.9318074259
  - # 21
    frequency:   67.7766662467

- q-position: [    0.0252525,    0.0000000,    0.0000000 ]
  distance:    0.0085171
  band:
  - # 1
    frequency:   -0.7929455659
  - # 2
    frequency:   -0.7288259395
  - # 3
    frequency:   -0.1396105756
  - # 4
    frequency:    0.3511897090
  - # 5
    frequency:    0.4730571519
  - # 6
    frequency:    4.1519162054
  - # 7
    frequency:    4.1690489308
  - # 8
    frequency:    5.2191512714
  - # 9
    frequency:    5.2224013641
  - # 10
    frequency:    5.5567622709
  - # 11
    frequency:    5.7522269650
  - # 12
    frequency:    5.7960131821
  - # 13
    frequency:    8.2933309758
  - # 14
    frequency:   10.1149074714
  - # 15
    frequency:   14.0476406320
  - # 16
    frequency:   14.0507556022
  - # 17
    frequency:   15.6278057053
  - # 18
    frequency:   17.2473237836
  - # 19
    frequency:   17.2625921472
  - # 20
    frequency:   31.9268458795
  - # 21
    frequency:   67.7743757153

- q-position: [    0.0303030,    0.0000000,    0.0000000 ]
  distance:    0.0102205
  band:
  - # 1
    frequency:   -0.7837034841
  - # 2
    frequency:   -0.6889349123
  - # 3
    frequency:   -0.1568142262
  - # 4
    frequency:    0.4217879703
  - # 5
    frequency:    0.5678982336
  - # 6
    frequency:    4.1573074928
  - # 7
    frequency:    4.1817484003
  - # 8
    frequency:    5.2319864070
  - # 9
    frequency:    5.2365651671
  - # 10
    frequency:    5.5489840341
  - # 11
    frequency:    5.7532383454
  - # 12
    frequency:    5.8133202525
  - # 13
    frequency:    8.2916716684
  - # 14
    frequency:   10.1048141516
  - # 15
    frequency:   14.0484623726
  - # 16
    frequency:   14.0529374450
  - # 17
    frequency:   15.6272351689
  - # 18
    frequency:   17.2535528972
  - # 19
    frequency:   17.2753644991
  - # 20
    frequency:   31.9208184365
  - # 21
    frequency:   67.7715899104

- q-position: [    0.0353535,    0.0000000,    0.0000000 ]
  distance:    0.0119239
  band:
  - # 1
    frequency:   -0.7728880838
  - # 2
    frequency:   -0.6395289997
  - # 3
    frequency:   -0.1696283335
  - # 4
    frequency:    0.4924828301
  - # 5
    frequency:    0.6634536346
  - # 6
    frequency:    4.1635812840
  - # 7
    frequency:    4.1964883434
  - # 8
    frequency:    5.2468749559
  - # 9
    frequency:    5.2529305678
  - # 10
    frequency:    5.5412123491
  - # 11
    frequency:    5.7544386956
  - # 12
    frequency:    5.8323516334
  - # 13
    frequency:    8.2897099908
  - # 14
    frequency:   10.0929307324
  - # 15
    frequency:   14.0494260991
  - # 16
    frequency:   14.0555003834
  - # 17
    frequency:   15.6265426321
  - # 18
    frequency:   17.2607712518
  - # 19
    frequency:   17.2901801159
  - # 20
    frequency:   31.9137467722
  - # 21
    frequency:   67.7683169570

- q-position: [    0.0404040,    0.0000000,    0.0000000 ]
  distance:    0.0136274
  band:
  - # 1
    frequency:   -0.7605096715
  - # 2
    frequency:   -0.5788278884
  - # 3
    frequency:   -0.1758170862
  - # 4
    frequency:    0.5632300187
  - # 5
    frequency:    0.7596825305
  - # 6
    frequency:    4.1706904913
  - # 7
    frequency:    4.2131467699
  - # 8
    frequency:    5.2636799367
  - # 9
    frequency:    5.2712936660
  - # 10
    frequency:    5.5337213434
  - # 11
    frequency:    5.7558341600
  - # 12
    frequency:    5.8528580008
  - # 13
    frequency:    8.2874459463
  - # 14
    frequency:   10.0792788552
  - # 15
    frequency:   14.0505281381
  - # 16
    frequency:   14.0584367354
  - # 17
    frequency:   15.6257197819
  - # 18
    frequency:   17.2689099539
  - # 19
    frequency:   17.3069044983
  - # 20
    frequency:   31.9056562092
  - # 21
    frequency:   67.7645663537

- q-position: [    0.0454545,    0.0000000,    0.0000000 ]
  distance:    0.0153308
  band:
  - # 1
    frequency:   -0.7465585602
  - # 2
    frequency:   -0.5042389432
  - # 3
    frequency:   -0.1704917579
  - # 4
    frequency:    0.6339745185
  - # 5
    frequency:    0.8565453588
  - # 6
    frequency:    4.1785821165
  - # 7
    frequency:    4.2315913179
  - # 8
    frequency:    5.2822451315
  - # 9
    frequency:    5.2913951587
  - # 10
    frequency:    5.5267620536
  - # 11
    frequency:    5.7574349072
  - # 12
    frequency:    5.8746471702
  - # 13
    frequency:    8.2848797930
  - # 14
    frequency:   10.0638828604
  - # 15
    frequency:   14.0517642813
  - # 16
    frequency:   14.0617377286
  - # 17
    frequency:   15.6247575920
  - # 18
    frequency:   17.2778915818
  - # 19
    frequency:   17.3253861992
  - # 20
    frequency:   31.8965755739
  - # 21
    frequency:   67.7603489226

- q-position: [    0.0505051,    0.0000000,    0.0000000 ]
  distance:    0.0170342
  band:
  - # 1
    frequency:   -0.7310025928
  - # 2
    frequency:   -0.4134793523
  - # 3
    frequency:   -0.1357061801
  - # 4
    frequency:    0.7046547519
  - # 5
    frequency:    0.9539991404
  - # 6
    frequency:    4.1871977884
  - # 7
    frequency:    4.2516819545
  - # 8
    frequency:    5.3023952840
  - # 9
    frequency:    5.3128931915
  - # 10
    frequency:    5.5206104034
  - # 11
    frequency:    5.7592567860
  - # 12
    frequency:    5.8975655789
  - # 13
    frequency:    8.2820121432
  - # 14
    frequency:   10.0467695625
  - # 15
    frequency:   14.0531298014
  - # 16
    frequency:   14.0653935402
  - # 17
    frequency:   15.6236465081
  - # 18
    frequency:   17.2876310166
  - # 19
    frequency:   17.3454583331
  - # 20
    frequency:   31.8865370343
  - # 21
    frequency:   67.7556767520

- q-position: [    0.0555556,    0.0000000,    0.0000000 ]
  distance:    0.0187376
  band:
  - # 1
    frequency:   -0.7137853269
  - # 2
    frequency:   -0.3168965781
  - # 3
    frequency:    0.1297747016
  - # 4
    frequency:    0.7752060631
  - # 5
    frequency:    1.0519976370
  - # 6
    frequency:    4.1964743501
  - # 7
    frequency:    4.2732735825
  - # 8
    frequency:    5.3239359220
  - # 9
    frequency:    5.3353106443
  - # 10
    frequency:    5.5156358854
  - # 11
    frequency:    5.7613234593
  - # 12
    frequency:    5.9214847420
  - # 13
    frequency:    8.2788440702
  - # 14
    frequency:   10.0279680222
  - # 15
    frequency:   14.0546194707
  - # 16
    frequency:   14.0693933406
  - # 17
    frequency:   15.6223766288
  - # 18
    frequency:   17.2980363484
  - # 19
    frequency:   17.3669402224
  - # 20
    frequency:   31.8755759191
  - # 21
    frequency:   67.7505631334

- q-position: [    0.0606061,    0.0000000,    0.0000000 ]
  distance:    0.0204410
  band:
  - # 1
    frequency:   -0.6948240506
  - # 2
    frequency:   -0.2489093933
  - # 3
    frequency:    0.3107907007
  - # 4
    frequency:    0.8455632770
  - # 5
    frequency:    1.1504926571
  - # 6
    frequency:    4.2063444860
  - # 7
    frequency:    4.2962184780
  - # 8
    frequency:    5.3466526476
  - # 9
    frequency:    5.3579350195
  - # 10
    frequency:    5.5124136246
  - # 11
    frequency:    5.7636691334
  - # 12
    frequency:    5.9462917900
  - # 13
    frequency:    8.2753772204
  - # 14
    frequency:   10.0075093210
  - # 15
    frequency:   14.0562275823
  - # 16
    frequency:   14.0737253432
  - # 17
    frequency:   15.6209378790
  - # 18
    frequency:   17.3090098455
  - # 19
    frequency:   17.3896391580
  - # 20
    frequency:   31.8637305200
  - # 21
    frequency:   67.7450224924

- q-position: [    0.0656566,    0.0000000,    0.0000000 ]
  distance:    0.0221444
  band:
  - # 1
    frequency:   -0.6740067566
  - # 2
    frequency:   -0.1982773186
  - # 3
    frequency:    0.4529267976
  - # 4
    frequency:    0.9156623688
  - # 5
    frequency:    1.2494350903
  - # 6
    frequency:    4.2167373825
  - # 7
    frequency:    4.3203685038
  - # 8
    frequency:    5.3703097344
  - # 9
    frequency:    5.3796495820
  - # 10
    frequency:    5.5119022343
  - # 11
    frequency:    5.7663420073
  - # 12
    frequency:    5.9718829804
  - # 13
    frequency:    8.2716139274
  - # 14
    frequency:    9.9854263456
  - # 15
    frequency:   14.0579479770
  - # 16
    frequency:   14.0783768590
  - # 17
    frequency:   15.6193201702
  - # 18
    frequency:   17.3204489759
  - # 19
    frequency:   17.4133522495
  - # 20
    frequency:   31.8510418784
  - # 21
    frequency:   67.7390703143

- q-position: [    0.0707071,    0.0000000,    0.0000000 ]
  distance:    0.0238479
  band:
  - # 1
    frequency:   -0.6511871355
  - # 2
    frequency:   -0.1318781302
  - # 3
    frequency:    0.5726516062
  - # 4
    frequency:    0.9854414189
  - # 5
    frequency:    1.3487752641
  - # 6
    frequency:    4.2275794115
  - # 7
    frequency:    4.3455770643
  - # 8
    frequency:    5.3946478985
  - # 9
    frequency:    5.3987674716
  - # 10
    frequency:    5.5156166116
  - # 11
    frequency:    5.7694085440
  - # 12
    frequency:    5.9981592852
  - # 13
    frequency:    8.2675573270
  - # 14
    frequency:    9.9617535884
  - # 15
    frequency:   14.0597740721
  - # 16
    frequency:   14.0833343562
  - # 17
    frequency:   15.6175135475
  - # 18
    frequency:   17.3322474680
  - # 19
    frequency:   17.4378683411
  - # 20
    frequency:   31.8375535581
  - # 21
    frequency:   67.7327230649

- q-position: [    0.0757576,    0.0000000,    0.0000000 ]
  distance:    0.0255513
  band:
  - # 1
    frequency:   -0.6261764102
  - # 2
    frequency:    0.0922764908
  - # 3
    frequency:    0.6787852971
  - # 4
    frequency:    1.0548410624
  - # 5
    frequency:    1.4484626630
  - # 6
    frequency:    4.2387948293
  - # 7
    frequency:    4.3717007874
  - # 8
    frequency:    5.4133038317
  - # 9
    frequency:    5.4193812182
  - # 10
    frequency:    5.5253612372
  - # 11
    frequency:    5.7729585598
  - # 12
    frequency:    6.0250234086
  - # 13
    frequency:    8.2632114691
  - # 14
    frequency:    9.9365269667
  - # 15
    frequency:   14.0616988957
  - # 16
    frequency:   14.0885835246
  - # 17
    frequency:   15.6155083214
  - # 18
    frequency:   17.3442963983
  - # 19
    frequency:   17.4629699665
  - # 20
    frequency:   31.8233114053
  - # 21
    frequency:   67.7259981080

- q-position: [    0.0808081,    0.0000000,    0.0000000 ]
  distance:    0.0272547
  band:
  - # 1
    frequency:   -0.5987302558
  - # 2
    frequency:    0.2006524206
  - # 3
    frequency:    0.7760146915
  - # 4
    frequency:    1.1238046280
  - # 5
    frequency:    1.5484452067
  - # 6
    frequency:    4.2503064829
  - # 7
    frequency:    4.3986009304
  - # 8
    frequency:    5.4222026619
  - # 9
    frequency:    5.4441934486
  - # 10
    frequency:    5.5420076859
  - # 11
    frequency:    5.7771108610
  - # 12
    frequency:    6.0523778008
  - # 13
    frequency:    8.2585814231
  - # 14
    frequency:    9.9097836680
  - # 15
    frequency:   14.0637151246
  - # 16
    frequency:   14.0941093449
  - # 17
    frequency:   15.6132951854
  - # 18
    frequency:   17.3564852953
  - # 19
    frequency:   17.4884353205
  - # 20
    frequency:   31.8083632980
  - # 21
    frequency:   67.7189136181

- q-position: [    0.0858586,    0.0000000,    0.0000000 ]
  distance:    0.0289581
  band:
  - # 1
    frequency:   -0.5685278067
  - # 2
    frequency:    0.2808915968
  - # 3
    frequency:    0.8669591664
  - # 4
    frequency:    1.1922781120
  - # 5
    frequency:    1.6486682934
  - # 6
    frequency:    4.2620365160
  - # 7
    frequency:    4.4261445220
  - # 8
    frequency:    5.4262349736
  - # 9
    frequency:    5.4687345514
  - # 10
    frequency:    5.5646000396
  - # 11
    frequency:    5.7820185872
  - # 12
    frequency:    6.0801233789
  - # 13
    frequency:    8.2536733760
  - # 14
    frequency:    9.8815620206
  - # 15
    frequency:   14.0658151260
  - # 16
    frequency:   14.0998961633
  - # 17
    frequency:   15.6108653197
  - # 18
    frequency:   17.3687032460
  - # 19
    frequency:   17.5140402221
  - # 20
    frequency:   31.7927588856
  - # 21
    frequency:   67.7114884911

- q-position: [    0.0909091,    0.0000000,    0.0000000 ]
  distance:    0.0306615
  band:
  - # 1
    frequency:   -0.5351371562
  - # 2
    frequency:    0.3537993938
  - # 3
    frequency:    0.9532007779
  - # 4
    frequency:    1.2602100889
  - # 5
    frequency:    1.7490737732
  - # 6
    frequency:    4.2739070672
  - # 7
    frequency:    4.4542052566
  - # 8
    frequency:    5.4270444145
  - # 9
    frequency:    5.4926193051
  - # 10
    frequency:    5.5913122106
  - # 11
    frequency:    5.7878723806
  - # 12
    frequency:    6.1081587683
  - # 13
    frequency:    8.2484947164
  - # 14
    frequency:    9.8519013958
  - # 15
    frequency:   14.0679910039
  - # 16
    frequency:   14.1059277692
  - # 17
    frequency:   15.6082104826
  - # 18
    frequency:   17.3808399959
  - # 19
    frequency:   17.5395600505
  - # 20
    frequency:   31.7765493225
  - # 21
    frequency:   67.7037422527

- q-position: [    0.0959596,    0.0000000,    0.0000000 ]
  distance:    0.0323650
  band:
  - # 1
    frequency:   -0.4979560334
  - # 2
    frequency:    0.4238675539
  - # 3
    frequency:    1.0357585320
  - # 4
    frequency:    1.3275516202
  - # 5
    frequency:    1.8495989582
  - # 6
    frequency:    4.2858409566
  - # 7
    frequency:    4.4826641648
  - # 8
    frequency:    5.4259920575
  - # 9
    frequency:    5.5154314124
  - # 10
    frequency:    5.6206055968
  - # 11
    frequency:    5.7948979503
  - # 12
    frequency:    6.1363799423
  - # 13
    frequency:    8.2430541041
  - # 14
    frequency:    9.8208421397
  - # 15
    frequency:   14.0702346485
  - # 16
    frequency:   14.1121874785
  - # 17
    frequency:   15.6053230906
  - # 18
    frequency:   17.3927870301
  - # 19
    frequency:   17.5647716319
  - # 20
    frequency:   31.7597869941
  - # 21
    frequency:   67.6956949646

- q-position: [    0.1010101,    0.0000000,    0.0000000 ]
  distance:    0.0340684
  band:
  - # 1
    frequency:   -0.4561026132
  - # 2
    frequency:    0.4927884891
  - # 3
    frequency:    1.1153222024
  - # 4
    frequency:    1.3942561919
  - # 5
    frequency:    1.9501757299
  - # 6
    frequency:    4.2977623548
  - # 7
    frequency:    4.5114100871
  - # 8
    frequency:    5.4239227980
  - # 9
    frequency:    5.5367380937
  - # 10
    frequency:    5.6514646966
  - # 11
    frequency:    5.8033430335
  - # 12
    frequency:    6.1646801832
  - # 13
    frequency:    8.2373615185
  - # 14
    frequency:    9.7884255380
  - # 15
    frequency:   14.0725377892
  - # 16
    frequency:   14.1186582203
  - # 17
    frequency:   15.6021962884
  - # 18
    frequency:   17.4044386271
  - # 19
    frequency:   17.5894550630
  - # 20
    frequency:   31.7425252412
  - # 21
    frequency:   67.6873671300

- q-position: [    0.1060606,    0.0000000,    0.0000000 ]
  distance:    0.0357718
  band:
  - # 1
    frequency:   -0.4081939812
  - # 2
    frequency:    0.5613280779
  - # 3
    frequency:    1.1923769417
  - # 4
    frequency:    1.4602796943
  - # 5
    frequency:    2.0507297689
  - # 6
    frequency:    4.3095974305
  - # 7
    frequency:    4.5403399760
  - # 8
    frequency:    5.4213207514
  - # 9
    frequency:    5.5561200670
  - # 10
    frequency:    5.6832433471
  - # 11
    frequency:    5.8134488459
  - # 12
    frequency:    6.1929503115
  - # 13
    frequency:    8.2314282850
  - # 14
    frequency:    9.7546938132
  - # 15
    frequency:   14.0748920514
  - # 16
    frequency:   14.1253226267
  - # 17
    frequency:   15.5988240113
  - # 18
    frequency:   17.4156928752
  - # 19
    frequency:   17.6133954533
  - # 20
    frequency:   31.7248180807
  - # 21
    frequency:   67.6787795993

- q-position: [    0.1111111,    0.0000000,    0.0000000 ]
  distance:    0.0374752
  band:
  - # 1
    frequency:   -0.3518277708
  - # 2
    frequency:    0.6298569060
  - # 3
    frequency:    1.2672743515
  - # 4
    frequency:    1.5255804449
  - # 5
    frequency:    2.1511799103
  - # 6
    frequency:    4.3212749754
  - # 7
    frequency:    4.5693590573
  - # 8
    frequency:    5.4184637212
  - # 9
    frequency:    5.5732173045
  - # 10
    frequency:    5.7155115501
  - # 11
    frequency:    5.8254056254
  - # 12
    frequency:    6.2210791494
  - # 13
    frequency:    8.2252670724
  - # 14
    frequency:    9.7196901531
  - # 15
    frequency:   14.0772890147
  - # 16
    frequency:   14.1321631260
  - # 17
    frequency:   15.5952010397
  - # 18
    frequency:   17.4264526435
  - # 19
    frequency:   17.6363845765
  - # 20
    frequency:   31.7067199280
  - # 21
    frequency:   67.6699534746

- q-position: [    0.1161616,    0.0000000,    0.0000000 ]
  distance:    0.0391786
  band:
  - # 1
    frequency:   -0.2820588495
  - # 2
    frequency:    0.6985514539
  - # 3
    frequency:    1.3402753668
  - # 4
    frequency:    1.5901192492
  - # 5
    frequency:    2.2514376145
  - # 6
    frequency:    4.3327270031
  - # 7
    frequency:    4.5983808742
  - # 8
    frequency:    5.4155160230
  - # 9
    frequency:    5.5877808484
  - # 10
    frequency:    5.7479636345
  - # 11
    frequency:    5.8393019825
  - # 12
    frequency:    6.2489541917
  - # 13
    frequency:    8.2188918587
  - # 14
    frequency:    9.6834587716
  - # 15
    frequency:   14.0797202745
  - # 16
    frequency:   14.1391620389
  - # 17
    frequency:   15.5913230471
  - # 18
    frequency:   17.4366264993
  - # 19
    frequency:   17.6582224184
  - # 20
    frequency:   31.6882853195
  - # 21
    frequency:   67.6609100171

- q-position: [    0.1212121,    0.0000000,    0.0000000 ]
  distance:    0.0408821
  band:
  - # 1
    frequency:   -0.1843733069
  - # 2
    frequency:    0.7674843700
  - # 3
    frequency:    1.4115773706
  - # 4
    frequency:    1.6538594916
  - # 5
    frequency:    2.3514065379
  - # 6
    frequency:    4.3438893222
  - # 7
    frequency:    4.6273272440
  - # 8
    frequency:    5.4125789465
  - # 9
    frequency:    5.5997107129
  - # 10
    frequency:    5.7803684978
  - # 11
    frequency:    5.8550880308
  - # 12
    frequency:    6.2764624611
  - # 13
    frequency:    8.2123178610
  - # 14
    frequency:    9.6460450003
  - # 15
    frequency:   14.0821775037
  - # 16
    frequency:   14.1463016754
  - # 17
    frequency:   15.5871866426
  - # 18
    frequency:   17.4461295664
  - # 19
    frequency:   17.6787186143
  - # 20
    frequency:   31.6695686406
  - # 21
    frequency:   67.6516705539

- q-position: [    0.1262626,    0.0000000,    0.0000000 ]
  distance:    0.0425855
  band:
  - # 1
    frequency:    0.1133965963
  - # 2
    frequency:    0.8366698591
  - # 3
    frequency:    1.4813320209
  - # 4
    frequency:    1.7167672477
  - # 5
    frequency:    2.4509821827
  - # 6
    frequency:    4.3547020820
  - # 7
    frequency:    4.6561281503
  - # 8
    frequency:    5.4097181742
  - # 9
    frequency:    5.6090608438
  - # 10
    frequency:    5.8125426400
  - # 11
    frequency:    5.8725713202
  - # 12
    frequency:    6.3034915250
  - # 13
    frequency:    8.2055614244
  - # 14
    frequency:    9.6074954091
  - # 15
    frequency:   14.0846525166
  - # 16
    frequency:   14.1535644337
  - # 17
    frequency:   15.5827894083
  - # 18
    frequency:   17.4548843164
  - # 19
    frequency:   17.6976937675
  - # 20
    frequency:   31.6506238573
  - # 21
    frequency:   67.6422563881

- q-position: [    0.1313131,    0.0000000,    0.0000000 ]
  distance:    0.0442889
  band:
  - # 1
    frequency:    0.2468783857
  - # 2
    frequency:    0.9060884527
  - # 3
    frequency:    1.5496573606
  - # 4
    frequency:    1.7788114110
  - # 5
    frequency:    2.5500516059
  - # 6
    frequency:    4.3651102916
  - # 7
    frequency:    4.6847215962
  - # 8
    frequency:    5.4069791775
  - # 9
    frequency:    5.6160083881
  - # 10
    frequency:    5.8443349934
  - # 11
    frequency:    5.8914483247
  - # 12
    frequency:    6.3299306540
  - # 13
    frequency:    8.1986398666
  - # 14
    frequency:    9.5678579556
  - # 15
    frequency:   14.0871373321
  - # 16
    frequency:   14.1609328991
  - # 17
    frequency:   15.5781299315
  - # 18
    frequency:   17.4628212892
  - # 19
    frequency:   17.7149806454
  - # 20
    frequency:   31.6315042564
  - # 21
    frequency:   67.6326887111

- q-position: [    0.1363636,    0.0000000,    0.0000000 ]
  distance:    0.0459923
  band:
  - # 1
    frequency:    0.3320015712
  - # 2
    frequency:    0.9757013803
  - # 3
    frequency:    1.6166462799
  - # 4
    frequency:    1.8399638249
  - # 5
    frequency:    2.6484931683
  - # 6
    frequency:    4.3750643114
  - # 7
    frequency:    4.7130534424
  - # 8
    frequency:    5.4043962613
  - # 9
    frequency:    5.6208033141
  - # 10
    frequency:    5.8756179090
  - # 11
    frequency:    5.9113554415
  - # 12
    frequency:    6.3556720954
  - # 13
    frequency:    8.1915712738
  - # 14
    frequency:    9.5271821616
  - # 15
    frequency:   14.0896242363
  - # 16
    frequency:   14.1683899430
  - # 17
    frequency:   15.5732078327
  - # 18
    frequency:   17.4698797375
  - # 19
    frequency:   17.7304252473
  - # 20
    frequency:   31.6122621938
  - # 21
    frequency:   67.6229885178

- q-position: [    0.1414141,    0.0000000,    0.0000000 ]
  distance:    0.0476957
  band:
  - # 1
    frequency:    0.4007921085
  - # 2
    frequency:    1.0454593038
  - # 3
    frequency:    1.6823725738
  - # 4
    frequency:    1.9001994174
  - # 5
    frequency:    2.7461763030
  - # 6
    frequency:    4.3845203170
  - # 7
    frequency:    4.7410772513
  - # 8
    frequency:    5.4019981496
  - # 9
    frequency:    5.6237197789
  - # 10
    frequency:    5.9062814345
  - # 11
    frequency:    5.9319181063
  - # 12
    frequency:    6.3806124401
  - # 13
    frequency:    8.1843742438
  - # 14
    frequency:    9.4855193153
  - # 15
    frequency:   14.0921058445
  - # 16
    frequency:   14.1759188191
  - # 17
    frequency:   15.5680237891
  - # 18
    frequency:   17.4760081908
  - # 19
    frequency:   17.7438877431
  - # 20
    frequency:   31.5929488530
  - # 21
    frequency:   67.6131765256

- q-position: [    0.1464646,    0.0000000,    0.0000000 ]
  distance:    0.0493992
  band:
  - # 1
    frequency:    0.4605683983
  - # 2
    frequency:    1.1153078117
  - # 3
    frequency:    1.7468953707
  - # 4
    frequency:    1.9594963307
  - # 5
    frequency:    2.8429612894
  - # 6
    frequency:    4.3934407352
  - # 7
    frequency:    4.7687541584
  - # 8
    frequency:    5.3998116152
  - # 9
    frequency:    5.6250221977
  - # 10
    frequency:    5.9362294061
  - # 11
    frequency:    5.9527850705
  - # 12
    frequency:    6.4046540599
  - # 13
    frequency:    8.1770675749
  - # 14
    frequency:    9.4429226980
  - # 15
    frequency:   14.0945751604
  - # 16
    frequency:   14.1835032589
  - # 17
    frequency:   15.5625795540
  - # 18
    frequency:   17.4811649368
  - # 19
    frequency:   17.7552432787
  - # 20
    frequency:   31.5736140160
  - # 21
    frequency:   67.6032730967

- q-position: [    0.1515152,    0.0000000,    0.0000000 ]
  distance:    0.0511026
  band:
  - # 1
    frequency:    0.5144296089
  - # 2
    frequency:    1.1851909629
  - # 3
    frequency:    1.8102624335
  - # 4
    frequency:    2.0178360451
  - # 5
    frequency:    2.9386990175
  - # 6
    frequency:    4.4017946501
  - # 7
    frequency:    4.7960527881
  - # 8
    frequency:    5.3978639607
  - # 9
    frequency:    5.6249478382
  - # 10
    frequency:    5.9653765717
  - # 11
    frequency:    5.9736460212
  - # 12
    frequency:    6.4277065909
  - # 13
    frequency:    8.1696698951
  - # 14
    frequency:    9.3994478344
  - # 15
    frequency:   14.0970256326
  - # 16
    frequency:   14.1911275625
  - # 17
    frequency:   15.5568779727
  - # 18
    frequency:   17.4853184162
  - # 19
    frequency:   17.7643826486
  - # 20
    frequency:   31.5543058468
  - # 21