nqpoint: 300    
npath: 3      
segment_nqpoint:
- 100
- 100
- 100
labels:
- [ 'G', 'M' ]
- [ 'M', 'K' ]
- [ 'K', 'G' ]
reciprocal_lattice:
- [   0.28949784,   0.16714165,   0.00000000 ] # a*
- [   0.00000000,   0.33428331,   0.00000000 ] # b*
- [   0.00000000,   0.00000000,   0.04011513 ] # c*
natom: 6      
lattice:
- [     3.454257229660680,     0.000000000000000,     0.000000000000000 ] # a
- [    -1.727128614830340,     2.991474512092758,     0.000000000000000 ] # b
- [     0.000000000000000,     0.000000000000000,    24.928248747280684 ] # c
points:
- symbol: Br # 1
  coordinates: [  0.666666984744048,  0.333332985985145,  0.361036191962011 ]
  mass: 79.904000
- symbol: C # 2
  coordinates: [  0.333332985432215,  0.666666983183674,  0.590625076150089 ]
  mass: 12.010700
- symbol: N # 3
  coordinates: [  0.000000000000000,  0.000000000000000,  0.485590729600077 ]
  mass: 14.006700
- symbol: N # 4
  coordinates: [  0.333332985432215,  0.666666983183674,  0.638963808037989 ]
  mass: 14.006700
- symbol: Zr # 5
  coordinates: [  0.333332985432215,  0.666666983183674,  0.440016984283372 ]
  mass: 91.224000
- symbol: Zr # 6
  coordinates: [  0.666666984744048,  0.333332985985145,  0.531639613846315 ]
  mass: 91.224000

phonon:
- q-position: [    0.0000000,    0.0000000,    0.0000000 ]
  distance:    0.0000000
  band:
  - # 1
    frequency:   -2.1131626935
  - # 2
    frequency:   -2.1131626935
  - # 3
    frequency:   -0.0000030590
  - # 4
    frequency:   -0.0000003764
  - # 5
    frequency:    0.0000039857
  - # 6
    frequency:    2.9017182657
  - # 7
    frequency:    2.9017182657
  - # 8
    frequency:    4.6882955978
  - # 9
    frequency:    5.1202517561
  - # 10
    frequency:    5.1202517561
  - # 11
    frequency:    7.3319561739
  - # 12
    frequency:    7.3319561739
  - # 13
    frequency:    7.7055615774
  - # 14
    frequency:    8.9044377676
  - # 15
    frequency:   13.3945469571
  - # 16
    frequency:   14.9000825836
  - # 17
    frequency:   14.9000825836
  - # 18
    frequency:   60.3318981574

- q-position: [    0.0050505,    0.0000000,    0.0000000 ]
  distance:    0.0016883
  band:
  - # 1
    frequency:   -2.1132094024
  - # 2
    frequency:   -2.1126635747
  - # 3
    frequency:    0.0014992274
  - # 4
    frequency:    0.0596959067
  - # 5
    frequency:    0.0916751312
  - # 6
    frequency:    2.9022302697
  - # 7
    frequency:    2.9024321926
  - # 8
    frequency:    4.6876448433
  - # 9
    frequency:    5.1196550927
  - # 10
    frequency:    5.1203134774
  - # 11
    frequency:    7.3317852484
  - # 12
    frequency:    7.3318239363
  - # 13
    frequency:    7.7055610918
  - # 14
    frequency:    8.9037805866
  - # 15
    frequency:   13.3943363672
  - # 16
    frequency:   14.9001670976
  - # 17
    frequency:   14.9002735269
  - # 18
    frequency:   60.3318915259

- q-position: [    0.0101010,    0.0000000,    0.0000000 ]
  distance:    0.0033766
  band:
  - # 1
    frequency:   -2.1133525319
  - # 2
    frequency:   -2.1111842162
  - # 3
    frequency:    0.0059648033
  - # 4
    frequency:    0.1193885975
  - # 5
    frequency:    0.1834200229
  - # 6
    frequency:    2.9037641979
  - # 7
    frequency:    2.9045655159
  - # 8
    frequency:    4.6856938269
  - # 9
    frequency:    5.1178672659
  - # 10
    frequency:    5.1205093462
  - # 11
    frequency:    7.3312715071
  - # 12
    frequency:    7.3314240843
  - # 13
    frequency:    7.7055599035
  - # 14
    frequency:    8.9018108916
  - # 15
    frequency:   13.3937035830
  - # 16
    frequency:   14.9004199028
  - # 17
    frequency:   14.9008447829
  - # 18
    frequency:   60.3318715577

- q-position: [    0.0151515,    0.0000000,    0.0000000 ]
  distance:    0.0050649
  band:
  - # 1
    frequency:   -2.1136009984
  - # 2
    frequency:   -2.1087777730
  - # 3
    frequency:    0.0133833103
  - # 4
    frequency:    0.1790741515
  - # 5
    frequency:    0.2752977359
  - # 6
    frequency:    2.9063138122
  - # 7
    frequency:    2.9080931889
  - # 8
    frequency:    4.6824465747
  - # 9
    frequency:    5.1148947550
  - # 10
    frequency:    5.1208710001
  - # 11
    frequency:    7.3304120735
  - # 12
    frequency:    7.3307472340
  - # 13
    frequency:    7.7055588043
  - # 14
    frequency:    8.8985342438
  - # 15
    frequency:   13.3926455810
  - # 16
    frequency:   14.9008387834
  - # 17
    frequency:   14.9017916310
  - # 18
    frequency:   60.3318380307

- q-position: [    0.0202020,    0.0000000,    0.0000000 ]
  distance:    0.0067532
  band:
  - # 1
    frequency:   -2.1139693595
  - # 2
    frequency:   -2.1055300851
  - # 3
    frequency:    0.0237193826
  - # 4
    frequency:    0.2387472678
  - # 5
    frequency:    0.3673583210
  - # 6
    frequency:    2.9098687615
  - # 7
    frequency:    2.9129745356
  - # 8
    frequency:    4.6779107217
  - # 9
    frequency:    5.1107483213
  - # 10
    frequency:    5.1214496083
  - # 11
    frequency:    7.3292022100
  - # 12
    frequency:    7.3297778633
  - # 13
    frequency:    7.7055590655
  - # 14
    frequency:    8.8939599669
  - # 15
    frequency:   13.3911573881
  - # 16
    frequency:   14.9014200305
  - # 17
    frequency:   14.9031062127
  - # 18
    frequency:   60.3317905759

- q-position: [    0.0252525,    0.0000000,    0.0000000 ]
  distance:    0.0084415
  band:
  - # 1
    frequency:   -2.1144773730
  - # 2
    frequency:   -2.1015557006
  - # 3
    frequency:    0.0369249489
  - # 4
    frequency:    0.2984006501
  - # 5
    frequency:    0.4596332794
  - # 6
    frequency:    2.9144146503
  - # 7
    frequency:    2.9191548025
  - # 8
    frequency:    4.6720988041
  - # 9
    frequency:    5.1054429533
  - # 10
    frequency:    5.1223136282
  - # 11
    frequency:    7.3276354031
  - # 12
    frequency:    7.3284945012
  - # 13
    frequency:    7.7055623574
  - # 14
    frequency:    8.8881012267
  - # 15
    frequency:   13.3892321785
  - # 16
    frequency:   14.9021584203
  - # 17
    frequency:   14.9047775427
  - # 18
    frequency:   60.3317286771

- q-position: [    0.0303030,    0.0000000,    0.0000000 ]
  distance:    0.0101298
  band:
  - # 1
    frequency:   -2.1151494042
  - # 2
    frequency:   -2.0969926206
  - # 3
    frequency:    0.0529405866
  - # 4
    frequency:    0.3580244757
  - # 5
    frequency:    0.5521311432
  - # 6
    frequency:    2.9199331332
  - # 7
    frequency:    2.9265672292
  - # 8
    frequency:    4.6650298848
  - # 9
    frequency:    5.0989977925
  - # 10
    frequency:    5.1235458534
  - # 11
    frequency:    7.3257034794
  - # 12
    frequency:    7.3268700158
  - # 13
    frequency:    7.7055706229
  - # 14
    frequency:    8.8809751350
  - # 15
    frequency:   13.3868614049
  - # 16
    frequency:   14.9030471848
  - # 17
    frequency:   14.9067915272
  - # 18
    frequency:   60.3316516720

- q-position: [    0.0353535,    0.0000000,    0.0000000 ]
  distance:    0.0118181
  band:
  - # 1
    frequency:   -2.1160137072
  - # 2
    frequency:   -2.0919960874
  - # 3
    frequency:    0.0716971012
  - # 4
    frequency:    0.4176059721
  - # 5
    frequency:    0.6448344695
  - # 6
    frequency:    2.9264020370
  - # 7
    frequency:    2.9351355488
  - # 8
    frequency:    4.6567313438
  - # 9
    frequency:    5.0914360409
  - # 10
    frequency:    5.1252399346
  - # 11
    frequency:    7.3233967510
  - # 12
    frequency:    7.3248720208
  - # 13
    frequency:    7.7055858927
  - # 14
    frequency:    8.8726028710
  - # 15
    frequency:   13.3840349587
  - # 16
    frequency:   14.9040779796
  - # 17
    frequency:   14.9091309853
  - # 18
    frequency:   60.3315587535

- q-position: [    0.0404040,    0.0000000,    0.0000000 ]
  distance:    0.0135064
  band:
  - # 1
    frequency:   -2.1171016068
  - # 2
    frequency:   -2.0867318259
  - # 3
    frequency:    0.0931172432
  - # 4
    frequency:    0.4771291159
  - # 5
    frequency:    0.7376984451
  - # 6
    frequency:    2.9337955071
  - # 7
    frequency:    2.9447768101
  - # 8
    frequency:    4.6472406381
  - # 9
    frequency:    5.0827848538
  - # 10
    frequency:    5.1274965791
  - # 11
    frequency:    7.3207041882
  - # 12
    frequency:    7.3224634181
  - # 13
    frequency:    7.7056100347
  - # 14
    frequency:    8.8630098135
  - # 15
    frequency:   13.3807413559
  - # 16
    frequency:   14.9052408494
  - # 17
    frequency:   14.9117756768
  - # 18
    frequency:   60.3314489711

- q-position: [    0.0454545,    0.0000000,    0.0000000 ]
  distance:    0.0151947
  band:
  - # 1
    frequency:   -2.1184466164
  - # 2
    frequency:   -2.0813692019
  - # 3
    frequency:    0.1171174706
  - # 4
    frequency:    0.5365744652
  - # 5
    frequency:    0.8306511674
  - # 6
    frequency:    2.9420841784
  - # 7
    frequency:    2.9554044066
  - # 8
    frequency:    4.6366068351
  - # 9
    frequency:    5.0730752199
  - # 10
    frequency:    5.1304196528
  - # 11
    frequency:    7.3176136159
  - # 12
    frequency:    7.3196030913
  - # 13
    frequency:    7.7056444295
  - # 14
    frequency:    8.8522256729
  - # 15
    frequency:   13.3769679418
  - # 16
    frequency:   14.9065241963
  - # 17
    frequency:   14.9147023336
  - # 18
    frequency:   60.3313212329

- q-position: [    0.0505051,    0.0000000,    0.0000000 ]
  distance:    0.0168830
  band:
  - # 1
    frequency:   -2.1200835226
  - # 2
    frequency:   -2.0760747685
  - # 3
    frequency:    0.1436096621
  - # 4
    frequency:    0.5959191282
  - # 5
    frequency:    0.9235955118
  - # 6
    frequency:    2.9512353698
  - # 7
    frequency:    2.9669311916
  - # 8
    frequency:    4.6248917498
  - # 9
    frequency:    5.0623418323
  - # 10
    frequency:    5.1341123878
  - # 11
    frequency:    7.3141119306
  - # 12
    frequency:    7.3162467570
  - # 13
    frequency:    7.7056895745
  - # 14
    frequency:    8.8402846146
  - # 15
    frequency:   13.3727011077
  - # 16
    frequency:   14.9079147527
  - # 17
    frequency:   14.9178846971
  - # 18
    frequency:   60.3311743078

- q-position: [    0.0555556,    0.0000000,    0.0000000 ]
  distance:    0.0185713
  band:
  - # 1
    frequency:   -2.1220474729
  - # 2
    frequency:   -2.0710066167
  - # 3
    frequency:    0.1725027030
  - # 4
    frequency:    0.6551368650
  - # 5
    frequency:    1.0164123411
  - # 6
    frequency:    2.9612132998
  - # 7
    frequency:    2.9792725606
  - # 8
    frequency:    4.6121705575
  - # 9
    frequency:    5.0506229524
  - # 10
    frequency:    5.1386738710
  - # 11
    frequency:    7.3101853349
  - # 12
    frequency:    7.3123479695
  - # 13
    frequency:    7.7057446252
  - # 14
    frequency:    8.8272253644
  - # 15
    frequency:   13.3679265152
  - # 16
    frequency:   14.9093975626
  - # 17
    frequency:   14.9212935603
  - # 18
    frequency:   60.3310068288

- q-position: [    0.0606061,    0.0000000,    0.0000000 ]
  distance:    0.0202596
  band:
  - # 1
    frequency:   -2.1243730961
  - # 2
    frequency:   -2.0663098312
  - # 3
    frequency:    0.2037038747
  - # 4
    frequency:    0.7141983123
  - # 5
    frequency:    1.1089646907
  - # 6
    frequency:    2.9719793218
  - # 7
    frequency:    2.9923493848
  - # 8
    frequency:    4.5985318241
  - # 9
    frequency:    5.0379602706
  - # 10
    frequency:    5.1441959314
  - # 11
    frequency:    7.3058195851
  - # 12
    frequency:    7.3078592632
  - # 13
    frequency:    7.7058068944
  - # 14
    frequency:    8.8130912838
  - # 15
    frequency:   13.3626293210
  - # 16
    frequency:   14.9109559740
  - # 17
    frequency:   14.9248968149
  - # 18
    frequency:   60.3308172964

- q-position: [    0.0656566,    0.0000000,    0.0000000 ]
  distance:    0.0219479
  band:
  - # 1
    frequency:   -2.1270936852
  - # 2
    frequency:   -2.0621132086
  - # 3
    frequency:    0.2371200006
  - # 4
    frequency:    0.7730713160
  - # 5
    frequency:    1.2011024926
  - # 6
    frequency:    2.9834921775
  - # 7
    frequency:    3.0060906856
  - # 8
    frequency:    4.5840769617
  - # 9
    frequency:    5.0243987651
  - # 10
    frequency:    5.1507604912
  - # 11
    frequency:    7.3010002497
  - # 12
    frequency:    7.3027334034
  - # 13
    frequency:    7.7058713387
  - # 14
    frequency:    8.7979304092
  - # 15
    frequency:   13.3567943974
  - # 16
    frequency:   14.9125716459
  - # 17
    frequency:   14.9286595043
  - # 18
    frequency:   60.3306040830

- q-position: [    0.0707071,    0.0000000,    0.0000000 ]
  distance:    0.0236362
  band:
  - # 1
    frequency:   -2.1302404637
  - # 2
    frequency:   -2.0585272343
  - # 3
    frequency:    0.2726583177
  - # 4
    frequency:    0.8317213517
  - # 5
    frequency:    1.2926673976
  - # 6
    frequency:    2.9957082647
  - # 7
    frequency:    3.0204359520
  - # 8
    frequency:    4.5689191795
  - # 9
    frequency:    5.0099865621
  - # 10
    frequency:    5.1584373933
  - # 11
    frequency:    7.2957129746
  - # 12
    frequency:    7.2969247062
  - # 13
    frequency:    7.7059300704
  - # 14
    frequency:    8.7817954446
  - # 15
    frequency:   13.3504065429
  - # 16
    frequency:   14.9142245707
  - # 17
    frequency:   14.9325438826
  - # 18
    frequency:   60.3303654379

- q-position: [    0.0757576,    0.0000000,    0.0000000 ]
  distance:    0.0253245
  band:
  - # 1
    frequency:   -2.1338419541
  - # 2
    frequency:   -2.0556431820
  - # 3
    frequency:    0.3102270635
  - # 4
    frequency:    0.8901120113
  - # 5
    frequency:    1.3834973098
  - # 6
    frequency:    3.0085819184
  - # 7
    frequency:    3.0353370106
  - # 8
    frequency:    4.5531820463
  - # 9
    frequency:    4.9947747977
  - # 10
    frequency:    5.1672826787
  - # 11
    frequency:    7.2899437512
  - # 12
    frequency:    7.2903903781
  - # 13
    frequency:    7.7059719388
  - # 14
    frequency:    8.7647437007
  - # 15
    frequency:   13.3434506800
  - # 16
    frequency:   14.9158931150
  - # 17
    frequency:   14.9365094788
  - # 18
    frequency:   60.3300994931

- q-position: [    0.0808081,    0.0000000,    0.0000000 ]
  distance:    0.0270128
  band:
  - # 1
    frequency:   -2.1379234578
  - # 2
    frequency:   -2.0535331058
  - # 3
    frequency:    0.3497357871
  - # 4
    frequency:    0.9482055318
  - # 5
    frequency:    1.4734303451
  - # 6
    frequency:    3.0220657014
  - # 7
    frequency:    3.0507593796
  - # 8
    frequency:    4.5369978031
  - # 9
    frequency:    4.9788174838
  - # 10
    frequency:    5.1773372691
  - # 11
    frequency:    7.2830918254
  - # 12
    frequency:    7.2836791856
  - # 13
    frequency:    7.7059822248
  - # 14
    frequency:    8.7468369761
  - # 15
    frequency:   13.3359120371
  - # 16
    frequency:   14.9175540793
  - # 17
    frequency:   14.9405131690
  - # 18
    frequency:   60.3298042703

- q-position: [    0.0858586,    0.0000000,    0.0000000 ]
  distance:    0.0287011
  band:
  - # 1
    frequency:   -2.1425066511
  - # 2
    frequency:   -2.0522504597
  - # 3
    frequency:    0.3910954102
  - # 4
    frequency:    1.0059633444
  - # 5
    frequency:    1.5623080393
  - # 6
    frequency:    3.0361107022
  - # 7
    frequency:    3.0666830525
  - # 8
    frequency:    4.5205055643
  - # 9
    frequency:    4.9621713765
  - # 10
    frequency:    5.1886260035
  - # 11
    frequency:    7.2749958824
  - # 12
    frequency:    7.2769067651
  - # 13
    frequency:    7.7059424893
  - # 14
    frequency:    8.7281413746
  - # 15
    frequency:   13.3277763114
  - # 16
    frequency:   14.9191827775
  - # 17
    frequency:   14.9445092548
  - # 18
    frequency:   60.3294776885

- q-position: [    0.0909091,    0.0000000,    0.0000000 ]
  distance:    0.0303894
  band:
  - # 1
    frequency:   -2.1476092965
  - # 2
    frequency:   -2.0518310838
  - # 3
    frequency:    0.4342180773
  - # 4
    frequency:    1.0633466219
  - # 5
    frequency:    1.6499777387
  - # 6
    frequency:    3.0506668369
  - # 7
    frequency:    3.0831026858
  - # 8
    frequency:    4.5038495347
  - # 9
    frequency:    4.9448958489
  - # 10
    frequency:    5.2011569844
  - # 11
    frequency:    7.2660759166
  - # 12
    frequency:    7.2696151200
  - # 13
    frequency:    7.7058306053
  - # 14
    frequency:    8.7087270577
  - # 15
    frequency:   13.3190298138
  - # 16
    frequency:   14.9207531351
  - # 17
    frequency:   14.9484495502
  - # 18
    frequency:   60.3291175726

- q-position: [    0.0959596,    0.0000000,    0.0000000 ]
  distance:    0.0320777
  band:
  - # 1
    frequency:   -2.1532450622
  - # 2
    frequency:   -2.0522943430
  - # 3
    frequency:    0.4790168464
  - # 4
    frequency:    1.1203168078
  - # 5
    frequency:    1.7362941994
  - # 6
    frequency:    3.0656831528
  - # 7
    frequency:    3.1000271909
  - # 8
    frequency:    4.4871773348
  - # 9
    frequency:    4.9270527642
  - # 10
    frequency:    5.2149211993
  - # 11
    frequency:    7.2563127789
  - # 12
    frequency:    7.2617942773
  - # 13
    frequency:    7.7056209926
  - # 14
    frequency:    8.6886679304
  - # 15
    frequency:   13.3096595932
  - # 16
    frequency:   14.9222378075
  - # 17
    frequency:   14.9522834770
  - # 18
    frequency:   60.3287216636

- q-position: [    0.1010101,    0.0000000,    0.0000000 ]
  distance:    0.0337660
  band:
  - # 1
    frequency:   -2.1594234417
  - # 2
    frequency:   -2.0536442681
  - # 3
    frequency:    0.5254052790
  - # 4
    frequency:    1.1768361114
  - # 5
    frequency:    1.8211204772
  - # 6
    frequency:    3.0811081305
  - # 7
    frequency:    3.1174787601
  - # 8
    frequency:    4.4706385022
  - # 9
    frequency:    4.9087063490
  - # 10
    frequency:    5.2298923973
  - # 11
    frequency:    7.2456955802
  - # 12
    frequency:    7.2534359057
  - # 13
    frequency:    7.7052850581
  - # 14
    frequency:    8.6680412627
  - # 15
    frequency:   13.2996535436
  - # 16
    frequency:   14.9236083155
  - # 17
    frequency:   14.9559581692
  - # 18
    frequency:   60.3282876288

- q-position: [    0.1060606,    0.0000000,    0.0000000 ]
  distance:    0.0354543
  band:
  - # 1
    frequency:   -2.1661497594
  - # 2
    frequency:   -2.0558706132
  - # 3
    frequency:    0.5732969875
  - # 4
    frequency:    1.2328679588
  - # 5
    frequency:    1.9043282303
  - # 6
    frequency:    3.0968899839
  - # 7
    frequency:    3.1354913878
  - # 8
    frequency:    4.4543831954
  - # 9
    frequency:    4.8899230631
  - # 10
    frequency:    5.2460272048
  - # 11
    frequency:    7.2342222886
  - # 12
    frequency:    7.2445335486
  - # 13
    frequency:    7.7047918291
  - # 14
    frequency:    8.6469272498
  - # 15
    frequency:   13.2890004923
  - # 16
    frequency:   14.9248351979
  - # 17
    frequency:   14.9594185882
  - # 18
    frequency:   60.3278130739

- q-position: [    0.1111111,    0.0000000,    0.0000000 ]
  distance:    0.0371426
  band:
  - # 1
    frequency:   -2.1734252513
  - # 2
    frequency:   -2.0589498062
  - # 3
    frequency:    0.6226051978
  - # 4
    frequency:    1.2883773924
  - # 5
    frequency:    1.9857975678
  - # 6
    frequency:    3.1129769545
  - # 7
    frequency:    3.1541089744
  - # 8
    frequency:    4.4385611040
  - # 9
    frequency:    4.8707714619
  - # 10
    frequency:    5.2632654715
  - # 11
    frequency:    7.2219001522
  - # 12
    frequency:    7.2350828447
  - # 13
    frequency:    7.7041087562
  - # 14
    frequency:    8.6254085168
  - # 15
    frequency:   13.2776902733
  - # 16
    frequency:   14.9258881792
  - # 17
    frequency:   14.9626076484
  - # 18
    frequency:   60.3272955558

- q-position: [    0.1161616,    0.0000000,    0.0000000 ]
  distance:    0.0388309
  band:
  - # 1
    frequency:   -2.1812472047
  - # 2
    frequency:   -2.0628458121
  - # 3
    frequency:    0.6732423758
  - # 4
    frequency:    1.3433314156
  - # 5
    frequency:    2.0654165779
  - # 6
    frequency:    3.1293176010
  - # 7
    frequency:    3.1733831225
  - # 8
    frequency:    4.4233205355
  - # 9
    frequency:    4.8513220477
  - # 10
    frequency:    5.2815308340
  - # 11
    frequency:    7.2087459604
  - # 12
    frequency:    7.2250817329
  - # 13
    frequency:    7.7032026513
  - # 14
    frequency:    8.6035695746
  - # 15
    frequency:   13.2657137865
  - # 16
    frequency:   14.9267363509
  - # 17
    frequency:   14.9654663552
  - # 18
    frequency:   60.3267325963

- q-position: [    0.1212121,    0.0000000,    0.0000000 ]
  distance:    0.0405192
  band:
  - # 1
    frequency:   -2.1896091457
  - # 2
    frequency:   -2.0675109580
  - # 3
    frequency:    0.7251199559
  - # 4
    frequency:    1.3976992796
  - # 5
    frequency:    2.1430806606
  - # 6
    frequency:    3.1458610832
  - # 7
    frequency:    3.1933707473
  - # 8
    frequency:    4.4088076364
  - # 9
    frequency:    4.8316471038
  - # 10
    frequency:    5.3007314831
  - # 11
    frequency:    7.1947861600
  - # 12
    frequency:    7.2145306424
  - # 13
    frequency:    7.7020407194
  - # 14
    frequency:    8.5814962389
  - # 15
    frequency:   13.2530630454
  - # 16
    frequency:   14.9273483644
  - # 17
    frequency:   14.9679339551
  - # 18
    frequency:   60.3261216969

- q-position: [    0.1262626,    0.0000000,    0.0000000 ]
  distance:    0.0422075
  band:
  - # 1
    frequency:   -2.1985010611
  - # 2
    frequency:   -2.0728867783
  - # 3
    frequency:    0.7781481957
  - # 4
    frequency:    1.4514527154
  - # 5
    frequency:    2.2186917826
  - # 6
    frequency:    3.1625574409
  - # 7
    frequency:    3.2141316253
  - # 8
    frequency:    4.3951656841
  - # 9
    frequency:    4.8118205074
  - # 10
    frequency:    5.3207611191
  - # 11
    frequency:    7.1800568411
  - # 12
    frequency:    7.2034326647
  - # 13
    frequency:    7.7005916438
  - # 14
    frequency:    8.5592750218
  - # 15
    frequency:   13.2397312144
  - # 16
    frequency:   14.9276926344
  - # 17
    frequency:   14.9699480997
  - # 18
    frequency:   60.3254603544

- q-position: [    0.1313131,    0.0000000,    0.0000000 ]
  distance:    0.0438958
  band:
  - # 1
    frequency:   -2.2079096454
  - # 2
    frequency:   -2.0789049359
  - # 3
    frequency:    0.8322361668
  - # 4
    frequency:    1.5045661092
  - # 5
    frequency:    2.2921577617
  - # 6
    frequency:    3.1793578696
  - # 7
    frequency:    3.2357259933
  - # 8
    frequency:    4.3825343832
  - # 9
    frequency:    4.7919175137
  - # 10
    frequency:    5.3415000731
  - # 11
    frequency:    7.1646036051
  - # 12
    frequency:    7.1917937075
  - # 13
    frequency:    7.6988266810
  - # 14
    frequency:    8.5369925122
  - # 15
    frequency:   13.2257126384
  - # 16
    frequency:   14.9277375503
  - # 17
    frequency:   14.9714450232
  - # 18
    frequency:   60.3247460773

- q-position: [    0.1363636,    0.0000000,    0.0000000 ]
  distance:    0.0455841
  band:
  - # 1
    frequency:   -2.2178185625
  - # 2
    frequency:   -2.0854882615
  - # 3
    frequency:    0.8872918797
  - # 4
    frequency:    1.5570166268
  - # 5
    frequency:    2.3633916888
  - # 6
    frequency:    3.1962149969
  - # 7
    frequency:    3.2582122877
  - # 8
    frequency:    4.3710490928
  - # 9
    frequency:    4.7720145074
  - # 10
    frequency:    5.3628165783
  - # 11
    frequency:    7.1484813176
  - # 12
    frequency:    7.1796226289
  - # 13
    frequency:    7.6967207260
  - # 14
    frequency:    8.5147347585
  - # 15
    frequency:   13.2110028655
  - # 16
    frequency:   14.9274516957
  - # 17
    frequency:   14.9723597346
  - # 18
    frequency:   60.3239764028

- q-position: [    0.1414141,    0.0000000,    0.0000000 ]
  distance:    0.0472724
  band:
  - # 1
    frequency:   -2.2282087164
  - # 2
    frequency:   -2.0925519330
  - # 3
    frequency:    0.9432225291
  - # 4
    frequency:    1.6087842852
  - # 5
    frequency:    2.4323115937
  - # 6
    frequency:    3.2130831610
  - # 7
    frequency:    3.2816450767
  - # 8
    frequency:    4.3608399172
  - # 9
    frequency:    4.7521887142
  - # 10
    frequency:    5.3845681758
  - # 11
    frequency:    7.1317537457
  - # 12
    frequency:    7.1669313510
  - # 13
    frequency:    7.6942533132
  - # 14
    frequency:    8.4925866742
  - # 15
    frequency:   13.1955986639
  - # 16
    frequency:   14.9268040720
  - # 17
    frequency:   14.9726262253
  - # 18
    frequency:   60.3231489145

- q-position: [    0.1464646,    0.0000000,    0.0000000 ]
  distance:    0.0489607
  band:
  - # 1
    frequency:   -2.2390585239
  - # 2
    frequency:   -2.1000047954
  - # 3
    frequency:    0.9999348378
  - # 4
    frequency:    1.6598519770
  - # 5
    frequency:    2.4988404660
  - # 6
    frequency:    3.2299186982
  - # 7
    frequency:    3.3060731991
  - # 8
    frequency:    4.3520305981
  - # 9
    frequency:    4.7325178693
  - # 10
    frequency:    5.4066032468
  - # 11
    frequency:    7.1144930655
  - # 12
    frequency:    7.1537349514
  - # 13
    frequency:    7.6914095178
  - # 14
    frequency:    8.4706314814
  - # 15
    frequency:   13.1794980342
  - # 16
    frequency:   14.9257643287
  - # 17
    frequency:   14.9721776917
  - # 18
    frequency:   60.3222612605

- q-position: [    0.1515152,    0.0000000,    0.0000000 ]
  distance:    0.0506490
  band:
  - # 1
    frequency:   -2.2503441870
  - # 2
    frequency:   -2.1077508003
  - # 3
    frequency:    1.0573354762
  - # 4
    frequency:    1.7102054435
  - # 5
    frequency:    2.5629067403
  - # 6
    frequency:    3.2466802419
  - # 7
    frequency:    3.3315380748
  - # 8
    frequency:    4.3447371659
  - # 9
    frequency:    4.7130798362
  - # 10
    frequency:    5.4287626753
  - # 11
    frequency:    7.0967792221
  - # 12
    frequency:    7.1400517320
  - # 13
    frequency:    7.6881807290
  - # 14
    frequency:    8.4489502144
  - # 15
    frequency:   13.1627002167
  - # 16
    frequency:   14.9243029949
  - # 17
    frequency:   14.9709467731
  - # 18
    frequency:   60.3213111716

- q-position: [    0.1565657,    0.0000000,    0.0000000 ]
  distance:    0.0523373
  band:
  - # 1
    frequency:   -2.2620399612
  - # 2
    frequency:   -2.1156905320
  - # 3
    frequency:    1.1153315306
  - # 4
    frequency:    1.7598332004
  - # 5
    frequency:    2.6244453464
  - # 6
    frequency:    3.2633290403
  - # 7
    frequency:    3.3580721185
  - # 8
    frequency:    4.3390663251
  - # 9
    frequency:    4.6939521763
  - # 10
    frequency:    5.4508816527
  - # 11
    frequency:    7.0786991158
  - # 12
    frequency:    7.1259032631
  - # 13
    frequency:    7.6845652649
  - # 14
    frequency:    8.4276213012
  - # 15
    frequency:   13.1452056940
  - # 16
    frequency:   14.9223917154
  - # 17
    frequency:   14.9688658050
  - # 18
    frequency:   60.3202964803

- q-position: [    0.1616162,    0.0000000,    0.0000000 ]
  distance:    0.0540256
  band:
  - # 1
    frequency:   -2.2741184191
  - # 2
    frequency:   -2.1237227717
  - # 3
    frequency:    1.1738309977
  - # 4
    frequency:    1.8087264121
  - # 5
    frequency:    2.6833993923
  - # 6
    frequency:    3.2798292966
  - # 7
    frequency:    3.3856971659
  - # 8
    frequency:    4.3351135821
  - # 9
    frequency:    4.6752116657
  - # 10
    frequency:    5.4727916492
  - # 11
    frequency:    7.0603455840
  - # 12
    frequency:    7.1113144030
  - # 13
    frequency:    7.6805688042
  - # 14
    frequency:    8.4067202411
  - # 15
    frequency:   13.1270161885
  - # 16
    frequency:   14.9200034868
  - # 17
    frequency:   14.9658670877
  - # 18
    frequency:   60.3192151388

- q-position: [    0.1666667,    0.0000000,    0.0000000 ]
  distance:    0.0557139
  band:
  - # 1
    frequency:   -2.2865507083
  - # 2
    frequency:   -2.1317460535
  - # 3
    frequency:    1.2327432860
  - # 4
    frequency:    1.8568787127
  - # 5
    frequency:    2.7397224886
  - # 6
    frequency:    3.2961485356
  - # 7
    frequency:    3.4144228336
  - # 8
    frequency:    4.3329611561
  - # 9
    frequency:    4.6569337637
  - # 10
    frequency:    5.4943225852
  - # 11
    frequency:    7.0418161491
  - # 12
    frequency:    7.0963132895
  - # 13
    frequency:    7.6762046063
  - # 14
    frequency:    8.3863193932
  - # 15
    frequency:   13.1081346542
  - # 16
    frequency:   14.9171128953
  - # 17
    frequency:   14.9618831695
  - # 18
    frequency:   60.3180652378

- q-position: [    0.1717172,    0.0000000,    0.0000000 ]
  distance:    0.0574022
  band:
  - # 1
    frequency:   -2.2993068054
  - # 2
    frequency:   -2.1396601612
  - # 3
    frequency:    1.2919797082
  - # 4
    frequency:    1.9042859728
  - # 5
    frequency:    2.7933816240
  - # 6
    frequency:    3.3122579990
  - # 7
    frequency:    3.4442447759
  - # 8
    frequency:    4.3326757556
  - # 9
    frequency:    4.6391920359
  - # 10
    frequency:    5.5153052404
  - # 11
    frequency:    7.0232115019
  - # 12
    frequency:    7.0809313048
  - # 13
    frequency:    7.6714934971
  - # 14
    frequency:    8.3664878878
  - # 15
    frequency:   13.0885652624
  - # 16
    frequency:   14.9136963535
  - # 17
    frequency:   14.9568471437
  - # 18
    frequency:   60.3168450242

- q-position: [    0.1767677,    0.0000000,    0.0000000 ]
  distance:    0.0590905
  band:
  - # 1
    frequency:   -2.3123557657
  - # 2
    frequency:   -2.1473675269
  - # 3
    frequency:    1.3514539556
  - # 4
    frequency:    1.9509460064
  - # 5
    frequency:    2.8443603778
  - # 6
    frequency:    3.3281330703
  - # 7
    frequency:    3.4751428914
  - # 8
    frequency:    4.3343063426
  - # 9
    frequency:    4.6220575413
  - # 10
    frequency:    5.5355739380
  - # 11
    frequency:    7.0046337031
  - # 12
    frequency:    7.0652030101
  - # 13
    frequency:    7.6664635993
  - # 14