nqpoint: 300    
npath: 3      
segment_nqpoint:
- 100
- 100
- 100
labels:
- [ 'G', 'M' ]
- [ 'M', 'K' ]
- [ 'K', 'G' ]
reciprocal_lattice:
- [   0.27922322,   0.16120960,   0.00000000 ] # a*
- [   0.00000000,   0.32241920,   0.00000000 ] # b*
- [   0.00000000,   0.00000000,   0.04123516 ] # c*
natom: 6      
lattice:
- [     3.581364105144877,     0.000000000000000,     0.000000000000000 ] # a
- [    -1.790682052572438,     3.101552295261439,     0.000000000000000 ] # b
- [     0.000000000000000,     0.000000000000000,    24.251149081263254 ] # c
points:
- symbol: N # 1
  coordinates: [  0.000000000000000,  0.000000000000000,  0.471349038511664 ]
  mass: 14.006700
- symbol: N # 2
  coordinates: [  0.333332985432215,  0.666666983183674,  0.575818585153739 ]
  mass: 14.006700
- symbol: O # 3
  coordinates: [  0.333332985432215,  0.666666983183674,  0.628883564657416 ]
  mass: 15.999400
- symbol: O # 4
  coordinates: [  0.666666984744047,  0.333332985985145,  0.371116435342584 ]
  mass: 15.999400
- symbol: Y # 5
  coordinates: [  0.333332985432215,  0.666666983183674,  0.399847087364215 ]
  mass: 88.905850
- symbol: Y # 6
  coordinates: [  0.666666984744047,  0.333332985985145,  0.516950699742404 ]
  mass: 88.905850

phonon:
- q-position: [    0.0000000,    0.0000000,    0.0000000 ]
  distance:    0.0000000
  band:
  - # 1
    frequency:   -0.0000117745
  - # 2
    frequency:    0.0000002066
  - # 3
    frequency:    0.0000113816
  - # 4
    frequency:    2.3722351278
  - # 5
    frequency:    2.3722351278
  - # 6
    frequency:    4.3417273007
  - # 7
    frequency:    4.3417273007
  - # 8
    frequency:    4.6668757236
  - # 9
    frequency:    6.6084481458
  - # 10
    frequency:    7.9544897060
  - # 11
    frequency:    7.9544897060
  - # 12
    frequency:   10.3336402444
  - # 13
    frequency:   10.3336402444
  - # 14
    frequency:   12.2974713074
  - # 15
    frequency:   13.0600078969
  - # 16
    frequency:   13.0600078969
  - # 17
    frequency:   14.5530959853
  - # 18
    frequency:   44.9869094226

- q-position: [    0.0050505,    0.0000000,    0.0000000 ]
  distance:    0.0016284
  band:
  - # 1
    frequency:    0.0012144722
  - # 2
    frequency:    0.0330709370
  - # 3
    frequency:    0.0883871410
  - # 4
    frequency:    2.3725882239
  - # 5
    frequency:    2.3742331013
  - # 6
    frequency:    4.3409778831
  - # 7
    frequency:    4.3415166573
  - # 8
    frequency:    4.6674323627
  - # 9
    frequency:    6.6051271552
  - # 10
    frequency:    7.9541365401
  - # 11
    frequency:    7.9555668224
  - # 12
    frequency:   10.3335184862
  - # 13
    frequency:   10.3361304286
  - # 14
    frequency:   12.2953371801
  - # 15
    frequency:   13.0588025753
  - # 16
    frequency:   13.0596929156
  - # 17
    frequency:   14.5555679658
  - # 18
    frequency:   44.9860335135

- q-position: [    0.0101010,    0.0000000,    0.0000000 ]
  distance:    0.0032568
  band:
  - # 1
    frequency:    0.0048558136
  - # 2
    frequency:    0.0662069398
  - # 3
    frequency:    0.1767506351
  - # 4
    frequency:    2.3736472900
  - # 5
    frequency:    2.3802136160
  - # 6
    frequency:    4.3387450873
  - # 7
    frequency:    4.3408858520
  - # 8
    frequency:    4.6690878947
  - # 9
    frequency:    6.5952359277
  - # 10
    frequency:    7.9530756378
  - # 11
    frequency:    7.9587293277
  - # 12
    frequency:   10.3331538744
  - # 13
    frequency:   10.3435872101
  - # 14
    frequency:   12.2889432597
  - # 15
    frequency:   13.0552252520
  - # 16
    frequency:   13.0587485169
  - # 17
    frequency:   14.5629426697
  - # 18
    frequency:   44.9834070717

- q-position: [    0.0151515,    0.0000000,    0.0000000 ]
  distance:    0.0048851
  band:
  - # 1
    frequency:    0.0108903936
  - # 2
    frequency:    0.0994722022
  - # 3
    frequency:    0.2650665191
  - # 4
    frequency:    2.3754116514
  - # 5
    frequency:    2.3901368724
  - # 6
    frequency:    4.3350735822
  - # 7
    frequency:    4.3398382596
  - # 8
    frequency:    4.6718008696
  - # 9
    frequency:    6.5789822099
  - # 10
    frequency:    7.9513027996
  - # 11
    frequency:    7.9637786479
  - # 12
    frequency:   10.3325483933
  - # 13
    frequency:   10.3559688711
  - # 14
    frequency:   12.2783158334
  - # 15
    frequency:   13.0493875994
  - # 16
    frequency:   13.0571763349
  - # 17
    frequency:   14.5750998157
  - # 18
    frequency:   44.9790339513

- q-position: [    0.0202020,    0.0000000,    0.0000000 ]
  distance:    0.0065135
  band:
  - # 1
    frequency:    0.0192679458
  - # 2
    frequency:    0.1329292012
  - # 3
    frequency:    0.3533102026
  - # 4
    frequency:    2.3778801579
  - # 5
    frequency:    2.4039378939
  - # 6
    frequency:    4.3300325786
  - # 7
    frequency:    4.3383795040
  - # 8
    frequency:    4.6755074523
  - # 9
    frequency:    6.5566890903
  - # 10
    frequency:    7.9488110728
  - # 11
    frequency:    7.9704084826
  - # 12
    frequency:   10.3317053349
  - # 13
    frequency:   10.3732045844
  - # 14
    frequency:   12.2635015520
  - # 15
    frequency:   13.0414623928
  - # 16
    frequency:   13.0549790889
  - # 17
    frequency:   14.5918497233
  - # 18
    frequency:   44.9729205661

- q-position: [    0.0252525,    0.0000000,    0.0000000 ]
  distance:    0.0081419
  band:
  - # 1
    frequency:    0.0299203982
  - # 2
    frequency:    0.1666378806
  - # 3
    frequency:    0.4414561811
  - # 4
    frequency:    2.3810511449
  - # 5
    frequency:    2.4215284327
  - # 6
    frequency:    4.3237093086
  - # 7
    frequency:    4.3365174564
  - # 8
    frequency:    4.6801279584
  - # 9
    frequency:    6.5287658314
  - # 10
    frequency:    7.9455908210
  - # 11
    frequency:    7.9782360058
  - # 12
    frequency:   10.3306292770
  - # 13
    frequency:   10.3951926359
  - # 14
    frequency:   12.2445711310
  - # 15
    frequency:   13.0316661416
  - # 16
    frequency:   13.0521605772
  - # 17
    frequency:   14.6129474458
  - # 18
    frequency:   44.9650758763

- q-position: [    0.0303030,    0.0000000,    0.0000000 ]
  distance:    0.0097703
  band:
  - # 1
    frequency:    0.0427639314
  - # 2
    frequency:    0.2006548889
  - # 3
    frequency:    0.5294777754
  - # 4
    frequency:    2.3849223804
  - # 5
    frequency:    2.4427994011
  - # 6
    frequency:    4.3162020132
  - # 7
    frequency:    4.3342622339
  - # 8
    frequency:    4.6855738919
  - # 9
    frequency:    6.4956759414
  - # 10
    frequency:    7.9416298195
  - # 11
    frequency:    7.9868362349
  - # 12
    frequency:   10.3293260523
  - # 13
    frequency:   10.4217982315
  - # 14
    frequency:   12.2216235564
  - # 15
    frequency:   13.0202392923
  - # 16
    frequency:   13.0487256675
  - # 17
    frequency:   14.6381091023
  - # 18
    frequency:   44.9555113682

- q-position: [    0.0353535,    0.0000000,    0.0000000 ]
  distance:    0.0113987
  band:
  - # 1
    frequency:    0.0577013134
  - # 2
    frequency:    0.2350328831
  - # 3
    frequency:    0.6173469068
  - # 4
    frequency:    2.3894909976
  - # 5
    frequency:    2.4676236331
  - # 6
    frequency:    4.3076135861
  - # 7
    frequency:    4.3316261968
  - # 8
    frequency:    4.6917543333
  - # 9
    frequency:    6.4579075048
  - # 10
    frequency:    7.9369133774
  - # 11
    frequency:    7.9957742304
  - # 12
    frequency:   10.3278027088
  - # 13
    frequency:   10.4528510837
  - # 14
    frequency:   12.1947901214
  - # 15
    frequency:   13.0074270235
  - # 16
    frequency:   13.0446802860
  - # 17
    frequency:   14.6670281690
  - # 18
    frequency:   44.9442410299

- q-position: [    0.0404040,    0.0000000,    0.0000000 ]
  distance:    0.0130270
  band:
  - # 1
    frequency:    0.0746243441
  - # 2
    frequency:    0.2698199096
  - # 3
    frequency:    0.7050339157
  - # 4
    frequency:    2.3947534147
  - # 5
    frequency:    2.4958587681
  - # 6
    frequency:    4.2980465696
  - # 7
    frequency:    4.3286239447
  - # 8
    frequency:    4.6985809872
  - # 9
    frequency:    6.4159489826
  - # 10
    frequency:    7.9314244822
  - # 11
    frequency:    8.0046315966
  - # 12
    frequency:   10.3260674635
  - # 13
    frequency:   10.4881429050
  - # 14
    frequency:   12.1642378031
  - # 15
    frequency:   12.9934630341
  - # 16
    frequency:   13.0400314027
  - # 17
    frequency:   14.6993899923
  - # 18
    frequency:   44.9312813209

- q-position: [    0.0454545,    0.0000000,    0.0000000 ]
  distance:    0.0146554
  band:
  - # 1
    frequency:    0.0934162554
  - # 2
    frequency:    0.3050588703
  - # 3
    frequency:    0.7925074265
  - # 4
    frequency:    2.4007052431
  - # 5
    frequency:    2.5273500666
  - # 6
    frequency:    4.2875997315
  - # 7
    frequency:    4.3252723126
  - # 8
    frequency:    4.7059716594
  - # 9
    frequency:    6.3702717393
  - # 10
    frequency:    7.9251439676
  - # 11
    frequency:    8.0130257681
  - # 12
    frequency:   10.3241296475
  - # 13
    frequency:   10.5274247813
  - # 14
    frequency:   12.1301718433
  - # 15
    frequency:   12.9785577511
  - # 16
    frequency:   13.0347870158
  - # 17
    frequency:   14.7348834940
  - # 18
    frequency:   44.9166511360

- q-position: [    0.0505051,    0.0000000,    0.0000000 ]
  distance:    0.0162838
  band:
  - # 1
    frequency:    0.1139539450
  - # 2
    frequency:    0.3407870790
  - # 3
    frequency:    0.8797342638
  - # 4
    frequency:    2.4073411844
  - # 5
    frequency:    2.5619329897
  - # 6
    frequency:    4.2763661163
  - # 7
    frequency:    4.3215903650
  - # 8
    frequency:    4.7138522728
  - # 9
    frequency:    6.3213190666
  - # 10
    frequency:    7.9180507019
  - # 11
    frequency:    8.0206221442
  - # 12
    frequency:   10.3219996445
  - # 13
    frequency:   10.5704041543
  - # 14
    frequency:   12.0928378876
  - # 15
    frequency:   12.9628913811
  - # 16
    frequency:   13.0289561318
  - # 17
    frequency:   14.7732097125
  - # 18
    frequency:   44.9003717654

- q-position: [    0.0555556,    0.0000000,    0.0000000 ]
  distance:    0.0179122
  band:
  - # 1
    frequency:    0.1361099561
  - # 2
    frequency:    0.3770359111
  - # 3
    frequency:    0.9666794202
  - # 4
    frequency:    2.4146549191
  - # 5
    frequency:    2.5994354128
  - # 6
    frequency:    4.2644322932
  - # 7
    frequency:    4.3175993894
  - # 8
    frequency:    4.7221577002
  - # 9
    frequency:    6.2695006418
  - # 10
    frequency:    7.9101217934
  - # 11
    frequency:    8.0271400731
  - # 12
    frequency:   10.3196888237
  - # 13
    frequency:   10.6167407856
  - # 14
    frequency:   12.0525245954
  - # 15
    frequency:   12.9466114093
  - # 16
    frequency:   13.0225487446
  - # 17
    frequency:   14.8140873275
  - # 18
    frequency:   44.8824668482

- q-position: [    0.0606061,    0.0000000,    0.0000000 ]
  distance:    0.0195406
  band:
  - # 1
    frequency:    0.1597541524
  - # 2
    frequency:    0.4138305448
  - # 3
    frequency:    1.0533060761
  - # 4
    frequency:    2.4226389872
  - # 5
    frequency:    2.6396793799
  - # 6
    frequency:    4.2518784876
  - # 7
    frequency:    4.3133228868
  - # 8
    frequency:    4.7308317269
  - # 9
    frequency:    6.2151910901
  - # 10
    frequency:    7.9013328128
  - # 11
    frequency:    8.0323540698
  - # 12
    frequency:   10.3172094668
  - # 13
    frequency:   10.6660405444
  - # 14
    frequency:   12.0095682735
  - # 15
    frequency:   12.9298336451
  - # 16
    frequency:   13.0155758118
  - # 17
    frequency:   14.8572556092
  - # 18
    frequency:   44.8629623222

- q-position: [    0.0656566,    0.0000000,    0.0000000 ]
  distance:    0.0211689
  band:
  - # 1
    frequency:    0.1847550724
  - # 2
    frequency:    0.4511897919
  - # 3
    frequency:    1.1395756686
  - # 4
    frequency:    2.4312846646
  - # 5
    frequency:    2.6824823368
  - # 6
    frequency:    4.2387793237
  - # 7
    frequency:    4.3087865615
  - # 8
    frequency:    4.7398264157
  - # 9
    frequency:    6.1587313962
  - # 10
    frequency:    7.8916580281
  - # 11
    frequency:    8.0360916663
  - # 12
    frequency:   10.3145746903
  - # 13
    frequency:   10.7178450521
  - # 14
    frequency:   11.9643618915
  - # 15
    frequency:   12.9126457140
  - # 16
    frequency:   13.0080492285
  - # 17
    frequency:   14.9024753527
  - # 18
    frequency:   44.8418863687

- q-position: [    0.0707071,    0.0000000,    0.0000000 ]
  distance:    0.0227973
  band:
  - # 1
    frequency:    0.2109809711
  - # 2
    frequency:    0.4891260123
  - # 3
    frequency:    1.2254480066
  - # 4
    frequency:    2.4405818342
  - # 5
    frequency:    2.7276578033
  - # 6
    frequency:    4.2252049768
  - # 7
    frequency:    4.3040183067
  - # 8
    frequency:    4.7491010721
  - # 9
    frequency:    6.1004321554
  - # 10
    frequency:    7.8810706499
  - # 11
    frequency:    8.0382291141
  - # 12
    frequency:   10.3117983647
  - # 13
    frequency:   10.7716138813
  - # 14
    frequency:   11.9173720718
  - # 15
    frequency:   12.8951119485
  - # 16
    frequency:   12.9999817991
  - # 17
    frequency:   14.9495283510
  - # 18
    frequency:   44.8192693523

- q-position: [    0.0757576,    0.0000000,    0.0000000 ]
  distance:    0.0244257
  band:
  - # 1
    frequency:    0.2383005775
  - # 2
    frequency:    0.5276451063
  - # 3
    frequency:    1.3108814262
  - # 4
    frequency:    2.4505188581
  - # 5
    frequency:    2.7750154590
  - # 6
    frequency:    4.2112226148
  - # 7
    frequency:    4.2990481877
  - # 8
    frequency:    4.7586209237
  - # 9
    frequency:    6.0405779416
  - # 10
    frequency:    7.8695430848
  - # 11
    frequency:    8.0386859108
  - # 12
    frequency:   10.3088950307
  - # 13
    frequency:   10.8266937171
  - # 14
    frequency:   11.8691697826
  - # 15
    frequency:   12.8772788305
  - # 16
    frequency:   12.9913872073
  - # 17
    frequency:   14.9982158895
  - # 18
    frequency:   44.7951437574

- q-position: [    0.0808081,    0.0000000,    0.0000000 ]
  distance:    0.0260541
  band:
  - # 1
    frequency:    0.2665836071
  - # 2
    frequency:    0.5667465766
  - # 3
    frequency:    1.3958329794
  - # 4
    frequency:    2.4610824488
  - # 5
    frequency:    2.8243606137
  - # 6
    frequency:    4.1968980788
  - # 7
    frequency:    4.2939084203
  - # 8
    frequency:    4.7683555511
  - # 9
    frequency:    5.9794323308
  - # 10
    frequency:    7.8570471934
  - # 11
    frequency:    8.0374188767
  - # 12
    frequency:   10.3058798136
  - # 13
    frequency:   10.8822649148
  - # 14
    frequency:   11.8204842877
  - # 15
    frequency:   12.8591804013
  - # 16
    frequency:   12.9822799832
  - # 17
    frequency:   15.0483566504
  - # 18
    frequency:   44.7695441193

- q-position: [    0.0858586,    0.0000000,    0.0000000 ]
  distance:    0.0276825
  band:
  - # 1
    frequency:    0.2957010737
  - # 2
    frequency:    0.6064236523
  - # 3
    frequency:    1.4802586478
  - # 4
    frequency:    2.4722575456
  - # 5
    frequency:    2.8754930197
  - # 6
    frequency:    4.1822978165
  - # 7
    frequency:    4.2886333434
  - # 8
    frequency:    4.7782770317
  - # 9
    frequency:    5.9172433503
  - # 10
    frequency:    7.8435545502
  - # 11
    frequency:    8.0344162854
  - # 12
    frequency:   10.3027683382
  - # 13
    frequency:   10.9372493005
  - # 14
    frequency:   11.7722963594
  - # 15
    frequency:   12.8408433074
  - # 16
    frequency:   12.9726754692
  - # 17
    frequency:   15.0997843183
  - # 18
    frequency:   44.7425069524

- q-position: [    0.0909091,    0.0000000,    0.0000000 ]
  distance:    0.0293108
  band:
  - # 1
    frequency:    0.3255254452
  - # 2
    frequency:    0.6466634654
  - # 3
    frequency:    1.5641135727
  - # 4
    frequency:    2.4840271967
  - # 5
    frequency:    2.9282049500
  - # 6
    frequency:    4.1674911454
  - # 7
    frequency:    4.2832593861
  - # 8
    frequency:    4.7883576747
  - # 9
    frequency:    5.8542493181
  - # 10
    frequency:    7.8290367036
  - # 11
    frequency:    8.0296923751
  - # 12
    frequency:   10.2995766430
  - # 13
    frequency:   10.9901542543
  - # 14
    frequency:   11.7259954876
  - # 15
    frequency:   12.8222913633
  - # 16
    frequency:   12.9625897840
  - # 17
    frequency:   15.1523450972
  - # 18
    frequency:   44.7140706744

- q-position: [    0.0959596,    0.0000000,    0.0000000 ]
  distance:    0.0309392
  band:
  - # 1
    frequency:    0.3559306878
  - # 2
    frequency:    0.6874472714
  - # 3
    frequency:    1.6473522908
  - # 4
    frequency:    2.4963724511
  - # 5
    frequency:    2.9822784124
  - # 6
    frequency:    4.1525529866
  - # 7
    frequency:    4.2778250255
  - # 8
    frequency:    4.7985671220
  - # 9
    frequency:    5.7906852225
  - # 10
    frequency:    7.8134654311
  - # 11
    frequency:    8.0232824257
  - # 12
    frequency:   10.2963210968
  - # 13
    frequency:   11.0388262724
  - # 14
    frequency:   11.6836276127
  - # 15
    frequency:   12.8035496726
  - # 16
    frequency:   12.9520397848
  - # 17
    frequency:   15.2058952819
  - # 18
    frequency:   44.6842755266

- q-position: [    0.1010101,    0.0000000,    0.0000000 ]
  distance:    0.0325676
  band:
  - # 1
    frequency:    0.3867922379
  - # 2
    frequency:    0.7287507063
  - # 3
    frequency:    1.7299289652
  - # 4
    frequency:    2.5092722622
  - # 5
    frequency:    3.0374812885
  - # 6
    frequency:    4.1375672916
  - # 7
    frequency:    4.2723707352
  - # 8
    frequency:    4.8088684398
  - # 9
    frequency:    5.7267900066
  - # 10
    frequency:    7.7968129903
  - # 11
    frequency:    8.0152384878
  - # 12
    frequency:   10.2930183180
  - # 13
    frequency:   11.0801377634
  - # 14
    frequency:   11.6482093281
  - # 15
    frequency:   12.7846484621
  - # 16
    frequency:   12.9410430276
  - # 17
    frequency:   15.2602989776
  - # 18
    frequency:   44.6531634920

- q-position: [    0.1060606,    0.0000000,    0.0000000 ]
  distance:    0.0341960
  band:
  - # 1
    frequency:    0.4179869361
  - # 2
    frequency:    0.7705440715
  - # 3
    frequency:    1.8117976006
  - # 4
    frequency:    2.5227034080
  - # 5
    frequency:    3.0935620673
  - # 6
    frequency:    4.1226314921
  - # 7
    frequency:    4.2669389211
  - # 8
    frequency:    4.8192125784
  - # 9
    frequency:    5.6628154094
  - # 10
    frequency:    7.7790523605
  - # 11
    frequency:    8.0056257753
  - # 12
    frequency:   10.2896850968
  - # 13
    frequency:   11.1098650316
  - # 14
    frequency:   11.6238502855
  - # 15
    frequency:   12.7656268737
  - # 16
    frequency:   12.9296177267
  - # 17
    frequency:   15.3154260289
  - # 18
    frequency:   44.6207782091

- q-position: [    0.1111111,    0.0000000,    0.0000000 ]
  distance:    0.0358244
  band:
  - # 1
    frequency:    0.4493929560
  - # 2
    frequency:    0.8127926391
  - # 3
    frequency:    1.8929122321
  - # 4
    frequency:    2.5366404295
  - # 5
    frequency:    3.1502426650
  - # 6
    frequency:    4.1078624574
  - # 7
    frequency:    4.2615738436
  - # 8
    frequency:    4.8295301722
  - # 9
    frequency:    5.5990374635
  - # 10
    frequency:    7.7601574749
  - # 11
    frequency:    7.9945196872
  - # 12
    frequency:   10.2863383225
  - # 13
    frequency:   11.1234970763
  - # 14
    frequency:   11.6149438309
  - # 15
    frequency:   12.7465370346
  - # 16
    frequency:   12.9177827126
  - # 17
    frequency:   15.3711501907
  - # 18
    frequency:   44.5871648838

- q-position: [    0.1161616,    0.0000000,    0.0000000 ]
  distance:    0.0374527
  band:
  - # 1
    frequency:    0.4808897546
  - # 2
    frequency:    0.8554569720
  - # 3
    frequency:    1.9732270759
  - # 4
    frequency:    2.5510555935
  - # 5
    frequency:    3.2072085811
  - # 6
    frequency:    4.0934046542
  - # 7
    frequency:    4.2563215212
  - # 8
    frequency:    4.8397189425
  - # 9
    frequency:    5.5357725000
  - # 10
    frequency:    7.7401034405
  - # 11
    frequency:    7.9820033983
  - # 12
    frequency:   10.2829949154
  - # 13
    frequency:   11.1184869065
  - # 14
    frequency:   11.6239137730
  - # 15
    frequency:   12.7274488217
  - # 16
    frequency:   12.9055573890
  - # 17
    frequency:   15.4273475587
  - # 18
    frequency:   44.5523701987

- q-position: [    0.1212121,    0.0000000,    0.0000000 ]
  distance:    0.0390811
  band:
  - # 1
    frequency:    0.5123580694
  - # 2
    frequency:    0.8984932514
  - # 3
    frequency:    2.0526966310
  - # 4
    frequency:    2.5659188811
  - # 5
    frequency:    3.2640953090
  - # 6
    frequency:    4.0794414875
  - # 7
    frequency:    4.2512296148
  - # 8
    frequency:    4.8496237280
  - # 9
    frequency:    5.4734007896
  - # 10
    frequency:    7.7188667452
  - # 11
    frequency:    7.9681659410
  - # 12
    frequency:   10.2796717642
  - # 13
    frequency:   11.0960870796
  - # 14
    frequency:   11.6493750649
  - # 15
    frequency:   12.7084558628
  - # 16
    frequency:   12.8929616886
  - # 17
    frequency:   15.4838952672
  - # 18
    frequency:   44.5164422198

- q-position: [    0.1262626,    0.0000000,    0.0000000 ]
  distance:    0.0407095
  band:
  - # 1
    frequency:    0.5436799856
  - # 2
    frequency:    0.9418536075
  - # 3
    frequency:    2.1312757209
  - # 4
    frequency:    2.5811980089
  - # 5
    frequency:    3.3204695400
  - # 6
    frequency:    4.0662111127
  - # 7
    frequency:    4.2463472865
  - # 8
    frequency:    4.8590040667
  - # 9
    frequency:    5.4124031235
  - # 10
    frequency:    7.6964254504
  - # 11
    frequency:    7.9531007011
  - # 12
    frequency:   10.2763856692
  - # 13
    frequency:   11.0602638320
  - # 14
    frequency:   11.6872133524
  - # 15
    frequency:   12.6896835034
  - # 16
    frequency:   12.8800160284
  - # 17
    frequency:   15.5406704506
  - # 18
    frequency:   44.4794303013

- q-position: [    0.1313131,    0.0000000,    0.0000000 ]
  distance:    0.0423379
  band:
  - # 1
    frequency:    0.5747390938
  - # 2
    frequency:    0.9854864487
  - # 3
    frequency:    2.2089194608
  - # 4
    frequency:    2.5968584847
  - # 5
    frequency:    3.3758034356
  - # 6
    frequency:    4.0540281781
  - # 7
    frequency:    4.2417250318
  - # 8
    frequency:    4.8674809720
  - # 9
    frequency:    5.3534190021
  - # 10
    frequency:    7.6727593686
  - # 11
    frequency:    7.9369042478
  - # 12
    frequency:   10.2731532912
  - # 13
    frequency:   11.0152565798
  - # 14
    frequency:   11.7330156692
  - # 15
    frequency:   12.6712997288
  - # 16
    frequency:   12.8667412640
  - # 17
    frequency:   15.5975494631
  - # 18
    frequency:   44.4413849891

- q-position: [    0.1363636,    0.0000000,    0.0000000 ]
  distance:    0.0439663
  band:
  - # 1
    frequency:    0.6054207605
  - # 2
    frequency:    1.0293367848
  - # 3
    frequency:    2.2855831359
  - # 4
    frequency:    2.6128637055
  - # 5
    frequency:    3.4294406736
  - # 6
    frequency:    4.0433123928
  - # 7
    frequency:    4.2374144783
  - # 8
    frequency:    4.8744509699
  - # 9
    frequency:    5.2973388120
  - # 10
    frequency:    7.6478502261
  - # 11
    frequency:    7.9196754291
  - # 12
    frequency:   10.2699911068
  - # 13
    frequency:   10.9643319159
  - # 14
    frequency:   11.7833018814
  - # 15
    frequency:   12.6535303671
  - # 16
    frequency:   12.8531586442
  - # 17
    frequency:   15.6544073430
  - # 18
    frequency:   44.4023579213

- q-position: [    0.1414141,    0.0000000,    0.0000000 ]
  distance:    0.0455946
  band:
  - # 1
    frequency:    0.6356125285
  - # 2
    frequency:    1.0733465411
  - # 3
    frequency:    2.3612219695
  - # 4
    frequency:    2.6291750995
  - # 5
    frequency:    3.4805556477
  - # 6
    frequency:    4.0346219446
  - # 7
    frequency:    4.2334681491
  - # 8
    frequency:    4.8789586140
  - # 9
    frequency:    5.2454394133
  - # 10
    frequency:    7.6216818104
  - # 11
    frequency:    7.9015146648
  - # 12
    frequency:   10.2669153678
  - # 13
    frequency:   10.9097207724
  - # 14
    frequency:   11.8355666181
  - # 15
    frequency:   12.6366802196
  - # 16
    frequency:   12.8392897647
  - # 17
    frequency:   15.7111175090
  - # 18
    frequency:   44.3624017296

- q-position: [    0.1464646,    0.0000000,    0.0000000 ]
  distance:    0.0472230
  band:
  - # 1
    frequency:    0.6652046695
  - # 2
    frequency:    1.1174548602
  - # 3
    frequency:    2.4357907492
  - # 4
    frequency:    2.6457523186
  - # 5
    frequency:    3.5281156257
  - # 6
    frequency:    4.0286811019
  - # 7
    frequency:    4.2299391846
  - # 8
    frequency:    4.8795576409
  - # 9
    frequency:    5.1995338834
  - # 10
    frequency:    7.5942401039
  - # 11
    frequency:    7.8825233849
  - # 12
    frequency:   10.2639420671
  - # 13
    frequency:   10.8529128789
  - # 14
    frequency:   11.8879559529
  - # 15
    frequency:   12.6211617677
  - # 16
    frequency:   12.8251565218
  - # 17
    frequency:   15.7675516692
  - # 18
    frequency:   44.3215699373

- q-position: [    0.1515152,    0.0000000,    0.0000000 ]
  distance:    0.0488514
  band:
  - # 1
    frequency:    0.6940909036
  - # 2
    frequency:    1.1615983896
  - # 3
    frequency:    2.5092432690
  - # 4
    frequency:    2.6625534855
  - # 5
    frequency:    3.5708752035
  - # 6
    frequency:    4.0263714587
  - # 7
    frequency:    4.2268810202
  - # 8
    frequency:    4.8743356777
  - # 9
    frequency:    5.1619617703
  - # 10
    frequency:    7.5655134028
  - # 11
    frequency:    7.8628035625
  - # 12
    frequency:   10.2610869071
  - # 13
    frequency:   10.7949270184
  - # 14
    frequency:   11.9389599487
  - # 15
    frequency:   12.6075318912
  - # 16
    frequency:   12.8107810659
  - # 17
    frequency:   15.8235799234
  - # 18
    frequency:   44.2799168585

- q-position: [    0.1565657,    0.0000000,    0.0000000 ]
  distance:    0.0504798
  band:
  - # 1
    frequency:    0.7221693027
  - # 2
    frequency:    1.2057115524
  - # 3
    frequency:    2.5815315152
  - # 4
    frequency:    2.6795354983
  - # 5
    frequency:    3.6074628345
  - # 6
    frequency:    4.0286254666
  - # 7
    frequency:    4.2243470156
  - # 8
    frequency:    4.8615099183
  - # 9
    frequency:    5.1350140904
  - # 10
    frequency:    7.5354924250
  - # 11
    frequency:    7.8424573023
  - # 12
    frequency:   10.2583652728
  - # 13
    frequency:   10.7364909987
  - # 14
    frequency:   11.9871913151
  - # 15
    frequency:   12.5965324729
  - # 16
    frequency:   12.7961857561
  - # 17
    frequency:   15.8790710375
  - # 18
    frequency:   44.2374974950

- q-position: [    0.1616162,    0.0000000,    0.0000000 ]
  distance:    0.0521082
  band:
  - # 1
    frequency:    0.7493433895
  - # 2
    frequency:    1.2497267994
  - # 3
    frequency:    2.6526044904
  - # 4
    frequency:    2.6966543963
  - # 5
    frequency:    3.6366293979
  - # 6
    frequency:    4.0361505556
  - # 7
    frequency:    4.2223900330
  - # 8
    frequency:    4.8407114424
  - # 9
    frequency:    5.1196772535
  - # 10
    frequency:    7.5041704059
  - # 11
    frequency:    7.8215864500
  - # 12
    frequency:   10.2557922067
  - # 13
    frequency:   10.6781512904
  - # 14
    frequency:   12.0312462026
  - # 15
    frequency:   12.5891189494
  - # 16
    frequency:   12.7813931138
  - # 17
    frequency:   15.9338928648
  - # 18
    frequency:   44.1943674340

- q-position: [    0.1666667,    0.0000000,    0.0000000 ]
  distance:    0.0537365
  band:
  - # 1
    frequency:    0.7755234377
  - # 2
    frequency:    1.2935748419
  - # 3
    frequency:    2.7138657874
  - # 4
    frequency:    2.7224065012
  - # 5
    frequency:    3.6576400612
  - # 6
    frequency:    4.0490015854
  - # 7
    frequency:    4.2210619637
  - # 8
    frequency:    4.8137770399
  - # 9
    frequency:    5.1148782307
  - # 10
    frequency:    7.4715431860
  - # 11
    frequency:    7.8002921951
  - # 12
    frequency:   10.2533823845
  - # 13
    frequency:   10.6203385876
  - # 14
    frequency:   12.0696593282
  - # 15
    frequency:   12.5864383999
  - # 16
    frequency:   12.7664257774
  - # 17
    frequency:   15.9879128929
  - # 18
    frequency:   44.1505827454

- q-position: [    0.1717172,    0.0000000,    0.0000000 ]
  distance:    0.0553649
  band:
  - # 1
    frequency:    0.8006279740
  - # 2
    frequency:    1.3371848639
  - # 3
    frequency:    2.7311253368
  - # 4
    frequency:    2.7908746345
  - # 5
    frequency:    3.6705935855
  - # 6
    frequency:    4.0662199160
  - # 7
    frequency:    4.2204132028
  - # 8
    frequency:    4.7839694232
  - # 9
    frequency:    5.1183079348
  - # 10
    frequency:    7.4376092906
  - # 11
    frequency:    7.7786746461
  - # 12
    frequency:   10.2511500923
  - # 13
    frequency:   10.5634073067
  - # 14
    frequency:   12.1009974599
  - # 15
    frequency:   12.5896951573
  - # 16
    frequency:   12.7513064573
  - # 17
    frequency:   16.0409988885
  - # 18
    frequency:   44.1061998784

- q-position: [    0.1767677,    0.0000000,    0.0000000 ]
  distance:    0.0569933
  band:
  - # 1
    frequency:    0.8245854683
  - # 2
    frequency:    1.3804847129
  - # 3
    frequency:    2.7483893141
  - # 4
    frequency:    2.8579349645
  - # 5
    frequency:    3.6763979768
  - # 6
    frequency:    4.0858224997
  - # 7
    frequency:    4.2204920753
  - # 8
    frequency:    4.7547268804
  - # 9
    frequency:    5.1277099219
  - # 10
    frequency:    7.4023700050
  - # 11
    frequency:    7.7568323607
  - # 12
    frequency:   10.2491092021
  - # 13
    frequency:   10.5076597808
  - # 14