nqpoint: 300    
npath: 3      
segment_nqpoint:
- 100
- 100
- 100
labels:
- [ 'G', 'M' ]
- [ 'M', 'K' ]
- [ 'K', 'G' ]
reciprocal_lattice:
- [   0.30949687,   0.17868810,   0.00000000 ] # a*
- [   0.00000000,   0.35737621,   0.00000000 ] # b*
- [   0.00000000,   0.00000000,   0.03962647 ] # c*
natom: 7      
lattice:
- [     3.231050399969638,     0.000000000000000,     0.000000000000000 ] # a
- [    -1.615525199984819,     2.798171727281352,     0.000000000000000 ] # b
- [     0.000000000000000,     0.000000000000000,    25.235655188299329 ] # c
points:
- symbol: C # 1
  coordinates: [  0.000000000000000,  0.000000000000000,  0.448892990864102 ]
  mass: 12.010700
- symbol: C # 2
  coordinates: [  0.333332985432215,  0.666666983183674,  0.595629921398411 ]
  mass: 12.010700
- symbol: F # 3
  coordinates: [  0.666666984744047,  0.333332985985145,  0.356638253805786 ]
  mass: 18.998403
- symbol: N # 4
  coordinates: [  0.333332985432215,  0.666666983183674,  0.546189040381464 ]
  mass: 14.006700
- symbol: O # 5
  coordinates: [  0.333332985432215,  0.666666983183674,  0.643361746194214 ]
  mass: 15.999400
- symbol: Ti # 6
  coordinates: [  0.333332985432215,  0.666666983183674,  0.405310788327065 ]
  mass: 47.867000
- symbol: Ti # 7
  coordinates: [  0.666666984744047,  0.333332985985145,  0.493305768323921 ]
  mass: 47.867000

phonon:
- q-position: [    0.0000000,    0.0000000,    0.0000000 ]
  distance:    0.0000000
  band:
  - # 1
    frequency:   -1.0087003570
  - # 2
    frequency:   -1.0087003570
  - # 3
    frequency:   -0.0000011840
  - # 4
    frequency:    0.0000002123
  - # 5
    frequency:    0.0000003276
  - # 6
    frequency:    4.5920189650
  - # 7
    frequency:    4.5920189650
  - # 8
    frequency:    5.6357864444
  - # 9
    frequency:    5.6357864444
  - # 10
    frequency:    6.7685964649
  - # 11
    frequency:    6.7685964649
  - # 12
    frequency:    6.8679590810
  - # 13
    frequency:   10.8397930032
  - # 14
    frequency:   12.9739820454
  - # 15
    frequency:   16.7209817397
  - # 16
    frequency:   16.7209817397
  - # 17
    frequency:   17.4134522502
  - # 18
    frequency:   17.4134522502
  - # 19
    frequency:   17.6009791928
  - # 20
    frequency:   38.3613485187
  - # 21
    frequency:   69.0280335259

- q-position: [    0.0050505,    0.0000000,    0.0000000 ]
  distance:    0.0018049
  band:
  - # 1
    frequency:   -1.0076436793
  - # 2
    frequency:   -1.0054238095
  - # 3
    frequency:   -0.1061557941
  - # 4
    frequency:    0.0827315479
  - # 5
    frequency:    0.1605088006
  - # 6
    frequency:    4.5928606125
  - # 7
    frequency:    4.5935422234
  - # 8
    frequency:    5.6362518252
  - # 9
    frequency:    5.6371317488
  - # 10
    frequency:    6.7638628107
  - # 11
    frequency:    6.7690567055
  - # 12
    frequency:    6.8738153682
  - # 13
    frequency:   10.8393134196
  - # 14
    frequency:   12.9733895158
  - # 15
    frequency:   16.7222442150
  - # 16
    frequency:   16.7228069796
  - # 17
    frequency:   17.4134972263
  - # 18
    frequency:   17.4136712986
  - # 19
    frequency:   17.6008746036
  - # 20
    frequency:   38.3613574355
  - # 21
    frequency:   69.0264756863

- q-position: [    0.0101010,    0.0000000,    0.0000000 ]
  distance:    0.0036099
  band:
  - # 1
    frequency:   -1.0044984436
  - # 2
    frequency:   -0.9956473305
  - # 3
    frequency:   -0.1241494091
  - # 4
    frequency:    0.1656322581
  - # 5
    frequency:    0.2714093320
  - # 6
    frequency:    4.5953748554
  - # 7
    frequency:    4.5980964191
  - # 8
    frequency:    5.6376427044
  - # 9
    frequency:    5.6411646425
  - # 10
    frequency:    6.7520672131
  - # 11
    frequency:    6.7704381545
  - # 12
    frequency:    6.8889727286
  - # 13
    frequency:   10.8378751900
  - # 14
    frequency:   12.9716114081
  - # 15
    frequency:   16.7260198033
  - # 16
    frequency:   16.7282657800
  - # 17
    frequency:   17.4136319397
  - # 18
    frequency:   17.4143253552
  - # 19
    frequency:   17.6005639184
  - # 20
    frequency:   38.3613840402
  - # 21
    frequency:   69.0218068340

- q-position: [    0.0151515,    0.0000000,    0.0000000 ]
  distance:    0.0054148
  band:
  - # 1
    frequency:   -0.9993356600
  - # 2
    frequency:   -0.9795121338
  - # 3
    frequency:   -0.1278710977
  - # 4
    frequency:    0.2488534449
  - # 5
    frequency:    0.3852178952
  - # 6
    frequency:    4.5995298198
  - # 7
    frequency:    4.6056352146
  - # 8
    frequency:    5.6399434381
  - # 9
    frequency:    5.6478759273
  - # 10
    frequency:    6.7369342651
  - # 11
    frequency:    6.7727428707
  - # 12
    frequency:    6.9096883232
  - # 13
    frequency:   10.8354798766
  - # 14
    frequency:   12.9686461799
  - # 15
    frequency:   16.7322731232
  - # 16
    frequency:   16.7373074893
  - # 17
    frequency:   17.4138557472
  - # 18
    frequency:   17.4154051155
  - # 19
    frequency:   17.6000564920
  - # 20
    frequency:   38.3614278976
  - # 21
    frequency:   69.0140409445

- q-position: [    0.0202020,    0.0000000,    0.0000000 ]
  distance:    0.0072197
  band:
  - # 1
    frequency:   -0.9922629915
  - # 2
    frequency:   -0.9571963005
  - # 3
    frequency:   -0.1239548337
  - # 4
    frequency:    0.3325134349
  - # 5
    frequency:    0.5023742355
  - # 6
    frequency:    4.6052731242
  - # 7
    frequency:    4.6160827014
  - # 8
    frequency:    5.6431284324
  - # 9
    frequency:    5.6572498191
  - # 10
    frequency:    6.7206529586
  - # 11
    frequency:    6.7759738798
  - # 12
    frequency:    6.9337432882
  - # 13
    frequency:   10.8321300783
  - # 14
    frequency:   12.9644913052
  - # 15
    frequency:   16.7409456417
  - # 16
    frequency:   16.7498480345
  - # 17
    frequency:   17.4141675824
  - # 18
    frequency:   17.4168949472
  - # 19
    frequency:   17.5993682746
  - # 20
    frequency:   38.3614882878
  - # 21
    frequency:   69.0032012323

- q-position: [    0.0252525,    0.0000000,    0.0000000 ]
  distance:    0.0090247
  band:
  - # 1
    frequency:   -0.9834106886
  - # 2
    frequency:   -0.9288415353
  - # 3
    frequency:   -0.1121396381
  - # 4
    frequency:    0.4166873630
  - # 5
    frequency:    0.6221663768
  - # 6
    frequency:    4.6125329661
  - # 7
    frequency:    4.6293353200
  - # 8
    frequency:    5.6471628457
  - # 9
    frequency:    5.6692632957
  - # 10
    frequency:    6.7042427607
  - # 11
    frequency:    6.7801345817
  - # 12
    frequency:    6.9600774378
  - # 13
    frequency:   10.8278294238
  - # 14
    frequency:   12.9591433415
  - # 15
    frequency:   16.7519563196
  - # 16
    frequency:   16.7657704078
  - # 17
    frequency:   17.4145659648
  - # 18
    frequency:   17.4187727218
  - # 19
    frequency:   17.5985223532
  - # 20
    frequency:   38.3615642149
  - # 21
    frequency:   68.9893200332

- q-position: [    0.0303030,    0.0000000,    0.0000000 ]
  distance:    0.0108296
  band:
  - # 1
    frequency:   -0.9729155060
  - # 2
    frequency:   -0.8944736561
  - # 3
    frequency:   -0.0872088032
  - # 4
    frequency:    0.5014031705
  - # 5
    frequency:    0.7439993434
  - # 6
    frequency:    4.6212195915
  - # 7
    frequency:    4.6452644302
  - # 8
    frequency:    5.6520035391
  - # 9
    frequency:    5.6838852446
  - # 10
    frequency:    6.6881785877
  - # 11
    frequency:    6.7852279490
  - # 12
    frequency:    6.9881653302
  - # 13
    frequency:   10.8225825618
  - # 14
    frequency:   12.9525980218
  - # 15
    frequency:   16.7652025020
  - # 16
    frequency:   16.7849252825
  - # 17
    frequency:   17.4150490126
  - # 18
    frequency:   17.4210096271
  - # 19
    frequency:   17.5975497077
  - # 20
    frequency:   38.3616544186
  - # 21
    frequency:   68.9724386417

- q-position: [    0.0353535,    0.0000000,    0.0000000 ]
  distance:    0.0126345
  band:
  - # 1
    frequency:   -0.9609053564
  - # 2
    frequency:   -0.8539310026
  - # 3
    frequency:    0.0142172554
  - # 4
    frequency:    0.5866437881
  - # 5
    frequency:    0.8673967209
  - # 6
    frequency:    4.6312271006
  - # 7
    frequency:    4.6637194244
  - # 8
    frequency:    5.6576002412
  - # 9
    frequency:    5.7010754626
  - # 10
    frequency:    6.6726930552
  - # 11
    frequency:    6.7912555501
  - # 12
    frequency:    7.0177152732
  - # 13
    frequency:   10.8163951499
  - # 14
    frequency:   12.9448503719
  - # 15
    frequency:   16.7805610370
  - # 16
    frequency:   16.8071316825
  - # 17
    frequency:   17.4156144595
  - # 18
    frequency:   17.4235700298
  - # 19
    frequency:   17.5964901655
  - # 20
    frequency:   38.3617573891
  - # 21
    frequency:   68.9526071029

- q-position: [    0.0404040,    0.0000000,    0.0000000 ]
  distance:    0.0144394
  band:
  - # 1
    frequency:   -0.9474870199
  - # 2
    frequency:   -0.8068052652
  - # 3
    frequency:    0.1082965557
  - # 4
    frequency:    0.6723542088
  - # 5
    frequency:    0.9919531241
  - # 6
    frequency:    4.6424355342
  - # 7
    frequency:    4.6845312521
  - # 8
    frequency:    5.6638968832
  - # 9
    frequency:    5.7207835746
  - # 10
    frequency:    6.6579053906
  - # 11
    frequency:    6.7982164340
  - # 12
    frequency:    7.0485418310
  - # 13
    frequency:   10.8092738416
  - # 14
    frequency:   12.9358948492
  - # 15
    frequency:   16.7978896062
  - # 16
    frequency:   16.8321776001
  - # 17
    frequency:   17.4162596774
  - # 18
    frequency:   17.4264115184
  - # 19
    frequency:   17.5953935100
  - # 20
    frequency:   38.3618713850
  - # 21
    frequency:   68.9298839617

- q-position: [    0.0454545,    0.0000000,    0.0000000 ]
  distance:    0.0162444
  band:
  - # 1
    frequency:   -0.9327381963
  - # 2
    frequency:   -0.7523853876
  - # 3
    frequency:    0.1676048954
  - # 4
    frequency:    0.7584513311
  - # 5
    frequency:    1.1173181362
  - # 6
    frequency:    4.6547131785
  - # 7
    frequency:    4.7075162158
  - # 8
    frequency:    5.6708330528
  - # 9
    frequency:    5.7429479412
  - # 10
    frequency:    6.6438787221
  - # 11
    frequency:    6.8061059267
  - # 12
    frequency:    7.0805100663
  - # 13
    frequency:   10.8012262719
  - # 14
    frequency:   12.9257255045
  - # 15
    frequency:   16.8170282460
  - # 16
    frequency:   16.8598204089
  - # 17
    frequency:   17.4169817047
  - # 18
    frequency:   17.4294853494
  - # 19
    frequency:   17.5943206420
  - # 20
    frequency:   38.3619944534
  - # 21
    frequency:   68.9043359686

- q-position: [    0.0505051,    0.0000000,    0.0000000 ]
  distance:    0.0180493
  band:
  - # 1
    frequency:   -0.9167039629
  - # 2
    frequency:   -0.6895805113
  - # 3
    frequency:    0.2252014975
  - # 4
    frequency:    0.8448343299
  - # 5
    frequency:    1.2431936268
  - # 6
    frequency:    4.6679190266
  - # 7
    frequency:    4.7324798887
  - # 8
    frequency:    5.6783455045
  - # 9
    frequency:    5.7674946299
  - # 10
    frequency:    6.6306475203
  - # 11
    frequency:    6.8149143950
  - # 12
    frequency:    7.1135096929
  - # 13
    frequency:   10.7922610432
  - # 14
    frequency:   12.9143361612
  - # 15
    frequency:   16.8378010354
  - # 16
    frequency:   16.8897868542
  - # 17
    frequency:   17.4177772827
  - # 18
    frequency:   17.4327376716
  - # 19
    frequency:   17.5933446080
  - # 20
    frequency:   38.3621244538
  - # 21
    frequency:   68.8760377472

- q-position: [    0.0555556,    0.0000000,    0.0000000 ]
  distance:    0.0198542
  band:
  - # 1
    frequency:   -0.8993967152
  - # 2
    frequency:   -0.6167717893
  - # 3
    frequency:    0.2854081561
  - # 4
    frequency:    0.9313938105
  - # 5
    frequency:    1.3693314869
  - # 6
    frequency:    4.6819053306
  - # 7
    frequency:    4.7592210084
  - # 8
    frequency:    5.6863696613
  - # 9
    frequency:    5.7943365178
  - # 10
    frequency:    6.6182317923
  - # 11
    frequency:    6.8246260399
  - # 12
    frequency:    7.1474424952
  - # 13
    frequency:   10.7823877100
  - # 14
    frequency:   12.9017206125
  - # 15
    frequency:   16.8600179248
  - # 16
    frequency:   16.9217723068
  - # 17
    frequency:   17.4186429009
  - # 18
    frequency:   17.4361121208
  - # 19
    frequency:   17.5925511843
  - # 20
    frequency:   38.3622590828
  - # 21
    frequency:   68.8450714214

- q-position: [    0.0606061,    0.0000000,    0.0000000 ]
  distance:    0.0216592
  band:
  - # 1
    frequency:   -0.8807981954
  - # 2
    frequency:   -0.5314413650
  - # 3
    frequency:    0.3504133215
  - # 4
    frequency:    1.0180188037
  - # 5
    frequency:    1.4955282516
  - # 6
    frequency:    4.6965201863
  - # 7
    frequency:    4.7875352088
  - # 8
    frequency:    5.6948410380
  - # 9
    frequency:    5.8233725868
  - # 10
    frequency:    6.6066449680
  - # 11
    frequency:    6.8352177841
  - # 12
    frequency:    7.1822160473
  - # 13
    frequency:   10.7716167646
  - # 14
    frequency:   12.8878728328
  - # 15
    frequency:   16.8834766770
  - # 16
    frequency:   16.9554388234
  - # 17
    frequency:   17.4195748552
  - # 18
    frequency:   17.4395546673
  - # 19
    frequency:   17.5920385586
  - # 20
    frequency:   38.3623959019
  - # 21
    frequency:   68.8115262086

- q-position: [    0.0656566,    0.0000000,    0.0000000 ]
  distance:    0.0234641
  band:
  - # 1
    frequency:   -0.8608622059
  - # 2
    frequency:   -0.4289155396
  - # 3
    frequency:    0.4217998299
  - # 4
    frequency:    1.1046014104
  - # 5
    frequency:    1.6216174065
  - # 6
    frequency:    4.7116100918
  - # 7
    frequency:    4.8172184681
  - # 8
    frequency:    5.7036965201
  - # 9
    frequency:    5.8544874536
  - # 10
    frequency:    6.5958985874
  - # 11
    frequency:    6.8466583191
  - # 12
    frequency:    7.2177406019
  - # 13
    frequency:   10.7599596231
  - # 14
    frequency:   12.8727872006
  - # 15
    frequency:   16.9079648926
  - # 16
    frequency:   16.9904113477
  - # 17
    frequency:   17.4205693230
  - # 18
    frequency:   17.4430219280
  - # 19
    frequency:   17.5919155279
  - # 20
    frequency:   38.3625323667
  - # 21
    frequency:   68.7754979789

- q-position: [    0.0707071,    0.0000000,    0.0000000 ]
  distance:    0.0252690
  band:
  - # 1
    frequency:   -0.8395168873
  - # 2
    frequency:   -0.2962528629
  - # 3
    frequency:    0.5004079178
  - # 4
    frequency:    1.1910394074
  - # 5
    frequency:    1.7474610492
  - # 6
    frequency:    4.7270224285
  - # 7
    frequency:    4.8480701732
  - # 8
    frequency:    5.7128754390
  - # 9
    frequency:    5.8875511530
  - # 10
    frequency:    6.5860052951
  - # 11
    frequency:    6.8589073694
  - # 12
    frequency:    7.2539276493
  - # 13
    frequency:   10.7474286124
  - # 14
    frequency:   12.8564587312
  - # 15
    frequency:   16.9332620860
  - # 16
    frequency:   17.0262710923
  - # 17
    frequency:   17.4216224581
  - # 18
    frequency:   17.4464944441
  - # 19
    frequency:   17.5922976391
  - # 20
    frequency:   38.3626658574
  - # 21
    frequency:   68.7370887832

- q-position: [    0.0757576,    0.0000000,    0.0000000 ]
  distance:    0.0270740
  band:
  - # 1
    frequency:   -0.8166657725
  - # 2
    frequency:    0.0663722939
  - # 3
    frequency:    0.5855385450
  - # 4
    frequency:    1.2772373417
  - # 5
    frequency:    1.8729421276
  - # 6
    frequency:    4.7426078178
  - # 7
    frequency:    4.8798957268
  - # 8
    frequency:    5.7223203958
  - # 9
    frequency:    5.9224191563
  - # 10
    frequency:    6.5769809393
  - # 11
    frequency:    6.8719152248
  - # 12
    frequency:    7.2906893724
  - # 13
    frequency:   10.7340369588
  - # 14
    frequency:   12.8388833152
  - # 15
    frequency:   16.9591417821
  - # 16
    frequency:   17.0625447924
  - # 17
    frequency:   17.4227305161
  - # 18
    frequency:   17.4499964964
  - # 19
    frequency:   17.5933009777
  - # 20
    frequency:   38.3627937105
  - # 21
    frequency:   68.6964063550

- q-position: [    0.0808081,    0.0000000,    0.0000000 ]
  distance:    0.0288789
  band:
  - # 1
    frequency:   -0.7921870745
  - # 2
    frequency:    0.3054542324
  - # 3
    frequency:    0.6747440449
  - # 4
    frequency:    1.3631066502
  - # 5
    frequency:    1.9979578317
  - # 6
    frequency:    4.7582223123
  - # 7
    frequency:    4.9125086538
  - # 8
    frequency:    5.7319778052
  - # 9
    frequency:    5.9589325642
  - # 10
    frequency:    6.5688462499
  - # 11
    frequency:    6.8856225761
  - # 12
    frequency:    7.3279385837
  - # 13
    frequency:   10.7197987769
  - # 14
    frequency:   12.8200579604
  - # 15
    frequency:   16.9853735990
  - # 16
    frequency:   17.0986882701
  - # 17
    frequency:   17.4238900148
  - # 18
    frequency:   17.4536236177
  - # 19
    frequency:   17.5950339742
  - # 20
    frequency:   38.3629132511
  - # 21
    frequency:   68.6535635864

- q-position: [    0.0858586,    0.0000000,    0.0000000 ]
  distance:    0.0306838
  band:
  - # 1
    frequency:   -0.7659307375
  - # 2
    frequency:    0.4266101790
  - # 3
    frequency:    0.7650782622
  - # 4
    frequency:    1.4485652448
  - # 5
    frequency:    2.1224142599
  - # 6
    frequency:    4.7737293827
  - # 7
    frequency:    4.9457321942
  - # 8
    frequency:    5.7417981488
  - # 9
    frequency:    5.9969183456
  - # 10
    frequency:    6.5616284398
  - # 11
    frequency:    6.8999606741
  - # 12
    frequency:    7.3655889045
  - # 13
    frequency:   10.7047290612
  - # 14
    frequency:   12.7999810351
  - # 15
    frequency:   17.0117252820
  - # 16
    frequency:   17.1340632150
  - # 17
    frequency:   17.4250979442
  - # 18
    frequency:   17.4575775576
  - # 19
    frequency:   17.5975885392
  - # 20
    frequency:   38.3630218258
  - # 21
    frequency:   68.6086779834

- q-position: [    0.0909091,    0.0000000,    0.0000000 ]
  distance:    0.0324887
  band:
  - # 1
    frequency:   -0.7377126525
  - # 2
    frequency:    0.5235992685
  - # 3
    frequency:    0.8544378798
  - # 4
    frequency:    1.5335368731
  - # 5
    frequency:    2.2462222460
  - # 6
    frequency:    4.7890016708
  - # 7
    frequency:    4.9794003991
  - # 8
    frequency:    5.7517359508
  - # 9
    frequency:    6.0361894088
  - # 10
    frequency:    6.5553630453
  - # 11
    frequency:    6.9148518124
  - # 12
    frequency:    7.4035550477
  - # 13
    frequency:   10.6888436783
  - # 14
    frequency:   12.7786525086
  - # 15
    frequency:   17.0379646539
  - # 16
    frequency:   17.1679089842
  - # 17
    frequency:   17.4263520379
  - # 18
    frequency:   17.4622047383
  - # 19
    frequency:   17.6010326599
  - # 20
    frequency:   38.3631168355
  - # 21
    frequency:   68.5618711041

- q-position: [    0.0959596,    0.0000000,    0.0000000 ]
  distance:    0.0342937
  band:
  - # 1
    frequency:   -0.7073050522
  - # 2
    frequency:    0.6106247198
  - # 3
    frequency:    0.9417962298
  - # 4
    frequency:    1.6179504471
  - # 5
    frequency:    2.3692941434
  - # 6
    frequency:    4.8039224767
  - # 7
    frequency:    5.0133587713
  - # 8
    frequency:    5.7617495099
  - # 9
    frequency:    6.0765441565
  - # 10
    frequency:    6.5500963858
  - # 11
    frequency:    6.9302101173
  - # 12
    frequency:    7.4417531237
  - # 13
    frequency:   10.6721593609
  - # 14
    frequency:   12.7560741876
  - # 15
    frequency:   17.0638614464
  - # 16
    frequency:   17.1993203960
  - # 17
    frequency:   17.4276511196
  - # 18
    frequency:   17.4680249637
  - # 19
    frequency:   17.6054066974
  - # 20
    frequency:   38.3631957677
  - # 21
    frequency:   68.5132679813

- q-position: [    0.1010101,    0.0000000,    0.0000000 ]
  distance:    0.0360986
  band:
  - # 1
    frequency:   -0.6744213247
  - # 2
    frequency:    0.6931029539
  - # 3
    frequency:    1.0268281417
  - # 4
    frequency:    1.7017394430
  - # 5
    frequency:    2.4915413604
  - # 6
    frequency:    4.8183869589
  - # 7
    frequency:    5.0474645124
  - # 8
    frequency:    5.7718004399
  - # 9
    frequency:    6.1177649549
  - # 10
    frequency:    6.5458891947
  - # 11
    frequency:    6.9459426118
  - # 12
    frequency:    7.4801009198
  - # 13
    frequency:   10.6546937028
  - # 14
    frequency:   12.7322499449
  - # 15
    frequency:   17.0891889804
  - # 16
    frequency:   17.2272627384
  - # 17
    frequency:   17.4289955399
  - # 18
    frequency:   17.4757177797
  - # 19
    frequency:   17.6107247441
  - # 20
    frequency:   38.3632562283
  - # 21
    frequency:   68.4629965353

- q-position: [    0.1060606,    0.0000000,    0.0000000 ]
  distance:    0.0379035
  band:
  - # 1
    frequency:   -0.6386919966
  - # 2
    frequency:    0.7735572038
  - # 3
    frequency:    1.1095483642
  - # 4
    frequency:    1.7848414175
  - # 5
    frequency:    2.6128724668
  - # 6
    frequency:    4.8323030284
  - # 7
    frequency:    5.0815864515
  - # 8
    frequency:    5.7818530822
  - # 9
    frequency:    6.1596145728
  - # 10
    frequency:    6.5428223263
  - # 11
    frequency:    6.9619505064
  - # 12
    frequency:    7.5185181288
  - # 13
    frequency:   10.6364651554
  - # 14
    frequency:   12.7071859391
  - # 15
    frequency:   17.1137256706
  - # 16
    frequency:   17.2506799922
  - # 17
    frequency:   17.4303877101
  - # 18
    frequency:   17.4860105925
  - # 19
    frequency:   17.6169809170
  - # 20
    frequency:   38.3632959726
  - # 21
    frequency:   68.4111869799

- q-position: [    0.1111111,    0.0000000,    0.0000000 ]
  distance:    0.0397085
  band:
  - # 1
    frequency:   -0.5996256363
  - # 2
    frequency:    0.8532745206
  - # 3
    frequency:    1.1901054573
  - # 4
    frequency:    1.8671976474
  - # 5
    frequency:    2.7331917286
  - # 6
    frequency:    4.8455919243
  - # 7
    frequency:    5.1156047351
  - # 8
    frequency:    5.7918738646
  - # 9
    frequency:    6.2018289533
  - # 10
    frequency:    6.5410061151
  - # 11
    frequency:    6.9781306612
  - # 12
    frequency:    7.5569265148
  - # 13
    frequency:   10.6174930251
  - # 14
    frequency:   12.6808908223
  - # 15
    frequency:   17.1372563481
  - # 16
    frequency:   17.2687347616
  - # 17
    frequency:   17.4318327248
  - # 18
    frequency:   17.4994314336
  - # 19
    frequency:   17.6241591898
  - # 20
    frequency:   38.3633129342
  - # 21
    frequency:   68.3579712245

- q-position: [    0.1161616,    0.0000000,    0.0000000 ]
  distance:    0.0415134
  band:
  - # 1
    frequency:   -0.5565419257
  - # 2
    frequency:    0.9329411616
  - # 3
    frequency:    1.2686852941
  - # 4
    frequency:    1.9487528811
  - # 5
    frequency:    2.8523979683
  - # 6
    frequency:    4.8581884699
  - # 7
    frequency:    5.1494103597
  - # 8
    frequency:    5.8018306756
  - # 9
    frequency:    6.2441034104
  - # 10
    frequency:    6.5405962306
  - # 11
    frequency:    6.9943771591
  - # 12
    frequency:    7.5952500142
  - # 13
    frequency:   10.5977974705
  - # 14
    frequency:   12.6533759346
  - # 15
    frequency:   17.1595734249
  - # 16
    frequency:   17.2810934974
  - # 17
    frequency:   17.4333390351
  - # 18
    frequency:   17.5160147352
  - # 19
    frequency:   17.6322447994
  - # 20
    frequency:   38.3633052527
  - # 21
    frequency:   68.3034822773

- q-position: [    0.1212121,    0.0000000,    0.0000000 ]
  distance:    0.0433183
  band:
  - # 1
    frequency:   -0.5084485394
  - # 2
    frequency:    1.0129256823
  - # 3
    frequency:    1.3454708615
  - # 4
    frequency:    2.0294551807
  - # 5
    frequency:    2.9703836739
  - # 6
    frequency:    4.8700410133
  - # 7
    frequency:    5.1829046189
  - # 8
    frequency:    5.8116923194
  - # 9
    frequency:    6.2860670523
  - # 10
    frequency:    6.5418211629
  - # 11
    frequency:    7.0105829300
  - # 12
    frequency:    7.6334147766
  - # 13
    frequency:   10.5773995005
  - # 14
    frequency:   12.6246554835
  - # 15
    frequency:   17.1804779855
  - # 16
    frequency:   17.2880344114
  - # 17
    frequency:   17.4349190776
  - # 18
    frequency:   17.5351848732
  - # 19
    frequency:   17.6412350633
  - # 20
    frequency:   38.3632712996
  - # 21
    frequency:   68.2478536524

- q-position: [    0.1262626,    0.0000000,    0.0000000 ]
  distance:    0.0451233
  band:
  - # 1
    frequency:   -0.4537907710
  - # 2
    frequency:    1.0934175970
  - # 3
    frequency:    1.4206278564
  - # 4
    frequency:    2.1092558328
  - # 5
    frequency:    3.0870343087
  - # 6
    frequency:    4.8811110711
  - # 7
    frequency:    5.2159985307
  - # 8
    frequency:    5.8214281043
  - # 9
    frequency:    6.3272366628
  - # 10
    frequency:    6.5450300480
  - # 11
    frequency:    7.0266413688
  - # 12
    frequency:    7.6713491540
  - # 13
    frequency:   10.5563209714
  - # 14
    frequency:   12.5947467062
  - # 15
    frequency:   17.1997809739
  - # 16
    frequency:   17.2902692328
  - # 17
    frequency:   17.4365896799
  - # 18
    frequency:   17.5559295098
  - # 19
    frequency:   17.6511464113
  - # 20
    frequency:   38.3632097015
  - # 21
    frequency:   68.1912187849

- q-position: [    0.1313131,    0.0000000,    0.0000000 ]
  distance:    0.0469282
  band:
  - # 1
    frequency:   -0.3898628005
  - # 2
    frequency:    1.1745001718
  - # 3
    frequency:    1.4943014489
  - # 4
    frequency:    2.1881093037
  - # 5
    frequency:    3.2022277933
  - # 6
    frequency:    4.8913727028
  - # 7
    frequency:    5.2486122967
  - # 8
    frequency:    5.8310075993
  - # 9
    frequency:    6.3669387491
  - # 10
    frequency:    6.5507720734
  - # 11
    frequency:    7.0424478963
  - # 12
    frequency:    7.7089836483
  - # 13
    frequency:   10.5345845823
  - # 14
    frequency:   12.5636700151
  - # 15
    frequency:   17.2173047591
  - # 16
    frequency:   17.2886433318
  - # 17
    frequency:   17.4383719509
  - # 18
    frequency:   17.5771048349
  - # 19
    frequency:   17.6620110030
  - # 20
    frequency:   38.3631193606
  - # 21
    frequency:   68.1337104578

- q-position: [    0.1363636,    0.0000000,    0.0000000 ]
  distance:    0.0487331
  band:
  - # 1
    frequency:   -0.3110620858
  - # 2
    frequency:    1.2561907088
  - # 3
    frequency:    1.5666176542
  - # 4
    frequency:    2.2659732210
  - # 5
    frequency:    3.3158341457
  - # 6
    frequency:    4.9008116528
  - # 7
    frequency:    5.2806748300
  - # 8
    frequency:    5.8404005773
  - # 9
    frequency:    6.4042031996
  - # 10
    frequency:    6.5599039773
  - # 11
    frequency:    7.0579014230
  - # 12
    frequency:    7.7462508286
  - # 13
    frequency:   10.5122138690
  - # 14
    frequency:   12.5314491238
  - # 15
    frequency:   17.2328854659
  - # 16
    frequency:   17.2839224347
  - # 17
    frequency:   17.4402902637
  - # 18
    frequency:   17.5976768327
  - # 19
    frequency:   17.6738505707
  - # 20
    frequency:   38.3629994729
  - # 21
    frequency:   68.0754602436

- q-position: [    0.1414141,    0.0000000,    0.0000000 ]
  distance:    0.0505380
  band:
  - # 1
    frequency:   -0.2006683519
  - # 2
    frequency:    1.3384636687
  - # 3
    frequency:    1.6376864947
  - # 4
    frequency:    2.3428083622
  - # 5
    frequency:    3.4277152816
  - # 6
    frequency:    4.9094243070
  - # 7
    frequency:    5.3121233797
  - # 8
    frequency:    5.8495771459
  - # 9
    frequency:    6.4377227831
  - # 10
    frequency:    6.5736313774
  - # 11
    frequency:    7.0729056799
  - # 12
    frequency:    7.7830852315
  - # 13
    frequency:   10.4892331942
  - # 14
    frequency:   12.4981111536
  - # 15
    frequency:   17.2463764725
  - # 16
    frequency:   17.2767143059
  - # 17
    frequency:   17.4423699225
  - # 18
    frequency:   17.6168622075
  - # 19
    frequency:   17.6866154771
  - # 20
    frequency:   38.3628495436
  - # 21
    frequency:   68.0165979644

- q-position: [    0.1464646,    0.0000000,    0.0000000 ]
  distance:    0.0523430
  band:
  - # 1
    frequency:    0.1320525825
  - # 2
    frequency:    1.4212641196
  - # 3
    frequency:    1.7076058422
  - # 4
    frequency:    2.4185786380
  - # 5
    frequency:    3.5377249872
  - # 6
    frequency:    4.9172165149
  - # 7
    frequency:    5.3429032622
  - # 8
    frequency:    5.8585080502
  - # 9
    frequency:    6.4661896593
  - # 10
    frequency:    6.5931727292
  - # 11
    frequency:    7.0873703957
  - # 12
    frequency:    7.8194232519
  - # 13
    frequency:   10.4656677335
  - # 14
    frequency:   12.4636867210
  - # 15
    frequency:   17.2576532734
  - # 16
    frequency:   17.2674720929
  - # 17
    frequency:   17.4446333102
  - # 18
    frequency:   17.6342072030
  - # 19
    frequency:   17.7001040475
  - # 20
    frequency:   38.3626693982
  - # 21
    frequency:   67.9572511744

- q-position: [    0.1515152,    0.0000000,    0.0000000 ]
  distance:    0.0541479
  band:
  - # 1
    frequency:    0.2762431173
  - # 2
    frequency:    1.5045152826
  - # 3
    frequency:    1.7764656335
  - # 4
    frequency:    2.4932510578
  - # 5
    frequency:    3.6457090876
  - # 6
    frequency:    4.9242023322
  - # 7
    frequency:    5.3729677011
  - # 8
    frequency:    5.8671651220
  - # 9
    frequency:    6.4892007369
  - # 10
    frequency:    6.6188540604
  - # 11
    frequency:    7.1012123025
  - # 12
    frequency:    7.8552030379
  - # 13
    frequency:   10.4415434554
  - # 14
    frequency:   12.4282100032
  - # 15
    frequency:   17.2565256404
  - # 16
    frequency:   17.2666193712
  - # 17
    frequency:   17.4470948509
  - # 18
    frequency:   17.6495924171
  - # 19
    frequency:   17.7139277696
  - # 20
    frequency:   38.3624591915
  - # 21
    frequency:   67.8975446663