nqpoint: 300    
npath: 3      
segment_nqpoint:
- 100
- 100
- 100
labels:
- [ 'G', 'M' ]
- [ 'M', 'K' ]
- [ 'K', 'G' ]
reciprocal_lattice:
- [   0.30949687,   0.17868810,   0.00000000 ] # a*
- [   0.00000000,   0.35737621,   0.00000000 ] # b*
- [   0.00000000,   0.00000000,   0.03962647 ] # c*
natom: 7      
lattice:
- [     3.231050399969638,     0.000000000000000,     0.000000000000000 ] # a
- [    -1.615525199984819,     2.798171727281352,     0.000000000000000 ] # b
- [     0.000000000000000,     0.000000000000000,    25.235655188299329 ] # c
points:
- symbol: C # 1
  coordinates: [  0.000000000000000,  0.000000000000000,  0.448892990864102 ]
  mass: 12.010700
- symbol: C # 2
  coordinates: [  0.333332985432215,  0.666666983183674,  0.595629921398411 ]
  mass: 12.010700
- symbol: F # 3
  coordinates: [  0.666666984744047,  0.333332985985145,  0.356638253805786 ]
  mass: 18.998403
- symbol: N # 4
  coordinates: [  0.333332985432215,  0.666666983183674,  0.546189040381464 ]
  mass: 14.006700
- symbol: O # 5
  coordinates: [  0.333332985432215,  0.666666983183674,  0.643361746194214 ]
  mass: 15.999400
- symbol: Ti # 6
  coordinates: [  0.333332985432215,  0.666666983183674,  0.405310788327065 ]
  mass: 47.867000
- symbol: Ti # 7
  coordinates: [  0.666666984744047,  0.333332985985145,  0.493305768323921 ]
  mass: 47.867000

phonon:
- q-position: [    0.0000000,    0.0000000,    0.0000000 ]
  distance:    0.0000000
  band:
  - # 1
    frequency:   -0.0000033966
  - # 2
    frequency:    0.0000003554
  - # 3
    frequency:    0.0000024829
  - # 4
    frequency:    0.4077825171
  - # 5
    frequency:    0.4077825171
  - # 6
    frequency:    4.8839924399
  - # 7
    frequency:    4.8839924399
  - # 8
    frequency:    5.8808376098
  - # 9
    frequency:    5.8808376098
  - # 10
    frequency:    6.8651718350
  - # 11
    frequency:    6.8651718350
  - # 12
    frequency:    6.9261083469
  - # 13
    frequency:   10.8667190002
  - # 14
    frequency:   13.0467461104
  - # 15
    frequency:   17.1868967499
  - # 16
    frequency:   17.1868967499
  - # 17
    frequency:   17.4063413438
  - # 18
    frequency:   17.4063413438
  - # 19
    frequency:   17.7292668633
  - # 20
    frequency:   38.3714976968
  - # 21
    frequency:   68.8949667662

- q-position: [    0.0050505,    0.0000000,    0.0000000 ]
  distance:    0.0018049
  band:
  - # 1
    frequency:    0.0022881412
  - # 2
    frequency:    0.0570247105
  - # 3
    frequency:    0.1133851079
  - # 4
    frequency:    0.4104757112
  - # 5
    frequency:    0.4165835620
  - # 6
    frequency:    4.8840283927
  - # 7
    frequency:    4.8847879004
  - # 8
    frequency:    5.8808249614
  - # 9
    frequency:    5.8819436190
  - # 10
    frequency:    6.8558898440
  - # 11
    frequency:    6.8654441938
  - # 12
    frequency:    6.9361609533
  - # 13
    frequency:   10.8661875751
  - # 14
    frequency:   13.0459800015
  - # 15
    frequency:   17.1861153458
  - # 16
    frequency:   17.1870157244
  - # 17
    frequency:   17.4064077746
  - # 18
    frequency:   17.4065564987
  - # 19
    frequency:   17.7288487977
  - # 20
    frequency:   38.3714786957
  - # 21
    frequency:   68.8937182972

- q-position: [    0.0101010,    0.0000000,    0.0000000 ]
  distance:    0.0036099
  band:
  - # 1
    frequency:    0.0090724825
  - # 2
    frequency:    0.1121715231
  - # 3
    frequency:    0.2220774824
  - # 4
    frequency:    0.4189681854
  - # 5
    frequency:    0.4442946216
  - # 6
    frequency:    4.8841378398
  - # 7
    frequency:    4.8871707145
  - # 8
    frequency:    5.8807859370
  - # 9
    frequency:    5.8852515210
  - # 10
    frequency:    6.8367274533
  - # 11
    frequency:    6.8662597289
  - # 12
    frequency:    6.9576362696
  - # 13
    frequency:   10.8645936444
  - # 14
    frequency:   13.0436826045
  - # 15
    frequency:   17.1837752526
  - # 16
    frequency:   17.1873702258
  - # 17
    frequency:   17.4066058878
  - # 18
    frequency:   17.4071994020
  - # 19
    frequency:   17.7275980237
  - # 20
    frequency:   38.3714217563
  - # 21
    frequency:   68.8899754300

- q-position: [    0.0151515,    0.0000000,    0.0000000 ]
  distance:    0.0054148
  band:
  - # 1
    frequency:    0.0201648239
  - # 2
    frequency:    0.1632966995
  - # 3
    frequency:    0.3186027967
  - # 4
    frequency:    0.4344752494
  - # 5
    frequency:    0.4956724941
  - # 6
    frequency:    4.8843254974
  - # 7
    frequency:    4.8911301590
  - # 8
    frequency:    5.8807173492
  - # 9
    frequency:    5.8907311605
  - # 10
    frequency:    6.8151551624
  - # 11
    frequency:    6.8676138163
  - # 12
    frequency:    6.9830670403
  - # 13
    frequency:   10.8619382489
  - # 14
    frequency:   13.0398567052
  - # 15
    frequency:   17.1798886829
  - # 16
    frequency:   17.1879529914
  - # 17
    frequency:   17.4069322823
  - # 18
    frequency:   17.4082622882
  - # 19
    frequency:   17.7255248979
  - # 20
    frequency:   38.3713270702
  - # 21
    frequency:   68.8837457769

- q-position: [    0.0202020,    0.0000000,    0.0000000 ]
  distance:    0.0072197
  band:
  - # 1
    frequency:    0.0353651928
  - # 2
    frequency:    0.2080528924
  - # 3
    frequency:    0.3957798969
  - # 4
    frequency:    0.4587472643
  - # 5
    frequency:    0.5754561262
  - # 6
    frequency:    4.8845990616
  - # 7
    frequency:    4.8966482957
  - # 8
    frequency:    5.8806140492
  - # 9
    frequency:    5.8983330040
  - # 10
    frequency:    6.7933100368
  - # 11
    frequency:    6.8694987500
  - # 12
    frequency:    7.0103216225
  - # 13
    frequency:   10.8582231467
  - # 14
    frequency:   13.0345069367
  - # 15
    frequency:   17.1744755414
  - # 16
    frequency:   17.1887519279
  - # 17
    frequency:   17.4073817121
  - # 18
    frequency:   17.4097319371
  - # 19
    frequency:   17.7226469813
  - # 20
    frequency:   38.3711949566
  - # 21
    frequency:   68.8750420009

- q-position: [    0.0252525,    0.0000000,    0.0000000 ]
  distance:    0.0090247
  band:
  - # 1
    frequency:    0.0545156860
  - # 2
    frequency:    0.2446667403
  - # 3
    frequency:    0.4577059993
  - # 4
    frequency:    0.4931645781
  - # 5
    frequency:    0.6774475277
  - # 6
    frequency:    4.8849689688
  - # 7
    frequency:    4.9036998941
  - # 8
    frequency:    5.8804691630
  - # 9
    frequency:    5.9079891823
  - # 10
    frequency:    6.7718727035
  - # 11
    frequency:    6.8719037466
  - # 12
    frequency:    7.0387270179
  - # 13
    frequency:   10.8534508488
  - # 14
    frequency:   13.0276397642
  - # 15
    frequency:   17.1675628448
  - # 16
    frequency:   17.1897501275
  - # 17
    frequency:   17.4079476257
  - # 18
    frequency:   17.4115892331
  - # 19
    frequency:   17.7189895140
  - # 20
    frequency:   38.3710258614
  - # 21
    frequency:   68.8638817809

- q-position: [    0.0303030,    0.0000000,    0.0000000 ]
  distance:    0.0108296
  band:
  - # 1
    frequency:    0.0775013397
  - # 2
    frequency:    0.2730463128
  - # 3
    frequency:    0.5136046137
  - # 4
    frequency:    0.5375534695
  - # 5
    frequency:    0.7907263508
  - # 6
    frequency:    4.8854480717
  - # 7
    frequency:    4.9122523633
  - # 8
    frequency:    5.8802744043
  - # 9
    frequency:    5.9196148643
  - # 10
    frequency:    6.7511319501
  - # 11
    frequency:    6.8748149573
  - # 12
    frequency:    7.0680043111
  - # 13
    frequency:   10.8476246663
  - # 14
    frequency:   13.0192634659
  - # 15
    frequency:   17.1591840682
  - # 16
    frequency:   17.1909258893
  - # 17
    frequency:   17.4086227628
  - # 18
    frequency:   17.4138085013
  - # 19
    frequency:   17.7145861286
  - # 20
    frequency:   38.3708203564
  - # 21
    frequency:   68.8502877618

- q-position: [    0.0353535,    0.0000000,    0.0000000 ]
  distance:    0.0126345
  band:
  - # 1
    frequency:    0.1042301022
  - # 2
    frequency:    0.2947953109
  - # 3
    frequency:    0.5683138633
  - # 4
    frequency:    0.5901257601
  - # 5
    frequency:    0.9091410931
  - # 6
    frequency:    4.8860512447
  - # 7
    frequency:    4.9222657276
  - # 8
    frequency:    5.8800204484
  - # 9
    frequency:    5.9331098844
  - # 10
    frequency:    6.7312453903
  - # 11
    frequency:    6.8782154930
  - # 12
    frequency:    7.0980080591
  - # 13
    frequency:   10.8407487702
  - # 14
    frequency:   13.0093881079
  - # 15
    frequency:   17.1493785127
  - # 16
    frequency:   17.1922527427
  - # 17
    frequency:   17.4093997128
  - # 18
    frequency:   17.4163565687
  - # 19
    frequency:   17.7094798561
  - # 20
    frequency:   38.3705791388
  - # 21
    frequency:   68.8342874910

- q-position: [    0.0404040,    0.0000000,    0.0000000 ]
  distance:    0.0144394
  band:
  - # 1
    frequency:    0.1346147570
  - # 2
    frequency:    0.3120532053
  - # 3
    frequency:    0.6234600276
  - # 4
    frequency:    0.6486103384
  - # 5
    frequency:    1.0300691131
  - # 6
    frequency:    4.8867949301
  - # 7
    frequency:    4.9336926786
  - # 8
    frequency:    5.8796973490
  - # 9
    frequency:    5.9483605377
  - # 10
    frequency:    6.7123188173
  - # 11
    frequency:    6.8820854691
  - # 12
    frequency:    7.1286470080
  - # 13
    frequency:   10.8328282610
  - # 14
    frequency:   12.9980255173
  - # 15
    frequency:   17.1381907640
  - # 16
    frequency:   17.1936994735
  - # 17
    frequency:   17.4102713661
  - # 18
    frequency:   17.4191914817
  - # 19
    frequency:   17.7037244937
  - # 20
    frequency:   38.3703030290
  - # 21
    frequency:   68.8159133411

- q-position: [    0.0454545,    0.0000000,    0.0000000 ]
  distance:    0.0162444
  band:
  - # 1
    frequency:    0.1685625962
  - # 2
    frequency:    0.3265868063
  - # 3
    frequency:    0.6794583346
  - # 4
    frequency:    0.7111437978
  - # 5
    frequency:    1.1523414588
  - # 6
    frequency:    4.8876966411
  - # 7
    frequency:    4.9464787372
  - # 8
    frequency:    5.8792949767
  - # 9
    frequency:    5.9652414532
  - # 10
    frequency:    6.6944354404
  - # 11
    frequency:    6.8864020744
  - # 12
    frequency:    7.1598549516
  - # 13
    frequency:   10.8238692476
  - # 14
    frequency:   12.9851892515
  - # 15
    frequency:   17.1256702723
  - # 16
    frequency:   17.1952301459
  - # 17
    frequency:   17.4112312264
  - # 18
    frequency:   17.4222607954
  - # 19
    frequency:   17.6973864247
  - # 20
    frequency:   38.3699929699
  - # 21
    frequency:   68.7952024197

- q-position: [    0.0505051,    0.0000000,    0.0000000 ]
  distance:    0.0180493
  band:
  - # 1
    frequency:    0.2059712153
  - # 2
    frequency:    0.3395961766
  - # 3
    frequency:    0.7363204973
  - # 4
    frequency:    0.7764530757
  - # 5
    frequency:    1.2753708891
  - # 6
    frequency:    4.8887744363
  - # 7
    frequency:    4.9605625480
  - # 8
    frequency:    5.8788034626
  - # 9
    frequency:    5.9836174578
  - # 10
    frequency:    6.6776683852
  - # 11
    frequency:    6.8911396718
  - # 12
    frequency:    7.1915783515
  - # 13
    frequency:   10.8138789320
  - # 14
    frequency:   12.9708945668
  - # 15
    frequency:   17.1118710552
  - # 16
    frequency:   17.1968041211
  - # 17
    frequency:   17.4122735840
  - # 18
    frequency:   17.4254993375
  - # 19
    frequency:   17.6905469884
  - # 20
    frequency:   38.3696500244
  - # 21
    frequency:   68.7721964646

- q-position: [    0.0555556,    0.0000000,    0.0000000 ]
  distance:    0.0198542
  band:
  - # 1
    frequency:    0.2467277780
  - # 2
    frequency:    0.3518400947
  - # 3
    frequency:    0.7939338840
  - # 4
    frequency:    0.8437224392
  - # 5
    frequency:    1.3988226098
  - # 6
    frequency:    4.8900463808
  - # 7
    frequency:    4.9758763225
  - # 8
    frequency:    5.8782136255
  - # 9
    frequency:    6.0033453523
  - # 10
    frequency:    6.6620867320
  - # 11
    frequency:    6.8962699335
  - # 12
    frequency:    7.2237704526
  - # 13
    frequency:   10.8028656998
  - # 14
    frequency:   12.9551583865
  - # 15
    frequency:   17.0968514994
  - # 16
    frequency:   17.1983760652
  - # 17
    frequency:   17.4133935711
  - # 18
    frequency:   17.4288263612
  - # 19
    frequency:   17.6833054914
  - # 20
    frequency:   38.3692753735
  - # 21
    frequency:   68.7469417273

- q-position: [    0.0606061,    0.0000000,    0.0000000 ]
  distance:    0.0216592
  band:
  - # 1
    frequency:    0.2907099152
  - # 2
    frequency:    0.3637915112
  - # 3
    frequency:    0.8521580698
  - # 4
    frequency:    0.9124329279
  - # 5
    frequency:    1.5224807014
  - # 6
    frequency:    4.8915300086
  - # 7
    frequency:    4.9923464372
  - # 8
    frequency:    5.8775173701
  - # 9
    frequency:    6.0242755327
  - # 10
    frequency:    6.6477587725
  - # 11
    frequency:    6.9017620147
  - # 12
    frequency:    7.2563882189
  - # 13
    frequency:   10.7908392130
  - # 14
    frequency:   12.9379992701
  - # 15
    frequency:   17.0806742336
  - # 16
    frequency:   17.1998959434
  - # 17
    frequency:   17.4145871308
  - # 18
    frequency:   17.4321420576
  - # 19
    frequency:   17.6757828935
  - # 20
    frequency:   38.3688703135
  - # 21
    frequency:   68.7194888430

- q-position: [    0.0656566,    0.0000000,    0.0000000 ]
  distance:    0.0234641
  band:
  - # 1
    frequency:    0.3377872617
  - # 2
    frequency:    0.3757480492
  - # 3
    frequency:    0.9108577453
  - # 4
    frequency:    0.9822483227
  - # 5
    frequency:    1.6461884522
  - # 6
    frequency:    4.8932417976
  - # 7
    frequency:    5.0098941806
  - # 8
    frequency:    5.8767080404
  - # 9
    frequency:    6.0462534068
  - # 10
    frequency:    6.6347539633
  - # 11
    frequency:    6.9075827677
  - # 12
    frequency:    7.2893906115
  - # 13
    frequency:   10.7778105039
  - # 14
    frequency:   12.9194373834
  - # 15
    frequency:   17.0634060371
  - # 16
    frequency:   17.2013089973
  - # 17
    frequency:   17.4158509294
  - # 18
    frequency:   17.4353235570
  - # 19
    frequency:   17.6681260425
  - # 20
    frequency:   38.3684362535
  - # 21
    frequency:   68.6898926891

- q-position: [    0.0707071,    0.0000000,    0.0000000 ]
  distance:    0.0252690
  band:
  - # 1
    frequency:    0.3878231524
  - # 2
    frequency:    0.3879002907
  - # 3
    frequency:    0.9699126564
  - # 4
    frequency:    1.0529443611
  - # 5
    frequency:    1.7698192118
  - # 6
    frequency:    4.8951966694
  - # 7
    frequency:    5.0284366372
  - # 8
    frequency:    5.8757807219
  - # 9
    frequency:    6.0691205751
  - # 10
    frequency:    6.6231442280
  - # 11
    frequency:    6.9136969945
  - # 12
    frequency:    7.3227375563
  - # 13
    frequency:   10.7637920668
  - # 14
    frequency:   12.8994944727
  - # 15
    frequency:   17.0451177607
  - # 16
    frequency:   17.2025557009
  - # 17
    frequency:   17.4171822415
  - # 18
    frequency:   17.4382208982
  - # 19
    frequency:   17.6605119814
  - # 20
    frequency:   38.3679747116
  - # 21
    frequency:   68.6582122308

- q-position: [    0.0757576,    0.0000000,    0.0000000 ]
  distance:    0.0270740
  band:
  - # 1
    frequency:    0.4003724753
  - # 2
    frequency:    0.4406762632
  - # 3
    frequency:    1.0292191809
  - # 4
    frequency:    1.1243662274
  - # 5
    frequency:    1.8932610115
  - # 6
    frequency:    4.8974075219
  - # 7
    frequency:    5.0478876875
  - # 8
    frequency:    5.8747324849
  - # 9
    frequency:    6.0927157732
  - # 10
    frequency:    6.6130049024
  - # 11
    frequency:    6.9200677378
  - # 12
    frequency:    7.3563892874
  - # 13
    frequency:   10.7487979473
  - # 14
    frequency:   12.8781938414
  - # 15
    frequency:   17.0258842369
  - # 16
    frequency:   17.2035716955
  - # 17
    frequency:   17.4185788248
  - # 18
    frequency:   17.4406540947
  - # 19
    frequency:   17.6531511998
  - # 20
    frequency:   38.3674873119
  - # 21
    frequency:   68.6245103559

- q-position: [    0.0808081,    0.0000000,    0.0000000 ]
  distance:    0.0288789
  band:
  - # 1
    frequency:    0.4132468038
  - # 2
    frequency:    0.4962021125
  - # 3
    frequency:    1.0886890174
  - # 4
    frequency:    1.1964029091
  - # 5
    frequency:    2.0164078992
  - # 6
    frequency:    4.8998848030
  - # 7
    frequency:    5.0681590981
  - # 8
    frequency:    5.8735625672
  - # 9
    frequency:    6.1168756067
  - # 10
    frequency:    6.6044154412
  - # 11
    frequency:    6.9266566039
  - # 12
    frequency:    7.3903059097
  - # 13
    frequency:   10.7328438252
  - # 14
    frequency:   12.8555603310
  - # 15
    frequency:   17.0057841678
  - # 16
    frequency:   17.2042877095
  - # 17
    frequency:   17.4200388005
  - # 18
    frequency:   17.4424134344
  - # 19
    frequency:   17.6462876849
  - # 20
    frequency:   38.3669757797
  - # 21
    frequency:   68.5888536987

- q-position: [    0.0858586,    0.0000000,    0.0000000 ]
  distance:    0.0306838
  band:
  - # 1
    frequency:    0.4265781950
  - # 2
    frequency:    0.5542543923
  - # 3
    frequency:    1.1482470757
  - # 4
    frequency:    1.2689714260
  - # 5
    frequency:    2.1391547848
  - # 6
    frequency:    4.9026361290
  - # 7
    frequency:    5.0891616730
  - # 8
    frequency:    5.8722724974
  - # 9
    frequency:    6.1414351627
  - # 10
    frequency:    6.5974598897
  - # 11
    frequency:    6.9334241144
  - # 12
    frequency:    7.4244470935
  - # 13
    frequency:   10.7159470912
  - # 14
    frequency:   12.8316203069
  - # 15
    frequency:   16.9848999827
  - # 16
    frequency:   17.2046294762
  - # 17
    frequency:   17.4215605457
  - # 18
    frequency:   17.4432663033
  - # 19
    frequency:   17.6401924701
  - # 20
    frequency:   38.3664419372
  - # 21
    frequency:   68.5513124532

- q-position: [    0.0909091,    0.0000000,    0.0000000 ]
  distance:    0.0324887
  band:
  - # 1
    frequency:    0.4404034455
  - # 2
    frequency:    0.6146861239
  - # 3
    frequency:    1.2078293518
  - # 4
    frequency:    1.3420068913
  - # 5
    frequency:    2.2613942366
  - # 6
    frequency:    4.9056659524
  - # 7
    frequency:    5.1108064347
  - # 8
    frequency:    5.8708661629
  - # 9
    frequency:    6.1662286533
  - # 10
    frequency:    6.5922270236
  - # 11
    frequency:    6.9403300786
  - # 12
    frequency:    7.4587718558
  - # 13
    frequency:   10.6981269139
  - # 14
    frequency:   12.8064016486
  - # 15
    frequency:   16.9633176607
  - # 16
    frequency:   17.2045176791
  - # 17
    frequency:   17.4231426000
  - # 18
    frequency:   17.4429742056
  - # 19
    frequency:   17.6351469758
  - # 20
    frequency:   38.3658876990
  - # 21
    frequency:   68.5119601764

- q-position: [    0.0959596,    0.0000000,    0.0000000 ]
  distance:    0.0342937
  band:
  - # 1
    frequency:    0.4547470433
  - # 2
    frequency:    0.6773506427
  - # 3
    frequency:    1.2673810528
  - # 4
    frequency:    1.4154560856
  - # 5
    frequency:    2.3830144276
  - # 6
    frequency:    4.9089752810
  - # 7
    frequency:    5.1330058024
  - # 8
    frequency:    5.8693498265
  - # 9
    frequency:    6.1910903463
  - # 10
    frequency:    6.5888099438
  - # 11
    frequency:    6.9473339797
  - # 12
    frequency:    7.4932383985
  - # 13
    frequency:   10.6794042971
  - # 14
    frequency:   12.7799337442
  - # 15
    frequency:   16.9411265198
  - # 16
    frequency:   17.2038679765
  - # 17
    frequency:   17.4247835905
  - # 18
    frequency:   17.4413215969
  - # 19
    frequency:   17.6314144727
  - # 20
    frequency:   38.3653150658
  - # 21
    frequency:   68.4708735822

- q-position: [    0.1010101,    0.0000000,    0.0000000 ]
  distance:    0.0360986
  band:
  - # 1
    frequency:    0.4696249373
  - # 2
    frequency:    0.7421024194
  - # 3
    frequency:    1.3268550325
  - # 4
    frequency:    1.4892732018
  - # 5
    frequency:    2.5038978006
  - # 6
    frequency:    4.9125614485
  - # 7
    frequency:    5.1556747357
  - # 8
    frequency:    5.8677321005
  - # 9
    frequency:    6.2158561652
  - # 10
    frequency:    6.5873047853
  - # 11
    frequency:    6.9543953675
  - # 12
    frequency:    7.5278039888
  - # 13
    frequency:   10.6598021261
  - # 14
    frequency:   12.7522474897
  - # 15
    frequency:   16.9184189717
  - # 16
    frequency:   17.2025911896
  - # 17
    frequency:   17.4264821703
  - # 18
    frequency:   17.4381523635
  - # 19
    frequency:   17.6292037527
  - # 20
    frequency:   38.3647261193
  - # 21
    frequency:   68.4281323268

- q-position: [    0.1060606,    0.0000000,    0.0000000 ]
  distance:    0.0379035
  band:
  - # 1
    frequency:    0.4850470266
  - # 2
    frequency:    0.8087977283
  - # 3
    frequency:    1.3862105256
  - # 4
    frequency:    1.5634169662
  - # 5
    frequency:    2.6239202119
  - # 6
    frequency:    4.9164179371
  - # 7
    frequency:    5.1787318114
  - # 8
    frequency:    5.8660238841
  - # 9
    frequency:    6.2403664668
  - # 10
    frequency:    6.5878080645
  - # 11
    frequency:    6.9614742498
  - # 12
    frequency:    7.5624248701
  - # 13
    frequency:   10.6393452002
  - # 14
    frequency:   12.7233752918
  - # 15
    frequency:   16.8952902451
  - # 16
    frequency:   17.2005937804
  - # 17
    frequency:   17.4282369720
  - # 18
    frequency:   17.4334023667
  - # 19
    frequency:   17.6286364539
  - # 20
    frequency:   38.3641230152
  - # 21
    frequency:   68.3838187862

- q-position: [    0.1111111,    0.0000000,    0.0000000 ]
  distance:    0.0397085
  band:
  - # 1
    frequency:    0.5010188289
  - # 2
    frequency:    0.8772951709
  - # 3
    frequency:    1.4454121418
  - # 4
    frequency:    1.6378486534
  - # 5
    frequency:    2.7429504171
  - # 6
    frequency:    4.9205342512
  - # 7
    frequency:    5.2021002029
  - # 8
    frequency:    5.8642382733
  - # 9
    frequency:    6.2644705691
  - # 10
    frequency:    6.5904121254
  - # 11
    frequency:    6.9685314743
  - # 12
    frequency:    7.5970561986
  - # 13
    frequency:   10.6180602540
  - # 14
    frequency:   12.6933510742
  - # 15
    frequency:   16.8718380799
  - # 16
    frequency:   17.1977787955
  - # 17
    frequency:   17.4271139587
  - # 18
    frequency:   17.4300465718
  - # 19
    frequency:   17.6297319614
  - # 20
    frequency:   38.3635079766
  - # 21
    frequency:   68.3380178256

- q-position: [    0.1161616,    0.0000000,    0.0000000 ]
  distance:    0.0415134
  band:
  - # 1
    frequency:    0.5175426115
  - # 2
    frequency:    0.9474560631
  - # 3
    frequency:    1.5044290822
  - # 4
    frequency:    1.7125306981
  - # 5
    frequency:    2.8608498232
  - # 6
    frequency:    4.9248958420
  - # 7
    frequency:    5.2257085320
  - # 8
    frequency:    5.8623904496
  - # 9
    frequency:    6.2880334911
  - # 10
    frequency:    6.5951982525
  - # 11
    frequency:    6.9755290958
  - # 12
    frequency:    7.6316519995
  - # 13
    frequency:   10.5959759631
  - # 14
    frequency:   12.6622102855
  - # 15
    frequency:   16.8481623951
  - # 16
    frequency:   17.1940474928
  - # 17
    frequency:   17.4194256613
  - # 18
    frequency:   17.4319094641
  - # 19
    frequency:   17.6324164692
  - # 20
    frequency:   38.3628832869
  - # 21
    frequency:   68.2908165631

- q-position: [    0.1212121,    0.0000000,    0.0000000 ]
  distance:    0.0433183
  band:
  - # 1
    frequency:    0.5346181612
  - # 2
    frequency:    1.0191446938
  - # 3
    frequency:    1.5632345451
  - # 4
    frequency:    1.7874257139
  - # 5
    frequency:    2.9774724683
  - # 6
    frequency:    4.9294840808
  - # 7
    frequency:    5.2494915643
  - # 8
    frequency:    5.8604975541
  - # 9
    frequency:    6.3109449106
  - # 10
    frequency:    6.6022274724
  - # 11
    frequency:    6.9824307212
  - # 12
    frequency:    7.6661651422
  - # 13
    frequency:   10.5731229369
  - # 14
    frequency:   12.6299899095
  - # 15
    frequency:   16.8243649326
  - # 16
    frequency:   17.1893018863
  - # 17
    frequency:   17.4105426574
  - # 18
    frequency:   17.4338240431
  - # 19
    frequency:   17.6365503152
  - # 20
    frequency:   38.3622512816
  - # 21
    frequency:   68.2423041267

- q-position: [    0.1262626,    0.0000000,    0.0000000 ]
  distance:    0.0451233
  band:
  - # 1
    frequency:    0.5522433103
  - # 2
    frequency:    1.0922284578
  - # 3
    frequency:    1.6218052946
  - # 4
    frequency:    1.8624957955
  - # 5
    frequency:    3.0926652117
  - # 6
    frequency:    4.9342762818
  - # 7
    frequency:    5.2733907224
  - # 8
    frequency:    5.8585785533
  - # 9
    frequency:    6.3331294642
  - # 10
    frequency:    6.6115299410
  - # 11
    frequency:    6.9892018277
  - # 12
    frequency:    7.7005473297
  - # 13
    frequency:   10.5495336962
  - # 14
    frequency:   12.5967284742
  - # 15
    frequency:   16.8005488792
  - # 16
    frequency:   17.1834483894
  - # 17
    frequency:   17.4007009805
  - # 18
    frequency:   17.4357885913
  - # 19
    frequency:   17.6419605242
  - # 20
    frequency:   38.3616143404
  - # 21
    frequency:   68.1925714067

- q-position: [    0.1313131,    0.0000000,    0.0000000 ]
  distance:    0.0469282
  band:
  - # 1
    frequency:    0.5704142904
  - # 2
    frequency:    1.1665778652
  - # 3
    frequency:    1.6801213789
  - # 4
    frequency:    1.9377020219
  - # 5
    frequency:    3.2062681350
  - # 6
    frequency:    4.9392457733
  - # 7
    frequency:    5.2973543935
  - # 8
    frequency:    5.8566540994
  - # 9
    frequency:    6.3545563506
  - # 10
    frequency:    6.6230949722
  - # 11
    frequency:    6.9958100501
  - # 12
    frequency:    7.7347491025
  - # 13
    frequency:   10.5252426362
  - # 14
    frequency:   12.5624660612
  - # 15
    frequency:   16.7768184702
  - # 16
    frequency:   17.1764025773
  - # 17
    frequency:   17.3901362625
  - # 18
    frequency:   17.4378012717
  - # 19
    frequency:   17.6484676700
  - # 20
    frequency:   38.3609748783
  - # 21
    frequency:   68.1417108031

- q-position: [    0.1363636,    0.0000000,    0.0000000 ]
  distance:    0.0487331
  band:
  - # 1
    frequency:    0.5891259677
  - # 2
    frequency:    1.2420664214
  - # 3
    frequency:    1.7381659915
  - # 4
    frequency:    2.0130041048
  - # 5
    frequency:    3.3181151674
  - # 6
    frequency:    4.9443620177
  - # 7
    frequency:    5.3213380105
  - # 8
    frequency:    5.8547463886
  - # 9
    frequency:    6.3752453227
  - # 10
    frequency:    6.6368646329
  - # 11
    frequency:    7.0022254333
  - # 12
    frequency:    7.7687198549
  - # 13
    frequency:   10.5002859744
  - # 14
    frequency:   12.5272443120
  - # 15
    frequency:   16.7532785754
  - # 16
    frequency:   17.1680947996
  - # 17
    frequency:   17.3790615353
  - # 18
    frequency:   17.4398601252
  - # 19
    frequency:   17.6559028296
  - # 20
    frequency:   38.3603353368
  - # 21
    frequency:   68.0898159704

- q-position: [    0.1414141,    0.0000000,    0.0000000 ]
  distance:    0.0505380
  band:
  - # 1
    frequency:    0.6083719926
  - # 2
    frequency:    1.3185703675
  - # 3
    frequency:    1.7959254805
  - # 4
    frequency:    2.0883601413
  - # 5
    frequency:    3.4280349537
  - # 6
    frequency:    4.9495907825
  - # 7
    frequency:    5.3453038945
  - # 8
    frequency:    5.8528790184
  - # 9
    frequency:    6.3952663373
  - # 10
    frequency:    6.6527336362
  - # 11
    frequency:    7.0084206479
  - # 12
    frequency:    7.8024078608
  - # 13
    frequency:   10.4747016834
  - # 14
    frequency:   12.4911064306
  - # 15
    frequency:   16.7300342714
  - # 16
    frequency:   17.1584759895
  - # 17
    frequency:   17.3676537470
  - # 18
    frequency:   17.4419630697
  - # 19
    frequency:   17.6641156164
  - # 20
    frequency:   38.3596981745
  - # 21
    frequency:   68.0369815588

- q-position: [    0.1464646,    0.0000000,    0.0000000 ]
  distance:    0.0523430
  band:
  - # 1
    frequency:    0.6281448891
  - # 2
    frequency:    1.3959682581
  - # 3
    frequency:    1.8533895264
  - # 4
    frequency:    2.1637264429
  - # 5
    frequency:    3.5358519931
  - # 6
    frequency:    4.9548943624
  - # 7
    frequency:    5.3692208484
  - # 8
    frequency:    5.8510768435
  - # 9
    frequency:    6.4147317580
  - # 10
    frequency:    6.6705566287
  - # 11
    frequency:    7.0143711664
  - # 12
    frequency:    7.8357603109
  - # 13
    frequency:   10.4485294081
  - # 14
    frequency:   12.4540971824
  - # 15
    frequency:   16.7071904008
  - # 16
    frequency:   17.1475226763
  - # 17
    frequency:   17.3560470387
  - # 18
    frequency:   17.4441079022
  - # 19
    frequency:   17.6729762370
  - # 20
    frequency:   38.3590658573
  - # 21
    frequency:   67.9833029539

- q-position: [    0.1515152,    0.0000000,    0.0000000 ]
  distance:    0.0541479
  band:
  - # 1
    frequency:    0.6484361006
  - # 2
    frequency:    1.4741403386
  - # 3
    frequency:    1.9105515222
  - # 4
    frequency:    2.2390574188
  - # 5
    frequency:    3.6413880766
  - # 6
    frequency:    4.9602318581
  - # 7
    frequency:    5.3930635033
  - # 8
    frequency:    5.8493658288
  - # 9
    frequency:    6.4337824591
  - # 10
    frequency:    6.6901615082
  - # 11
    frequency:    7.0200553997
  - # 12
    frequency:    7.8687233567
  - # 13
    frequency:   10.4218103655
  - # 14
    frequency:   12.4162628856
  - # 15
    frequency:   16.6848511222
  - # 16
    frequency:   17.1352400991
  - # 17
    frequency:   17.3443311126
  - # 18
    frequency:   17.4462923021
  - # 19
    frequency:   17.6823743361
  - # 20
    frequency:   38.3584408483
  - # 21
    frequency:   67.9288760157