nqpoint: 300    
npath: 3      
segment_nqpoint:
- 100
- 100
- 100
labels:
- [ 'G', 'M' ]
- [ 'M', 'K' ]
- [ 'K', 'G' ]
reciprocal_lattice:
- [   0.31497751,   0.18185235,   0.00000000 ] # a*
- [   0.00000000,   0.36370470,   0.00000000 ] # b*
- [   0.00000000,   0.00000000,   0.03763164 ] # c*
natom: 8      
lattice:
- [     3.174829858906381,     0.000000000000000,     0.000000000000000 ] # a
- [    -1.587414929453190,     2.749483310492137,     0.000000000000000 ] # b
- [     0.000000000000000,     0.000000000000000,    26.573384227873486 ] # c
points:
- symbol: C # 1
  coordinates: [  0.000000000000000,  0.000000000000000,  0.464406487450579 ]
  mass: 12.010700
- symbol: C # 2
  coordinates: [  0.333332985432215,  0.666666983183674,  0.602983017353846 ]
  mass: 12.010700
- symbol: H # 3
  coordinates: [  0.666666984744047,  0.333332985985145,  0.338684750230634 ]
  mass: 1.007940
- symbol: N # 4
  coordinates: [  0.333332985432215,  0.666666983183674,  0.555827590464333 ]
  mass: 14.006700
- symbol: O # 5
  coordinates: [  0.666666984744047,  0.333332985985145,  0.375768904368761 ]
  mass: 15.999400
- symbol: S # 6
  coordinates: [  0.333332985432215,  0.666666983183674,  0.661315249769366 ]
  mass: 32.065000
- symbol: Ti # 7
  coordinates: [  0.333332985432215,  0.666666983183674,  0.422749179253628 ]
  mass: 47.867000
- symbol: Ti # 8
  coordinates: [  0.666666984744047,  0.333332985985145,  0.507516157205028 ]
  mass: 47.867000

phonon:
- q-position: [    0.0000000,    0.0000000,    0.0000000 ]
  distance:    0.0000000
  band:
  - # 1
    frequency:   -0.0000034545
  - # 2
    frequency:   -0.0000011140
  - # 3
    frequency:    0.0000036309
  - # 4
    frequency:    1.0800677134
  - # 5
    frequency:    1.0800677135
  - # 6
    frequency:    5.5292430632
  - # 7
    frequency:    5.5292430632
  - # 8
    frequency:    6.3768300339
  - # 9
    frequency:    7.4884009816
  - # 10
    frequency:    7.4884009816
  - # 11
    frequency:    7.9484343967
  - # 12
    frequency:    7.9484343967
  - # 13
    frequency:    9.8927593934
  - # 14
    frequency:   13.0130926940
  - # 15
    frequency:   13.0130926940
  - # 16
    frequency:   13.6210955849
  - # 17
    frequency:   13.6673214677
  - # 18
    frequency:   13.6673214677
  - # 19
    frequency:   17.8662293435
  - # 20
    frequency:   17.8662293435
  - # 21
    frequency:   18.0090583408
  - # 22
    frequency:   27.2860676221
  - # 23
    frequency:   57.2153810957
  - # 24
    frequency:  112.7011559116

- q-position: [    0.0050505,    0.0000000,    0.0000000 ]
  distance:    0.0018369
  band:
  - # 1
    frequency:   -0.1379363982
  - # 2
    frequency:    0.0950056867
  - # 3
    frequency:    0.1869064386
  - # 4
    frequency:    1.0821484521
  - # 5
    frequency:    1.0873574821
  - # 6
    frequency:    5.5299199674
  - # 7
    frequency:    5.5300903004
  - # 8
    frequency:    6.3768051476
  - # 9
    frequency:    7.4892936555
  - # 10
    frequency:    7.4897541388
  - # 11
    frequency:    7.9486412429
  - # 12
    frequency:    7.9495124548
  - # 13
    frequency:    9.8930644117
  - # 14
    frequency:   13.0103844639
  - # 15
    frequency:   13.0137586917
  - # 16
    frequency:   13.6245864909
  - # 17
    frequency:   13.6675231856
  - # 18
    frequency:   13.6683501392
  - # 19
    frequency:   17.8671356703
  - # 20
    frequency:   17.8671919198
  - # 21
    frequency:   18.0090993735
  - # 22
    frequency:   27.2859752461
  - # 23
    frequency:   57.2145571313
  - # 24
    frequency:  112.7009827510

- q-position: [    0.0101010,    0.0000000,    0.0000000 ]
  distance:    0.0036738
  band:
  - # 1
    frequency:   -0.1728797816
  - # 2
    frequency:    0.1897933744
  - # 3
    frequency:    0.3062271672
  - # 4
    frequency:    1.0883941354
  - # 5
    frequency:    1.1088389964
  - # 6
    frequency:    5.5319456564
  - # 7
    frequency:    5.5326199783
  - # 8
    frequency:    6.3767400523
  - # 9
    frequency:    7.4919590909
  - # 10
    frequency:    7.4938020180
  - # 11
    frequency:    7.9492655596
  - # 12
    frequency:    7.9527409209
  - # 13
    frequency:    9.8939757006
  - # 14
    frequency:   13.0024780093
  - # 15
    frequency:   13.0157540281
  - # 16
    frequency:   13.6344469141
  - # 17
    frequency:   13.6681275406
  - # 18
    frequency:   13.6718248269
  - # 19
    frequency:   17.8698460990
  - # 20
    frequency:   17.8700630686
  - # 21
    frequency:   18.0092292689
  - # 22
    frequency:   27.2856980003
  - # 23
    frequency:   57.2120865893
  - # 24
    frequency:  112.7004622481

- q-position: [    0.0151515,    0.0000000,    0.0000000 ]
  distance:    0.0055107
  band:
  - # 1
    frequency:   -0.1921972010
  - # 2
    frequency:    0.2841315542
  - # 3
    frequency:    0.4260850013
  - # 4
    frequency:    1.0988182437
  - # 5
    frequency:    1.1434658412
  - # 6
    frequency:    5.5353051240
  - # 7
    frequency:    5.5367961660
  - # 8
    frequency:    6.3766631834
  - # 9
    frequency:    7.4963595514
  - # 10
    frequency:    7.5005101761
  - # 11
    frequency:    7.9503187698
  - # 12
    frequency:    7.9581027111
  - # 13
    frequency:    9.8954820308
  - # 14
    frequency:   12.9899645054
  - # 15
    frequency:   13.0190707579
  - # 16
    frequency:   13.6482700168
  - # 17
    frequency:   13.6691321407
  - # 18
    frequency:   13.6795450784
  - # 19
    frequency:   17.8743350584
  - # 20
    frequency:   17.8747917683
  - # 21
    frequency:   18.0094697756
  - # 22
    frequency:   27.2852355343
  - # 23
    frequency:   57.2079735189
  - # 24
    frequency:  112.6995913589

- q-position: [    0.0202020,    0.0000000,    0.0000000 ]
  distance:    0.0073476
  band:
  - # 1
    frequency:   -0.2037486049
  - # 2
    frequency:    0.3777602743
  - # 3
    frequency:    0.5481038414
  - # 4
    frequency:    1.1134535884
  - # 5
    frequency:    1.1898112330
  - # 6
    frequency:    5.5399735739
  - # 7
    frequency:    5.5425595407
  - # 8
    frequency:    6.3766211060
  - # 9
    frequency:    7.5024322260
  - # 10
    frequency:    7.5098222908
  - # 11
    frequency:    7.9518201994
  - # 12
    frequency:    7.9655694863
  - # 13
    frequency:    9.8975649174
  - # 14
    frequency:   12.9736561872
  - # 15
    frequency:   13.0236957166
  - # 16
    frequency:   13.6610573279
  - # 17
    frequency:   13.6705330141
  - # 18
    frequency:   13.6956704187
  - # 19
    frequency:   17.8805602110
  - # 20
    frequency:   17.8812883243
  - # 21
    frequency:   18.0098620532
  - # 22
    frequency:   27.2845872714
  - # 23
    frequency:   57.2022246539
  - # 24
    frequency:  112.6983650723

- q-position: [    0.0252525,    0.0000000,    0.0000000 ]
  distance:    0.0091845
  band:
  - # 1
    frequency:   -0.2084767763
  - # 2
    frequency:    0.4703734242
  - # 3
    frequency:    0.6715495192
  - # 4
    frequency:    1.1323680465
  - # 5
    frequency:    1.2463615929
  - # 6
    frequency:    5.5459167345
  - # 7
    frequency:    5.5498282134
  - # 8
    frequency:    6.3766773586
  - # 9
    frequency:    7.5100893694
  - # 10
    frequency:    7.5216616847
  - # 11
    frequency:    7.9537974816
  - # 12
    frequency:    7.9751018533
  - # 13
    frequency:    9.9001989590
  - # 14
    frequency:   12.9544248608
  - # 15
    frequency:   13.0296106376
  - # 16
    frequency:   13.6704141373
  - # 17
    frequency:   13.6723246311
  - # 18
    frequency:   13.7216866583
  - # 19
    frequency:   17.8884628694
  - # 20
    frequency:   17.8894158974
  - # 21
    frequency:   18.0104755209
  - # 22
    frequency:   27.2837524212
  - # 23
    frequency:   57.1948493898
  - # 24
    frequency:  112.6967765032

- q-position: [    0.0303030,    0.0000000,    0.0000000 ]
  distance:    0.0110214
  band:
  - # 1
    frequency:   -0.2052597444
  - # 2
    frequency:    0.5615972762
  - # 3
    frequency:    0.7956383862
  - # 4
    frequency:    1.1556866278
  - # 5
    frequency:    1.3117247433
  - # 6
    frequency:    5.5530912925
  - # 7
    frequency:    5.5584988554
  - # 8
    frequency:    6.3769109818
  - # 9
    frequency:    7.5192185416
  - # 10
    frequency:    7.5359332748
  - # 11
    frequency:    7.9562870652
  - # 12
    frequency:    7.9866496485
  - # 13
    frequency:    9.9033523010
  - # 14
    frequency:   12.9330867176
  - # 15
    frequency:   13.0367923103
  - # 16
    frequency:   13.6744999351
  - # 17
    frequency:   13.6784727838
  - # 18
    frequency:   13.7545980852
  - # 19
    frequency:   17.8979685751
  - # 20
    frequency:   17.8989752551
  - # 21
    frequency:   18.0114236358
  - # 22
    frequency:   27.2827299959
  - # 23
    frequency:   57.1858597530
  - # 24
    frequency:  112.6948170218

- q-position: [    0.0353535,    0.0000000,    0.0000000 ]
  distance:    0.0128582
  band:
  - # 1
    frequency:   -0.1917285782
  - # 2
    frequency:    0.6509657806
  - # 3
    frequency:    0.9197428980
  - # 4
    frequency:    1.1836184655
  - # 5
    frequency:    1.3847343697
  - # 6
    frequency:    5.5614454340
  - # 7
    frequency:    5.5684481060
  - # 8
    frequency:    6.3774148408
  - # 9
    frequency:    7.5296830029
  - # 10
    frequency:    7.5525258001
  - # 11
    frequency:    7.9593347513
  - # 12
    frequency:    8.0001523025
  - # 13
    frequency:    9.9069872109
  - # 14
    frequency:   12.9103450188
  - # 15
    frequency:   13.0452127792
  - # 16
    frequency:   13.6770503832
  - # 17
    frequency:   13.6866792436
  - # 18
    frequency:   13.7921985577
  - # 19
    frequency:   17.9089878297
  - # 20
    frequency:   17.9096786084
  - # 21
    frequency:   18.0128907317
  - # 22
    frequency:   27.2815188311
  - # 23
    frequency:   57.1752703603
  - # 24
    frequency:  112.6924764165

- q-position: [    0.0404040,    0.0000000,    0.0000000 ]
  distance:    0.0146951
  band:
  - # 1
    frequency:   -0.1631415384
  - # 2
    frequency:    0.7378971697
  - # 3
    frequency:    1.0433415019
  - # 4
    frequency:    1.2164834129
  - # 5
    frequency:    1.4644784563
  - # 6
    frequency:    5.5709194835
  - # 7
    frequency:    5.5795342488
  - # 8
    frequency:    6.3782938332
  - # 9
    frequency:    7.5413223632
  - # 10
    frequency:    7.5713141834
  - # 11
    frequency:    7.9629961400
  - # 12
    frequency:    8.0155392854
  - # 13
    frequency:    9.9110607524
  - # 14
    frequency:   12.8867755703
  - # 15
    frequency:   13.0548395783
  - # 16
    frequency:   13.6799659949
  - # 17
    frequency:   13.6955412630
  - # 18
    frequency:   13.8333383245
  - # 19
    frequency:   17.9211079229
  - # 20
    frequency:   17.9214169734
  - # 21
    frequency:   18.0151745312
  - # 22
    frequency:   27.2801176119
  - # 23
    frequency:   57.1630983714
  - # 24
    frequency:  112.6897430900

- q-position: [    0.0454545,    0.0000000,    0.0000000 ]
  distance:    0.0165320
  band:
  - # 1
    frequency:   -0.1049789271
  - # 2
    frequency:    0.8216854083
  - # 3
    frequency:    1.1659646472
  - # 4
    frequency:    1.2547241135
  - # 5
    frequency:    1.5502839397
  - # 6
    frequency:    5.5814466296
  - # 7
    frequency:    5.5915991583
  - # 8
    frequency:    6.3796630366
  - # 9
    frequency:    7.5539536415
  - # 10
    frequency:    7.5921618981
  - # 11
    frequency:    7.9673368102
  - # 12
    frequency:    8.0327306291
  - # 13
    frequency:    9.9155255400
  - # 14
    frequency:   12.8628352802
  - # 15
    frequency:   13.0656359974
  - # 16
    frequency:   13.6832354113
  - # 17
    frequency:   13.7052372689
  - # 18
    frequency:   13.8773070407
  - # 19
    frequency:   17.9326608463
  - # 20
    frequency:   17.9351391982
  - # 21
    frequency:   18.0187411841
  - # 22
    frequency:   27.2785249027
  - # 23
    frequency:   57.1493634321
  - # 24
    frequency:  112.6866042855

- q-position: [    0.0505051,    0.0000000,    0.0000000 ]
  distance:    0.0183689
  band:
  - # 1
    frequency:    0.1032155578
  - # 2
    frequency:    0.9015344122
  - # 3
    frequency:    1.2871690545
  - # 4
    frequency:    1.2988751915
  - # 5
    frequency:    1.6416767145
  - # 6
    frequency:    5.5929537223
  - # 7
    frequency:    5.6044705391
  - # 8
    frequency:    6.3816458060
  - # 9
    frequency:    7.5673729596
  - # 10
    frequency:    7.6149232420
  - # 11
    frequency:    7.9724319816
  - # 12
    frequency:    8.0516375219
  - # 13
    frequency:    9.9203305589
  - # 14
    frequency:   12.8388795856
  - # 15
    frequency:   13.0775613740
  - # 16
    frequency:   13.6868459625
  - # 17
    frequency:   13.7158299180
  - # 18
    frequency:   13.9236033200
  - # 19
    frequency:   17.9435234512
  - # 20
    frequency:   17.9500256877
  - # 21
    frequency:   18.0242536271
  - # 22
    frequency:   27.2767391814
  - # 23
    frequency:   57.1340876105
  - # 24
    frequency:  112.6830463411

- q-position: [    0.0555556,    0.0000000,    0.0000000 ]
  distance:    0.0202058
  band:
  - # 1
    frequency:    0.1974930885
  - # 2
    frequency:    0.9766722672
  - # 3
    frequency:    1.3494520574
  - # 4
    frequency:    1.4065426857
  - # 5
    frequency:    1.7383234494
  - # 6
    frequency:    5.6053621302
  - # 7
    frequency:    5.6179645001
  - # 8
    frequency:    6.3843717766
  - # 9
    frequency:    7.5813581718
  - # 10
    frequency:    7.6394454535
  - # 11
    frequency:    7.9783653318
  - # 12
    frequency:    8.0721629671
  - # 13
    frequency:    9.9254220274
  - # 14
    frequency:   12.8151810440
  - # 15
    frequency:   13.0905714084
  - # 16
    frequency:   13.6907837447
  - # 17
    frequency:   13.7273345680
  - # 18
    frequency:   13.9718482376
  - # 19
    frequency:   17.9527829436
  - # 20
    frequency:   17.9659368685
  - # 21
    frequency:   18.0324601109
  - # 22
    frequency:   27.2747588776
  - # 23
    frequency:   57.1172953260
  - # 24
    frequency:  112.6790549690

- q-position: [    0.0606061,    0.0000000,    0.0000000 ]
  distance:    0.0220427
  band:
  - # 1
    frequency:    0.2731384775
  - # 2
    frequency:    1.0465552351
  - # 3
    frequency:    1.4067493968
  - # 4
    frequency:    1.5237377458
  - # 5
    frequency:    1.8399576263
  - # 6
    frequency:    5.6185886424
  - # 7
    frequency:    5.6318885272
  - # 8
    frequency:    6.3879746875
  - # 9
    frequency:    7.5956727854
  - # 10
    frequency:    7.6655706368
  - # 11
    frequency:    7.9852265884
  - # 12
    frequency:    8.0942024982
  - # 13
    frequency:    9.9307442846
  - # 14
    frequency:   12.7919458101
  - # 15
    frequency:   13.1046184941
  - # 16
    frequency:   13.6950337067
  - # 17
    frequency:   13.7397442093
  - # 18
    frequency:   14.0217445147
  - # 19
    frequency:   17.9597677253
  - # 20
    frequency:   17.9827237610
  - # 21
    frequency:   18.0438554967
  - # 22
    frequency:   27.2725824149
  - # 23
    frequency:   57.0990132713
  - # 24
    frequency:  112.6746155575

- q-position: [    0.0656566,    0.0000000,    0.0000000 ]
  distance:    0.0238796
  band:
  - # 1
    frequency:    0.3435350791
  - # 2
    frequency:    1.1110837082
  - # 3
    frequency:    1.4706271371
  - # 4
    frequency:    1.6385201771
  - # 5
    frequency:    1.9462990690
  - # 6
    frequency:    5.6325464013
  - # 7
    frequency:    5.6460449243
  - # 8
    frequency:    6.3925899178
  - # 9
    frequency:    7.6100715180
  - # 10
    frequency:    7.6931374882
  - # 11
    frequency:    7.9931075229
  - # 12
    frequency:    8.1176449377
  - # 13
    frequency:    9.9362406806
  - # 14
    frequency:   12.7693270695
  - # 15
    frequency:   13.1196520608
  - # 16
    frequency:   13.6995797446
  - # 17
    frequency:   13.7530398445
  - # 18
    frequency:   14.0730533203
  - # 19
    frequency:   17.9643642640
  - # 20
    frequency:   18.0002294155
  - # 21
    frequency:   18.0583658591
  - # 22
    frequency:   27.2702082563
  - # 23
    frequency:   57.0792703281
  - # 24
    frequency:  112.6697134906

- q-position: [    0.0707071,    0.0000000,    0.0000000 ]
  distance:    0.0257165
  band:
  - # 1
    frequency:    0.4120492144
  - # 2
    frequency:    1.1706781808
  - # 3
    frequency:    1.5404358471
  - # 4
    frequency:    1.7508117298
  - # 5
    frequency:    2.0569884953
  - # 6
    frequency:    5.6471458533
  - # 7
    frequency:    5.6602347797
  - # 8
    frequency:    6.3983516301
  - # 9
    frequency:    7.6243077051
  - # 10
    frequency:    7.7219828336
  - # 11
    frequency:    8.0020961083
  - # 12
    frequency:    8.1423731904
  - # 13
    frequency:    9.9418544519
  - # 14
    frequency:   12.7474355424
  - # 15
    frequency:   13.1356189244
  - # 16
    frequency:   13.7044048054
  - # 17
    frequency:   13.7671953469
  - # 18
    frequency:   14.1255795381
  - # 19
    frequency:   17.9669249657
  - # 20
    frequency:   18.0182904170
  - # 21
    frequency:   18.0754421913
  - # 22
    frequency:   27.2676349534
  - # 23
    frequency:   57.0580974766
  - # 24
    frequency:  112.6643344838

- q-position: [    0.0757576,    0.0000000,    0.0000000 ]
  distance:    0.0275534
  band:
  - # 1
    frequency:    0.4800416690
  - # 2
    frequency:    1.2261408781
  - # 3
    frequency:    1.6151559930
  - # 4
    frequency:    1.8606981811
  - # 5
    frequency:    2.1715615438
  - # 6
    frequency:    5.6622957046
  - # 7
    frequency:    5.6742624741
  - # 8
    frequency:    6.4053894592
  - # 9
    frequency:    7.6381424662
  - # 10
    frequency:    7.7519429977
  - # 11
    frequency:    8.0122689104
  - # 12
    frequency:    8.1682650605
  - # 13
    frequency:    9.9475295602
  - # 14
    frequency:   12.7263475271
  - # 15
    frequency:   13.1524636402
  - # 16
    frequency:   13.7094909984
  - # 17
    frequency:   13.7821799865
  - # 18
    frequency:   14.1791618359
  - # 19
    frequency:   17.9679299929
  - # 20
    frequency:   18.0367384445
  - # 21
    frequency:   18.0944002539
  - # 22
    frequency:   27.2648611980
  - # 23
    frequency:   57.0355277007
  - # 24
    frequency:  112.6584649305

- q-position: [    0.0808081,    0.0000000,    0.0000000 ]
  distance:    0.0293903
  band:
  - # 1
    frequency:    0.5481743685
  - # 2
    frequency:    1.2784055165
  - # 3
    frequency:    1.6936486596
  - # 4
    frequency:    1.9683947042
  - # 5
    frequency:    2.2894697630
  - # 6
    frequency:    5.6779038707
  - # 7
    frequency:    5.6879406697
  - # 8
    frequency:    6.4138247652
  - # 9
    frequency:    7.6513550496
  - # 10
    frequency:    7.7828550283
  - # 11
    frequency:    8.0236822701
  - # 12
    frequency:    8.1951940813
  - # 13
    frequency:    9.9532114797
  - # 14
    frequency:   12.7061110118
  - # 15
    frequency:   13.1701288552
  - # 16
    frequency:   13.7148197142
  - # 17
    frequency:   13.7979598768
  - # 18
    frequency:   14.2336657538
  - # 19
    frequency:   17.9677755851
  - # 20
    frequency:   18.0554018692
  - # 21
    frequency:   18.1146339996
  - # 22
    frequency:   27.2618858764
  - # 23
    frequency:   57.0115958875
  - # 24
    frequency:  112.6520922562

- q-position: [    0.0858586,    0.0000000,    0.0000000 ]
  distance:    0.0312272
  band:
  - # 1
    frequency:    0.6167982122
  - # 2
    frequency:    1.3283325392
  - # 3
    frequency:    1.7748604802
  - # 4
    frequency:    2.0741849979
  - # 5
    frequency:    2.4101308517
  - # 6
    frequency:    5.6938784079
  - # 7
    frequency:    5.7010956177
  - # 8
    frequency:    6.4237665829
  - # 9
    frequency:    7.6637532197
  - # 10
    frequency:    7.8145577968
  - # 11
    frequency:    8.0363633942
  - # 12
    frequency:    8.2230303529
  - # 13
    frequency:    9.9588479142
  - # 14
    frequency:   12.6867503222
  - # 15
    frequency:   13.1885556565
  - # 16
    frequency:   13.7203717497
  - # 17
    frequency:   13.8144988821
  - # 18
    frequency:   14.2889787981
  - # 19
    frequency:   17.9667330900
  - # 20
    frequency:   18.0741073733
  - # 21
    frequency:   18.1356583469
  - # 22
    frequency:   27.2587081261
  - # 23
    frequency:   56.9863387232
  - # 24
    frequency:  112.6452052758

- q-position: [    0.0909091,    0.0000000,    0.0000000 ]
  distance:    0.0330641
  band:
  - # 1
    frequency:    0.6861036521
  - # 2
    frequency:    1.3766139274
  - # 3
    frequency:    1.8579187545
  - # 4
    frequency:    2.1783615750
  - # 5
    frequency:    2.5329799555
  - # 6
    frequency:    5.7101284183
  - # 7
    frequency:    5.7135725013
  - # 8
    frequency:    6.4353075307
  - # 9
    frequency:    7.6751821290
  - # 10
    frequency:    7.8468929926
  - # 11
    frequency:    8.0503028989
  - # 12
    frequency:    8.2516413807
  - # 13
    frequency:    9.9643894335
  - # 14
    frequency:   12.6682696849
  - # 15
    frequency:   13.2076839124
  - # 16
    frequency:   13.7261274399
  - # 17
    frequency:   13.8317592386
  - # 18
    frequency:   14.3450069105
  - # 19
    frequency:   17.9649748632
  - # 20
    frequency:   18.0926815773
  - # 21
    frequency:   18.1570851327
  - # 22
    frequency:   27.2553273933
  - # 23
    frequency:   56.9597945850
  - # 24
    frequency:  112.6377945501

- q-position: [    0.0959596,    0.0000000,    0.0000000 ]
  distance:    0.0349010
  band:
  - # 1
    frequency:    0.7561896515
  - # 2
    frequency:    1.4237621833
  - # 3
    frequency:    1.9421422278
  - # 4
    frequency:    2.2811852853
  - # 5
    frequency:    2.6575033665
  - # 6
    frequency:    5.7252404340
  - # 7
    frequency:    5.7265649208
  - # 8
    frequency:    6.4485200518
  - # 9
    frequency:    7.6855301001
  - # 10
    frequency:    7.8797060227
  - # 11
    frequency:    8.0654503638
  - # 12
    frequency:    8.2808929133
  - # 13
    frequency:    9.9697900143
  - # 14
    frequency:   12.6506560015
  - # 15
    frequency:   13.2274526051
  - # 16
    frequency:   13.7320667933
  - # 17
    frequency:   13.8497020111
  - # 18
    frequency:   14.4016718886
  - # 19
    frequency:   17.9626069046
  - # 20
    frequency:   18.1109526567
  - # 21
    frequency:   18.1785923555
  - # 22
    frequency:   27.2517434925
  - # 23
    frequency:   56.9320034307
  - # 24
    frequency:  112.6298527379

- q-position: [    0.1010101,    0.0000000,    0.0000000 ]
  distance:    0.0367378
  band:
  - # 1
    frequency:    0.8270991667
  - # 2
    frequency:    1.4701379084
  - # 3
    frequency:    2.0270131671
  - # 4
    frequency:    2.3828668639
  - # 5
    frequency:    2.7832514173
  - # 6
    frequency:    5.7359966871
  - # 7
    frequency:    5.7431016781
  - # 8
    frequency:    6.4634534197
  - # 9
    frequency:    7.6947302570
  - # 10
    frequency:    7.9128468206
  - # 11
    frequency:    8.0817139507
  - # 12
    frequency:    8.3106497792
  - # 13
    frequency:    9.9750074794
  - # 14
    frequency:   12.6338810586
  - # 15
    frequency:   13.2478001517
  - # 16
    frequency:   13.7381696323
  - # 17
    frequency:   13.8682874530
  - # 18
    frequency:   14.4589094706
  - # 19
    frequency:   17.9596929154
  - # 20
    frequency:   18.1287519360
  - # 21
    frequency:   18.1999020104
  - # 22
    frequency:   27.2479566656
  - # 23
    frequency:   56.9030066853
  - # 24
    frequency:  112.6213749381

- q-position: [    0.1060606,    0.0000000,    0.0000000 ]
  distance:    0.0385747
  band:
  - # 1
    frequency:    0.8988391034
  - # 2
    frequency:    1.5159860320
  - # 3
    frequency:    2.1121407205
  - # 4
    frequency:    2.4835643540
  - # 5
    frequency:    2.9098364066
  - # 6
    frequency:    5.7457697575
  - # 7
    frequency:    5.7596559772
  - # 8
    frequency:    6.4801319134
  - # 9
    frequency:    7.7027578675
  - # 10
    frequency:    7.9461705664
  - # 11
    frequency:    8.0989642137
  - # 12
    frequency:    8.3407767248
  - # 13
    frequency:    9.9800038289
  - # 14
    frequency:   12.6179033427
  - # 15
    frequency:   13.2686647127
  - # 16
    frequency:   13.7444157351
  - # 17
    frequency:   13.8874753022
  - # 18
    frequency:   14.5166678756
  - # 19
    frequency:   17.9562698177
  - # 20
    frequency:   18.1459154445
  - # 21
    frequency:   18.2207664566
  - # 22
    frequency:   27.2439676410
  - # 23
    frequency:   56.8728471264
  - # 24
    frequency:  112.6123590196

- q-position: [    0.1111111,    0.0000000,    0.0000000 ]
  distance:    0.0404116
  band:
  - # 1
    frequency:    0.9713923620
  - # 2
    frequency:    1.5614679329
  - # 3
    frequency:    2.1972283523
  - # 4
    frequency:    2.5833888547
  - # 5
    frequency:    3.0369228672
  - # 6
    frequency:    5.7545210195
  - # 7
    frequency:    5.7761493558
  - # 8
    frequency:    6.4985544449
  - # 9
    frequency:    7.7096242218
  - # 10
    frequency:    7.9795383149
  - # 11
    frequency:    8.1170412723
  - # 12
    frequency:    8.3711392541
  - # 13
    frequency:    9.9847454583
  - # 14
    frequency:   12.6026695863
  - # 15
    frequency:   13.2899844869
  - # 16
    frequency:   13.7507849800
  - # 17
    frequency:   13.9072250349
  - # 18
    frequency:   14.5749066527
  - # 19
    frequency:   17.9523574288
  - # 20
    frequency:   18.1622854203
  - # 21
    frequency:   18.2409606075
  - # 22
    frequency:   27.2397776921
  - # 23
    frequency:   56.8415687676
  - # 24
    frequency:  112.6028059328

- q-position: [    0.1161616,    0.0000000,    0.0000000 ]
  distance:    0.0422485
  band:
  - # 1
    frequency:    1.0447255302
  - # 2
    frequency:    1.6066862196
  - # 3
    frequency:    2.2820486104
  - # 4
    frequency:    2.6824131754
  - # 5
    frequency:    3.1642154015
  - # 6
    frequency:    5.7622449076
  - # 7
    frequency:    5.7925082713
  - # 8
    frequency:    6.5186957310
  - # 9
    frequency:    7.7153684991
  - # 10
    frequency:    8.0128175271
  - # 11
    frequency:    8.1357638923
  - # 12
    frequency:    8.4016044762
  - # 13
    frequency:    9.9892032649
  - # 14
    frequency:   12.5881161412
  - # 15
    frequency:   13.3116979926
  - # 16
    frequency:   13.7572574896
  - # 17
    frequency:   13.9274960883
  - # 18
    frequency:   14.6335957291
  - # 19
    frequency:   17.9479645128
  - # 20
    frequency:   18.1777117503
  - # 21
    frequency:   18.2602777076
  - # 22
    frequency:   27.2353886938
  - # 23
    frequency:   56.8092167424
  - # 24
    frequency:  112.5927200007

- q-position: [    0.1212121,    0.0000000,    0.0000000 ]
  distance:    0.0440854
  band:
  - # 1
    frequency:    1.1187940201
  - # 2
    frequency:    1.6517026933
  - # 3
    frequency:    2.3664247176
  - # 4
    frequency:    2.7806804729
  - # 5
    frequency:    3.2914468491
  - # 6
    frequency:    5.7689678064
  - # 7
    frequency:    5.8086647094
  - # 8
    frequency:    6.5405088820
  - # 9
    frequency:    7.7200491789
  - # 10
    frequency:    8.0458825033
  - # 11
    frequency:    8.1549389152
  - # 12
    frequency:    8.4320419598
  - # 13
    frequency:    9.9933526441
  - # 14
    frequency:   12.5741702471
  - # 15
    frequency:   13.3337443327
  - # 16
    frequency:   13.7638137746
  - # 17
    frequency:   13.9482480585
  - # 18
    frequency:   14.6927145776
  - # 19
    frequency:   17.9430926414
  - # 20
    frequency:   18.1920533351
  - # 21
    frequency:   18.2785272446
  - # 22
    frequency:   27.2308031770
  - # 23
    frequency:   56.7758371871
  - # 24
    frequency:  112.5821091848

- q-position: [    0.1262626,    0.0000000,    0.0000000 ]
  distance:    0.0459223
  band:
  - # 1
    frequency:    1.1935456136
  - # 2
    frequency:    1.6965509981
  - # 3
    frequency:    2.4502174906
  - # 4
    frequency:    2.8782116593
  - # 5
    frequency:    3.4183678522
  - # 6
    frequency:    5.7747460217
  - # 7
    frequency:    5.8245567290
  - # 8
    frequency:    6.5639290949
  - # 9
    frequency:    7.7237362264
  - # 10
    frequency:    8.0786147131
  - # 11
    frequency:    8.1743698076
  - # 12
    frequency:    8.4623245985
  - # 13
    frequency:    9.9971733780
  - # 14
    frequency:   12.5607512491
  - # 15
    frequency:   13.3560634452
  - # 16
    frequency:   13.7704348756
  - # 17
    frequency:   13.9694408796
  - # 18
    frequency:   14.7522514429
  - # 19
    frequency:   17.9377387295
  - # 20
    frequency:   18.2051793667
  - # 21
    frequency:   18.2955341219
  - # 22
    frequency:   27.2260243789
  - # 23
    frequency:   56.7414771244
  - # 24
    frequency:  112.5709853224

- q-position: [    0.1313131,    0.0000000,    0.0000000 ]
  distance:    0.0477592
  band:
  - # 1
    frequency:    1.2689229678
  - # 2
    frequency:    1.7412454248
  - # 3
    frequency:    2.5333161272
  - # 4
    frequency:    2.9750112968
  - # 5
    frequency:    3.5447379637
  - # 6
    frequency:    5.7796633374
  - # 7
    frequency:    5.8401289419
  - # 8
    frequency:    6.5888780264
  - # 9
    frequency:    7.7265047636
  - # 10
    frequency:    8.1109030254
  - # 11
    frequency:    8.1938636215
  - # 12
    frequency:    8.4923294843
  - # 13
    frequency:   10.0006494257
  - # 14
    frequency:   12.5477717986
  - # 15
    frequency:   13.3785963381
  - # 16
    frequency:   13.7771025021
  - # 17
    frequency:   13.9910349844
  - # 18
    frequency:   14.8122025839
  - # 19
    frequency:   17.9318967546
  - # 20
    frequency:   18.2169705107
  - # 21
    frequency:   18.3111385646
  - # 22
    frequency:   27.2210562902
  - # 23
    frequency:   56.7061843484
  - # 24
    frequency:  112.5593643320

- q-position: [    0.1363636,    0.0000000,    0.0000000 ]
  distance:    0.0495961
  band:
  - # 1
    frequency:    1.3448654069
  - # 2
    frequency:    1.7857870146
  - # 3
    frequency:    2.6156317142
  - # 4
    frequency:    3.0710720910
  - # 5
    frequency:    3.6703180384
  - # 6
    frequency:    5.7838286990
  - # 7