nqpoint: 300    
npath: 3      
segment_nqpoint:
- 100
- 100
- 100
labels:
- [ 'G', 'M' ]
- [ 'M', 'K' ]
- [ 'K', 'G' ]
reciprocal_lattice:
- [   0.31497751,   0.18185235,   0.00000000 ] # a*
- [   0.00000000,   0.36370470,   0.00000000 ] # b*
- [   0.00000000,   0.00000000,   0.03763164 ] # c*
natom: 8      
lattice:
- [     3.174829858906381,     0.000000000000000,     0.000000000000000 ] # a
- [    -1.587414929453190,     2.749483310492137,     0.000000000000000 ] # b
- [     0.000000000000000,     0.000000000000000,    26.573384227873486 ] # c
points:
- symbol: C # 1
  coordinates: [  0.000000000000000,  0.000000000000000,  0.464406487450579 ]
  mass: 12.010700
- symbol: C # 2
  coordinates: [  0.333332985432215,  0.666666983183674,  0.602983017353846 ]
  mass: 12.010700
- symbol: H # 3
  coordinates: [  0.666666984744047,  0.333332985985145,  0.338684750230634 ]
  mass: 1.007940
- symbol: N # 4
  coordinates: [  0.333332985432215,  0.666666983183674,  0.555827590464333 ]
  mass: 14.006700
- symbol: O # 5
  coordinates: [  0.666666984744047,  0.333332985985145,  0.375768904368761 ]
  mass: 15.999400
- symbol: S # 6
  coordinates: [  0.333332985432215,  0.666666983183674,  0.661315249769366 ]
  mass: 32.065000
- symbol: Ti # 7
  coordinates: [  0.333332985432215,  0.666666983183674,  0.422749179253628 ]
  mass: 47.867000
- symbol: Ti # 8
  coordinates: [  0.666666984744047,  0.333332985985145,  0.507516157205028 ]
  mass: 47.867000

phonon:
- q-position: [    0.0000000,    0.0000000,    0.0000000 ]
  distance:    0.0000000
  band:
  - # 1
    frequency:   -0.0000293952
  - # 2
    frequency:    0.0000003234
  - # 3
    frequency:    0.0000234823
  - # 4
    frequency:    1.1416206561
  - # 5
    frequency:    1.1416206564
  - # 6
    frequency:    5.6142456549
  - # 7
    frequency:    5.6142456550
  - # 8
    frequency:    6.6458393188
  - # 9
    frequency:    7.7055323140
  - # 10
    frequency:    7.7055323141
  - # 11
    frequency:    7.9380177639
  - # 12
    frequency:    7.9380177640
  - # 13
    frequency:   10.1141233199
  - # 14
    frequency:   13.0966497626
  - # 15
    frequency:   13.0966497627
  - # 16
    frequency:   13.6881779014
  - # 17
    frequency:   13.6881779014
  - # 18
    frequency:   13.7989987032
  - # 19
    frequency:   18.1201232485
  - # 20
    frequency:   18.3231613056
  - # 21
    frequency:   18.3231613056
  - # 22
    frequency:   27.3015439873
  - # 23
    frequency:   57.1979439256
  - # 24
    frequency:  112.9218445826

- q-position: [    0.0050505,    0.0000000,    0.0000000 ]
  distance:    0.0018369
  band:
  - # 1
    frequency:    0.0033114595
  - # 2
    frequency:    0.0806700861
  - # 3
    frequency:    0.1368793780
  - # 4
    frequency:    1.1432035429
  - # 5
    frequency:    1.1477927602
  - # 6
    frequency:    5.6143486328
  - # 7
    frequency:    5.6150848028
  - # 8
    frequency:    6.6451265000
  - # 9
    frequency:    7.7053926135
  - # 10
    frequency:    7.7062288027
  - # 11
    frequency:    7.9383374397
  - # 12
    frequency:    7.9393334722
  - # 13
    frequency:   10.1138372852
  - # 14
    frequency:   13.0942749248
  - # 15
    frequency:   13.0971350858
  - # 16
    frequency:   13.6882761450
  - # 17
    frequency:   13.6886541381
  - # 18
    frequency:   13.8021546890
  - # 19
    frequency:   18.1198086004
  - # 20
    frequency:   18.3225320171
  - # 21
    frequency:   18.3228553407
  - # 22
    frequency:   27.3013926356
  - # 23
    frequency:   57.1971608555
  - # 24
    frequency:  112.9211632149

- q-position: [    0.0101010,    0.0000000,    0.0000000 ]
  distance:    0.0036738
  band:
  - # 1
    frequency:    0.0130869060
  - # 2
    frequency:    0.1613087712
  - # 3
    frequency:    0.2736349178
  - # 4
    frequency:    1.1479452806
  - # 5
    frequency:    1.1660963941
  - # 6
    frequency:    5.6146578297
  - # 7
    frequency:    5.6175944445
  - # 8
    frequency:    6.6429996526
  - # 9
    frequency:    7.7049758549
  - # 10
    frequency:    7.7083227912
  - # 11
    frequency:    7.9392936506
  - # 12
    frequency:    7.9432618614
  - # 13
    frequency:   10.1129804402
  - # 14
    frequency:   13.0872817239
  - # 15
    frequency:   13.0985896762
  - # 16
    frequency:   13.6885708669
  - # 17
    frequency:   13.6900848023
  - # 18
    frequency:   13.8114877129
  - # 19
    frequency:   18.1188654408
  - # 20
    frequency:   18.3206463531
  - # 21
    frequency:   18.3219377570
  - # 22
    frequency:   27.3009388943
  - # 23
    frequency:   57.1948127033
  - # 24
    frequency:  112.9191216225

- q-position: [    0.0151515,    0.0000000,    0.0000000 ]
  distance:    0.0055107
  band:
  - # 1
    frequency:    0.0289125892
  - # 2
    frequency:    0.2418817970
  - # 3
    frequency:    0.4101321858
  - # 4
    frequency:    1.1558259075
  - # 5
    frequency:    1.1959403480
  - # 6
    frequency:    5.6151740359
  - # 7
    frequency:    5.6217511757
  - # 8
    frequency:    6.6394934166
  - # 9
    frequency:    7.7042889414
  - # 10
    frequency:    7.7118267622
  - # 11
    frequency:    7.9408780768
  - # 12
    frequency:    7.9497481412
  - # 13
    frequency:   10.1115565672
  - # 14
    frequency:   13.0760356469
  - # 15
    frequency:   13.1010094057
  - # 16
    frequency:   13.6890620406
  - # 17
    frequency:   13.6924736946
  - # 18
    frequency:   13.8266234923
  - # 19
    frequency:   18.1172961166
  - # 20
    frequency:   18.3175109117
  - # 21
    frequency:   18.3204094868
  - # 22
    frequency:   27.3001837046
  - # 23
    frequency:   57.1909026410
  - # 24
    frequency:  112.9157273285

- q-position: [    0.0202020,    0.0000000,    0.0000000 ]
  distance:    0.0073476
  band:
  - # 1
    frequency:    0.0502030682
  - # 2
    frequency:    0.3223489623
  - # 3
    frequency:    0.5462142317
  - # 4
    frequency:    1.1668148287
  - # 5
    frequency:    1.2364753691
  - # 6
    frequency:    5.6158985663
  - # 7
    frequency:    5.6275159856
  - # 8
    frequency:    6.6346649262
  - # 9
    frequency:    7.7033429728
  - # 10
    frequency:    7.7167581745
  - # 11
    frequency:    7.9430772666
  - # 12
    frequency:    7.9587054167
  - # 13
    frequency:   10.1095719849
  - # 14
    frequency:   13.0610642639
  - # 15
    frequency:   13.1043874216
  - # 16
    frequency:   13.6897496200
  - # 17
    frequency:   13.6958225879
  - # 18
    frequency:   13.8470243716
  - # 19
    frequency:   18.1151045162
  - # 20
    frequency:   18.3131366696
  - # 21
    frequency:   18.3182720843
  - # 22
    frequency:   27.2991286335
  - # 23
    frequency:   57.1854359487
  - # 24
    frequency:  112.9109928400

- q-position: [    0.0252525,    0.0000000,    0.0000000 ]
  distance:    0.0091845
  band:
  - # 1
    frequency:    0.0763146875
  - # 2
    frequency:    0.4026605896
  - # 3
    frequency:    0.6816868534
  - # 4
    frequency:    1.1808748241
  - # 5
    frequency:    1.2867434440
  - # 6
    frequency:    5.6168332583
  - # 7
    frequency:    5.6348342327
  - # 8
    frequency:    6.6285929950
  - # 9
    frequency:    7.7021526911
  - # 10
    frequency:    7.7231352954
  - # 11
    frequency:    7.9458732041
  - # 12
    frequency:    7.9700203954
  - # 13
    frequency:   10.1070355695
  - # 14
    frequency:   13.0429712013
  - # 15
    frequency:   13.1087141867
  - # 16
    frequency:   13.6906335375
  - # 17
    frequency:   13.7001289529
  - # 18
    frequency:   13.8720776438
  - # 19
    frequency:   18.1122960337
  - # 20
    frequency:   18.3075389516
  - # 21
    frequency:   18.3155277262
  - # 22
    frequency:   27.2977758716
  - # 23
    frequency:   57.1784200047
  - # 24
    frequency:  112.9049356012

- q-position: [    0.0303030,    0.0000000,    0.0000000 ]
  distance:    0.0110214
  band:
  - # 1
    frequency:    0.1066350812
  - # 2
    frequency:    0.4827532460
  - # 3
    frequency:    0.8162995082
  - # 4
    frequency:    1.1979676781
  - # 5
    frequency:    1.3458153276
  - # 6
    frequency:    5.6179804685
  - # 7
    frequency:    5.6436355704
  - # 8
    frequency:    6.6213771347
  - # 9
    frequency:    7.7007357996
  - # 10
    frequency:    7.7309727360
  - # 11
    frequency:    7.9492440079
  - # 12
    frequency:    7.9835598589
  - # 13
    frequency:   10.1039587836
  - # 14
    frequency:   13.0223628377
  - # 15
    frequency:   13.1139775365
  - # 16
    frequency:   13.6917137009
  - # 17
    frequency:   13.7053858693
  - # 18
    frequency:   13.9011689726
  - # 19
    frequency:   18.1088775209
  - # 20
    frequency:   18.3007373880
  - # 21
    frequency:   18.3121792126
  - # 22
    frequency:   27.2961282297
  - # 23
    frequency:   57.1698642706
  - # 24
    frequency:  112.8975779284

- q-position: [    0.0353535,    0.0000000,    0.0000000 ]
  distance:    0.0128582
  band:
  - # 1
    frequency:    0.1406354919
  - # 2
    frequency:    0.5625443700
  - # 3
    frequency:    0.9497206758
  - # 4
    frequency:    1.2180615129
  - # 5
    frequency:    1.4128969248
  - # 6
    frequency:    5.6193430690
  - # 7
    frequency:    5.6538337874
  - # 8
    frequency:    6.6131365415
  - # 9
    frequency:    7.6991122265
  - # 10
    frequency:    7.7402774766
  - # 11
    frequency:    7.9531646894
  - # 12
    frequency:    7.9991769874
  - # 13
    frequency:   10.1003557085
  - # 14
    frequency:   12.9998000356
  - # 15
    frequency:   13.1201627495
  - # 16
    frequency:   13.6929899890
  - # 17
    frequency:   13.7115829069
  - # 18
    frequency:   13.9337298171
  - # 19
    frequency:   18.1048572264
  - # 20
    frequency:   18.2927558595
  - # 21
    frequency:   18.3082299696
  - # 22
    frequency:   27.2941891343
  - # 23
    frequency:   57.1597802740
  - # 24
    frequency:  112.8889469258

- q-position: [    0.0404040,    0.0000000,    0.0000000 ]
  distance:    0.0146951
  band:
  - # 1
    frequency:    0.1778889788
  - # 2
    frequency:    0.6419253856
  - # 3
    frequency:    1.0815085645
  - # 4
    frequency:    1.2411399894
  - # 5
    frequency:    1.4874030206
  - # 6
    frequency:    5.6209244436
  - # 7
    frequency:    5.6653265202
  - # 8
    frequency:    6.6040091988
  - # 9
    frequency:    7.6973033968
  - # 10
    frequency:    7.7510458931
  - # 11
    frequency:    7.9576079050
  - # 12
    frequency:    8.0167168939
  - # 13
    frequency:   10.0962430808
  - # 14
    frequency:   12.9757742080
  - # 15
    frequency:   13.1272526334
  - # 16
    frequency:   13.6944622472
  - # 17
    frequency:   13.7187070091
  - # 18
    frequency:   13.9692605296
  - # 19
    frequency:   18.1002447225
  - # 20
    frequency:   18.2836224297
  - # 21
    frequency:   18.3036840541
  - # 22
    frequency:   27.2919626226
  - # 23
    frequency:   57.1481815864
  - # 24
    frequency:  112.8790743838

- q-position: [    0.0454545,    0.0000000,    0.0000000 ]
  distance:    0.0165320
  band:
  - # 1
    frequency:    0.2180659194
  - # 2
    frequency:    0.7207528530
  - # 3
    frequency:    1.2110846404
  - # 4
    frequency:    1.2672135988
  - # 5
    frequency:    1.5690001539
  - # 6
    frequency:    5.6227284843
  - # 7
    frequency:    5.6779947959
  - # 8
    frequency:    6.5941512345
  - # 9
    frequency:    7.6953315651
  - # 10
    frequency:    7.7632619780
  - # 11
    frequency:    7.9625446496
  - # 12
    frequency:    8.0360210409
  - # 13
    frequency:   10.0916403281
  - # 14
    frequency:   12.9507008846
  - # 15
    frequency:   13.1352276227
  - # 16
    frequency:   13.6961302816
  - # 17
    frequency:   13.7267430864
  - # 18
    frequency:   14.0073362553
  - # 19
    frequency:   18.0950508215
  - # 20
    frequency:   18.2733692653
  - # 21
    frequency:   18.2985461597
  - # 22
    frequency:   27.2894533350
  - # 23
    frequency:   57.1350837970
  - # 24
    frequency:  112.8679966602

- q-position: [    0.0505051,    0.0000000,    0.0000000 ]
  distance:    0.0183689
  band:
  - # 1
    frequency:    0.2609182536
  - # 2
    frequency:    0.7988373342
  - # 3
    frequency:    1.2963331837
  - # 4
    frequency:    1.3377326525
  - # 5
    frequency:    1.6576067004
  - # 6
    frequency:    5.6247595880
  - # 7
    frequency:    5.6917023673
  - # 8
    frequency:    6.5837366486
  - # 9
    frequency:    7.6932192394
  - # 10
    frequency:    7.7768967017
  - # 11
    frequency:    7.9679448598
  - # 12
    frequency:    8.0569304840
  - # 13
    frequency:   10.0865696029
  - # 14
    frequency:   12.9249233876
  - # 15
    frequency:   13.1440658900
  - # 16
    frequency:   13.6979938533
  - # 17
    frequency:   13.7356743607
  - # 18
    frequency:   14.0476029816
  - # 19
    frequency:   18.0892874827
  - # 20
    frequency:   18.2620325433
  - # 21
    frequency:   18.2928216281
  - # 22
    frequency:   27.2866665082
  - # 23
    frequency:   57.1205044831
  - # 24
    frequency:  112.8557545427

- q-position: [    0.0555556,    0.0000000,    0.0000000 ]
  distance:    0.0202058
  band:
  - # 1
    frequency:    0.3062605094
  - # 2
    frequency:    0.8759301942
  - # 3
    frequency:    1.3286053354
  - # 4
    frequency:    1.4606680354
  - # 5
    frequency:    1.7533136430
  - # 6
    frequency:    5.6270226543
  - # 7
    frequency:    5.7062948242
  - # 8
    frequency:    6.5729574877
  - # 9
    frequency:    7.6909887123
  - # 10
    frequency:    7.7919083081
  - # 11
    frequency:    7.9737779092
  - # 12
    frequency:    8.0792880535
  - # 13
    frequency:   10.0810558100
  - # 14
    frequency:   12.8987211135
  - # 15
    frequency:   13.1537434667
  - # 16
    frequency:   13.7000526712
  - # 17
    frequency:   13.7454825645
  - # 18
    frequency:   14.0897691409
  - # 19
    frequency:   18.0829677109
  - # 20
    frequency:   18.2496523455
  - # 21
    frequency:   18.2865164627
  - # 22
    frequency:   27.2836079651
  - # 23
    frequency:   57.1044631771
  - # 24
    frequency:  112.8423930958

- q-position: [    0.0606061,    0.0000000,    0.0000000 ]
  distance:    0.0220427
  band:
  - # 1
    frequency:    0.3539520575
  - # 2
    frequency:    0.9517100462
  - # 3
    frequency:    1.3642078714
  - # 4
    frequency:    1.5792230114
  - # 5
    frequency:    1.8561860543
  - # 6
    frequency:    5.6295230834
  - # 7
    frequency:    5.7215984990
  - # 8
    frequency:    6.5620244762
  - # 9
    frequency:    7.6886616979
  - # 10
    frequency:    7.8082432839
  - # 11
    frequency:    7.9800129964
  - # 12
    frequency:    8.1029396752
  - # 13
    frequency:   10.0751266250
  - # 14
    frequency:   12.8723190813
  - # 15
    frequency:   13.1642343746
  - # 16
    frequency:   13.7023063848
  - # 17
    frequency:   13.7561480691
  - # 18
    frequency:   14.1335960270
  - # 19
    frequency:   18.0761054474
  - # 20
    frequency:   18.2362725403
  - # 21
    frequency:   18.2796373484
  - # 22
    frequency:   27.2802841048
  - # 23
    frequency:   57.0869813286
  - # 24
    frequency:  112.8279614906

- q-position: [    0.0656566,    0.0000000,    0.0000000 ]
  distance:    0.0238796
  band:
  - # 1
    frequency:    0.4038824599
  - # 2
    frequency:    1.0257737682
  - # 3
    frequency:    1.4034004256
  - # 4
    frequency:    1.6931107533
  - # 5
    frequency:    1.9659849141
  - # 6
    frequency:    5.6322667752
  - # 7
    frequency:    5.7374192509
  - # 8
    frequency:    6.5511680319
  - # 9
    frequency:    7.6862590670
  - # 10
    frequency:    7.8258377499
  - # 11
    frequency:    7.9866194329
  - # 12
    frequency:    8.1277350412
  - # 13
    frequency:   10.0688124999
  - # 14
    frequency:   12.8458970411
  - # 15
    frequency:   13.1755107649
  - # 16
    frequency:   13.7047545770
  - # 17
    frequency:   13.7676499868
  - # 18
    frequency:   14.1788886930
  - # 19
    frequency:   18.0687154574
  - # 20
    frequency:   18.2219406505
  - # 21
    frequency:   18.2721916769
  - # 22
    frequency:   27.2767018903
  - # 23
    frequency:   57.0680822645
  - # 24
    frequency:  112.8125128196

- q-position: [    0.0707071,    0.0000000,    0.0000000 ]
  distance:    0.0257165
  band:
  - # 1
    frequency:    0.4559602923
  - # 2
    frequency:    1.0976424721
  - # 3
    frequency:    1.4465197598
  - # 4
    frequency:    1.8025900403
  - # 5
    frequency:    2.0819892894
  - # 6
    frequency:    5.6352601289
  - # 7
    frequency:    5.7535413147
  - # 8
    frequency:    6.5406394668
  - # 9
    frequency:    7.6838006635
  - # 10
    frequency:    7.8446190635
  - # 11
    frequency:    7.9935668464
  - # 12
    frequency:    8.1535278313
  - # 13
    frequency:   10.0621466521
  - # 14
    frequency:   12.8195974351
  - # 15
    frequency:   13.1875430644
  - # 16
    frequency:   13.7073967559
  - # 17
    frequency:   13.7799662638
  - # 18
    frequency:   14.2254880155
  - # 19
    frequency:   18.0608132117
  - # 20
    frequency:   18.2067077096
  - # 21
    frequency:   18.2641875789
  - # 22
    frequency:   27.2728688345
  - # 23
    frequency:   57.0477911444
  - # 24
    frequency:  112.7961038954

- q-position: [    0.0757576,    0.0000000,    0.0000000 ]
  distance:    0.0275534
  band:
  - # 1
    frequency:    0.5101051005
  - # 2
    frequency:    1.1667985318
  - # 3
    frequency:    1.4939437087
  - # 4
    frequency:    1.9083670141
  - # 5
    frequency:    2.2030828582
  - # 6
    frequency:    5.6385100419
  - # 7
    frequency:    5.7697265550
  - # 8
    frequency:    6.5307120101
  - # 9
    frequency:    7.6813051850
  - # 10
    frequency:    7.8645074757
  - # 11
    frequency:    8.0008253163
  - # 12
    frequency:    8.1801756445
  - # 13
    frequency:   10.0551650332
  - # 14
    frequency:   12.7935320442
  - # 15
    frequency:   13.2003001277
  - # 16
    frequency:   13.7102323471
  - # 17
    frequency:   13.7930737739
  - # 18
    frequency:   14.2732640856
  - # 19
    frequency:   18.0524147682
  - # 20
    frequency:   18.1906281024
  - # 21
    frequency:   18.2556339631
  - # 22
    frequency:   27.2687929853
  - # 23
    frequency:   57.0261349133
  - # 24
    frequency:  112.7787950359

- q-position: [    0.0808081,    0.0000000,    0.0000000 ]
  distance:    0.0293903
  band:
  - # 1
    frequency:    0.5662419014
  - # 2
    frequency:    1.2327675855
  - # 3
    frequency:    1.5460098751
  - # 4
    frequency:    2.0113140236
  - # 5
    frequency:    2.3280249241
  - # 6
    frequency:    5.6420239100
  - # 7
    frequency:    5.7857146741
  - # 8
    frequency:    6.5216810752
  - # 9
    frequency:    7.6787901124
  - # 10
    frequency:    7.8854177337
  - # 11
    frequency:    8.0083654559
  - # 12
    frequency:    8.2075397697
  - # 13
    frequency:   10.0479062730
  - # 14
    frequency:   12.7677874018
  - # 15
    frequency:   13.2137493936
  - # 16
    frequency:   13.7132606858
  - # 17
    frequency:   13.8069484126
  - # 18
    frequency:   14.3221108420
  - # 19
    frequency:   18.0435366529
  - # 20
    frequency:   18.1737593947
  - # 21
    frequency:   18.2465405637
  - # 22
    frequency:   27.2644829082
  - # 23
    frequency:   57.0031422505
  - # 24
    frequency:  112.7606498354

- q-position: [    0.0858586,    0.0000000,    0.0000000 ]
  distance:    0.0312272
  band:
  - # 1
    frequency:    0.6242976164
  - # 2
    frequency:    1.2952364660
  - # 3
    frequency:    1.6028981637
  - # 4
    frequency:    2.1122241655
  - # 5
    frequency:    2.4556872262
  - # 6
    frequency:    5.6458096248
  - # 7
    frequency:    5.8012251705
  - # 8
    frequency:    6.5138629399
  - # 9
    frequency:    7.6762716728
  - # 10
    frequency:    7.9072605627
  - # 11
    frequency:    8.0161584578
  - # 12
    frequency:    8.2354848874
  - # 13
    frequency:   10.0404115952
  - # 14
    frequency:   12.7424291499
  - # 15
    frequency:   13.2278570442
  - # 16
    frequency:   13.7164810099
  - # 17
    frequency:   13.8215651932
  - # 18
    frequency:   14.3719417683
  - # 19
    frequency:   18.0341957422
  - # 20
    frequency:   18.1561621472
  - # 21
    frequency:   18.2369179956
  - # 22
    frequency:   27.2599476676
  - # 23
    frequency:   56.9788435160
  - # 24
    frequency:  112.7417349227

- q-position: [    0.0909091,    0.0000000,    0.0000000 ]
  distance:    0.0330641
  band:
  - # 1
    frequency:    0.6841989022
  - # 2
    frequency:    1.3541572707
  - # 3
    frequency:    1.6645269846
  - # 4
    frequency:    2.2117043346
  - # 5
    frequency:    2.5851535576
  - # 6
    frequency:    5.6498755700
  - # 7
    frequency:    5.8159620706
  - # 8
    frequency:    6.5075907884
  - # 9
    frequency:    7.6737648244
  - # 10
    frequency:    7.9299439876
  - # 11
    frequency:    8.0241761121
  - # 12
    frequency:    8.2638787729
  - # 13
    frequency:   10.0327246992
  - # 14
    frequency:   12.7175055337
  - # 15
    frequency:   13.2425881660
  - # 16
    frequency:   13.7198924526
  - # 17
    frequency:   13.8368983419
  - # 18
    frequency:   14.4226864599
  - # 19
    frequency:   18.0244091507
  - # 20
    frequency:   18.1378997178
  - # 21
    frequency:   18.2267778178
  - # 22
    frequency:   27.2551968058
  - # 23
    frequency:   56.9532706933
  - # 24
    frequency:  112.7221197075

- q-position: [    0.0959596,    0.0000000,    0.0000000 ]
  distance:    0.0349010
  band:
  - # 1
    frequency:    0.7458709539
  - # 2
    frequency:    1.4097710449
  - # 3
    frequency:    1.7305296955
  - # 4
    frequency:    2.3101723584
  - # 5
    frequency:    2.7157164160
  - # 6
    frequency:    5.6542306153
  - # 7
    frequency:    5.8296225417
  - # 8
    frequency:    6.5032069852
  - # 9
    frequency:    7.6712832554
  - # 10
    frequency:    7.9533744823
  - # 11
    frequency:    8.0323908078
  - # 12
    frequency:    8.2925920462
  - # 13
    frequency:   10.0248916046
  - # 14
    frequency:   12.6930502109
  - # 15
    frequency:   13.2579069118
  - # 16
    frequency:   13.7234940368
  - # 17
    frequency:   13.8529213911
  - # 18
    frequency:   14.4742878831
  - # 19
    frequency:   18.0141941230
  - # 20
    frequency:   18.1190380492
  - # 21
    frequency:   18.2161326052
  - # 22
    frequency:   27.2502403209
  - # 23
    frequency:   56.9264573297
  - # 24
    frequency:  112.7018761153

- q-position: [    0.1010101,    0.0000000,    0.0000000 ]
  distance:    0.0367378
  band:
  - # 1
    frequency:    0.8092369561
  - # 2
    frequency:    1.4625313994
  - # 3
    frequency:    1.8003309995
  - # 4
    frequency:    2.4078955323
  - # 5
    frequency:    2.8468331705
  - # 6
    frequency:    5.6588841057
  - # 7
    frequency:    5.8419102318
  - # 8
    frequency:    6.5010507186
  - # 9
    frequency:    7.6688393901
  - # 10
    frequency:    7.9774579400
  - # 11
    frequency:    8.0407755237
  - # 12
    frequency:    8.3214980044
  - # 13
    frequency:   10.0169604518
  - # 14
    frequency:   12.6690845262
  - # 15
    frequency:   13.2737766614
  - # 16
    frequency:   13.7272846707
  - # 17
    frequency:   13.8696072681
  - # 18
    frequency:   14.5267001740
  - # 19
    frequency:   18.0035679355
  - # 20
    frequency:   18.0996454437
  - # 21
    frequency:   18.2049960276
  - # 22
    frequency:   27.2450886420
  - # 23
    frequency:   56.8984384739
  - # 24
    frequency:  112.6810783125

- q-position: [    0.1060606,    0.0000000,    0.0000000 ]
  distance:    0.0385747
  band:
  - # 1
    frequency:    0.8742179469
  - # 2
    frequency:    1.5129785238
  - # 3
    frequency:    1.8732728694
  - # 4
    frequency:    2.5050336569
  - # 5
    frequency:    2.9780784651
  - # 6
    frequency:    5.6638458459
  - # 7
    frequency:    5.8525533778
  - # 8
    frequency:    6.5014409694
  - # 9
    frequency:    7.6664443981
  - # 10
    frequency:    8.0021004747
  - # 11
    frequency:    8.0493038122
  - # 12
    frequency:    8.3504725569
  - # 13
    frequency:   10.0089812536
  - # 14
    frequency:   12.6456193722
  - # 15
    frequency:   13.2901601809
  - # 16
    frequency:   13.7312631444
  - # 17
    frequency:   13.8869283799
  - # 18
    frequency:   14.5798868548
  - # 19
    frequency:   17.9925478072
  - # 20
    frequency:   18.0797923248
  - # 21
    frequency:   18.1933829347
  - # 22
    frequency:   27.2397526030
  - # 23
    frequency:   56.8692506105
  - # 24
    frequency:  112.6598024221

- q-position: [    0.1111111,    0.0000000,    0.0000000 ]
  distance:    0.0404116
  band:
  - # 1
    frequency:    0.9407329271
  - # 2
    frequency:    1.5616312929
  - # 3
    frequency:    1.9487223290
  - # 4
    frequency:    2.6016737247
  - # 5
    frequency:    3.1091055430
  - # 6
    frequency:    5.6691260796
  - # 7
    frequency:    5.8613263128
  - # 8
    frequency:    6.5046561808
  - # 9
    frequency:    7.6641082050
  - # 10
    frequency:    8.0272090612
  - # 11
    frequency:    8.0579497813
  - # 12
    frequency:    8.3793942818
  - # 13
    frequency:   10.0010055920
  - # 14
    frequency:   12.6226567324
  - # 15
    frequency:   13.3070197784
  - # 16
    frequency:   13.7354281297
  - # 17
    frequency:   13.9048566904
  - # 18
    frequency:   14.6338193707
  - # 19
    frequency:   17.9811508241
  - # 20
    frequency:   18.0595509863
  - # 21
    frequency:   18.1813094470
  - # 22
    frequency:   27.2342434142
  - # 23
    frequency:   56.8389315929
  - # 24
    frequency:  112.6381262312

- q-position: [    0.1161616,    0.0000000,    0.0000000 ]
  distance:    0.0422485
  band:
  - # 1
    frequency:    1.0086990998
  - # 2
    frequency:    1.6089284587
  - # 3
    frequency:    2.0261301178
  - # 4
    frequency:    2.6978546979
  - # 5
    frequency:    3.2396179085
  - # 6
    frequency:    5.6747354603
  - # 7
    frequency:    5.8680713111
  - # 8
    frequency:    6.5109137079
  - # 9
    frequency:    7.6618395043
  - # 10
    frequency:    8.0526920278
  - # 11
    frequency:    8.0666880741
  - # 12
    frequency:    8.4081446124
  - # 13
    frequency:    9.9930862519
  - # 14
    frequency:   12.6001909798
  - # 15
    frequency:   13.3243174559
  - # 16
    frequency:   13.7397781814
  - # 17
    frequency:   13.9233637916
  - # 18
    frequency:   14.6884758699
  - # 19
    frequency:   17.9693938776
  - # 20
    frequency:   18.0389953281
  - # 21
    frequency:   18.1687930496
  - # 22
    frequency:   27.2285726329
  - # 23
    frequency:   56.8075205734
  - # 24
    frequency:  112.6161288916

- q-position: [    0.1212121,    0.0000000,    0.0000000 ]
  distance:    0.0440854
  band:
  - # 1
    frequency:    1.0780321622
  - # 2
    frequency:    1.6552124772
  - # 3
    frequency:    2.1050467070
  - # 4
    frequency:    2.7935842945
  - # 5
    frequency:    3.3693492689
  - # 6
    frequency:    5.6806850153
  - # 7
    frequency:    5.8727165042
  - # 8
    frequency:    6.5203533492
  - # 9
    frequency:    7.6596457689
  - # 10
    frequency:    8.0754938491
  - # 11
    frequency:    8.0784594136
  - # 12
    frequency:    8.4366081640
  - # 13
    frequency:    9.9852767874
  - # 14
    frequency:   12.5782099874
  - # 15
    frequency:   13.3420150556
  - # 16
    frequency:   13.7443117438
  - # 17
    frequency:   13.9424209667
  - # 18
    frequency:   14.7438401690
  - # 19
    frequency:   17.9572936204
  - # 20
    frequency:   18.0182005813
  - # 21
    frequency:   18.1558526864
  - # 22
    frequency:   27.2227521309
  - # 23
    frequency:   56.7750579312
  - # 24
    frequency:  112.5938906143

- q-position: [    0.1262626,    0.0000000,    0.0000000 ]
  distance:    0.0459223
  band:
  - # 1
    frequency:    1.1486466002
  - # 2
    frequency:    1.7007370756
  - # 3
    frequency:    2.1851145745
  - # 4
    frequency:    2.8888500993
  - # 5
    frequency:    3.4980493147
  - # 6
    frequency:    5.6869861002
  - # 7
    frequency:    5.8752857737
  - # 8
    frequency:    6.5330290967
  - # 9
    frequency:    7.6575332639
  - # 10
    frequency:    8.0843427599
  - # 11
    frequency:    8.1044232018
  - # 12
    frequency:    8.4646732061
  - # 13
    frequency:    9.9776310114
  - # 14
    frequency:   12.5566960941
  - # 15
    frequency:   13.3600743981
  - # 16
    frequency:   13.7490271603
  - # 17
    frequency:   13.9619992459
  - # 18
    frequency:   14.7999008568
  - # 19
    frequency:   17.9448664425
  - # 20
    frequency:   17.9972430209
  - # 21
    frequency:   18.1425088531
  - # 22
    frequency:   27.2167940615
  - # 23
    frequency:   56.7415851989
  - # 24
    frequency:  112.5714923594

- q-position: [    0.1313131,    0.0000000,    0.0000000 ]
  distance:    0.0477592
  band:
  - # 1
    frequency:    1.2204559534
  - # 2
    frequency:    1.7456834738
  - # 3
    frequency:    2.2660518283
  - # 4
    frequency:    2.9836268507
  - # 5
    frequency:    3.6254733593
  - # 6
    frequency:    5.6936503442
  - # 7
    frequency:    5.8758984382
  - # 8
    frequency:    6.5489113559
  - # 9
    frequency:    7.6555070620
  - # 10
    frequency:    8.0932109359
  - # 11
    frequency:    8.1304974415
  - # 12
    frequency:    8.4922322846
  - # 13
    frequency:    9.9702024036
  - # 14
    frequency:   12.5356269570
  - # 15
    frequency:   13.3784574137
  - # 16
    frequency:   13.7539226889
  - # 17
    frequency:   13.9820694549
  - # 18
    frequency:   14.8566505022
  - # 19
    frequency:   17.9321284680
  - # 20
    frequency:   17.9761996689
  - # 21
    frequency:   18.1287836852
  - # 22
    frequency:   27.2107108244
  - # 23
    frequency:   56.7071449869
  - # 24
    frequency:  112.5490155220

- q-position: [    0.1363636,    0.0000000,    0.0000000 ]
  distance:    0.0495961
  band:
  - # 1
    frequency:    1.2933730324
  - # 2
    frequency:    1.7901772204
  - # 3
    frequency:    2.3476352285
  - # 4
    frequency:    3.0778812002
  - # 5
    frequency:    3.7513744047
  - # 6
    frequency:    5.7006895850
  - # 7