nqpoint: 300    
npath: 3      
segment_nqpoint:
- 100
- 100
- 100
labels:
- [ 'G', 'M' ]
- [ 'M', 'K' ]
- [ 'K', 'G' ]
reciprocal_lattice:
- [   0.30770118,   0.17765136,   0.00000000 ] # a*
- [   0.00000000,   0.35530272,   0.00000000 ] # b*
- [   0.00000000,   0.00000000,   0.03818259 ] # c*
natom: 7      
lattice:
- [     3.249906303146958,     0.000000000000000,     0.000000000000000 ] # a
- [    -1.624953151573479,     2.814501418426080,     0.000000000000000 ] # b
- [     0.000000000000000,     0.000000000000000,    26.189943813357189 ] # c
points:
- symbol: H # 1
  coordinates: [  0.666666984744047,  0.333332985985145,  0.343643348918141 ]
  mass: 1.007940
- symbol: Hf # 2
  coordinates: [  0.333332985432215,  0.666666983183674,  0.431896303027511 ]
  mass: 178.490000
- symbol: Hf # 3
  coordinates: [  0.666666984744047,  0.333332985985145,  0.525324352482142 ]
  mass: 178.490000
- symbol: N # 4
  coordinates: [  0.000000000000000,  0.000000000000000,  0.474913372508866 ]
  mass: 14.006700
- symbol: O # 5
  coordinates: [  0.333332985432215,  0.666666983183674,  0.656356651081859 ]
  mass: 15.999400
- symbol: O # 6
  coordinates: [  0.666666984744047,  0.333332985985145,  0.381683116972146 ]
  mass: 15.999400
- symbol: P # 7
  coordinates: [  0.333332985432215,  0.666666983183674,  0.599285569994074 ]
  mass: 30.973762

phonon:
- q-position: [    0.0000000,    0.0000000,    0.0000000 ]
  distance:    0.0000000
  band:
  - # 1
    frequency:   -0.0000188953
  - # 2
    frequency:    0.0000001472
  - # 3
    frequency:    0.0000187942
  - # 4
    frequency:    1.7289828630
  - # 5
    frequency:    1.7289828631
  - # 6
    frequency:    3.0398930703
  - # 7
    frequency:    3.0398930703
  - # 8
    frequency:    4.3822279865
  - # 9
    frequency:    4.6564156803
  - # 10
    frequency:    4.6564156803
  - # 11
    frequency:    7.2017349583
  - # 12
    frequency:    7.2017349583
  - # 13
    frequency:    8.1994745843
  - # 14
    frequency:   12.4816308357
  - # 15
    frequency:   12.9030542595
  - # 16
    frequency:   16.9922246260
  - # 17
    frequency:   16.9922246261
  - # 18
    frequency:   21.8015949265
  - # 19
    frequency:   21.8015949267
  - # 20
    frequency:   33.9929645539
  - # 21
    frequency:  106.7540497840

- q-position: [    0.0050505,    0.0000000,    0.0000000 ]
  distance:    0.0017945
  band:
  - # 1
    frequency:    0.0008873339
  - # 2
    frequency:    0.0332834927
  - # 3
    frequency:    0.0546068375
  - # 4
    frequency:    1.7277645514
  - # 5
    frequency:    1.7307770422
  - # 6
    frequency:    3.0401849141
  - # 7
    frequency:    3.0401921728
  - # 8
    frequency:    4.3809530602
  - # 9
    frequency:    4.6561815281
  - # 10
    frequency:    4.6581466443
  - # 11
    frequency:    7.2018438768
  - # 12
    frequency:    7.2019822777
  - # 13
    frequency:    8.1992559578
  - # 14
    frequency:   12.4820278505
  - # 15
    frequency:   12.9020493488
  - # 16
    frequency:   16.9920606974
  - # 17
    frequency:   16.9924574275
  - # 18
    frequency:   21.7960875262
  - # 19
    frequency:   21.7999013821
  - # 20
    frequency:   33.9928299418
  - # 21
    frequency:  106.7496730544

- q-position: [    0.0101010,    0.0000000,    0.0000000 ]
  distance:    0.0035889
  band:
  - # 1
    frequency:    0.0035504622
  - # 2
    frequency:    0.0663901866
  - # 3
    frequency:    0.1093443171
  - # 4
    frequency:    1.7241160841
  - # 5
    frequency:    1.7361401261
  - # 6
    frequency:    3.0410580265
  - # 7
    frequency:    3.0410895705
  - # 8
    frequency:    4.3772317464
  - # 9
    frequency:    4.6554810088
  - # 10
    frequency:    4.6632364267
  - # 11
    frequency:    7.2021703160
  - # 12
    frequency:    7.2027238562
  - # 13
    frequency:    8.1985991765
  - # 14
    frequency:   12.4832167900
  - # 15
    frequency:   12.8990404012
  - # 16
    frequency:   16.9915696275
  - # 17
    frequency:   16.9931528386
  - # 18
    frequency:   21.7795764830
  - # 19
    frequency:   21.7948251703
  - # 20
    frequency:   33.9924262563
  - # 21
    frequency:  106.7365548096

- q-position: [    0.0151515,    0.0000000,    0.0000000 ]
  distance:    0.0053834
  band:
  - # 1
    frequency:    0.0079928348
  - # 2
    frequency:    0.0991354941
  - # 3
    frequency:    0.1643398008
  - # 4
    frequency:    1.7180573090
  - # 5
    frequency:    1.7450143639
  - # 6
    frequency:    3.0425052102
  - # 7
    frequency:    3.0425856067
  - # 8
    frequency:    4.3713444305
  - # 9
    frequency:    4.6543199118
  - # 10
    frequency:    4.6714057083
  - # 11
    frequency:    7.2027133275
  - # 12
    frequency:    7.2039585155
  - # 13
    frequency:    8.1975015645
  - # 14
    frequency:   12.4851912291
  - # 15
    frequency:   12.8940448515
  - # 16
    frequency:   16.9907535615
  - # 17
    frequency:   16.9943019078
  - # 18
    frequency:   21.7520952359
  - # 19
    frequency:   21.7863795493
  - # 20
    frequency:   33.9917539489
  - # 21
    frequency:  106.7147308605

- q-position: [    0.0202020,    0.0000000,    0.0000000 ]
  distance:    0.0071778
  band:
  - # 1
    frequency:    0.0142194566
  - # 2
    frequency:    0.1313186387
  - # 3
    frequency:    0.2197142796
  - # 4
    frequency:    1.7096228344
  - # 5
    frequency:    1.7573054811
  - # 6
    frequency:    3.0445146615
  - # 7
    frequency:    3.0446810953
  - # 8
    frequency:    4.3636769042
  - # 9
    frequency:    4.6527078087
  - # 10
    frequency:    4.6822704691
  - # 11
    frequency:    7.2034713351
  - # 12
    frequency:    7.2056841621
  - # 13
    frequency:    8.1959587572
  - # 14
    frequency:   12.4879400732
  - # 15
    frequency:   12.8870920498
  - # 16
    frequency:   16.9896160625
  - # 17
    frequency:   16.9958898061
  - # 18
    frequency:   21.7136993966
  - # 19
    frequency:   21.7745865875
  - # 20
    frequency:   33.9908137720
  - # 21
    frequency:  106.6842608202

- q-position: [    0.0252525,    0.0000000,    0.0000000 ]
  distance:    0.0089723
  band:
  - # 1
    frequency:    0.0222359784
  - # 2
    frequency:    0.1627130311
  - # 3
    frequency:    0.2755796010
  - # 4
    frequency:    1.6988644737
  - # 5
    frequency:    1.7728854600
  - # 6
    frequency:    3.0470702457
  - # 7
    frequency:    3.0473776791
  - # 8
    frequency:    4.3546448060
  - # 9
    frequency:    4.6506579387
  - # 10
    frequency:    4.6954175394
  - # 11
    frequency:    7.2044421401
  - # 12
    frequency:    7.2078975965
  - # 13
    frequency:    8.1939648410
  - # 14
    frequency:   12.4914469044
  - # 15
    frequency:   12.8782237764
  - # 16
    frequency:   16.9881620945
  - # 17
    frequency:   16.9978959583
  - # 18
    frequency:   21.6644665758
  - # 19
    frequency:   21.7594771229
  - # 20
    frequency:   33.9896067775
  - # 21
    frequency:  106.6452279952

- q-position: [    0.0303030,    0.0000000,    0.0000000 ]
  distance:    0.0107667
  band:
  - # 1
    frequency:    0.0320475745
  - # 2
    frequency:    0.1930545944
  - # 3
    frequency:    0.3320361447
  - # 4
    frequency:    1.6858549748
  - # 5
    frequency:    1.7915960909
  - # 6
    frequency:    3.0501518600
  - # 7
    frequency:    3.0506783208
  - # 8
    frequency:    4.3446402403
  - # 9
    frequency:    4.6481870503
  - # 10
    frequency:    4.7104579662
  - # 11
    frequency:    7.2056229297
  - # 12
    frequency:    7.2105942550
  - # 13
    frequency:    8.1915125410
  - # 14
    frequency:   12.4956888954
  - # 15
    frequency:   12.8674951373
  - # 16
    frequency:   16.9863979976
  - # 17
    frequency:   17.0002942178
  - # 18
    frequency:   21.6044961456
  - # 19
    frequency:   21.7410907038
  - # 20
    frequency:   33.9881343155
  - # 21
    frequency:  106.5977392316

- q-position: [    0.0353535,    0.0000000,    0.0000000 ]
  distance:    0.0125612
  band:
  - # 1
    frequency:    0.0436577722
  - # 2
    frequency:    0.2220269970
  - # 3
    frequency:    0.3891710100
  - # 4
    frequency:    1.6706933520
  - # 5
    frequency:    1.8132530113
  - # 6
    frequency:    3.0537358627
  - # 7
    frequency:    3.0545879191
  - # 8
    frequency:    4.3340056207
  - # 9
    frequency:    4.6453152005
  - # 10
    frequency:    4.7270531451
  - # 11
    frequency:    7.2070102869
  - # 12
    frequency:    7.2137678910
  - # 13
    frequency:    8.1885934501
  - # 14
    frequency:   12.5006350630
  - # 15
    frequency:   12.8549760743
  - # 16
    frequency:   16.9843314566
  - # 17
    frequency:   17.0030530757
  - # 18
    frequency:   21.5339089496
  - # 19
    frequency:   21.7194755134
  - # 20
    frequency:   33.9863980330
  - # 21
    frequency:  106.5419247157

- q-position: [    0.0404040,    0.0000000,    0.0000000 ]
  distance:    0.0143557
  band:
  - # 1
    frequency:    0.0570673595
  - # 2
    frequency:    0.2492423478
  - # 3
    frequency:    0.4470567348
  - # 4
    frequency:    1.6535122212
  - # 5
    frequency:    1.8376499445
  - # 6
    frequency:    3.0577955469
  - # 7
    frequency:    3.0591140344
  - # 8
    frequency:    4.3230273585
  - # 9
    frequency:    4.6420655151
  - # 10
    frequency:    4.7449210980
  - # 11
    frequency:    7.2086002028
  - # 12
    frequency:    7.2174102053
  - # 13
    frequency:    8.1851982923
  - # 14
    frequency:   12.5062434530
  - # 15
    frequency:   12.8407538990
  - # 16
    frequency:   16.9819714631
  - # 17
    frequency:   17.0061358938
  - # 18
    frequency:   21.4528469695
  - # 19
    frequency:   21.6946882763
  - # 20
    frequency:   33.9843998714
  - # 21
    frequency:  106.4779377248

- q-position: [    0.0454545,    0.0000000,    0.0000000 ]
  distance:    0.0161501
  band:
  - # 1
    frequency:    0.0722734604
  - # 2
    frequency:    0.2742152751
  - # 3
    frequency:    0.5057505187
  - # 4
    frequency:    1.6344876025
  - # 5
    frequency:    1.8645628692
  - # 6
    frequency:    3.0623016374
  - # 7
    frequency:    3.0642677090
  - # 8
    frequency:    4.3119400739
  - # 9
    frequency:    4.6384639130
  - # 10
    frequency:    4.7638322136
  - # 11
    frequency:    7.2103880902
  - # 12
    frequency:    7.2215104357
  - # 13
    frequency:    8.1813172087
  - # 14
    frequency:   12.5124565266
  - # 15
    frequency:   12.8249375901
  - # 16
    frequency:   16.9793282708
  - # 17
    frequency:   17.0095011461
  - # 18
    frequency:   21.3614729638
  - # 19
    frequency:   21.6667941471
  - # 20
    frequency:   33.9821420646
  - # 21
    frequency:  106.4059543279

- q-position: [    0.0505051,    0.0000000,    0.0000000 ]
  distance:    0.0179446
  band:
  - # 1
    frequency:    0.0892688300
  - # 2
    frequency:    0.2963272634
  - # 3
    frequency:    0.5652938979
  - # 4
    frequency:    1.6138516267
  - # 5
    frequency:    1.8937539043
  - # 6
    frequency:    3.0672227898
  - # 7
    frequency:    3.0700643581
  - # 8
    frequency:    4.3009347284
  - # 9
    frequency:    4.6345387982
  - # 10
    frequency:    4.7836010539
  - # 11
    frequency:    7.2123687995
  - # 12
    frequency:    7.2260549175
  - # 13
    frequency:    8.1769400584
  - # 14
    frequency:   12.5191933894
  - # 15
    frequency:   12.8076652128
  - # 16
    frequency:   16.9764133450
  - # 17
    frequency:   17.0131026541
  - # 18
    frequency:   21.2599700969
  - # 19
    frequency:   21.6358665810
  - # 20
    frequency:   33.9796271359
  - # 21
    frequency:  106.3261730334

- q-position: [    0.0555556,    0.0000000,    0.0000000 ]
  distance:    0.0197390
  band:
  - # 1
    frequency:    0.1080413826
  - # 2
    frequency:    0.3147762565
  - # 3
    frequency:    0.6257127959
  - # 4
    frequency:    1.5919083622
  - # 5
    frequency:    1.9249747544
  - # 6
    frequency:    3.0725260753
  - # 7
    frequency:    3.0765247059
  - # 8
    frequency:    4.2901671593
  - # 9
    frequency:    4.6303207235
  - # 10
    frequency:    4.8040777449
  - # 11
    frequency:    7.2145366350
  - # 12
    frequency:    7.2310266241
  - # 13
    frequency:    8.1720567246
  - # 14
    frequency:   12.5263362703
  - # 15
    frequency:   12.7891170612
  - # 16
    frequency:   16.9732393052
  - # 17
    frequency:   17.0168897932
  - # 18
    frequency:   21.1485415824
  - # 19
    frequency:   21.6019871852
  - # 20
    frequency:   33.9768578951
  - # 21
    frequency:  106.2388143795

- q-position: [    0.0606061,    0.0000000,    0.0000000 ]
  distance:    0.0215335
  band:
  - # 1
    frequency:    0.1285739367
  - # 2
    frequency:    0.3285028550
  - # 3
    frequency:    0.6870178702
  - # 4
    frequency:    1.5690523691
  - # 5
    frequency:    1.9579696332
  - # 6
    frequency:    3.0781774373
  - # 7
    frequency:    3.0836757276
  - # 8
    frequency:    4.2797655552
  - # 9
    frequency:    4.6258420322
  - # 10
    frequency:    4.8251404143
  - # 11
    frequency:    7.2168853732
  - # 12
    frequency:    7.2364047009
  - # 13
    frequency:    8.1666574140
  - # 14
    frequency:   12.5337061361
  - # 15
    frequency:   12.7695396387
  - # 16
    frequency:   16.9698198628
  - # 17
    frequency:   17.0208076478
  - # 18
    frequency:   21.0274103701
  - # 19
    frequency:   21.5652455506
  - # 20
    frequency:   33.9738374348
  - # 21
    frequency:  106.1441204660

- q-position: [    0.0656566,    0.0000000,    0.0000000 ]
  distance:    0.0233280
  band:
  - # 1
    frequency:    0.1508441422
  - # 2
    frequency:    0.3360761402
  - # 3
    frequency:    0.7492050781
  - # 4
    frequency:    1.5457882966
  - # 5
    frequency:    1.9924776450
  - # 6
    frequency:    3.0841421123
  - # 7
    frequency:    3.0915515533
  - # 8
    frequency:    4.2698364850
  - # 9
    frequency:    4.6211364810
  - # 10
    frequency:    4.8466890687
  - # 11
    frequency:    7.2194082819
  - # 12
    frequency:    7.2421639997
  - # 13
    frequency:    8.1607329433
  - # 14
    frequency:   12.5410172229
  - # 15
    frequency:   12.7492906997
  - # 16
    frequency:   16.9661697531
  - # 17
    frequency:   17.0247970814
  - # 18
    frequency:   20.8968189166
  - # 19
    frequency:   21.5257390634
  - # 20
    frequency:   33.9705691268
  - # 21
    frequency:  106.0423544230

- q-position: [    0.0707071,    0.0000000,    0.0000000 ]
  distance:    0.0251224
  band:
  - # 1
    frequency:    0.1748245461
  - # 2
    frequency:    0.3355006377
  - # 3
    frequency:    0.8122563909
  - # 4
    frequency:    1.5227475416
  - # 5
    frequency:    2.0282346702
  - # 6
    frequency:    3.0903850076
  - # 7
    frequency:    3.1001942712
  - # 8
    frequency:    4.2604695613
  - # 9
    frequency:    4.6162388521
  - # 10
    frequency:    4.8686408333
  - # 11
    frequency:    7.2220981404
  - # 12
    frequency:    7.2482746241
  - # 13
    frequency:    8.1542750035
  - # 14
    frequency:   12.5477907509
  - # 15
    frequency:   12.7289250854
  - # 16
    frequency:   16.9623046621
  - # 17
    frequency:   17.0287946821
  - # 18
    frequency:   20.7570290903
  - # 19
    frequency:   21.4835726961
  - # 20
    frequency:   33.9670566180
  - # 21
    frequency:  105.9337998132

- q-position: [    0.0757576,    0.0000000,    0.0000000 ]
  distance:    0.0269169
  band:
  - # 1
    frequency:    0.2004827546
  - # 2
    frequency:    0.3238409471
  - # 3
    frequency:    0.8761406016
  - # 4
    frequency:    1.5006946432
  - # 5
    frequency:    2.0649748453
  - # 6
    frequency:    3.0968710362
  - # 7
    frequency:    3.1096545538
  - # 8
    frequency:    4.2517409732
  - # 9
    frequency:    4.6111845598
  - # 10
    frequency:    4.8909263270
  - # 11
    frequency:    7.2249472601
  - # 12
    frequency:    7.2547014919
  - # 13
    frequency:    8.1472763948
  - # 14
    frequency:   12.5531967884
  - # 15
    frequency:   12.7093523895
  - # 16
    frequency:   16.9582411490
  - # 17
    frequency:   17.0327325266
  - # 18
    frequency:   20.6083222798
  - # 19
    frequency:   21.4388587770
  - # 20
    frequency:   33.9633038254
  - # 21
    frequency:  105.8187599646

- q-position: [    0.0808081,    0.0000000,    0.0000000 ]
  distance:    0.0287113
  band:
  - # 1
    frequency:    0.2277816489
  - # 2
    frequency:    0.2963226698
  - # 3
    frequency:    0.9408141797
  - # 4
    frequency:    1.4805126059
  - # 5
    frequency:    2.1024317770
  - # 6
    frequency:    3.1035654088
  - # 7
    frequency:    3.1199920085
  - # 8
    frequency:    4.2437161462
  - # 9
    frequency:    4.6060092568
  - # 10
    frequency:    4.9134869234
  - # 11
    frequency:    7.2279475062
  - # 12
    frequency:    7.2614039197
  - # 13
    frequency:    8.1397312278
  - # 14
    frequency:   12.5558193077
  - # 15
    frequency:   12.6920714082
  - # 16
    frequency:   16.9539965644
  - # 17
    frequency:   17.0365376829
  - # 18
    frequency:   20.4509998031
  - # 19
    frequency:   21.3917167363
  - # 20
    frequency:   33.9593149317
  - # 21
    frequency:  105.6975572301

- q-position: [    0.0858586,    0.0000000,    0.0000000 ]
  distance:    0.0305058
  band:
  - # 1
    frequency:    0.2433715732
  - # 2
    frequency:    0.2566796265
  - # 3
    frequency:    1.0062221418
  - # 4
    frequency:    1.4631554941
  - # 5
    frequency:    2.1403396613
  - # 6
    frequency:    3.1104338852
  - # 7
    frequency:    3.1312751334
  - # 8
    frequency:    4.2364517521
  - # 9
    frequency:    4.6007484493
  - # 10
    frequency:    4.9362726834
  - # 11
    frequency:    7.2310903200
  - # 12
    frequency:    7.2683352340
  - # 13
    frequency:    8.1316350860
  - # 14
    frequency:   12.5535722047
  - # 15
    frequency:   12.6792536010
  - # 16
    frequency:   16.9495889656
  - # 17
    frequency:   17.0401313332
  - # 18
    frequency:   20.2853837520
  - # 19
    frequency:   21.3422728307
  - # 20
    frequency:   33.9550943798
  - # 21
    frequency:  105.5705321704

- q-position: [    0.0909091,    0.0000000,    0.0000000 ]
  distance:    0.0323002
  band:
  - # 1
    frequency:    0.1310256243
  - # 2
    frequency:    0.2871308396
  - # 3
    frequency:    1.0722989124
  - # 4
    frequency:    1.4495628631
  - # 5
    frequency:    2.1784345059
  - # 6
    frequency:    3.1174429915
  - # 7
    frequency:    3.1435807367
  - # 8
    frequency:    4.2299972539
  - # 9
    frequency:    4.5954371237
  - # 10
    frequency:    4.9592407834
  - # 11
    frequency:    7.2343667416
  - # 12
    frequency:    7.2754424089
  - # 13
    frequency:    8.1229851475
  - # 14
    frequency:   12.5444905511
  - # 15
    frequency:   12.6729512878
  - # 16
    frequency:   16.9450370285
  - # 17
    frequency:   17.0434273370
  - # 18
    frequency:   20.1118184781
  - # 19
    frequency:   21.2906598425
  - # 20
    frequency:   33.9506468672
  - # 21
    frequency:  105.4380426573

- q-position: [    0.0959596,    0.0000000,    0.0000000 ]
  distance:    0.0340947
  band:
  - # 1
    frequency:   -0.1998238770
  - # 2
    frequency:    0.3190854148
  - # 3
    frequency:    1.1389691631
  - # 4
    frequency:    1.4405464948
  - # 5
    frequency:    2.2164556687
  - # 6
    frequency:    3.1245602050
  - # 7
    frequency:    3.1569926646
  - # 8
    frequency:    4.2243961218
  - # 9
    frequency:    4.5901093942
  - # 10
    frequency:    4.9823543101
  - # 11
    frequency:    7.2377674334
  - # 12
    frequency:    7.2826657294
  - # 13
    frequency:    8.1137802653
  - # 14
    frequency:   12.5283181906
  - # 15
    frequency:   12.6735094679
  - # 16
    frequency:   16.9403599571
  - # 17
    frequency:   17.0463299471
  - # 18
    frequency:   19.9306730283
  - # 19
    frequency:   21.2370167551
  - # 20
    frequency:   33.9459773405
  - # 21
    frequency:  105.3004628947

- q-position: [    0.1010101,    0.0000000,    0.0000000 ]
  distance:    0.0358892
  band:
  - # 1
    frequency:   -0.3360909071
  - # 2
    frequency:    0.3524896402
  - # 3
    frequency:    1.2061486172
  - # 4
    frequency:    1.4366798268
  - # 5
    frequency:    2.2541479221
  - # 6
    frequency:    3.1317541145
  - # 7
    frequency:    3.1715996830
  - # 8
    frequency:    4.2196868293
  - # 9
    frequency:    4.5847981744
  - # 10
    frequency:    5.0055813207
  - # 11
    frequency:    7.2412827044
  - # 12
    frequency:    7.2899384781
  - # 13
    frequency:    8.1040210061
  - # 14
    frequency:   12.5065843993
  - # 15
    frequency:   12.6794885320
  - # 16
    frequency:   16.9355773930
  - # 17
    frequency:   17.0487302096
  - # 18
    frequency:   19.7423450303
  - # 19
    frequency:   21.1814884023
  - # 20
    frequency:   33.9410909883
  - # 21
    frequency:  105.1581823548

- q-position: [    0.1060606,    0.0000000,    0.0000000 ]
  distance:    0.0376836
  band:
  - # 1
    frequency:   -0.4494801900
  - # 2
    frequency:    0.3872861110
  - # 3
    frequency:    1.2737448165
  - # 4
    frequency:    1.4382291130
  - # 5
    frequency:    2.2912642240
  - # 6
    frequency:    3.1389945587
  - # 7
    frequency:    3.1874923853
  - # 8
    frequency:    4.2159037022
  - # 9
    frequency:    4.5795348795
  - # 10
    frequency:    5.0288940968
  - # 11
    frequency:    7.2449025345
  - # 12
    frequency:    7.2971866383
  - # 13
    frequency:    8.0937096507
  - # 14
    frequency:   12.4811175588
  - # 15
    frequency:   12.6891499137
  - # 16
    frequency:   16.9307093224
  - # 17
    frequency:   17.0505002519
  - # 18
    frequency:   19.5472668532
  - # 19
    frequency:   21.1242250919
  - # 20
    frequency:   33.9359932354
  - # 21
    frequency:  105.0116046274

- q-position: [    0.1111111,    0.0000000,    0.0000000 ]
  distance:    0.0394781
  band:
  - # 1
    frequency:   -0.5536498518
  - # 2
    frequency:    0.4234138275
  - # 3
    frequency:    1.3416578457
  - # 4
    frequency:    1.4451507331
  - # 5
    frequency:    2.3275693050
  - # 6
    frequency:    3.1462527483
  - # 7
    frequency:    3.2047590634
  - # 8
    frequency:    4.2130776741
  - # 9
    frequency:    4.5743491617
  - # 10
    frequency:    5.0522685388
  - # 11
    frequency:    7.2486166002
  - # 12
    frequency:    7.3043286069
  - # 13
    frequency:    8.0828501590
  - # 14
    frequency:   12.4532381468
  - # 15
    frequency:   12.7012623680
  - # 16
    frequency:   16.9257759851
  - # 17
    frequency:   17.0514840568
  - # 18
    frequency:   19.3459154773
  - # 19
    frequency:   21.0653822019
  - # 20
    frequency:   33.9306897355
  - # 21
    frequency:  104.8611461820

- q-position: [    0.1161616,    0.0000000,    0.0000000 ]
  distance:    0.0412725
  band:
  - # 1
    frequency:   -0.6520977385
  - # 2
    frequency:    0.4608082402
  - # 3
    frequency:    1.4097810130
  - # 4
    frequency:    1.4571488088
  - # 5
    frequency:    2.3628440681
  - # 6
    frequency:    3.1535013741
  - # 7
    frequency:    3.2234805949
  - # 8
    frequency:    4.2112369819
  - # 9
    frequency:    4.5692686838
  - # 10
    frequency:    5.0756836629
  - # 11
    frequency:    7.2524143009
  - # 12
    frequency:    7.3112749068
  - # 13
    frequency:    8.0714481073
  - # 14
    frequency:   12.4237750178
  - # 15
    frequency:   12.7150848967
  - # 16
    frequency:   16.9207977836
  - # 17
    frequency:   17.0514821512
  - # 18
    frequency:   19.1388286827
  - # 19
    frequency:   21.0051197501
  - # 20
    frequency:   33.9251863641
  - # 21
    frequency:  104.7072350410

- q-position: [    0.1212121,    0.0000000,    0.0000000 ]
  distance:    0.0430670
  band:
  - # 1
    frequency:   -0.7460290912
  - # 2
    frequency:    0.4994012352
  - # 3
    frequency:    1.4737638425
  - # 4
    frequency:    1.4780014837
  - # 5
    frequency:    2.3968906376
  - # 6
    frequency:    3.1607147057
  - # 7
    frequency:    3.2437245567
  - # 8
    frequency:    4.2104078164
  - # 9
    frequency:    4.5643189329
  - # 10
    frequency:    5.0991211724
  - # 11
    frequency:    7.2562847852
  - # 12
    frequency:    7.3179278865
  - # 13
    frequency:    8.0595106031
  - # 14
    frequency:   12.3932505301
  - # 15
    frequency:   12.7301807555
  - # 16
    frequency:   16.9157951952
  - # 17
    frequency:   17.0502252676
  - # 18
    frequency:   18.9266325321
  - # 19
    frequency:   20.9436019345
  - # 20
    frequency:   33.9194892108
  - # 21
    frequency:  104.5503093654

- q-position: [    0.1262626,    0.0000000,    0.0000000 ]
  distance:    0.0448615
  band:
  - # 1
    frequency:   -0.8359182467
  - # 2
    frequency:    0.5391210569
  - # 3
    frequency:    1.4944603465
  - # 4
    frequency:    1.5462008627
  - # 5
    frequency:    2.4295377069
  - # 6
    frequency:    3.1678686804
  - # 7
    frequency:    3.2655389689
  - # 8
    frequency:    4.2106149316
  - # 9
    frequency:    4.5595230746
  - # 10
    frequency:    5.1225650850
  - # 11
    frequency:    7.2602169793
  - # 12
    frequency:    7.3241813929
  - # 13
    frequency:    8.0470461908
  - # 14
    frequency:   12.3620130612
  - # 15
    frequency:   12.7462839948
  - # 16
    frequency:   16.9107886868
  - # 17
    frequency:   17.0473269751
  - # 18
    frequency:   18.7100901911
  - # 19
    frequency:   20.8809966469
  - # 20
    frequency:   33.9136045714
  - # 21
    frequency:  104.3908159539

- q-position: [    0.1313131,    0.0000000,    0.0000000 ]
  distance:    0.0466559
  band:
  - # 1
    frequency:   -0.9219849481
  - # 2
    frequency:    0.5798921583
  - # 3
    frequency:    1.5186939911
  - # 4
    frequency:    1.6142557172
  - # 5
    frequency:    2.4606456614
  - # 6
    frequency:    3.1749409866
  - # 7
    frequency:    3.2889462475
  - # 8
    frequency:    4.2118822006
  - # 9
    frequency:    4.5549018499
  - # 10
    frequency:    5.1460014012
  - # 11
    frequency:    7.2641996155
  - # 12
    frequency:    7.3299204008
  - # 13
    frequency:    8.0340647589
  - # 14
    frequency:   12.3303110321
  - # 15
    frequency:   12.7632244058
  - # 16
    frequency:   16.9057986343
  - # 17
    frequency:   17.0421938243
  - # 18
    frequency:   18.4901935784
  - # 19
    frequency:   20.8174749571
  - # 20
    frequency:   33.9075389402
  - # 21
    frequency:  104.2292086583

- q-position: [    0.1363636,    0.0000000,    0.0000000 ]
  distance:    0.0484504
  band:
  - # 1
    frequency:   -1.0043613736
  - # 2
    frequency:    0.6216349715
  - # 3
    frequency:    1.5459534461
  - # 4
    frequency:    1.6820380253
  - # 5
    frequency:    2.4901108531
  - # 6
    frequency:    3.1819111401
  - # 7
    frequency:    3.3139380615
  - # 8
    frequency:    4.2142330951
  - # 9
    frequency:    4.5504735130
  - # 10
    frequency:    5.1694178056
  - # 11
    frequency:    7.2682212615
  - # 12
    frequency:    7.3350205831
  - # 13
    frequency:    8.0205774680
  - # 14
    frequency:   12.2983321582
  - # 15
    frequency:   12.7808871448
  - # 16
    frequency:   16.9008452472
  - # 17
    frequency:   17.0338440369
  - # 18
    frequency:   18.2683468523
  - # 19
    frequency:   20.7532105690
  - # 20
    frequency:   33.9012990010
  - # 21
    frequency:  104.0659467182

- q-position: [    0.1414141,    0.0000000,    0.0000000 ]
  distance:    0.0502448
  band:
  - # 1
    frequency:   -1.0831510900
  - # 2
    frequency:    0.6642655880
  - # 3
    frequency:    1.5757810064
  - # 4
    frequency:    1.7494155290
  - # 5
    frequency:    2.5178684232
  - # 6
    frequency:    3.1887605545
  - # 7
    frequency:    3.3404717804
  - # 8
    frequency:    4.2176910537
  - # 9
    frequency:    4.5462538094
  - # 10
    frequency:    5.1928033946
  - # 11
    frequency:    7.2722703512
  - # 12
    frequency:    7.3393478029
  - # 13
    frequency:    8.0065967174
  - # 14
    frequency:   12.2662242445
  - # 15
    frequency:   12.7991907117
  - # 16
    frequency:   16.8959484992
  - # 17
    frequency:   17.0205162840
  - # 18
    frequency:   18.0467602222
  - # 19
    frequency:   20.6883792493
  - # 20
    frequency:   33.8948916186
  - # 21
    frequency:  103.9014930205

- q-position: [    0.1464646,    0.0000000,    0.0000000 ]
  distance:    0.0520393
  band:
  - # 1
    frequency:   -1.1584477724
  - # 2
    frequency:    0.7076953339
  - # 3
    frequency:    1.6077788505
  - # 4
    frequency:    1.8162519491
  - # 5
    frequency:    2.5438932459
  - # 6
    frequency:    3.1954726066
  - # 7
    frequency:    3.3684690457
  - # 8
    frequency:    4.2222796929
  - # 9
    frequency:    4.5422559917
  - # 10
    frequency:    5.2161484252
  - # 11
    frequency:    7.2763352157
  - # 12
    frequency:    7.3427575111
  - # 13
    frequency:    7.9921361776
  - # 14
    frequency:   12.2341062582
  - # 15
    frequency:   12.8180745429
  - # 16
    frequency:   16.8911280666
  - # 17
    frequency:   16.9987747958
  - # 18
    frequency:   17.8293478743
  - # 19
    frequency:   20.6231582274
  - # 20
    frequency:   33.8883238300
  - # 21
    frequency:  103.7363122895

- q-position: [    0.1515152,    0.0000000,    0.0000000 ]
  distance:    0.0538337
  band:
  - # 1
    frequency:   -1.2303393959
  - # 2
    frequency:    0.7518302252
  - # 3
    frequency:    1.6416070542
  - # 4
    frequency:    1.8824070050
  - # 5
    frequency:    2.5681988795
  - # 6
    frequency:    3.2020326943
  - # 7
    frequency:    3.3978167218
  - # 8
    frequency:    4.2280228054
  - # 9
    frequency:    4.5384908701
  - # 10
    frequency:    5.2394440839
  - # 11
    frequency:    7.2804041162
  - # 12
    frequency:    7.3450940394
  - # 13
    frequency:    7.9772109152
  - # 14
    frequency:   12.2020741420
  - # 15
    frequency:   12.8374917441
  - # 16
    frequency:   16.8864032747
  - # 17
    frequency:   16.9614723723
  - # 18
    frequency:   17.6237684586
  - # 19
    frequency:   20.5577255707
  - # 20
    frequency:   33.8816028350
  - # 21