nqpoint: 300    
npath: 3      
segment_nqpoint:
- 100
- 100
- 100
labels:
- [ 'G', 'M' ]
- [ 'M', 'K' ]
- [ 'K', 'G' ]
reciprocal_lattice:
- [   0.29909565,   0.17268295,   0.00000000 ] # a*
- [   0.00000000,   0.34536591,   0.00000000 ] # b*
- [   0.00000000,   0.00000000,   0.04303553 ] # c*
natom: 5      
lattice:
- [     3.343412068790760,     0.000000000000000,     0.000000000000000 ] # a
- [    -1.671706034395380,     2.895479786885514,     0.000000000000000 ] # b
- [     0.000000000000000,     0.000000000000000,    23.236612638467090 ] # c
points:
- symbol: Br # 1
  coordinates: [  0.333332985432214,  0.666666983183674,  0.612680206877446 ]
  mass: 79.904000
- symbol: H # 2
  coordinates: [  0.666666984744047,  0.333332985985145,  0.387319793122554 ]
  mass: 1.007940
- symbol: N # 3
  coordinates: [  0.000000000000000,  0.000000000000000,  0.480950646305158 ]
  mass: 14.006700
- symbol: Sc # 4
  coordinates: [  0.333332985432214,  0.666666983183674,  0.428703575839343 ]
  mass: 44.955912
- symbol: Sc # 5
  coordinates: [  0.666666984744047,  0.333332985985145,  0.531522916181494 ]
  mass: 44.955912

phonon:
- q-position: [    0.0000000,    0.0000000,    0.0000000 ]
  distance:    0.0000000
  band:
  - # 1
    frequency:   -0.0000144295
  - # 2
    frequency:   -0.0000002086
  - # 3
    frequency:    0.0000131072
  - # 4
    frequency:    3.9348136988
  - # 5
    frequency:    3.9348136988
  - # 6
    frequency:    5.4780003522
  - # 7
    frequency:    6.2099723857
  - # 8
    frequency:    6.2099723857
  - # 9
    frequency:   10.2484961957
  - # 10
    frequency:   12.3474621776
  - # 11
    frequency:   12.7223455140
  - # 12
    frequency:   12.7223455141
  - # 13
    frequency:   25.4064086362
  - # 14
    frequency:   26.9265933196
  - # 15
    frequency:   26.9265933197

- q-position: [    0.0050505,    0.0000000,    0.0000000 ]
  distance:    0.0017443
  band:
  - # 1
    frequency:    0.0020802857
  - # 2
    frequency:    0.0945529642
  - # 3
    frequency:    0.1062475805
  - # 4
    frequency:    3.9354679253
  - # 5
    frequency:    3.9364856712
  - # 6
    frequency:    5.4770179175
  - # 7
    frequency:    6.2101743922
  - # 8
    frequency:    6.2114243918
  - # 9
    frequency:   10.2459060744
  - # 10
    frequency:   12.3456777121
  - # 11
    frequency:   12.7226270966
  - # 12
    frequency:   12.7232205963
  - # 13
    frequency:   25.4046661056
  - # 14
    frequency:   26.9261247114
  - # 15
    frequency:   26.9274476664

- q-position: [    0.0101010,    0.0000000,    0.0000000 ]
  distance:    0.0034885
  band:
  - # 1
    frequency:    0.0083071883
  - # 2
    frequency:    0.1889860434
  - # 3
    frequency:    0.2124480356
  - # 4
    frequency:    3.9374291819
  - # 5
    frequency:    3.9414878179
  - # 6
    frequency:    5.4740943485
  - # 7
    frequency:    6.2107815106
  - # 8
    frequency:    6.2157537346
  - # 9
    frequency:   10.2381456369
  - # 10
    frequency:   12.3403952075
  - # 11
    frequency:   12.7234687832
  - # 12
    frequency:   12.7257725173
  - # 13
    frequency:   25.3994618574
  - # 14
    frequency:   26.9247197421
  - # 15
    frequency:   26.9299915077

- q-position: [    0.0151515,    0.0000000,    0.0000000 ]
  distance:    0.0052328
  band:
  - # 1
    frequency:    0.0186391252
  - # 2
    frequency:    0.2831798534
  - # 3
    frequency:    0.3185535641
  - # 4
    frequency:    3.9406932011
  - # 5
    frequency:    3.9497791532
  - # 6
    frequency:    5.4692985013
  - # 7
    frequency:    6.2117970066
  - # 8
    frequency:    6.2228827966
  - # 9
    frequency:   10.2252446946
  - # 10
    frequency:   12.3318121784
  - # 11
    frequency:   12.7248614145
  - # 12
    frequency:   12.7297964604
  - # 13
    frequency:   25.3908647846
  - # 14
    frequency:   26.9223809745
  - # 15
    frequency:   26.9341683636

- q-position: [    0.0202020,    0.0000000,    0.0000000 ]
  distance:    0.0069771
  band:
  - # 1
    frequency:    0.0330081171
  - # 2
    frequency:    0.3770160101
  - # 3
    frequency:    0.4245150234
  - # 4
    frequency:    3.9452528719
  - # 5
    frequency:    3.9612924303
  - # 6
    frequency:    5.4627378293
  - # 7
    frequency:    6.2132262211
  - # 8
    frequency:    6.2326897198
  - # 9
    frequency:   10.2072530282
  - # 10
    frequency:   12.3202140078
  - # 11
    frequency:   12.7267898074
  - # 12
    frequency:   12.7349948849
  - # 13
    frequency:   25.3789860572
  - # 14
    frequency:   26.9191126660
  - # 15
    frequency:   26.9398876802

- q-position: [    0.0252525,    0.0000000,    0.0000000 ]
  distance:    0.0087214
  band:
  - # 1
    frequency:    0.0513216424
  - # 2
    frequency:    0.4703776375
  - # 3
    frequency:    0.5302812687
  - # 4
    frequency:    3.9510982435
  - # 5
    frequency:    3.9759356394
  - # 6
    frequency:    5.4545490585
  - # 7
    frequency:    6.2150764181
  - # 8
    frequency:    6.2450180269
  - # 9
    frequency:   10.1842404906
  - # 10
    frequency:   12.3059268528
  - # 11
    frequency:   12.7292328749
  - # 12
    frequency:   12.7410246806
  - # 13
    frequency:   25.3639741115
  - # 14
    frequency:   26.9149207482
  - # 15
    frequency:   26.9470297331

- q-position: [    0.0303030,    0.0000000,    0.0000000 ]
  distance:    0.0104656
  band:
  - # 1
    frequency:    0.0734650798
  - # 2
    frequency:    0.5631498800
  - # 3
    frequency:    0.6357985095
  - # 4
    frequency:    3.9582165302
  - # 5
    frequency:    3.9935939295
  - # 6
    frequency:    5.4448878125
  - # 7
    frequency:    6.2173565747
  - # 8
    frequency:    6.2596874121
  - # 9
    frequency:   10.1562970765
  - # 10
    frequency:   12.2892763120
  - # 11
    frequency:   12.7321637938
  - # 12
    frequency:   12.7475386626
  - # 13
    frequency:   25.3460084644
  - # 14
    frequency:   26.9098127992
  - # 15
    frequency:   26.9554516636

- q-position: [    0.0353535,    0.0000000,    0.0000000 ]
  distance:    0.0122099
  band:
  - # 1
    frequency:    0.0993045788
  - # 2
    frequency:    0.6552204229
  - # 3
    frequency:    0.7410096829
  - # 4
    frequency:    3.9665921196
  - # 5
    frequency:    4.0141317963
  - # 6
    frequency:    5.4339187971
  - # 7
    frequency:    6.2200771150
  - # 8
    frequency:    6.2765040945
  - # 9
    frequency:   10.1235329089
  - # 10
    frequency:   12.2705589147
  - # 11
    frequency:   12.7355502133
  - # 12
    frequency:   12.7542144039
  - # 13
    frequency:   25.3252929711
  - # 14
    frequency:   26.9037980084
  - # 15
    frequency:   26.9649940304

- q-position: [    0.0404040,    0.0000000,    0.0000000 ]
  distance:    0.0139542
  band:
  - # 1
    frequency:    0.1286901982
  - # 2
    frequency:    0.7464800198
  - # 3
    frequency:    0.8458538476
  - # 4
    frequency:    3.9762065838
  - # 5
    frequency:    4.0373953650
  - # 6
    frequency:    5.4218076721
  - # 7
    frequency:    6.2232495917
  - # 8
    frequency:    6.2952696097
  - # 9
    frequency:   10.0860780920
  - # 10
    frequency:   12.2500267719
  - # 11
    frequency:   12.7393545032
  - # 12
    frequency:   12.7607701186
  - # 13
    frequency:   25.3020491009
  - # 14
    frequency:   26.8968871346
  - # 15
    frequency:   26.9754873039

- q-position: [    0.0454545,    0.0000000,    0.0000000 ]
  distance:    0.0156985
  band:
  - # 1
    frequency:    0.1614591547
  - # 2
    frequency:    0.8368230249
  - # 3
    frequency:    0.9502656002
  - # 4
    frequency:    3.9870386963
  - # 5
    frequency:    4.0632145917
  - # 6
    frequency:    5.4087151631
  - # 7
    frequency:    6.2268863195
  - # 8
    frequency:    6.3157874975
  - # 9
    frequency:   10.0440824036
  - # 10
    frequency:   12.2278822918
  - # 11
    frequency:   12.7435340381
  - # 12
    frequency:   12.7669707288
  - # 13
    frequency:   25.2765096818
  - # 14
    frequency:   26.8890924583
  - # 15
    frequency:   26.9867578528

- q-position: [    0.0505051,    0.0000000,    0.0000000 ]
  distance:    0.0174427
  band:
  - # 1
    frequency:    0.1974390364
  - # 2
    frequency:    0.9261479286
  - # 3
    frequency:    1.0541745129
  - # 4
    frequency:    3.9990644545
  - # 5
    frequency:    4.0914052113
  - # 6
    frequency:    5.3947934876
  - # 7
    frequency:    6.2309999663
  - # 8
    frequency:    6.3378678273
  - # 9
    frequency:    9.9977148216
  - # 10
    frequency:   12.2042792896
  - # 11
    frequency:   12.7480415103
  - # 12
    frequency:   12.7726278036
  - # 13
    frequency:   25.2489134137
  - # 14
    frequency:   26.8804277287
  - # 15
    frequency:   26.9986331274

- q-position: [    0.0555556,    0.0000000,    0.0000000 ]
  distance:    0.0191870
  band:
  - # 1
    frequency:    0.2364508608
  - # 2
    frequency:    1.0143578907
  - # 3
    frequency:    1.1575045918
  - # 4
    frequency:    4.0122571094
  - # 5
    frequency:    4.1217702749
  - # 6
    frequency:    5.3801848648
  - # 7
    frequency:    6.2356031079
  - # 8
    frequency:    6.3613298160
  - # 9
    frequency:    9.9471629049
  - # 10
    frequency:   12.1793275904
  - # 11
    frequency:   12.7528252689
  - # 12
    frequency:   12.7775962564
  - # 13
    frequency:   25.2195002971
  - # 14
    frequency:   26.8709081072
  - # 15
    frequency:   27.0109458910

- q-position: [    0.0606061,    0.0000000,    0.0000000 ]
  distance:    0.0209313
  band:
  - # 1
    frequency:    0.2783118833
  - # 2
    frequency:    1.1013612664
  - # 3
    frequency:    1.2601737505
  - # 4
    frequency:    4.0265872057
  - # 5
    frequency:    4.1541011294
  - # 6
    frequency:    5.3650217605
  - # 7
    frequency:    6.2407077546
  - # 8
    frequency:    6.3860029287
  - # 9
    frequency:    9.8926320782
  - # 10
    frequency:   12.1530992530
  - # 11
    frequency:   12.7578296791
  - # 12
    frequency:   12.7817696430
  - # 13
    frequency:   25.1885080027
  - # 14
    frequency:   26.8605501065
  - # 15
    frequency:   27.0235374809

- q-position: [    0.0656566,    0.0000000,    0.0000000 ]
  distance:    0.0226755
  band:
  - # 1
    frequency:    0.3228380918
  - # 2
    frequency:    1.1870721165
  - # 3
    frequency:    1.3620932958
  - # 4
    frequency:    4.0420226312
  - # 5
    frequency:    4.1881777037
  - # 6
    frequency:    5.3494285152
  - # 7
    frequency:    6.2463248584
  - # 8
    frequency:    6.4117268702
  - # 9
    frequency:    9.8343448870
  - # 10
    frequency:   12.1256353495
  - # 11
    frequency:   12.7629954948
  - # 12
    frequency:   12.7850750700
  - # 13
    frequency:   25.1561691152
  - # 14
    frequency:   26.8493715281
  - # 15
    frequency:   27.0362601654

- q-position: [    0.0707071,    0.0000000,    0.0000000 ]
  distance:    0.0244198
  band:
  - # 1
    frequency:    0.3698463507
  - # 2
    frequency:    1.2714106939
  - # 3
    frequency:    1.4631674142
  - # 4
    frequency:    4.0585286798
  - # 5
    frequency:    4.2237679653
  - # 6
    frequency:    5.3335240858
  - # 7
    frequency:    6.2524638112
  - # 8
    frequency:    6.4383508215
  - # 9
    frequency:    9.7725403069
  - # 10
    frequency:   12.0969527539
  - # 11
    frequency:   12.7682602409
  - # 12
    frequency:   12.7874681973
  - # 13
    frequency:   25.1227091372
  - # 14
    frequency:   26.8373913982
  - # 15
    frequency:   27.0489787144

- q-position: [    0.0757576,    0.0000000,    0.0000000 ]
  distance:    0.0261641
  band:
  - # 1
    frequency:    0.4191561786
  - # 2
    frequency:    1.3543038966
  - # 3
    frequency:    1.5632926513
  - # 4
    frequency:    4.0760681269
  - # 5
    frequency:    4.2606264027
  - # 6
    frequency:    5.3174257399
  - # 7
    frequency:    6.2591319453
  - # 8
    frequency:    6.4657321974
  - # 9
    frequency:    9.7074731947
  - # 10
    frequency:   12.0670506780
  - # 11
    frequency:   12.7735585985
  - # 12
    frequency:   12.7889285267
  - # 13
    frequency:   25.0883451148
  - # 14
    frequency:   26.8246299040
  - # 15
    frequency:   27.0615713261

- q-position: [    0.0808081,    0.0000000,    0.0000000 ]
  distance:    0.0279084
  band:
  - # 1
    frequency:    0.4705911667
  - # 2
    frequency:    1.4356856755
  - # 3
    frequency:    1.6623573676
  - # 4
    frequency:    4.0946013197
  - # 5
    frequency:    4.2984913683
  - # 6
    frequency:    5.3012536612
  - # 7
    frequency:    6.2663340480
  - # 8
    frequency:    6.4937351256
  - # 9
    frequency:    9.6394139692
  - # 10
    frequency:   12.0359168335
  - # 11
    frequency:   12.7788227879
  - # 12
    frequency:   12.7894550304
  - # 13
    frequency:   25.0532847477
  - # 14
    frequency:   26.8111083294
  - # 15
    frequency:   27.0739300490

- q-position: [    0.0858586,    0.0000000,    0.0000000 ]
  distance:    0.0296526
  band:
  - # 1
    frequency:    0.5239800536
  - # 2
    frequency:    1.5154973880
  - # 3
    frequency:    1.7602411547
  - # 4
    frequency:    4.1140862819
  - # 5
    frequency:    4.3370810847
  - # 6
    frequency:    5.2851365377
  - # 7
    frequency:    6.2740719045
  - # 8
    frequency:    6.5222287791
  - # 9
    frequency:    9.5686486037
  - # 10
    frequency:   12.0035331616
  - # 11
    frequency:   12.7839829444
  - # 12
    frequency:   12.7890621191
  - # 13
    frequency:   25.0177258595
  - # 14
    frequency:   26.7968489939
  - # 15
    frequency:   27.0859608287

- q-position: [    0.0909091,    0.0000000,    0.0000000 ]
  distance:    0.0313969
  band:
  - # 1
    frequency:    0.5791574855
  - # 2
    frequency:    1.5936880853
  - # 3
    frequency:    1.8568141879
  - # 4
    frequency:    4.1344788332
  - # 5
    frequency:    4.3760880846
  - # 6
    frequency:    5.2692183004
  - # 7
    frequency:    6.2823438815
  - # 8
    frequency:    6.5510856488
  - # 9
    frequency:    9.4954789976
  - # 10
    frequency:   11.9698810902
  - # 11
    frequency:   12.7877759396
  - # 12
    frequency:   12.7889674831
  - # 13
    frequency:   24.9818561216
  - # 14
    frequency:   26.7818751934
  - # 15
    frequency:   27.0975832887

- q-position: [    0.0959596,    0.0000000,    0.0000000 ]
  distance:    0.0331412
  band:
  - # 1
    frequency:    0.6359644930
  - # 2
    frequency:    1.6702147236
  - # 3
    frequency:    1.9519364897
  - # 4
    frequency:    4.1557327218
  - # 5
    frequency:    4.4151718487
  - # 6
    frequency:    5.2536662352
  - # 7
    frequency:    6.2911445649
  - # 8
    frequency:    6.5801798063
  - # 9
    frequency:    9.4202237814
  - # 10
    frequency:   11.9349462861
  - # 11
    frequency:   12.7856309971
  - # 12
    frequency:   12.7937034462
  - # 13
    frequency:   24.9458529463
  - # 14
    frequency:   26.7662111446
  - # 15
    frequency:   27.1087303333

- q-position: [    0.1010101,    0.0000000,    0.0000000 ]
  distance:    0.0348854
  band:
  - # 1
    frequency:    0.6942487192
  - # 2
    frequency:    1.7450422913
  - # 3
    frequency:    2.0454570671
  - # 4
    frequency:    4.1777997680
  - # 5
    frequency:    4.4539494709
  - # 6
    frequency:    5.2386806630
  - # 7
    frequency:    6.3004644664
  - # 8
    frequency:    6.6093851929
  - # 9
    frequency:    9.3432195869
  - # 10
    frequency:   11.8987228679
  - # 11
    frequency:   12.7826671097
  - # 12
    frequency:   12.7981168325
  - # 13
    frequency:   24.9098834839
  - # 14
    frequency:   26.7498819339
  - # 15
    frequency:   27.1193476425

- q-position: [    0.1060606,    0.0000000,    0.0000000 ]
  distance:    0.0366297
  band:
  - # 1
    frequency:    0.7538644323
  - # 2
    frequency:    1.8181438455
  - # 3
    frequency:    2.1372128830
  - # 4
    frequency:    4.2006300178
  - # 5
    frequency:    4.4919844398
  - # 6
    frequency:    5.2245061517
  - # 7
    frequency:    6.3102898080
  - # 8
    frequency:    6.6385739592
  - # 9
    frequency:    9.2648227885
  - # 10
    frequency:   11.8612170490
  - # 11
    frequency:   12.7789267110
  - # 12
    frequency:   12.8021329030
  - # 13
    frequency:   24.8741046772
  - # 14
    frequency:   26.7329134710
  - # 15
    frequency:   27.1293931089

- q-position: [    0.1111111,    0.0000000,    0.0000000 ]
  distance:    0.0383740
  band:
  - # 1
    frequency:    0.8146723540
  - # 2
    frequency:    1.8895004519
  - # 3
    frequency:    2.2270276083
  - # 4
    frequency:    4.2241719005
  - # 5
    frequency:    4.5287742888
  - # 6
    frequency:    5.2114435949
  - # 7
    frequency:    6.3206023982
  - # 8
    frequency:    6.6676148896
  - # 9
    frequency:    9.1854116871
  - # 10
    frequency:   11.8224501844
  - # 11
    frequency:   12.7744525167
  - # 12
    frequency:   12.8056764628
  - # 13
    frequency:   24.8386633385
  - # 14
    frequency:   26.7153324481
  - # 15
    frequency:   27.1388362559

- q-position: [    0.1161616,    0.0000000,    0.0000000 ]
  distance:    0.0401183
  band:
  - # 1
    frequency:    0.8765393321
  - # 2
    frequency:    1.9591010286
  - # 3
    frequency:    2.3147100906
  - # 4
    frequency:    4.2483723886
  - # 5
    frequency:    4.5637392844
  - # 6
    frequency:    5.1998611066
  - # 7
    frequency:    6.3313796052
  - # 8
    frequency:    6.6963719594
  - # 9
    frequency:    9.1053890609
  - # 10
    frequency:   11.7824612077
  - # 11
    frequency:   12.7692855711
  - # 12
    frequency:   12.8086721157
  - # 13
    frequency:   24.8036962284
  - # 14
    frequency:   26.6971663050
  - # 15
    frequency:   27.1476576598

- q-position: [    0.1212121,    0.0000000,    0.0000000 ]
  distance:    0.0418625
  band:
  - # 1
    frequency:    0.9393378805
  - # 2
    frequency:    2.0269420933
  - # 3
    frequency:    2.4000524638
  - # 4
    frequency:    4.2731771545
  - # 5
    frequency:    4.5962169286
  - # 6
    frequency:    5.1901991195
  - # 7
    frequency:    6.3425944349
  - # 8
    frequency:    6.7247031043
  - # 9
    frequency:    9.0251849387
  - # 10
    frequency:   11.7413084533
  - # 11
    frequency:   12.7634636787
  - # 12
    frequency:   12.8110444927
  - # 13
    frequency:   24.7693301232
  - # 14
    frequency:   26.6784431996
  - # 15
    frequency:   27.1558483950

- q-position: [    0.1262626,    0.0000000,    0.0000000 ]
  distance:    0.0436068
  band:
  - # 1
    frequency:    1.0029456065
  - # 2
    frequency:    2.0930274192
  - # 3
    frequency:    2.4828278055
  - # 4
    frequency:    4.2985307202
  - # 5
    frequency:    4.6254709299
  - # 6
    frequency:    5.1829612532
  - # 7
    frequency:    6.3542157153
  - # 8
    frequency:    6.7524593276
  - # 9
    frequency:    8.9452593616
  - # 10
    frequency:   11.6990708791
  - # 11
    frequency:   12.7570202143
  - # 12
    frequency:   12.8127184521
  - # 13
    frequency:   24.7356818642
  - # 14
    frequency:   26.6591919851
  - # 15
    frequency:   27.1634095102

- q-position: [    0.1313131,    0.0000000,    0.0000000 ]
  distance:    0.0453511
  band:
  - # 1
    frequency:    1.0672445397
  - # 2
    frequency:    2.1573676065
  - # 3
    frequency:    2.5627872344
  - # 4
    frequency:    4.3243765962
  - # 5
    frequency:    4.6507270378
  - # 6
    frequency:    5.1786788518
  - # 7
    frequency:    6.3662083865
  - # 8
    frequency:    6.7794843353
  - # 9
    frequency:    8.8661047723
  - # 10
    frequency:   11.6558487135
  - # 11
    frequency:   12.7499832951
  - # 12
    frequency:   12.8136192546
  - # 13
    frequency:   24.7028583867
  - # 14
    frequency:   26.6394421921
  - # 15
    frequency:   27.1703515421

- q-position: [    0.1363636,    0.0000000,    0.0000000 ]
  distance:    0.0470954
  band:
  - # 1
    frequency:    1.1321203695
  - # 2
    frequency:    2.2199795795
  - # 3
    frequency:    2.6396563287
  - # 4
    frequency:    4.3506574064
  - # 5
    frequency:    4.6712471019
  - # 6
    frequency:    5.1778382139
  - # 7
    frequency:    6.3785338914
  - # 8
    frequency:    6.8056149740
  - # 9
    frequency:    8.7882475053
  - # 10
    frequency:   11.6117635702
  - # 11
    frequency:   12.7423752824
  - # 12
    frequency:   12.8136727121
  - # 13
    frequency:   24.6709567303
  - # 14
    frequency:   26.6192240172
  - # 15
    frequency:   27.1766940664

- q-position: [    0.1414141,    0.0000000,    0.0000000 ]
  distance:    0.0488396
  band:
  - # 1
    frequency:    1.1974615955
  - # 2
    frequency:    2.2808860214
  - # 3
    frequency:    2.7131307371
  - # 4
    frequency:    4.3773149971
  - # 5
    frequency:    4.6864395962
  - # 6
    frequency:    5.1807727704
  - # 7
    frequency:    6.3911506603
  - # 8
    frequency:    6.8306828468
  - # 9
    frequency:    8.7122476543
  - # 10
    frequency:   11.5669580780
  - # 11
    frequency:   12.7342125754
  - # 12
    frequency:   12.8128053139
  - # 13
    frequency:   24.6400640336
  - # 14
    frequency:   26.5985683153
  - # 15
    frequency:   27.1824652850

- q-position: [    0.1464646,    0.0000000,    0.0000000 ]
  distance:    0.0505839
  band:
  - # 1
    frequency:    1.2631585821
  - # 2
    frequency:    2.3401147609
  - # 3
    frequency:    2.7828708666
  - # 4
    frequency:    4.4042905304
  - # 5
    frequency:    4.6959781015
  - # 6
    frequency:    5.1875493197
  - # 7
    frequency:    6.4040146748
  - # 8
    frequency:    6.8545175839
  - # 9
    frequency:    8.6386963697
  - # 10
    frequency:   11.5215950852
  - # 11
    frequency:   12.7255056499
  - # 12
    frequency:   12.8109443330
  - # 13
    frequency:   24.6102575190
  - # 14
    frequency:   26.5775065964
  - # 15
    frequency:   27.1877016462

- q-position: [    0.1515152,    0.0000000,    0.0000000 ]
  distance:    0.0523282
  band:
  - # 1
    frequency:    1.3291025030
  - # 2
    frequency:    2.3976981256
  - # 3
    frequency:    2.8484955683
  - # 4
    frequency:    4.4315245626
  - # 5
    frequency:    4.6998765183
  - # 6
    frequency:    5.1979002525
  - # 7
    frequency:    6.4170800996
  - # 8
    frequency:    6.8769523119
  - # 9
    frequency:    8.5682094425
  - # 10
    frequency:   11.4758564957
  - # 11
    frequency:   12.7162592943
  - # 12
    frequency:   12.8080179149
  - # 13
    frequency:   24.5816044724
  - # 14
    frequency:   26.5560710256
  - # 15
    frequency:   27.1924474939

- q-position: [    0.1565657,    0.0000000,    0.0000000 ]
  distance:    0.0540724
  band:
  - # 1
    frequency:    1.3951841440
  - # 2
    frequency:    2.4536722772
  - # 3
    frequency:    2.9095748403
  - # 4
    frequency:    4.4589571115
  - # 5
    frequency:    4.6984808638
  - # 6
    frequency:    5.2112426483
  - # 7
    frequency:    6.4302999607
  - # 8
    frequency:    6.8978318367
  - # 9
    frequency:    8.5014159390
  - # 10
    frequency:   11.4299417972
  - # 11
    frequency:   12.7064729954
  - # 12
    frequency:   12.8039551535
  - # 13
    frequency:   24.5541622243
  - # 14
    frequency:   26.5342944248
  - # 15
    frequency:   27.1967547372

- q-position: [    0.1616162,    0.0000000,    0.0000000 ]
  distance:    0.0558167
  band:
  - # 1
    frequency:    1.4612925129
  - # 2
    frequency:    2.5080765441
  - # 3
    frequency:    2.9656217546
  - # 4
    frequency:    4.4865277182
  - # 5
    frequency:    4.6923844233
  - # 6
    frequency:    5.2267781137
  - # 7
    frequency:    6.4436268525
  - # 8
    frequency:    6.9170238332
  - # 9
    frequency:    8.4389407984
  - # 10
    frequency:   11.3840663349
  - # 11
    frequency:   12.6961414296
  - # 12
    frequency:   12.7986861575
  - # 13
    frequency:   24.5279781390
  - # 14
    frequency:   26.5122102751
  - # 15
    frequency:   27.2006825380

- q-position: [    0.1666667,    0.0000000,    0.0000000 ]
  distance:    0.0575610
  band:
  - # 1
    frequency:    1.5273131749
  - # 2
    frequency:    2.5609527661
  - # 3
    frequency:    3.0160841510
  - # 4
    frequency:    4.5141755098
  - # 5
    frequency:    4.6823143136
  - # 6
    frequency:    5.2436256111
  - # 7
    frequency:    6.4570136511
  - # 8
    frequency:    6.9344328093
  - # 9
    frequency:    8.3813808560
  - # 10
    frequency:   11.3384593775
  - # 11
    frequency:   12.6852550204
  - # 12
    frequency:   12.7921421128
  - # 13
    frequency:   24.5030896184
  - # 14
    frequency:   26.4898527187
  - # 15
    frequency:   27.2042970049

- q-position: [    0.1717172,    0.0000000,    0.0000000 ]
  distance:    0.0593053
  band:
  - # 1
    frequency:    1.5931261823
  - # 2
    frequency:    2.6123446622
  - # 3
    frequency:    3.0603371938
  - # 4
    frequency:    4.5418392724
  - # 5
    frequency:    4.6690383081
  - # 6
    frequency:    5.2609380336
  - # 7
    frequency:    6.4704142121
  - # 8
    frequency:    6.9500157095
  - # 9
    frequency:    8.3292748473
  - # 10
    frequency:   11.2933620139
  - # 11
    frequency:   12.6738005305
  - # 12
    frequency:   12.7842553444
  - # 13
    frequency:   24.4795241261
  - # 14
    frequency:   26.4672565583
  - # 15
    frequency:   27.2076708894

- q-position: [    0.1767677,    0.0000000,    0.0000000 ]
  distance:    0.0610495
  band:
  - # 1
    frequency:    1.6586033887
  - # 2
    frequency:    2.6622972358
  - # 3
    frequency:    3.0976787142
  - # 4
    frequency:    4.5694575428
  - # 5
    frequency:    4.6533127110
  - # 6
    frequency:    5.2779801625
  - # 7
    frequency:    6.4837840291
  - # 8
    frequency:    6.9637968192
  - # 9
    frequency:    8.2830695853
  - # 10
    frequency:   11.2490249070
  - # 11
    frequency:   12.6617616632
  - # 12
    frequency:   12.7749593835
  - # 13
    frequency:   24.4572992392
  - # 14
    frequency:   26.4444572526
  - # 15
    frequency:   27.2108832734

- q-position: [    0.1818182,    0.0000000,    0.0000000 ]
  distance:    0.0627938
  band:
  - # 1
    frequency:    1.7236048044
  - # 2
    frequency:    2.7108562234
  - # 3
    frequency:    3.1273303725
  - # 4
    frequency:    4.5969687319
  - # 5
    frequency:    4.6358658135
  - # 6
    frequency:    5.2941702211
  - # 7
    frequency:    6.4970808340
  - # 8
    frequency:    6.9758784525
  - # 9
    frequency:    8.2430863720
  - # 10
    frequency:   11.2057059205
  - # 11
    frequency:   12.6491196540
  - # 12
    frequency:   12.7641890435
  - # 13
    frequency:   24.4364227337
  - # 14
    frequency:   26.4214909067
  - # 15
    frequency:   27.2140192407

- q-position: [    0.1868687,    0.0000000,    0.0000000 ]
  distance:    0.0645381
  band:
  - # 1
    frequency:    1.7879734220
  - # 2
    frequency:    2.7580675957
  - # 3
    frequency:    3.1484489258
  - # 4
    frequency:    4.6174003556
  - # 5
    frequency:    4.6243112873
  - # 6
    frequency:    5.3090963972
  - # 7
    frequency:    6.5102651161
  - # 8
    frequency:    6.9864433760
  - # 9
    frequency:    8.2094931537
  - # 10
    frequency:   11.1636676198
  - # 11
    frequency:   12.6358538399
  - # 12
    frequency:   12.7518805109
  - # 13
    frequency:   24.4168927106
  - # 14
    frequency:   26.3983942553
  - # 15
    frequency:   27.2171695239

- q-position: [    0.1919192,    0.0000000,    0.0000000 ]
  distance:    0.0662823
  band:
  - # 1
    frequency:    1.8515275266
  - # 2
    frequency:    2.8039771150
  - # 3
    frequency:    3.1601528913
  - # 4
    frequency:    4.5985985020
  - # 5
    frequency:    4.6514239071
  - # 6
    frequency:    5.3225180483
  - # 7
    frequency:    6.5233005446
  - # 8
    frequency:    6.9957457161
  - # 9
    frequency:    8.1822881060
  - # 10
    frequency:   11.1231746406
  - # 11
    frequency:   12.6219421996
  - # 12
    frequency:   12.7379714542
  - # 13
    frequency:   24.3986977677
  - # 14
    frequency:   26.3752046364
  - # 15
    frequency:   27.2204301154

- q-position: [    0.1969697,    0.0000000,    0.0000000 ]
  distance:    0.0680266
  band:
  - # 1
    frequency:    1.9140487433
  - # 2
    frequency:    2.8486299510
  - # 3
    frequency:    3.1615699813
  - # 4
    frequency:    4.5801173635
  - # 5
    frequency:    4.6782458139
  - # 6
    frequency:    5.3343566825
  - # 7
    frequency:    6.5361542777
  - # 8
    frequency:    7.0040895038
  - # 9
    frequency:    8.1612986733
  - # 10
    frequency:   11.0844909021
  - # 11
    frequency:   12.6073618615
  - # 12
    frequency:   12.7224011557
  - # 13
    frequency:   24.3818172255
  - # 14
    frequency:   26.3519599564
  - # 15
    frequency:   27.2239018359

- q-position: [    0.2020202,    0.0000000,    0.0000000 ]
  distance:    0.0697709
  band:
  - # 1
    frequency:    1.9752625924
  - # 2
    frequency:    2.8920703568
  - # 3
    frequency:    3.1519092769
  - # 4
    frequency:    4.5625690950
  - # 5
    frequency:    4.7047170950
  - # 6
    frequency:    5.3446784617
  - # 7
    frequency:    6.5487971476
  - # 8
    frequency:    7.0117974667
  - # 9
    frequency:    8.1461968393
  - # 10
    frequency:   11.0478766399
  - # 11
    frequency:   12.5920895793
  - # 12
    frequency:   12.7051106690
  - # 13
    frequency:   24.3662214130
  - # 14
    frequency:   26.3286986419
  - # 15
    frequency:   27.2276898488

- q-position: [    0.2070707,    0.0000000,    0.0000000 ]
  distance:    0.0715152
  band:
  - # 1
    frequency:    2.0348053338
  - # 2
    frequency:    2.9343414025
  - # 3
    frequency:    3.1305596675
  - # 4
    frequency:    4.5464866162
  - # 5
    frequency:    4.7307791149
  - # 6
    frequency:    5.3536688900
  - # 7
    frequency:    6.5612037131
  - # 8
    frequency:    7.0191758051
  - # 9
    frequency:    8.1365277103
  - # 10
    frequency:   11.0135852252
  - # 11
    frequency:   12.5761021785
  - # 12
    frequency:   12.6860430067
  - # 13
    frequency:   24.3518720183
  - # 14
    frequency:   26.3054595793
  - # 15
    frequency:   27.2319031120

- q-position: [    0.2121212,    0.0000000,    0.0000000 ]
  distance:    0.0732594
  band:
  - # 1
    frequency:    2.0921645522
  - # 2