nqpoint: 300    
npath: 3      
segment_nqpoint:
- 100
- 100
- 100
labels:
- [ 'G', 'M' ]
- [ 'M', 'K' ]
- [ 'K', 'G' ]
reciprocal_lattice:
- [   0.29691532,   0.17142414,   0.00000000 ] # a*
- [   0.00000000,   0.34284827,   0.00000000 ] # b*
- [   0.00000000,   0.00000000,   0.04023360 ] # c*
natom: 6      
lattice:
- [     3.367963687255711,     0.000000000000000,     0.000000000000000 ] # a
- [    -1.683981843627856,     2.916742112180259,     0.000000000000000 ] # b
- [     0.000000000000000,     0.000000000000000,    24.854848066651286 ] # c
points:
- symbol: C # 1
  coordinates: [  0.000000000000000,  0.000000000000000,  0.481274405093272 ]
  mass: 12.010700
- symbol: C # 2
  coordinates: [  0.333332985432215,  0.666666983183674,  0.589342186015456 ]
  mass: 12.010700
- symbol: Cl # 3
  coordinates: [  0.666666984744048,  0.333332985985145,  0.362102394505306 ]
  mass: 35.453000
- symbol: Hf # 4
  coordinates: [  0.333332985432215,  0.666666983183674,  0.434041781152388 ]
  mass: 178.490000
- symbol: Hf # 5
  coordinates: [  0.666666984744048,  0.333332985985145,  0.530794526076916 ]
  mass: 178.490000
- symbol: N # 6
  coordinates: [  0.333332985432215,  0.666666983183674,  0.637897605494694 ]
  mass: 14.006700

phonon:
- q-position: [    0.0000000,    0.0000000,    0.0000000 ]
  distance:    0.0000000
  band:
  - # 1
    frequency:   -0.0000131948
  - # 2
    frequency:    0.0000000344
  - # 3
    frequency:    0.0000100583
  - # 4
    frequency:    1.3975830153
  - # 5
    frequency:    1.3975830153
  - # 6
    frequency:    3.6228663020
  - # 7
    frequency:    3.6228663020
  - # 8
    frequency:    5.0233591790
  - # 9
    frequency:    5.1648743748
  - # 10
    frequency:    5.1648743748
  - # 11
    frequency:    7.1703309148
  - # 12
    frequency:    7.1703309148
  - # 13
    frequency:    8.3192818148
  - # 14
    frequency:    8.4289340885
  - # 15
    frequency:   16.4639659031
  - # 16
    frequency:   18.1676200349
  - # 17
    frequency:   18.1676200349
  - # 18
    frequency:   60.1825364852

- q-position: [    0.0050505,    0.0000000,    0.0000000 ]
  distance:    0.0017316
  band:
  - # 1
    frequency:    0.0013868994
  - # 2
    frequency:    0.0257567483
  - # 3
    frequency:    0.0828278068
  - # 4
    frequency:    1.3974328990
  - # 5
    frequency:    1.3981645143
  - # 6
    frequency:    3.6229927616
  - # 7
    frequency:    3.6236059234
  - # 8
    frequency:    5.0226232657
  - # 9
    frequency:    5.1650111552
  - # 10
    frequency:    5.1660610578
  - # 11
    frequency:    7.1705592498
  - # 12
    frequency:    7.1710671529
  - # 13
    frequency:    8.3194155269
  - # 14
    frequency:    8.4285894500
  - # 15
    frequency:   16.4638180649
  - # 16
    frequency:   18.1671860852
  - # 17
    frequency:   18.1673999208
  - # 18
    frequency:   60.1824696836

- q-position: [    0.0101010,    0.0000000,    0.0000000 ]
  distance:    0.0034631
  band:
  - # 1
    frequency:    0.0055424304
  - # 2
    frequency:    0.0515349185
  - # 3
    frequency:    0.1654617880
  - # 4
    frequency:    1.3969828347
  - # 5
    frequency:    1.3999164450
  - # 6
    frequency:    3.6233714145
  - # 7
    frequency:    3.6258187433
  - # 8
    frequency:    5.0204807405
  - # 9
    frequency:    5.1654218624
  - # 10
    frequency:    5.1695574262
  - # 11
    frequency:    7.1712430334
  - # 12
    frequency:    7.1732744677
  - # 13
    frequency:    8.3198149699
  - # 14
    frequency:    8.4275562612
  - # 15
    frequency:   16.4633746552
  - # 16
    frequency:   18.1658861977
  - # 17
    frequency:   18.1667400643
  - # 18
    frequency:   60.1822694059

- q-position: [    0.0151515,    0.0000000,    0.0000000 ]
  distance:    0.0051947
  band:
  - # 1
    frequency:    0.0124510490
  - # 2
    frequency:    0.0773544556
  - # 3
    frequency:    0.2477004059
  - # 4
    frequency:    1.3962338046
  - # 5
    frequency:    1.4028624026
  - # 6
    frequency:    3.6240000926
  - # 7
    frequency:    3.6294867532
  - # 8
    frequency:    5.0171047024
  - # 9
    frequency:    5.1661075855
  - # 10
    frequency:    5.1751949279
  - # 11
    frequency:    7.1723786023
  - # 12
    frequency:    7.1769486498
  - # 13
    frequency:    8.3204750391
  - # 14
    frequency:    8.4258367466
  - # 15
    frequency:   16.4626359886
  - # 16
    frequency:   18.1637262480
  - # 17
    frequency:   18.1656419237
  - # 18
    frequency:   60.1819360338

- q-position: [    0.0202020,    0.0000000,    0.0000000 ]
  distance:    0.0069262
  band:
  - # 1
    frequency:    0.0220871334
  - # 2
    frequency:    0.1032323009
  - # 3
    frequency:    0.3293260095
  - # 4
    frequency:    1.3951878748
  - # 5
    frequency:    1.4070461212
  - # 6
    frequency:    3.6248752156
  - # 7
    frequency:    3.6345803466
  - # 8
    frequency:    5.0127244279
  - # 9
    frequency:    5.1670701110
  - # 10
    frequency:    5.1827516843
  - # 11
    frequency:    7.1739598553
  - # 12
    frequency:    7.1820826502
  - # 13
    frequency:    8.3213871313
  - # 14
    frequency:    8.4234347722
  - # 15
    frequency:   16.4616025870
  - # 16
    frequency:   18.1607160000
  - # 17
    frequency:   18.1641079326
  - # 18
    frequency:   60.1814702016

- q-position: [    0.0252525,    0.0000000,    0.0000000 ]
  distance:    0.0086578
  band:
  - # 1
    frequency:    0.0344153551
  - # 2
    frequency:    0.1291807815
  - # 3
    frequency:    0.4100949996
  - # 4
    frequency:    1.3938488495
  - # 5
    frequency:    1.4125384152
  - # 6
    frequency:    3.6259918390
  - # 7
    frequency:    3.6410589135
  - # 8
    frequency:    5.0075748781
  - # 9
    frequency:    5.1683118796
  - # 10
    frequency:    5.1920027199
  - # 11
    frequency:    7.1759782608
  - # 12
    frequency:    7.1886665294
  - # 13
    frequency:    8.3225389596
  - # 14
    frequency:    8.4203561242
  - # 15
    frequency:   16.4602751775
  - # 16
    frequency:   18.1568690625
  - # 17
    frequency:   18.1621415049
  - # 18
    frequency:   60.1808727951

- q-position: [    0.0303030,    0.0000000,    0.0000000 ]
  distance:    0.0103893
  band:
  - # 1
    frequency:    0.0493911884
  - # 2
    frequency:    0.1552058630
  - # 3
    frequency:    0.4897257700
  - # 4
    frequency:    1.3922232060
  - # 5
    frequency:    1.4194475328
  - # 6
    frequency:    3.6273437231
  - # 7
    frequency:    3.6488716381
  - # 8
    frequency:    5.0018655276
  - # 9
    frequency:    5.1698359271
  - # 10
    frequency:    5.2027507798
  - # 11
    frequency:    7.1784228681
  - # 12
    frequency:    7.1966873879
  - # 13
    frequency:    8.3239141918
  - # 14
    frequency:    8.4166089998
  - # 15
    frequency:   16.4586546883
  - # 16
    frequency:   18.1522028291
  - # 17
    frequency:   18.1597470407
  - # 18
    frequency:   60.1801449490

- q-position: [    0.0353535,    0.0000000,    0.0000000 ]
  distance:    0.0121209
  band:
  - # 1
    frequency:    0.0669615240
  - # 2
    frequency:    0.1813052178
  - # 3
    frequency:    0.5678836359
  - # 4
    frequency:    1.3903213305
  - # 5
    frequency:    1.4279334365
  - # 6
    frequency:    3.6289234186
  - # 7
    frequency:    3.6579584694
  - # 8
    frequency:    4.9957689147
  - # 9
    frequency:    5.1716458088
  - # 10
    frequency:    5.2148373475
  - # 11
    frequency:    7.1812803245
  - # 12
    frequency:    7.2061292777
  - # 13
    frequency:    8.3254917600
  - # 14
    frequency:    8.4122048594
  - # 15
    frequency:   16.4567422447
  - # 16
    frequency:   18.1467384007
  - # 17
    frequency:   18.1569299323
  - # 18
    frequency:   60.1792880432

- q-position: [    0.0404040,    0.0000000,    0.0000000 ]
  distance:    0.0138525
  band:
  - # 1
    frequency:    0.0870653565
  - # 2
    frequency:    0.2074660578
  - # 3
    frequency:    0.6441622109
  - # 4
    frequency:    1.3881590823
  - # 5
    frequency:    1.4382263328
  - # 6
    frequency:    3.6307223721
  - # 7
    frequency:    3.6682512274
  - # 8
    frequency:    4.9894214010
  - # 9
    frequency:    5.1737455099
  - # 10
    frequency:    5.2281413931
  - # 11
    frequency:    7.1845349004
  - # 12
    frequency:    7.2169730963
  - # 13
    frequency:    8.3272445332
  - # 14
    frequency:    8.4071599472
  - # 15
    frequency:   16.4545391646
  - # 16
    frequency:   18.1405004925
  - # 17
    frequency:   18.1536965708
  - # 18
    frequency:   60.1783036992

- q-position: [    0.0454545,    0.0000000,    0.0000000 ]
  distance:    0.0155840
  band:
  - # 1
    frequency:    0.1096345170
  - # 2
    frequency:    0.2336626763
  - # 3
    frequency:    0.7180616122
  - # 4
    frequency:    1.3857597168
  - # 5
    frequency:    1.4506488960
  - # 6
    frequency:    3.6327310465
  - # 7
    frequency:    3.6796748083
  - # 8
    frequency:    4.9829290789
  - # 9
    frequency:    5.1761393410
  - # 10
    frequency:    5.2425729296
  - # 11
    frequency:    7.1881685224
  - # 12
    frequency:    7.2291964663
  - # 13
    frequency:    8.3291367030
  - # 14
    frequency:    8.4014981258
  - # 15
    frequency:   16.4520469531
  - # 16
    frequency:   18.1335173245
  - # 17
    frequency:   18.1500543506
  - # 18
    frequency:   60.1771937754

- q-position: [    0.0505051,    0.0000000,    0.0000000 ]
  distance:    0.0173156
  band:
  - # 1
    frequency:    0.1345944166
  - # 2
    frequency:    0.2598536389
  - # 3
    frequency:    0.7889662219
  - # 4
    frequency:    1.3831562054
  - # 5
    frequency:    1.4656393146
  - # 6
    frequency:    3.6349390583
  - # 7
    frequency:    3.6921484484
  - # 8
    frequency:    4.9763746804
  - # 9
    frequency:    5.1788318215
  - # 10
    frequency:    5.2580655454
  - # 11
    frequency:    7.1921608190
  - # 12
    frequency:    7.2427736009
  - # 13
    frequency:    8.3311184170
  - # 14
    frequency:    8.3952564891
  - # 15
    frequency:   16.4492672990
  - # 16
    frequency:   18.1258204968
  - # 17
    frequency:   18.1460116726
  - # 18
    frequency:   60.1759603617

- q-position: [    0.0555556,    0.0000000,    0.0000000 ]
  distance:    0.0190471
  band:
  - # 1
    frequency:    0.1618647715
  - # 2
    frequency:    0.2859785665
  - # 3
    frequency:    0.8561296505
  - # 4
    frequency:    1.3803939891
  - # 5
    frequency:    1.4837673989
  - # 6
    frequency:    3.6373353279
  - # 7
    frequency:    3.7055870103
  - # 8
    frequency:    4.9698236914
  - # 9
    frequency:    5.1818275532
  - # 10
    frequency:    5.2745697257
  - # 11
    frequency:    7.1964891782
  - # 12
    frequency:    7.2576751605
  - # 13
    frequency:    8.3331140931
  - # 14
    frequency:    8.3884973150
  - # 15
    frequency:   16.4462020704
  - # 16
    frequency:   18.1174448499
  - # 17
    frequency:   18.1415779428
  - # 18
    frequency:   60.1746057737

- q-position: [    0.0606061,    0.0000000,    0.0000000 ]
  distance:    0.0207787
  band:
  - # 1
    frequency:    0.1913602771
  - # 2
    frequency:    0.3119544552
  - # 3
    frequency:    0.9186826339
  - # 4
    frequency:    1.3775341968
  - # 5
    frequency:    1.5057279262
  - # 6
    frequency:    3.6399082412
  - # 7
    frequency:    3.7199022577
  - # 8
    frequency:    4.9633291674
  - # 9
    frequency:    5.1851310826
  - # 10
    frequency:    5.2920474879
  - # 11
    frequency:    7.2011288221
  - # 12
    frequency:    7.2738681038
  - # 13
    frequency:    8.3349950376
  - # 14
    frequency:    8.3813357333
  - # 15
    frequency:   16.4428533122
  - # 16
    frequency:   18.1084283114
  - # 17
    frequency:   18.1367635678
  - # 18
    frequency:   60.1731325458

- q-position: [    0.0656566,    0.0000000,    0.0000000 ]
  distance:    0.0225102
  band:
  - # 1
    frequency:    0.2229912007
  - # 2
    frequency:    0.3376714950
  - # 3
    frequency:    0.9756879078
  - # 4
    frequency:    1.3746573408
  - # 5
    frequency:    1.5322871067
  - # 6
    frequency:    3.6426458202
  - # 7
    frequency:    3.7350040907
  - # 8
    frequency:    4.9569352937
  - # 9
    frequency:    5.1887467581
  - # 10
    frequency:    5.3104683038
  - # 11
    frequency:    7.2060528979
  - # 12
    frequency:    7.2913155366
  - # 13
    frequency:    8.3365105119
  - # 14
    frequency:    8.3740089619
  - # 15
    frequency:   16.4392232443
  - # 16
    frequency:   18.0988117280
  - # 17
    frequency:   18.1315799430
  - # 18
    frequency:   60.1715434244

- q-position: [    0.0707071,    0.0000000,    0.0000000 ]
  distance:    0.0242418
  band:
  - # 1
    frequency:    0.2566638611
  - # 2
    frequency:    0.3629883902
  - # 3
    frequency:    1.0262632247
  - # 4
    frequency:    1.3718674595
  - # 5
    frequency:    1.5641609586
  - # 6
    frequency:    3.6455358986
  - # 7
    frequency:    3.7508017181
  - # 8
    frequency:    4.9506799163
  - # 9
    frequency:    5.1926785817
  - # 10
    frequency:    5.3298060978
  - # 11
    frequency:    7.2112325885
  - # 12
    frequency:    7.3099765642
  - # 13
    frequency:    8.3371144082
  - # 14
    frequency:    8.3670499460
  - # 15
    frequency:   16.4353142621
  - # 16
    frequency:   18.0886386866
  - # 17
    frequency:   18.1260394355
  - # 18
    frequency:   60.1698413595

- q-position: [    0.0757576,    0.0000000,    0.0000000 ]
  distance:    0.0259734
  band:
  - # 1
    frequency:    0.2922809612
  - # 2
    frequency:    0.3877272512
  - # 3
    frequency:    1.0697619973
  - # 4
    frequency:    1.3692965984
  - # 5
    frequency:    1.6018360799
  - # 6
    frequency:    3.6485663000
  - # 7
    frequency:    3.7672047490
  - # 8
    frequency:    4.9445962886
  - # 9
    frequency:    5.1969300576
  - # 10
    frequency:    5.3500370892
  - # 11
    frequency:    7.2166372444
  - # 12
    frequency:    7.3298061516
  - # 13
    frequency:    8.3356794548
  - # 14
    frequency:    8.3615734809
  - # 15
    frequency:   16.4311289381
  - # 16
    frequency:   18.0779553223
  - # 17
    frequency:   18.1201553581
  - # 18
    frequency:   60.1680294969

- q-position: [    0.0808081,    0.0000000,    0.0000000 ]
  distance:    0.0277049
  band:
  - # 1
    frequency:    0.3297417303
  - # 2
    frequency:    0.4116682536
  - # 3
    frequency:    1.1059433943
  - # 4
    frequency:    1.3671093884
  - # 5
    frequency:    1.6454009917
  - # 6
    frequency:    3.6517250134
  - # 7
    frequency:    3.7841241931
  - # 8
    frequency:    4.9387142433
  - # 9
    frequency:    5.2015040422
  - # 10
    frequency:    5.3711382755
  - # 11
    frequency:    7.2222345370
  - # 12
    frequency:    7.3507549939
  - # 13
    frequency:    8.3309057832
  - # 14
    frequency:    8.3588679839
  - # 15
    frequency:   16.4266700255
  - # 16
    frequency:   18.0668101158
  - # 17
    frequency:   18.1139419349
  - # 18
    frequency:   60.1661111691

- q-position: [    0.0858586,    0.0000000,    0.0000000 ]
  distance:    0.0294365
  band:
  - # 1
    frequency:    0.3689418193
  - # 2
    frequency:    0.4345444496
  - # 3
    frequency:    1.1350342771
  - # 4
    frequency:    1.3655072777
  - # 5
    frequency:    1.6944856922
  - # 6
    frequency:    3.6550003628
  - # 7
    frequency:    3.8014733608
  - # 8
    frequency:    4.9330609583
  - # 9
    frequency:    5.2064025959
  - # 10
    frequency:    5.3930863973
  - # 11
    frequency:    7.2279906351
  - # 12
    frequency:    7.3727694024
  - # 13
    frequency:    8.3229556778
  - # 14
    frequency:    8.3587610954
  - # 15
    frequency:   16.4219404640
  - # 16
    frequency:   18.0552536815
  - # 17
    frequency:   18.1074142575
  - # 18
    frequency:   60.1640898855

- q-position: [    0.0909091,    0.0000000,    0.0000000 ]
  distance:    0.0311680
  band:
  - # 1
    frequency:    0.4097728636
  - # 2
    frequency:    0.4560373822
  - # 3
    frequency:    1.1576419560
  - # 4
    frequency:    1.3647316845
  - # 5
    frequency:    1.7483505162
  - # 6
    frequency:    3.6583811666
  - # 7
    frequency:    3.8191686643
  - # 8
    frequency:    4.9276614373
  - # 9
    frequency:    5.2116268409
  - # 10
    frequency:    5.4158572629
  - # 11
    frequency:    7.2338704050
  - # 12
    frequency:    7.3957912042
  - # 13
    frequency:    8.3129716936
  - # 14
    frequency:    8.3601019253
  - # 15
    frequency:   16.4169433874
  - # 16
    frequency:   18.0433385460
  - # 17
    frequency:   18.1005882310
  - # 18
    frequency:   60.1619693230

- q-position: [    0.0959596,    0.0000000,    0.0000000 ]
  distance:    0.0328996
  band:
  - # 1
    frequency:    0.4521215809
  - # 2
    frequency:    0.4757744773
  - # 3
    frequency:    1.1745768229
  - # 4
    frequency:    1.3650649887
  - # 5
    frequency:    1.8060653719
  - # 6
    frequency:    3.6618568818
  - # 7
    frequency:    3.8371303164
  - # 8
    frequency:    4.9225387992
  - # 9
    frequency:    5.2171768273
  - # 10
    frequency:    5.4394253383
  - # 11
    frequency:    7.2398376324
  - # 12
    frequency:    7.4197576560
  - # 13
    frequency:    8.3017194615
  - # 14
    frequency:    8.3621186307
  - # 15
    frequency:   16.4116821317
  - # 16
    frequency:   18.0311189189
  - # 17
    frequency:   18.0934805095
  - # 18
    frequency:   60.1597533156

- q-position: [    0.1010101,    0.0000000,    0.0000000 ]
  distance:    0.0346311
  band:
  - # 1
    frequency:    0.4933294810
  - # 2
    frequency:    0.4958681874
  - # 3
    frequency:    1.1866828848
  - # 4
    frequency:    1.3668279407
  - # 5
    frequency:    1.8666815578
  - # 6
    frequency:    3.6654177298
  - # 7
    frequency:    3.8552829351
  - # 8
    frequency:    4.9177144410
  - # 9
    frequency:    5.2230514097
  - # 10
    frequency:    5.4637635354
  - # 11
    frequency:    7.2458552673
  - # 12
    frequency:    7.4446013650
  - # 13
    frequency:    8.2895576667
  - # 14
    frequency:    8.3644488456
  - # 15
    frequency:   16.4061602457
  - # 16
    frequency:   18.0186504573
  - # 17
    frequency:   18.0861084220
  - # 18
    frequency:   60.1574458433

- q-position: [    0.1060606,    0.0000000,    0.0000000 ]
  distance:    0.0363627
  band:
  - # 1
    frequency:    0.5082273048
  - # 2
    frequency:    0.5408837634
  - # 3
    frequency:    1.1947331330
  - # 4
    frequency:    1.3703719073
  - # 5
    frequency:    1.9293396073
  - # 6
    frequency:    3.6690547994
  - # 7
    frequency:    3.8735560556
  - # 8
    frequency:    4.9132081199
  - # 9
    frequency:    5.2292481373
  - # 10
    frequency:    5.4888431426
  - # 11
    frequency:    7.2518856897
  - # 12
    frequency:    7.4702502071
  - # 13
    frequency:    8.2766591297
  - # 14
    frequency:    8.3669190460
  - # 15
    frequency:   16.4003815006
  - # 16
    frequency:   18.0059900239
  - # 17
    frequency:   18.0784898872
  - # 18
    frequency:   60.1550510213

- q-position: [    0.1111111,    0.0000000,    0.0000000 ]
  distance:    0.0380943
  band:
  - # 1
    frequency:    0.5199542472
  - # 2
    frequency:    0.5870259294
  - # 3
    frequency:    1.1993917021
  - # 4
    frequency:    1.3760646613
  - # 5
    frequency:    1.9933118711
  - # 6
    frequency:    3.6727601247
  - # 7
    frequency:    3.8918845577
  - # 8
    frequency:    4.9090379884
  - # 9
    frequency:    5.2357631595
  - # 10
    frequency:    5.5146338592
  - # 11
    frequency:    7.2578909940
  - # 12
    frequency:    7.4966272230
  - # 13
    frequency:    8.2631191548
  - # 14
    frequency:    8.3694367012
  - # 15
    frequency:   16.3943499000
  - # 16
    frequency:   17.9931954412
  - # 17
    frequency:   18.0706433199
  - # 18
    frequency:   60.1525730885

- q-position: [    0.1161616,    0.0000000,    0.0000000 ]
  distance:    0.0398258
  band:
  - # 1
    frequency:    0.5279733828
  - # 2
    frequency:    0.6341316751
  - # 3
    frequency:    1.2012203321
  - # 4
    frequency:    1.3842694310
  - # 5
    frequency:    2.0580035060
  - # 6
    frequency:    3.6765267346
  - # 7
    frequency:    3.9102090133
  - # 8
    frequency:    4.9052206013
  - # 9
    frequency:    5.2425911487
  - # 10
    frequency:    5.5411038994
  - # 11
    frequency:    7.2638332894
  - # 12
    frequency:    7.5236504647
  - # 13
    frequency:    8.2489992902
  - # 14
    frequency:    8.3719470984
  - # 15
    frequency:   16.3880696880
  - # 16
    frequency:   17.9803252419
  - # 17
    frequency:   18.0625875286
  - # 18
    frequency:   60.1500163957

- q-position: [    0.1212121,    0.0000000,    0.0000000 ]
  distance:    0.0415574
  band:
  - # 1
    frequency:    0.5317428186
  - # 2
    frequency:    0.6820051814
  - # 3
    frequency:    1.2007084561
  - # 4
    frequency:    1.3953187318
  - # 5
    frequency:    2.1229347429
  - # 6
    frequency:    3.6803486725
  - # 7
    frequency:    3.9284759591
  - # 8
    frequency:    4.9017709098
  - # 9
    frequency:    5.2497252422
  - # 10
    frequency:    5.5682201448
  - # 11
    frequency:    7.2696750148
  - # 12
    frequency:    7.5512327475
  - # 13
    frequency:    8.2343459040
  - # 14
    frequency:    8.3744154720
  - # 15
    frequency:   16.3815453549
  - # 16
    frequency:   17.9674384175
  - # 17
    frequency:   18.0543416057
  - # 18
    frequency:   60.1473853938

- q-position: [    0.1262626,    0.0000000,    0.0000000 ]
  distance:    0.0432889
  band:
  - # 1
    frequency:    0.5307318316
  - # 2
    frequency:    0.7303964416
  - # 3
    frequency:    1.1983171795
  - # 4
    frequency:    1.4094866928
  - # 5
    frequency:    2.1877183918
  - # 6
    frequency:    3.6842209858
  - # 7
    frequency:    3.9466380979
  - # 8
    frequency:    4.8987022487
  - # 9
    frequency:    5.2571570043
  - # 10
    frequency:    5.5959483236
  - # 11
    frequency:    7.2753792632
  - # 12
    frequency:    7.5792812395
  - # 13
    frequency:    8.2191989930
  - # 14
    frequency:    8.3768190898
  - # 15
    frequency:   16.3747816387
  - # 16
    frequency:   17.9545941655
  - # 17
    frequency:   18.0459248126
  - # 18
    frequency:   60.1446846215

- q-position: [    0.1313131,    0.0000000,    0.0000000 ]
  distance:    0.0450205
  band:
  - # 1
    frequency:    0.5244273813
  - # 2
    frequency:    0.7789622407
  - # 3
    frequency:    1.1945392095
  - # 4
    frequency:    1.4269652023
  - # 5
    frequency:    2.2520390032
  - # 6
    frequency:    3.6881396849
  - # 7
    frequency:    3.9646544310
  - # 8
    frequency:    4.8960263180
  - # 9
    frequency:    5.2648764093
  - # 10
    frequency:    5.6242532042
  - # 11
    frequency:    7.2809101122
  - # 12
    frequency:    7.6076967839
  - # 13
    frequency:    8.2035970662
  - # 14
    frequency:    8.3791435512
  - # 15
    frequency:   16.3677835218
  - # 16
    frequency:   17.9418516368
  - # 17
    frequency:   18.0373564616
  - # 18
    frequency:   60.1419186927

- q-position: [    0.1363636,    0.0000000,    0.0000000 ]
  distance:    0.0467520
  band:
  - # 1
    frequency:    0.5123218173
  - # 2
    frequency:    0.8271920587
  - # 3
    frequency:    1.1899900955
  - # 4
    frequency:    1.4478491232
  - # 5
    frequency:    2.3156357954
  - # 6
    frequency:    3.6921016737
  - # 7
    frequency:    3.9824903200
  - # 8
    frequency:    4.8937531602
  - # 9
    frequency:    5.2728718453
  - # 10
    frequency:    5.6530987916
  - # 11
    frequency:    7.2862329572
  - # 12
    frequency:    7.6363727826
  - # 13
    frequency:    8.1875805454
  - # 14
    frequency:    8.3813810195
  - # 15
    frequency:   16.3605562198
  - # 16
    frequency:   17.9292696843
  - # 17
    frequency:   18.0286557952
  - # 18
    frequency:   60.1390922846

- q-position: [    0.1414141,    0.0000000,    0.0000000 ]
  distance:    0.0484836
  band:
  - # 1
    frequency:    0.4938711434
  - # 2
    frequency:    0.8742632907
  - # 3
    frequency:    1.1855662748
  - # 4
    frequency:    1.4721336743
  - # 5
    frequency:    2.3782894973
  - # 6
    frequency:    3.6961046519
  - # 7
    frequency:    4.0001174790
  - # 8
    frequency:    4.8918911283
  - # 9
    frequency:    5.2811301397
  - # 10
    frequency:    5.6824485202
  - # 11
    frequency:    7.2913148422
  - # 12
    frequency:    7.6651933646
  - # 13
    frequency:    8.1711949210
  - # 14
    frequency:    8.3835294219
  - # 15
    frequency:   16.3531051629
  - # 16
    frequency:   17.9169066141
  - # 17
    frequency:   18.0198418682
  - # 18
    frequency:   60.1362101249

- q-position: [    0.1464646,    0.0000000,    0.0000000 ]
  distance:    0.0502152
  band:
  - # 1
    frequency:    0.4684085302
  - # 2
    frequency:    0.9187625100
  - # 3
    frequency:    1.1827337823
  - # 4
    frequency:    1.4997236610
  - # 5
    frequency:    2.4398125553
  - # 6
    frequency:    3.7001469950
  - # 7
    frequency:    4.0175138910
  - # 8
    frequency:    4.8904468401
  - # 9
    frequency:    5.2896366049
  - # 10
    frequency:    5.7122654365
  - # 11
    frequency:    7.2961247835
  - # 12
    frequency:    7.6940303568
  - # 13
    frequency:    8.1544945737
  - # 14
    frequency:    8.3855921795
  - # 15
    frequency:   16.3454359665
  - # 16
    frequency:   17.9048199398
  - # 17
    frequency:   18.0109334322
  - # 18
    frequency:   60.1332769792

- q-position: [    0.1515152,    0.0000000,    0.0000000 ]
  distance:    0.0519467
  band:
  - # 1
    frequency:    0.4349806630
  - # 2
    frequency:    0.9582304475
  - # 3
    frequency:    1.1839906755
  - # 4
    frequency:    1.5304511876
  - # 5
    frequency:    2.5000420163
  - # 6
    frequency:    3.7042276129
  - # 7
    frequency:    4.0346636455
  - # 8
    frequency:    4.8894251139
  - # 9
    frequency:    5.2983751036
  - # 10
    frequency:    5.7425123696
  - # 11
    frequency:    7.3006340818
  - # 12
    frequency:    7.7227382007
  - # 13
    frequency:    8.1375483178
  - # 14
    frequency:    8.3875782607
  - # 15
    frequency:   16.3375543915
  - # 16
    frequency:   17.8930661418
  - # 17
    frequency:   18.0019488267
  - # 18
    frequency:   60.1302976386

- q-position: [    0.1565657,    0.0000000,    0.0000000 ]
  distance:    0.0536783
  band:
  - # 1
    frequency:    0.3920180098
  - # 2
    frequency:    0.9888897694
  - # 3
    frequency:    1.1931447429
  - # 4
    frequency:    1.5640970790
  - # 5
    frequency:    2.5588344670
  - # 6
    frequency:    3.7083457937
  - # 7
    frequency:    4.0515566905
  - # 8
    frequency:    4.8888288808
  - # 9
    frequency:    5.3073281323
  - # 10
    frequency:    5.7731520866
  - # 11
    frequency:    7.3048166189
  - # 12
    frequency:    7.7511452102
  - # 13
    frequency:    8.1204483612
  - # 14
    frequency:    8.3895024607
  - # 15
    frequency:   16.3294662909
  - # 16
    frequency:   17.8817004314
  - # 17
    frequency:   17.9929058795
  - # 18
    frequency:   60.1272769071

- q-position: [    0.1616162,    0.0000000,    0.0000000 ]
  distance:    0.0554098
  band:
  - # 1
    frequency:    0.3365455683
  - # 2
    frequency:    1.0070328222
  - # 3
    frequency:    1.2139298513
  - # 4
    frequency:    1.6004116795
  - # 5
    frequency:    2.6160625348
  - # 6
    frequency:    3.7125010357
  - # 7
    frequency:    4.0681884940
  - # 8
    frequency:    4.8886590683
  - # 9
    frequency:    5.3164769223
  - # 10
    frequency:    5.8041474335
  - # 11
    frequency:    7.3086491322
  - # 12
    frequency:    7.7790380378
  - # 13
    frequency:    8.1033258536
  - # 14
    frequency:    8.3913858603
  - # 15
    frequency:   16.3211775438
  - # 16
    frequency:   17.8707765223
  - # 17
    frequency:   17.9838218187
  - # 18
    frequency:   60.1242195895

- q-position: [    0.1666667,    0.0000000,    0.0000000 ]
  distance:    0.0571414
  band:
  - # 1
    frequency:    0.2616381150
  - # 2
    frequency:    1.0122432626
  - # 3
    frequency:    1.2467874141
  - # 4
    frequency:    1.6391322263
  - # 5
    frequency:    2.6716125756
  - # 6
    frequency:    3.7166928748
  - # 7
    frequency:    4.0845596091
  - # 8
    frequency:    4.8889144525
  - # 9
    frequency:    5.3258015548
  - # 10
    frequency:    5.8354614594
  - # 11
    frequency:    7.3121114648
  - # 12
    frequency:    7.8061329785
  - # 13
    frequency:    8.0863794064
  - # 14
    frequency:    8.3932564432
  - # 15
    frequency:   16.3126939749
  - # 16
    frequency:   17.8603464090
  - # 17
    frequency:   17.9747131979
  - # 18
    frequency:   60.1211304792

- q-position: [    0.1717172,    0.0000000,    0.0000000 ]
  distance:    0.0588729
  band:
  - # 1
    frequency:    0.1405754752
  - # 2
    frequency:    1.0075703251
  - # 3
    frequency:    1.2886945316
  - # 4
    frequency:    1.6799956930
  - # 5
    frequency:    2.7253832637
  - # 6
    frequency:    3.7209207110
  - # 7
    frequency:    4.1006751402
  - # 8
    frequency:    4.8895914785
  - # 9
    frequency:    5.3352810897
  - # 10
    frequency:    5.8670575257
  - # 11
    frequency:    7.3151867850
  - # 12
    frequency:    7.8320208587
  - # 13
    frequency:    8.0699298430
  - # 14
    frequency:    8.3951498608
  - # 15
    frequency:   16.3040212596
  - # 16
    frequency:   17.8504601533
  - # 17
    frequency:   17.9655958388
  - # 18
    frequency:   60.1180143461

- q-position: [    0.1767677,    0.0000000,    0.0000000 ]
  distance:    0.0606045
  band:
  - # 1
    frequency:   -0.1797537148
  - # 2
    frequency:    0.9964422423
  - # 3
    frequency:    1.3362525090
  - # 4
    frequency:    1.7227472378
  - # 5
    frequency:    2.7772848758
  - # 6
    frequency:    3.7251836401
  - # 7
    frequency:    4.1165441111
  - # 8
    frequency:    4.8906840499
  - # 9
    frequency:    5.3448937053
  - # 10
    frequency:    5.8988994009
  - # 11
    frequency:    7.3178617729
  - # 12
    frequency:    7.8560587105
  - # 13
    frequency:    8.0545279906
  - # 14