nqpoint: 300    
npath: 3      
segment_nqpoint:
- 100
- 100
- 100
labels:
- [ 'G', 'M' ]
- [ 'M', 'K' ]
- [ 'K', 'G' ]
reciprocal_lattice:
- [   0.28544991,   0.16480458,   0.00000000 ] # a*
- [   0.00000000,   0.32960917,   0.00000000 ] # b*
- [   0.00000000,   0.00000000,   0.03634944 ] # c*
natom: 8      
lattice:
- [     3.503241592319015,     0.000000000000000,     0.000000000000000 ] # a
- [    -1.751620796159507,     3.033896214528415,     0.000000000000000 ] # b
- [     0.000000000000000,     0.000000000000000,    27.510743756269868 ] # c
points:
- symbol: C # 1
  coordinates: [  0.000000000000000,  0.000000000000000,  0.534666967385995 ]
  mass: 12.010700
- symbol: C # 2
  coordinates: [  0.333332985432215,  0.666666983183674,  0.629236056982656 ]
  mass: 12.010700
- symbol: C # 3
  coordinates: [  0.666666984744047,  0.333332985985145,  0.370419795837895 ]
  mass: 12.010700
- symbol: N # 4
  coordinates: [  0.333332985432215,  0.666666983183674,  0.672855082373088 ]
  mass: 14.006700
- symbol: N # 5
  coordinates: [  0.666666984744047,  0.333332985985145,  0.327144917626912 ]
  mass: 14.006700
- symbol: S # 6
  coordinates: [  0.666666984744047,  0.333332985985145,  0.431224147774058 ]
  mass: 32.065000
- symbol: Sc # 7
  coordinates: [  0.333332985432215,  0.666666983183674,  0.490532007305121 ]
  mass: 44.955912
- symbol: Sc # 8
  coordinates: [  0.666666984744047,  0.333332985985145,  0.579282917880695 ]
  mass: 44.955912

phonon:
- q-position: [    0.0000000,    0.0000000,    0.0000000 ]
  distance:    0.0000000
  band:
  - # 1
    frequency:   -3.1526023924
  - # 2
    frequency:   -3.1526023924
  - # 3
    frequency:   -0.2616173668
  - # 4
    frequency:   -0.2616173664
  - # 5
    frequency:   -0.0000236509
  - # 6
    frequency:   -0.0000003667
  - # 7
    frequency:    0.0000184151
  - # 8
    frequency:    3.7644624567
  - # 9
    frequency:    3.7644624568
  - # 10
    frequency:    5.1440588633
  - # 11
    frequency:    6.4511817320
  - # 12
    frequency:    6.4511817320
  - # 13
    frequency:    7.2929281568
  - # 14
    frequency:    7.2929281568
  - # 15
    frequency:    8.2125916178
  - # 16
    frequency:   10.3609464517
  - # 17
    frequency:   10.3609464518
  - # 18
    frequency:   10.9299112875
  - # 19
    frequency:   10.9299112876
  - # 20
    frequency:   11.1265096489
  - # 21
    frequency:   17.1332410211
  - # 22
    frequency:   21.1157353706
  - # 23
    frequency:   62.4658239079
  - # 24
    frequency:   65.1219004686

- q-position: [    0.0050505,    0.0000000,    0.0000000 ]
  distance:    0.0016647
  band:
  - # 1
    frequency:   -3.1525695571
  - # 2
    frequency:   -3.1524342227
  - # 3
    frequency:   -0.2732959629
  - # 4
    frequency:   -0.2653012874
  - # 5
    frequency:    0.0020992503
  - # 6
    frequency:    0.1079889273
  - # 7
    frequency:    0.1451222325
  - # 8
    frequency:    3.7647937141
  - # 9
    frequency:    3.7660680995
  - # 10
    frequency:    5.1435720149
  - # 11
    frequency:    6.4511915086
  - # 12
    frequency:    6.4523857461
  - # 13
    frequency:    7.2928337064
  - # 14
    frequency:    7.2943943768
  - # 15
    frequency:    8.2127045069
  - # 16
    frequency:   10.3608372406
  - # 17
    frequency:   10.3621064914
  - # 18
    frequency:   10.9297806515
  - # 19
    frequency:   10.9322970263
  - # 20
    frequency:   11.1274254173
  - # 21
    frequency:   17.1319222894
  - # 22
    frequency:   21.1156729942
  - # 23
    frequency:   62.4657508253
  - # 24
    frequency:   65.1218113066

- q-position: [    0.0101010,    0.0000000,    0.0000000 ]
  distance:    0.0033294
  band:
  - # 1
    frequency:   -3.1524714046
  - # 2
    frequency:   -3.1519327708
  - # 3
    frequency:   -0.2940363195
  - # 4
    frequency:   -0.2623580090
  - # 5
    frequency:    0.0084088044
  - # 6
    frequency:    0.1991557078
  - # 7
    frequency:    0.2772033588
  - # 8
    frequency:    3.7657870485
  - # 9
    frequency:    3.7708710717
  - # 10
    frequency:    5.1421194357
  - # 11
    frequency:    6.4512205421
  - # 12
    frequency:    6.4559608755
  - # 13
    frequency:    7.2925508108
  - # 14
    frequency:    7.2987756394
  - # 15
    frequency:    8.2130432804
  - # 16
    frequency:   10.3605090962
  - # 17
    frequency:   10.3655143371
  - # 18
    frequency:   10.9293902033
  - # 19
    frequency:   10.9391864328
  - # 20
    frequency:   11.1305072558
  - # 21
    frequency:   17.1279684844
  - # 22
    frequency:   21.1154859674
  - # 23
    frequency:   62.4655317258
  - # 24
    frequency:   65.1215439669

- q-position: [    0.0151515,    0.0000000,    0.0000000 ]
  distance:    0.0049941
  band:
  - # 1
    frequency:   -3.1523089884
  - # 2
    frequency:   -3.1511070489
  - # 3
    frequency:   -0.3116196086
  - # 4
    frequency:   -0.2421470690
  - # 5
    frequency:    0.0189832165
  - # 6
    frequency:    0.2781012135
  - # 7
    frequency:    0.4026393431
  - # 8
    frequency:    3.7674411494
  - # 9
    frequency:    3.7788299215
  - # 10
    frequency:    5.1397244699
  - # 11
    frequency:    6.4512679430
  - # 12
    frequency:    6.4617996956
  - # 13
    frequency:    7.2920808353
  - # 14
    frequency:    7.3060193837
  - # 15
    frequency:    8.2136082867
  - # 16
    frequency:   10.3599604947
  - # 17
    frequency:   10.3709624850
  - # 18
    frequency:   10.9287443098
  - # 19
    frequency:   10.9496898279
  - # 20
    frequency:   11.1368345699
  - # 21
    frequency:   17.1213867765
  - # 22
    frequency:   21.1151745979
  - # 23
    frequency:   62.4651670542
  - # 24
    frequency:   65.1210988876

- q-position: [    0.0202020,    0.0000000,    0.0000000 ]
  distance:    0.0066588
  band:
  - # 1
    frequency:   -3.1520840410
  - # 2
    frequency:   -3.1499715582
  - # 3
    frequency:   -0.3235382339
  - # 4
    frequency:   -0.1991448164
  - # 5
    frequency:    0.0341394313
  - # 6
    frequency:    0.3502664223
  - # 7
    frequency:    0.5259239279
  - # 8
    frequency:    3.7697538367
  - # 9
    frequency:    3.7898769206
  - # 10
    frequency:    5.1364242739
  - # 11
    frequency:    6.4513322275
  - # 12
    frequency:    6.4697337572
  - # 13
    frequency:    7.2914260522
  - # 14
    frequency:    7.3160369636
  - # 15
    frequency:    8.2144002053
  - # 16
    frequency:   10.3591889286
  - # 17
    frequency:   10.3781348191
  - # 18
    frequency:   10.9278502051
  - # 19
    frequency:   10.9621081212
  - # 20
    frequency:   11.1483892746
  - # 21
    frequency:   17.1121891145
  - # 22
    frequency:   21.1147393974
  - # 23
    frequency:   62.4646575501
  - # 24
    frequency:   65.1204767979

- q-position: [    0.0252525,    0.0000000,    0.0000000 ]
  distance:    0.0083235
  band:
  - # 1
    frequency:   -3.1517989404
  - # 2
    frequency:   -3.1485455554
  - # 3
    frequency:   -0.3297376541
  - # 4
    frequency:   -0.1139672753
  - # 5
    frequency:    0.0569854368
  - # 6
    frequency:    0.4185665330
  - # 7
    frequency:    0.6486677950
  - # 8
    frequency:    3.7727220667
  - # 9
    frequency:    3.8039200039
  - # 10
    frequency:    5.1322675045
  - # 11
    frequency:    6.4514113145
  - # 12
    frequency:    6.4795479482
  - # 13
    frequency:    7.2905896357
  - # 14
    frequency:    7.3287026899
  - # 15
    frequency:    8.2154201898
  - # 16
    frequency:   10.3581909549
  - # 17
    frequency:   10.3866463530
  - # 18
    frequency:   10.9267179244
  - # 19
    frequency:   10.9739524604
  - # 20
    frequency:   11.1679912651
  - # 21
    frequency:   17.1003922235
  - # 22
    frequency:   21.1141810805
  - # 23
    frequency:   62.4640042461
  - # 24
    frequency:   65.1196787162

- q-position: [    0.0303030,    0.0000000,    0.0000000 ]
  distance:    0.0099882
  band:
  - # 1
    frequency:   -3.1514566642
  - # 2
    frequency:   -3.1468521081
  - # 3
    frequency:   -0.3305299623
  - # 4
    frequency:    0.0636192973
  - # 5
    frequency:    0.1541735870
  - # 6
    frequency:    0.4845485079
  - # 7
    frequency:    0.7713593647
  - # 8
    frequency:    3.7763419420
  - # 9
    frequency:    3.8208453007
  - # 10
    frequency:    5.1273116240
  - # 11
    frequency:    6.4515025237
  - # 12
    frequency:    6.4909978332
  - # 13
    frequency:    7.2895756547
  - # 14
    frequency:    7.3438535650
  - # 15
    frequency:    8.2166700577
  - # 16
    frequency:   10.3569622637
  - # 17
    frequency:   10.3960890116
  - # 18
    frequency:   10.9253602095
  - # 19
    frequency:   10.9826599150
  - # 20
    frequency:   11.1985304394
  - # 21
    frequency:   17.0860176036
  - # 22
    frequency:   21.1135005627
  - # 23
    frequency:   62.4632084642
  - # 24
    frequency:   65.1187059470

- q-position: [    0.0353535,    0.0000000,    0.0000000 ]
  distance:    0.0116528
  band:
  - # 1
    frequency:   -3.1510607327
  - # 2
    frequency:   -3.1449170104
  - # 3
    frequency:   -0.3261585448
  - # 4
    frequency:    0.0940617307
  - # 5
    frequency:    0.2557319719
  - # 6
    frequency:    0.5490803244
  - # 7
    frequency:    0.8940915482
  - # 8
    frequency:    3.7806087220
  - # 9
    frequency:    3.8405201017
  - # 10
    frequency:    5.1216201979
  - # 11
    frequency:    6.4516025728
  - # 12
    frequency:    6.5038277931
  - # 13
    frequency:    7.2883890638
  - # 14
    frequency:    7.3612904717
  - # 15
    frequency:    8.2181525173
  - # 16
    frequency:   10.3554977667
  - # 17
    frequency:   10.4060745869
  - # 18
    frequency:   10.9237923873
  - # 19
    frequency:   10.9867591923
  - # 20
    frequency:   11.2417507645
  - # 21
    frequency:   17.0690915302
  - # 22
    frequency:   21.1126989578
  - # 23
    frequency:   62.4622718125
  - # 24
    frequency:   65.1175600782

- q-position: [    0.0404040,    0.0000000,    0.0000000 ]
  distance:    0.0133175
  band:
  - # 1
    frequency:   -3.1506151431
  - # 2
    frequency:   -3.1427676365
  - # 3
    frequency:   -0.3166911421
  - # 4
    frequency:    0.1240148440
  - # 5
    frequency:    0.3382331026
  - # 6
    frequency:    0.6126714553
  - # 7
    frequency:    1.0168205170
  - # 8
    frequency:    3.7855168377
  - # 9
    frequency:    3.8627960922
  - # 10
    frequency:    5.1152604990
  - # 11
    frequency:    6.4517075770
  - # 12
    frequency:    6.5177878883
  - # 13
    frequency:    7.2870356913
  - # 14
    frequency:    7.3807814164
  - # 15
    frequency:    8.2198714219
  - # 16
    frequency:   10.3537917079
  - # 17
    frequency:   10.4162667630
  - # 18
    frequency:   10.9220322186
  - # 19
    frequency:   10.9862165640
  - # 20
    frequency:   11.2978650210
  - # 21
    frequency:   17.0496450584
  - # 22
    frequency:   21.1117775751
  - # 23
    frequency:   62.4611961799
  - # 24
    frequency:   65.1162429771

- q-position: [    0.0454545,    0.0000000,    0.0000000 ]
  distance:    0.0149822
  band:
  - # 1
    frequency:   -3.1501242960
  - # 2
    frequency:   -3.1404318041
  - # 3
    frequency:   -0.3019608960
  - # 4
    frequency:    0.1566838611
  - # 5
    frequency:    0.4125692836
  - # 6
    frequency:    0.6756287274
  - # 7
    frequency:    1.1394568103
  - # 8
    frequency:    3.7910599082
  - # 9
    frequency:    3.8875126871
  - # 10
    frequency:    5.1083016253
  - # 11
    frequency:    6.4518130498
  - # 12
    frequency:    6.5326477847
  - # 13
    frequency:    7.2855222254
  - # 14
    frequency:    7.4020670790
  - # 15
    frequency:    8.2218320393
  - # 16
    frequency:   10.3518377949
  - # 17
    frequency:   10.4263976369
  - # 18
    frequency:   10.9200997165
  - # 19
    frequency:   10.9817585715
  - # 20
    frequency:   11.3662089598
  - # 21
    frequency:   17.0277140339
  - # 22
    frequency:   21.1107379161
  - # 23
    frequency:   62.4599837307
  - # 24
    frequency:   65.1147567849

- q-position: [    0.0505051,    0.0000000,    0.0000000 ]
  distance:    0.0166469
  band:
  - # 1
    frequency:   -3.1495929170
  - # 2
    frequency:   -3.1379367136
  - # 3
    frequency:   -0.2814703480
  - # 4
    frequency:    0.1922931910
  - # 5
    frequency:    0.4823075227
  - # 6
    frequency:    0.7381379029
  - # 7
    frequency:    1.2618969600
  - # 8
    frequency:    3.7972307608
  - # 9
    frequency:    3.9145003202
  - # 10
    frequency:    5.1008132215
  - # 11
    frequency:    6.4519139071
  - # 12
    frequency:    6.5482067272
  - # 13
    frequency:    7.2838561976
  - # 14
    frequency:    7.4248684903
  - # 15
    frequency:    8.2240413268
  - # 16
    frequency:   10.3496293515
  - # 17
    frequency:   10.4362688959
  - # 18
    frequency:   10.9180169366
  - # 19
    frequency:   10.9741988980
  - # 20
    frequency:   11.4459079909
  - # 21
    frequency:   17.0033391140
  - # 22
    frequency:   21.1095816701
  - # 23
    frequency:   62.4586368980
  - # 24
    frequency:   65.1131039123

- q-position: [    0.0555556,    0.0000000,    0.0000000 ]
  distance:    0.0183116
  band:
  - # 1
    frequency:   -3.1490259739
  - # 2
    frequency:   -3.1353080147
  - # 3
    frequency:   -0.2541734255
  - # 4
    frequency:    0.2307713777
  - # 5
    frequency:    0.5490578177
  - # 6
    frequency:    0.8003093496
  - # 7
    frequency:    1.3840338214
  - # 8
    frequency:    3.8040214526
  - # 9
    frequency:    3.9435835669
  - # 10
    frequency:    5.0928647984
  - # 11
    frequency:    6.4520044757
  - # 12
    frequency:    6.5642992440
  - # 13
    frequency:    7.2820459634
  - # 14
    frequency:    7.4488962327
  - # 15
    frequency:    8.2265082010
  - # 16
    frequency:   10.3471594921
  - # 17
    frequency:   10.4457414939
  - # 18
    frequency:   10.9158077351
  - # 19
    frequency:   10.9641898309
  - # 20
    frequency:   11.5361326697
  - # 21
    frequency:   16.9765658030
  - # 22
    frequency:   21.1083107098
  - # 23
    frequency:   62.4571583769
  - # 24
    frequency:   65.1112870328

- q-position: [    0.0606061,    0.0000000,    0.0000000 ]
  distance:    0.0199763
  band:
  - # 1
    frequency:   -3.1484285936
  - # 2
    frequency:   -3.1325690336
  - # 3
    frequency:   -0.2178991056
  - # 4
    frequency:    0.2719759829
  - # 5
    frequency:    0.6136824995
  - # 6
    frequency:    0.8622050655
  - # 7
    frequency:    1.5057593023
  - # 8
    frequency:    3.8114232959
  - # 9
    frequency:    3.9745840117
  - # 10
    frequency:    5.0845255778
  - # 11
    frequency:    6.4520785071
  - # 12
    frequency:    6.5807968923
  - # 13
    frequency:    7.2801006792
  - # 14
    frequency:    7.4738602760
  - # 15
    frequency:    8.2292437945
  - # 16
    frequency:   10.3444213157
  - # 17
    frequency:   10.4547190029
  - # 18
    frequency:   10.9134974996
  - # 19
    frequency:   10.9522123946
  - # 20
    frequency:   11.6361240648
  - # 21
    frequency:   16.9474445088
  - # 22
    frequency:   21.1069270864
  - # 23
    frequency:   62.4555511161
  - # 24
    frequency:   65.1093090762

- q-position: [    0.0656566,    0.0000000,    0.0000000 ]
  distance:    0.0216410
  band:
  - # 1
    frequency:   -3.1478059786
  - # 2
    frequency:   -3.1297401823
  - # 3
    frequency:   -0.1673488765
  - # 4
    frequency:    0.3157409876
  - # 5
    frequency:    0.6766940597
  - # 6
    frequency:    0.9238553922
  - # 7
    frequency:    1.6269644678
  - # 8
    frequency:    3.8194268862
  - # 9
    frequency:    4.0073228004
  - # 10
    frequency:    5.0758647542
  - # 11
    frequency:    6.4521291988
  - # 12
    frequency:    6.5976067908
  - # 13
    frequency:    7.2780302768
  - # 14
    frequency:    7.4994794585
  - # 15
    frequency:    8.2322616922
  - # 16
    frequency:   10.3414081168
  - # 17
    frequency:   10.4631290463
  - # 18
    frequency:   10.9111128513
  - # 19
    frequency:   10.9386274479
  - # 20
    frequency:   11.7451624107
  - # 21
    frequency:   16.9160306277
  - # 22
    frequency:   21.1054330240
  - # 23
    frequency:   62.4538183094
  - # 24
    frequency:   65.1071732211

- q-position: [    0.0707071,    0.0000000,    0.0000000 ]
  distance:    0.0233057
  band:
  - # 1
    frequency:   -3.1471633263
  - # 2
    frequency:   -3.1268385505
  - # 3
    frequency:   -0.0795153252
  - # 4
    frequency:    0.3618921911
  - # 5
    frequency:    0.7384190182
  - # 6
    frequency:    0.9852697120
  - # 7
    frequency:    1.7475388256
  - # 8
    frequency:    3.8280221329
  - # 9
    frequency:    4.0416228492
  - # 10
    frequency:    5.0669520658
  - # 11
    frequency:    6.4521492226
  - # 12
    frequency:    6.6146678899
  - # 13
    frequency:    7.2758454329
  - # 14
    frequency:    7.5254897345
  - # 15
    frequency:    8.2355781405
  - # 16
    frequency:   10.3381136129
  - # 17
    frequency:   10.4709054688
  - # 18
    frequency:   10.9086813232
  - # 19
    frequency:   10.9237252612
  - # 20
    frequency:   11.8625387591
  - # 21
    frequency:   16.8823846683
  - # 22
    frequency:   21.1038309136
  - # 23
    frequency:   62.4519633860
  - # 24
    frequency:   65.1048828872

- q-position: [    0.0757576,    0.0000000,    0.0000000 ]
  distance:    0.0249704
  band:
  - # 1
    frequency:   -3.1465057517
  - # 2
    frequency:   -3.1238776752
  - # 3
    frequency:    0.1320485297
  - # 4
    frequency:    0.4102538790
  - # 5
    frequency:    0.7990760107
  - # 6
    frequency:    1.0464434803
  - # 7
    frequency:    1.8673694117
  - # 8
    frequency:    3.8371982923
  - # 9
    frequency:    4.0773107035
  - # 10
    frequency:    5.0578585749
  - # 11
    frequency:    6.4521307634
  - # 12
    frequency:    6.6319459352
  - # 13
    frequency:    7.2735575355
  - # 14
    frequency:    7.5516505605
  - # 15
    frequency:    8.2392122263
  - # 16
    frequency:   10.3345321810
  - # 17
    frequency:   10.4779721898
  - # 18
    frequency:   10.9062310170
  - # 19
    frequency:   10.9077628072
  - # 20
    frequency:   11.9875391242
  - # 21
    frequency:   16.8465724285
  - # 22
    frequency:   21.1021233067
  - # 23
    frequency:   62.4499900011
  - # 24
    frequency:   65.1024417267

- q-position: [    0.0808081,    0.0000000,    0.0000000 ]
  distance:    0.0266351
  band:
  - # 1
    frequency:   -3.1458382159
  - # 2
    frequency:   -3.1208674688
  - # 3
    frequency:    0.2077239702
  - # 4
    frequency:    0.4606523365
  - # 5
    frequency:    0.8588170322
  - # 6
    frequency:    1.1073629437
  - # 7
    frequency:    1.9863398633
  - # 8
    frequency:    3.8469440041
  - # 9
    frequency:    4.1142180595
  - # 10
    frequency:    5.0486575864
  - # 11
    frequency:    6.4520655678
  - # 12
    frequency:    6.6494279409
  - # 13
    frequency:    7.2711786450
  - # 14
    frequency:    7.5777491149
  - # 15
    frequency:    8.2431860190
  - # 16
    frequency:   10.3306591008
  - # 17
    frequency:   10.4842285525
  - # 18
    frequency:   10.8909913291
  - # 19
    frequency:   10.9037902455
  - # 20
    frequency:   12.1194382843
  - # 21
    frequency:   16.8086652448
  - # 22
    frequency:   21.1003129083
  - # 23
    frequency:   62.4479020244
  - # 24
    frequency:   65.0998536152

- q-position: [    0.0858586,    0.0000000,    0.0000000 ]
  distance:    0.0282998
  band:
  - # 1
    frequency:   -3.1451654603
  - # 2
    frequency:   -3.1178142839
  - # 3
    frequency:    0.2658914923
  - # 4
    frequency:    0.5129179282
  - # 5
    frequency:    0.9177509670
  - # 6
    frequency:    1.1680083565
  - # 7
    frequency:    2.1043295008
  - # 8
    frequency:    3.8572473305
  - # 9
    frequency:    4.1521829711
  - # 10
    frequency:    5.0394256557
  - # 11
    frequency:    6.4519450050
  - # 12
    frequency:    6.6671167768
  - # 13
    frequency:    7.2687214495
  - # 14
    frequency:    7.6036023549
  - # 15
    frequency:    8.2475246724
  - # 16
    frequency:   10.3264907965
  - # 17
    frequency:   10.4895355368
  - # 18
    frequency:   10.8736781085
  - # 19
    frequency:   10.9013871647
  - # 20
    frequency:   12.2574994072
  - # 21
    frequency:   16.7687403377
  - # 22
    frequency:   21.0984025695
  - # 23
    frequency:   62.4457035294
  - # 24
    frequency:   65.0971226424

- q-position: [    0.0909091,    0.0000000,    0.0000000 ]
  distance:    0.0299645
  band:
  - # 1
    frequency:   -3.1444919482
  - # 2
    frequency:   -3.1147210907
  - # 3
    frequency:    0.3161863983
  - # 4
    frequency:    0.5668863806
  - # 5
    frequency:    0.9759578554
  - # 6
    frequency:    1.2283562013
  - # 7
    frequency:    2.2212123903
  - # 8
    frequency:    3.8680957973
  - # 9
    frequency:    4.1910507725
  - # 10
    frequency:    5.0302436682
  - # 11
    frequency:    6.4517601399
  - # 12
    frequency:    6.6850262592
  - # 13
    frequency:    7.2661992158
  - # 14
    frequency:    7.6290571533
  - # 15
    frequency:    8.2522564787
  - # 16
    frequency:   10.3220250703
  - # 17
    frequency:   10.4937024600
  - # 18
    frequency:   10.8561249914
  - # 19
    frequency:   10.8990494048
  - # 20
    frequency:   12.4009767610
  - # 21
    frequency:   16.7268812913
  - # 22
    frequency:   21.0963952802
  - # 23
    frequency:   62.4433987810
  - # 24
    frequency:   65.0942531015

- q-position: [    0.0959596,    0.0000000,    0.0000000 ]
  distance:    0.0316292
  band:
  - # 1
    frequency:   -3.1438218146
  - # 2
    frequency:   -3.1115877405
  - # 3
    frequency:    0.3617611819
  - # 4
    frequency:    0.6223995498
  - # 5
    frequency:    1.0334979888
  - # 6
    frequency:    1.2883807372
  - # 7
    frequency:    2.3368563427
  - # 8
    frequency:    3.8794764379
  - # 9
    frequency:    4.2306747462
  - # 10
    frequency:    5.0211979929
  - # 11
    frequency:    6.4515018199
  - # 12
    frequency:    6.7031769453
  - # 13
    frequency:    7.2636257327
  - # 14
    frequency:    7.6539889057
  - # 15
    frequency:    8.2574128681
  - # 16
    frequency:   10.3172613204
  - # 17
    frequency:   10.4964748652
  - # 18
    frequency:   10.8386841819
  - # 19
    frequency:   10.8968037079
  - # 20
    frequency:   12.5491197789
  - # 21
    frequency:   16.6831787119
  - # 22
    frequency:   21.0942941603
  - # 23
    frequency:   62.4409922237
  - # 24
    frequency:   65.0912494793

- q-position: [    0.1010101,    0.0000000,    0.0000000 ]
  distance:    0.0332939
  band:
  - # 1
    frequency:   -3.1431588230
  - # 2
    frequency:   -3.1084112921
  - # 3
    frequency:    0.4040916371
  - # 4
    frequency:    0.6793058141
  - # 5
    frequency:    1.0904179709
  - # 6
    frequency:    1.3480550875
  - # 7
    frequency:    2.4511218078
  - # 8
    frequency:    3.8913758398
  - # 9
    frequency:    4.2709165626
  - # 10
    frequency:    5.0123817348
  - # 11
    frequency:    6.4511607753
  - # 12
    frequency:    6.7215926949
  - # 13
    frequency:    7.2610152488
  - # 14
    frequency:    7.6782990571
  - # 15
    frequency:    8.2630283419
  - # 16
    frequency:   10.3122007346
  - # 17
    frequency:   10.4975264698
  - # 18
    frequency:   10.8217690612
  - # 19
    frequency:   10.8946755799
  - # 20
    frequency:   12.7011773931
  - # 21
    frequency:   16.6377311375
  - # 22
    frequency:   21.0921024516
  - # 23
    frequency:   62.4384884683
  - # 24
    frequency:   65.0881164450

- q-position: [    0.1060606,    0.0000000,    0.0000000 ]
  distance:    0.0349585
  band:
  - # 1
    frequency:   -3.1425063315
  - # 2
    frequency:   -3.1051863803
  - # 3
    frequency:    0.4439980955
  - # 4
    frequency:    0.7374601723
  - # 5
    frequency:    1.1467549248
  - # 6
    frequency:    1.4073520094
  - # 7
    frequency:    2.5638606241
  - # 8
    frequency:    3.9037801931
  - # 9
    frequency:    4.3116465040
  - # 10
    frequency:    5.0038961329
  - # 11
    frequency:    6.4507277340
  - # 12
    frequency:    6.7402979682
  - # 13
    frequency:    7.2583824022
  - # 14
    frequency:    7.7019119824
  - # 15
    frequency:    8.2691403261
  - # 16
    frequency:   10.3068464517
  - # 17
    frequency:   10.4964613950
  - # 18
    frequency:   10.8058541403
  - # 19
    frequency:   10.8926889680
  - # 20
    frequency:   12.8564019269
  - # 21
    frequency:   16.5906462940
  - # 22
    frequency:   21.0898235090
  - # 23
    frequency:   62.4358922790
  - # 24
    frequency:   65.0848588391

- q-position: [    0.1111111,    0.0000000,    0.0000000 ]
  distance:    0.0366232
  band:
  - # 1
    frequency:   -3.1418672661
  - # 2
    frequency:   -3.1019056062
  - # 3
    frequency:    0.4819866698
  - # 4
    frequency:    0.7967240998
  - # 5
    frequency:    1.2025395386
  - # 6
    frequency:    1.4662444404
  - # 7
    frequency:    2.6749145955
  - # 8
    frequency:    3.9166753407
  - # 9
    frequency:    4.3527434723
  - # 10
    frequency:    4.9958521651
  - # 11
    frequency:    6.4501935493
  - # 12
    frequency:    6.7593157826
  - # 13
    frequency:    7.2557421438
  - # 14
    frequency:    7.7247716012
  - # 15
    frequency:    8.2757889299
  - # 16
    frequency:   10.3012036834
  - # 17
    frequency:   10.4928362046
  - # 18
    frequency:   10.7914547896
  - # 19
    frequency:   10.8908659687
  - # 20
    frequency:   13.0140520477
  - # 21
    frequency:   16.5420428407
  - # 22
    frequency:   21.0874607910
  - # 23
    frequency:   62.4332085593
  - # 24
    frequency:   65.0814816615

- q-position: [    0.1161616,    0.0000000,    0.0000000 ]
  distance:    0.0382879
  band:
  - # 1
    frequency:   -3.1412441022
  - # 2
    frequency:   -3.0985599368
  - # 3
    frequency:    0.5183925643
  - # 4
    frequency:    0.8569651945
  - # 5
    frequency:    1.2577983710
  - # 6
    frequency:    1.5247058874
  - # 7
    frequency:    2.7841138730
  - # 8
    frequency:    3.9300468307
  - # 9
    frequency:    4.3940947490
  - # 10
    frequency:    4.9883724489
  - # 11
    frequency:    6.4495493418
  - # 12
    frequency:    6.7786662262
  - # 13
    frequency:    7.2531096520
  - # 14
    frequency:    7.7468380262
  - # 15
    frequency:    8.2830165899
  - # 16
    frequency:   10.2952797903
  - # 17
    frequency:   10.4862105242
  - # 18
    frequency:   10.7790780812
  - # 19
    frequency:   10.8892265762
  - # 20
    frequency:   13.1733943811
  - # 21
    frequency:   16.4920528137
  - # 22
    frequency:   21.0850178504
  - # 23
    frequency:   62.4304423385
  - # 24
    frequency:   65.0779900601

- q-position: [    0.1212121,    0.0000000,    0.0000000 ]
  distance:    0.0399526
  band:
  - # 1
    frequency:   -3.1406388535
  - # 2
    frequency:   -3.0951390981
  - # 3
    frequency:    0.5534495741
  - # 4
    frequency:    0.9180566311
  - # 5
    frequency:    1.3125556882
  - # 6
    frequency:    1.5827107032
  - # 7
    frequency:    2.8912751345
  - # 8
    frequency:    3.9438799698
  - # 9
    frequency:    4.4355954338
  - # 10
    frequency:    4.9815935522
  - # 11
    frequency:    6.4487866520
  - # 12
    frequency:    6.7983654278
  - # 13
    frequency:    7.2505002411
  - # 14
    frequency:    7.7680844644
  - # 15
    frequency:    8.2908675819
  - # 16
    frequency:   10.2890843087
  - # 17
    frequency:   10.4762240890
  - # 18
    frequency:   10.7691469593
  - # 19
    frequency:   10.8877884759
  - # 20
    frequency:   13.3337033906
  - # 21
    frequency:   16.4408250804
  - # 22
    frequency:   21.0824983248
  - # 23
    frequency:   62.4275987571
  - # 24
    frequency:   65.0743893179

- q-position: [    0.1262626,    0.0000000,    0.0000000 ]
  distance:    0.0416173
  band:
  - # 1
    frequency:   -3.1400530670
  - # 2
    frequency:   -3.0916319549
  - # 3
    frequency:    0.5873273509
  - # 4
    frequency:    0.9798764365
  - # 5
    frequency:    1.3668350132
  - # 6
    frequency:    1.6402342815
  - # 7
    frequency:    2.9961995834
  - # 8
    frequency:    3.9581598781
  - # 9
    frequency:    4.4771474175
  - # 10
    frequency:    4.9756688749
  - # 11
    frequency:    6.4478976044
  - # 12
    frequency:    6.8184248874
  - # 13
    frequency:    7.2479292613
  - # 14
    frequency:    7.7884945097
  - # 15
    frequency:    8.2993873838
  - # 16
    frequency:   10.2826289236
  - # 17
    frequency:   10.4626770394
  - # 18
    frequency:   10.7619209732
  - # 19
    frequency:   10.8865668868
  - # 20
    frequency:   13.4942590419
  - # 21
    frequency:   16.3885302828
  - # 22
    frequency:   21.0799059264
  - # 23
    frequency:   62.4246830525
  - # 24
    frequency:   65.0706848413

- q-position: [    0.1313131,    0.0000000,    0.0000000 ]
  distance:    0.0432820
  band:
  - # 1
    frequency:   -3.1394878250
  - # 2
    frequency:   -3.0880268675
  - # 3
    frequency:    0.6201529361
  - # 4
    frequency:    1.0423065838
  - # 5
    frequency:    1.4206605199
  - # 6
    frequency:    1.6972531930
  - # 7
    frequency:    3.0986708218
  - # 8
    frequency:    3.9728715444
  - # 9
    frequency:    4.5186576381
  - # 10
    frequency:    4.9707723256
  - # 11
    frequency:    6.4468750783
  - # 12
    frequency:    6.8388510894
  - # 13
    frequency:    7.2454119930
  - # 14
    frequency:    7.8080599046
  - # 15
    frequency:    8.3086218777
  - # 16
    frequency:   10.2759273895
  - # 17
    frequency:   10.4455756363
  - # 18
    frequency:   10.7574514335
  - # 19
    frequency:   10.8855744559
  - # 20
    frequency:   13.6543415494
  - # 21
    frequency:   16.3353680127
  - # 22
    frequency:   21.0772444321
  - # 23
    frequency:   62.4217005441
  - # 24
    frequency:   65.0668821471

- q-position: [    0.1363636,    0.0000000,    0.0000000 ]
  distance:    0.0449467
  band:
  - # 1
    frequency:   -3.1389437518
  - # 2
    frequency:   -3.0843120219
  - # 3
    frequency:    0.6520239451
  - # 4
    frequency:    1.1052319019
  - # 5
    frequency:    1.4740583681
  - # 6
    frequency:    1.7537452768
  - # 7