nqpoint: 300    
npath: 3      
segment_nqpoint:
- 100
- 100
- 100
labels:
- [ 'G', 'M' ]
- [ 'M', 'K' ]
- [ 'K', 'G' ]
reciprocal_lattice:
- [   0.30832651,   0.17801240,   0.00000000 ] # a*
- [   0.00000000,   0.35602479,   0.00000000 ] # b*
- [   0.00000000,   0.00000000,   0.03657517 ] # c*
natom: 6      
lattice:
- [     3.243314965669049,     0.000000000000000,     0.000000000000000 ] # a
- [    -1.621657482834524,     2.808793152743106,     0.000000000000000 ] # b
- [     0.000000000000000,     0.000000000000000,    27.340950350644889 ] # c
points:
- symbol: Cl # 1
  coordinates: [  0.333332985432215,  0.666666983183674,  0.670823439398561 ]
  mass: 35.453000
- symbol: H # 2
  coordinates: [  0.666666984744047,  0.333332985985145,  0.329176560601439 ]
  mass: 1.007940
- symbol: N # 3
  coordinates: [  0.000000000000000,  0.000000000000000,  0.406278130694064 ]
  mass: 14.006700
- symbol: O # 4
  coordinates: [  0.333332985432215,  0.666666983183674,  0.491373854133046 ]
  mass: 15.999400
- symbol: Sc # 5
  coordinates: [  0.333332985432215,  0.666666983183674,  0.368675973003219 ]
  mass: 44.955912
- symbol: Sc # 6
  coordinates: [  0.666666984744047,  0.333332985985145,  0.465054447019940 ]
  mass: 44.955912

phonon:
- q-position: [    0.0000000,    0.0000000,    0.0000000 ]
  distance:    0.0000000
  band:
  - # 1
    frequency:   -0.2343365473
  - # 2
    frequency:   -0.1087545872
  - # 3
    frequency:   -0.1087545872
  - # 4
    frequency:   -0.0000007008
  - # 5
    frequency:    0.0000005168
  - # 6
    frequency:    0.0000007133
  - # 7
    frequency:    3.8593273995
  - # 8
    frequency:    3.8593273995
  - # 9
    frequency:    7.5843172211
  - # 10
    frequency:   11.8015754171
  - # 11
    frequency:   11.8015754171
  - # 12
    frequency:   14.7511005875
  - # 13
    frequency:   14.8938928801
  - # 14
    frequency:   14.8938928801
  - # 15
    frequency:   18.0317269695
  - # 16
    frequency:   26.0644577652
  - # 17
    frequency:   26.0644577652
  - # 18
    frequency:   29.3256237680

- q-position: [    0.0050505,    0.0000000,    0.0000000 ]
  distance:    0.0017981
  band:
  - # 1
    frequency:   -0.2367429159
  - # 2
    frequency:   -0.1861045926
  - # 3
    frequency:   -0.1496904511
  - # 4
    frequency:   -0.0896921340
  - # 5
    frequency:    0.0763090769
  - # 6
    frequency:    0.1789498888
  - # 7
    frequency:    3.8604616044
  - # 8
    frequency:    3.8632400699
  - # 9
    frequency:    7.5840908335
  - # 10
    frequency:   11.8020195191
  - # 11
    frequency:   11.8054690834
  - # 12
    frequency:   14.7369973318
  - # 13
    frequency:   14.8938017864
  - # 14
    frequency:   14.9064278013
  - # 15
    frequency:   18.0315569916
  - # 16
    frequency:   26.0644216909
  - # 17
    frequency:   26.0651987529
  - # 18
    frequency:   29.3247287718

- q-position: [    0.0101010,    0.0000000,    0.0000000 ]
  distance:    0.0035962
  band:
  - # 1
    frequency:   -0.3293250064
  - # 2
    frequency:   -0.2424801188
  - # 3
    frequency:   -0.2373092389
  - # 4
    frequency:   -0.0921567574
  - # 5
    frequency:    0.1673009952
  - # 6
    frequency:    0.3267634203
  - # 7
    frequency:    3.8638602838
  - # 8
    frequency:    3.8749365834
  - # 9
    frequency:    7.5834124287
  - # 10
    frequency:   11.8033505781
  - # 11
    frequency:   11.8171190296
  - # 12
    frequency:   14.7036085574
  - # 13
    frequency:   14.8935278579
  - # 14
    frequency:   14.9351173391
  - # 15
    frequency:   18.0310561450
  - # 16
    frequency:   26.0643131612
  - # 17
    frequency:   26.0674137261
  - # 18
    frequency:   29.3220503895

- q-position: [    0.0151515,    0.0000000,    0.0000000 ]
  distance:    0.0053943
  band:
  - # 1
    frequency:   -0.4813476512
  - # 2
    frequency:   -0.3465937142
  - # 3
    frequency:   -0.2337165828
  - # 4
    frequency:   -0.0799248502
  - # 5
    frequency:    0.2564600031
  - # 6
    frequency:    0.4763544779
  - # 7
    frequency:    3.8695116762
  - # 8
    frequency:    3.8942943155
  - # 9
    frequency:    7.5822842802
  - # 10
    frequency:   11.8055648500
  - # 11
    frequency:   11.8364319551
  - # 12
    frequency:   14.6614502972
  - # 13
    frequency:   14.8930691671
  - # 14
    frequency:   14.9694632426
  - # 15
    frequency:   18.0302515722
  - # 16
    frequency:   26.0641312600
  - # 17
    frequency:   26.0710787272
  - # 18
    frequency:   29.3176084510

- q-position: [    0.0202020,    0.0000000,    0.0000000 ]
  distance:    0.0071924
  band:
  - # 1
    frequency:   -0.6351941268
  - # 2
    frequency:   -0.4536028177
  - # 3
    frequency:   -0.2273378401
  - # 4
    frequency:   -0.0441327452
  - # 5
    frequency:    0.3446145917
  - # 6
    frequency:    0.6268838563
  - # 7
    frequency:    3.8773963270
  - # 8
    frequency:    3.9211149163
  - # 9
    frequency:    7.5807101766
  - # 10
    frequency:   11.8086560856
  - # 11
    frequency:   11.8632518475
  - # 12
    frequency:   14.6149354526
  - # 13
    frequency:   14.8924225527
  - # 14
    frequency:   15.0050838871
  - # 15
    frequency:   18.0291881159
  - # 16
    frequency:   26.0638744725
  - # 17
    frequency:   26.0761538685
  - # 18
    frequency:   29.3114360436

- q-position: [    0.0252525,    0.0000000,    0.0000000 ]
  distance:    0.0089905
  band:
  - # 1
    frequency:   -0.7892338505
  - # 2
    frequency:   -0.5614529675
  - # 3
    frequency:   -0.2190820080
  - # 4
    frequency:    0.0734066522
  - # 5
    frequency:    0.4322320324
  - # 6
    frequency:    0.7776339578
  - # 7
    frequency:    3.8874873060
  - # 8
    frequency:    3.9551326674
  - # 9
    frequency:    7.5786954193
  - # 10
    frequency:   11.8126155174
  - # 11
    frequency:   11.8973590739
  - # 12
    frequency:   14.5657860244
  - # 13
    frequency:   14.8915836935
  - # 14
    frequency:   15.0403046359
  - # 15
    frequency:   18.0279277243
  - # 16
    frequency:   26.0635407034
  - # 17
    frequency:   26.0825833955
  - # 18
    frequency:   29.3035795641

- q-position: [    0.0303030,    0.0000000,    0.0000000 ]
  distance:    0.0107886
  band:
  - # 1
    frequency:   -0.9427915395
  - # 2
    frequency:   -0.6693559653
  - # 3
    frequency:   -0.2086555878
  - # 4
    frequency:    0.1266514281
  - # 5
    frequency:    0.5194900411
  - # 6
    frequency:    0.9281224936
  - # 7
    frequency:    3.8997505053
  - # 8
    frequency:    3.9960249625
  - # 9
    frequency:    7.5762468212
  - # 10
    frequency:   11.8174318444
  - # 11
    frequency:   11.9384688099
  - # 12
    frequency:   14.5148159771
  - # 13
    frequency:   14.8905472112
  - # 14
    frequency:   15.0743788813
  - # 15
    frequency:   18.0265486184
  - # 16
    frequency:   26.0631273025
  - # 17
    frequency:   26.0902957808
  - # 18
    frequency:   29.2940987844

- q-position: [    0.0353535,    0.0000000,    0.0000000 ]
  distance:    0.0125867
  band:
  - # 1
    frequency:   -1.0954692004
  - # 2
    frequency:   -0.7769008357
  - # 3
    frequency:   -0.1943740056
  - # 4
    frequency:    0.1735523912
  - # 5
    frequency:    0.6064579018
  - # 6
    frequency:    1.0780197533
  - # 7
    frequency:    3.9141450103
  - # 8
    frequency:    4.0434239638
  - # 9
    frequency:    7.5733727043
  - # 10
    frequency:   11.8230912153
  - # 11
    frequency:   11.9862284611
  - # 12
    frequency:   14.4625141661
  - # 13
    frequency:   14.8893067966
  - # 14
    frequency:   15.1069106631
  - # 15
    frequency:   18.0251442177
  - # 16
    frequency:   26.0626310967
  - # 17
    frequency:   26.0992038513
  - # 18
    frequency:   29.2830669223

- q-position: [    0.0404040,    0.0000000,    0.0000000 ]
  distance:    0.0143848
  band:
  - # 1
    frequency:   -1.2469748914
  - # 2
    frequency:   -0.8838212026
  - # 3
    frequency:   -0.1729878075
  - # 4
    frequency:    0.2180637488
  - # 5
    frequency:    0.6931595668
  - # 6
    frequency:    1.2270867673
  - # 7
    frequency:    3.9306235360
  - # 8
    frequency:    4.0969285221
  - # 9
    frequency:    7.5700828985
  - # 10
    frequency:   11.8295772144
  - # 11
    frequency:   12.0402135635
  - # 12
    frequency:   14.4092518736
  - # 13
    frequency:   14.8878553584
  - # 14
    frequency:   15.1376547987
  - # 15
    frequency:   18.0238218265
  - # 16
    frequency:   26.0620484289
  - # 17
    frequency:   26.1092049581
  - # 18
    frequency:   29.2705707058

- q-position: [    0.0454545,    0.0000000,    0.0000000 ]
  distance:    0.0161829
  band:
  - # 1
    frequency:   -1.3970655185
  - # 2
    frequency:   -0.9899164020
  - # 3
    frequency:   -0.1381294743
  - # 4
    frequency:    0.2611903555
  - # 5
    frequency:    0.7795976678
  - # 6
    frequency:    1.3751412157
  - # 7
    frequency:    3.9491329178
  - # 8
    frequency:    4.1561155962
  - # 9
    frequency:    7.5663887407
  - # 10
    frequency:   11.8368708520
  - # 11
    frequency:   12.0999214114
  - # 12
    frequency:   14.3553715821
  - # 13
    frequency:   14.8861851900
  - # 14
    frequency:   15.1664386091
  - # 15
    frequency:   18.0227010827
  - # 16
    frequency:   26.0613752027
  - # 17
    frequency:   26.1201811974
  - # 18
    frequency:   29.2567104164

- q-position: [    0.0505051,    0.0000000,    0.0000000 ]
  distance:    0.0179811
  band:
  - # 1
    frequency:   -1.5455240776
  - # 2
    frequency:   -1.0950197344
  - # 3
    frequency:   -0.0661540492
  - # 4
    frequency:    0.3033885208
  - # 5
    frequency:    0.8657638105
  - # 6
    frequency:    1.5220392183
  - # 7
    frequency:    3.9696146488
  - # 8
    frequency:    4.2205506070
  - # 9
    frequency:    7.5623030746
  - # 10
    frequency:   11.8449505633
  - # 11
    frequency:   12.1647613326
  - # 12
    frequency:   14.3012354043
  - # 13
    frequency:   14.8842881503
  - # 14
    frequency:   15.1931278528
  - # 15
    frequency:   18.0219121746
  - # 16
    frequency:   26.0606069332
  - # 17
    frequency:   26.1319996983
  - # 18
    frequency:   29.2415998920

- q-position: [    0.0555556,    0.0000000,    0.0000000 ]
  distance:    0.0197792
  band:
  - # 1
    frequency:   -1.6921494686
  - # 2
    frequency:   -1.1989840553
  - # 3
    frequency:    0.1224823820
  - # 4
    frequency:    0.3449478879
  - # 5
    frequency:    0.9516434535
  - # 6
    frequency:    1.6676651855
  - # 7
    frequency:    3.9920054502
  - # 8
    frequency:    4.2897963901
  - # 9
    frequency:    7.5578402536
  - # 10
    frequency:   11.8537922186
  - # 11
    frequency:   12.2340400717
  - # 12
    frequency:   14.2472607486
  - # 13
    frequency:   14.8821558543
  - # 14
    frequency:   15.2176107645
  - # 15
    frequency:   18.0215938390
  - # 16
    frequency:   26.0597388035
  - # 17
    frequency:   26.1445129960
  - # 18
    frequency:   29.2253664652

- q-position: [    0.0606061,    0.0000000,    0.0000000 ]
  distance:    0.0215773
  band:
  - # 1
    frequency:   -1.8367515579
  - # 2
    frequency:   -1.3016746389
  - # 3
    frequency:    0.1995220995
  - # 4
    frequency:    0.3860819284
  - # 5
    frequency:    1.0372184178
  - # 6
    frequency:    1.8119256920
  - # 7
    frequency:    4.0162378656
  - # 8
    frequency:    4.3634205969
  - # 9
    frequency:    7.5530161453
  - # 10
    frequency:   11.8633691492
  - # 11
    frequency:   12.3069401498
  - # 12
    frequency:   14.1939551566
  - # 13
    frequency:   14.8797798690
  - # 14
    frequency:   15.2397903238
  - # 15
    frequency:   18.0218911573
  - # 16
    frequency:   26.0587657254
  - # 17
    frequency:   26.1575595153
  - # 18
    frequency:   29.2081508066

- q-position: [    0.0656566,    0.0000000,    0.0000000 ]
  distance:    0.0233754
  band:
  - # 1
    frequency:   -1.9791486618
  - # 2
    frequency:   -1.4029654111
  - # 3
    frequency:    0.2659574394
  - # 4
    frequency:    0.4269599516
  - # 5
    frequency:    1.1224682677
  - # 6
    frequency:    1.9547453743
  - # 7
    frequency:    4.0422408680
  - # 8
    frequency:    4.4410015549
  - # 9
    frequency:    7.5478481394
  - # 10
    frequency:   11.8736521910
  - # 11
    frequency:   12.3824883854
  - # 12
    frequency:   14.1419571762
  - # 13
    frequency:   14.8771519098
  - # 14
    frequency:   15.2595806165
  - # 15
    frequency:   18.0229531783
  - # 16
    frequency:   26.0576824050
  - # 17
    frequency:   26.1709641969
  - # 18
    frequency:   29.1901066384

- q-position: [    0.0707071,    0.0000000,    0.0000000 ]
  distance:    0.0251735
  band:
  - # 1
    frequency:   -2.1191662389
  - # 2
    frequency:   -1.5027368699
  - # 3
    frequency:    0.3292313158
  - # 4
    frequency:    0.4677260341
  - # 5
    frequency:    1.2073711161
  - # 6
    frequency:    2.0960638593
  - # 7
    frequency:    4.0699404679
  - # 8
    frequency:    4.5221326934
  - # 9
    frequency:    7.5423551606
  - # 10
    frequency:   11.8846097511
  - # 11
    frequency:   12.4595112816
  - # 12
    frequency:   14.0920883670
  - # 13
    frequency:   14.8742640337
  - # 14
    frequency:   15.2769053908
  - # 15
    frequency:   18.0249304039
  - # 16
    frequency:   26.0564834116
  - # 17
    frequency:   26.1845393022
  - # 18
    frequency:   29.1714002740

- q-position: [    0.0757576,    0.0000000,    0.0000000 ]
  distance:    0.0269716
  band:
  - # 1
    frequency:   -2.2566362213
  - # 2
    frequency:   -1.6008749058
  - # 3
    frequency:    0.3915690125
  - # 4
    frequency:    0.5085176488
  - # 5
    frequency:    1.2919041203
  - # 6
    frequency:    2.2358332342
  - # 7
    frequency:    4.0992603145
  - # 8
    frequency:    4.6064257058
  - # 9
    frequency:    7.5365576858
  - # 10
    frequency:   11.8962078970
  - # 11
    frequency:   12.5365745877
  - # 12
    frequency:   14.0454199735
  - # 13
    frequency:   14.8711088230
  - # 14
    frequency:   15.2916978566
  - # 15
    frequency:   18.0279721857
  - # 16
    frequency:   26.0551632499
  - # 17
    frequency:   26.1980854443
  - # 18
    frequency:   29.1522099373

- q-position: [    0.0808081,    0.0000000,    0.0000000 ]
  distance:    0.0287697
  band:
  - # 1
    frequency:   -2.3913967017
  - # 2
    frequency:   -1.6972701255
  - # 3
    frequency:    0.4538267444
  - # 4
    frequency:    0.5494950137
  - # 5
    frequency:    1.3760438031
  - # 6
    frequency:    2.3740158139
  - # 7
    frequency:    4.1301222798
  - # 8
    frequency:    4.6935126385
  - # 9
    frequency:    7.5304777686
  - # 10
    frequency:   11.9084104744
  - # 11
    frequency:   12.6119083092
  - # 12
    frequency:   14.0033533962
  - # 13
    frequency:   14.8676795569
  - # 14
    frequency:   15.3039012066
  - # 15
    frequency:   18.0322240892
  - # 16
    frequency:   26.0537164348
  - # 17
    frequency:   26.2113928921
  - # 18
    frequency:   29.1327248060

- q-position: [    0.0858586,    0.0000000,    0.0000000 ]
  distance:    0.0305678
  band:
  - # 1
    frequency:   -2.5232918250
  - # 2
    frequency:   -1.7918174708
  - # 3
    frequency:    0.5162516923
  - # 4
    frequency:    0.5909092441
  - # 5
    frequency:    1.4597662724
  - # 6
    frequency:    2.5105820959
  - # 7
    frequency:    4.1624470190
  - # 8
    frequency:    4.7830470998
  - # 9
    frequency:    7.5241390709
  - # 10
    frequency:   11.9211792524
  - # 11
    frequency:   12.6833306702
  - # 12
    frequency:   13.9677011563
  - # 13
    frequency:   14.8639703669
  - # 14
    frequency:   15.3134695405
  - # 15
    frequency:   18.0378252900
  - # 16
    frequency:   26.0521375674
  - # 17
    frequency:   26.2242432030
  - # 18
    frequency:   29.1131437248

- q-position: [    0.0909091,    0.0000000,    0.0000000 ]
  distance:    0.0323659
  band:
  - # 1
    frequency:   -2.6521717990
  - # 2
    frequency:   -1.8844160141
  - # 3
    frequency:    0.5785487301
  - # 4
    frequency:    0.6333120121
  - # 5
    frequency:    1.5430473813
  - # 6
    frequency:    2.6455088545
  - # 7
    frequency:    4.1961544991
  - # 8
    frequency:    4.8747047670
  - # 9
    frequency:    7.5175669041
  - # 10
    frequency:   11.9344740995
  - # 11
    frequency:   12.7482125757
  - # 12
    frequency:   13.9407268929
  - # 13
    frequency:   14.8599763716
  - # 14
    frequency:   15.3203689831
  - # 15
    frequency:   18.0449060722
  - # 16
    frequency:   26.0504214129
  - # 17
    frequency:   26.2364112370
  - # 18
    frequency:   29.0936735315

- q-position: [    0.0959596,    0.0000000,    0.0000000 ]
  distance:    0.0341640
  band:
  - # 1
    frequency:   -2.7778929776
  - # 2
    frequency:   -1.9749688642
  - # 3
    frequency:    0.6392516967
  - # 4
    frequency:    0.6782996910
  - # 5
    frequency:    1.6258628506
  - # 6
    frequency:    2.7787773575
  - # 7
    frequency:    4.2311644914
  - # 8
    frequency:    4.9681833486
  - # 9
    frequency:    7.5107882813
  - # 10
    frequency:   11.9482531887
  - # 11
    frequency:   12.8035703041
  - # 12
    frequency:   13.9250567006
  - # 13
    frequency:   14.8556937891
  - # 14
    frequency:   15.3245788461
  - # 15
    frequency:   18.0535854977
  - # 16
    frequency:   26.0485629777
  - # 17
    frequency:   26.2476675980
  - # 18
    frequency:   29.0745269476

- q-position: [    0.1010101,    0.0000000,    0.0000000 ]
  distance:    0.0359621
  band:
  - # 1
    frequency:   -2.9003179839
  - # 2
    frequency:   -2.0633831395
  - # 3
    frequency:    0.6943837962
  - # 4
    frequency:    0.7299082205
  - # 5
    frequency:    1.7081883705
  - # 6
    frequency:    2.9103717045
  - # 7
    frequency:    4.2673970237
  - # 8
    frequency:    5.0632021350
  - # 9
    frequency:    7.5038319822
  - # 10
    frequency:   11.9624732334
  - # 11
    frequency:   12.8464072175
  - # 12
    frequency:   13.9233410210
  - # 13
    frequency:   14.8511200238
  - # 14
    frequency:   15.3260927297
  - # 15
    frequency:   18.0639693105
  - # 16
    frequency:   26.0465575874
  - # 17
    frequency:   26.2577815393
  - # 18
    frequency:   29.0559199967

- q-position: [    0.1060606,    0.0000000,    0.0000000 ]
  distance:    0.0377602
  band:
  - # 1
    frequency:   -3.0193158574
  - # 2
    frequency:   -2.1495699856
  - # 3
    frequency:    0.7419428326
  - # 4
    frequency:    0.7901568291
  - # 5
    frequency:    1.7899996873
  - # 6
    frequency:    3.0402772884
  - # 7
    frequency:    4.3047727889
  - # 8
    frequency:    5.1595012502
  - # 9
    frequency:    7.4967286336
  - # 10
    frequency:   11.9770897523
  - # 11
    frequency:   12.8743481524
  - # 12
    frequency:   13.9376234083
  - # 13
    frequency:   14.8462537262
  - # 14
    frequency:   15.3249194979
  - # 15
    frequency:   18.0761481288
  - # 16
    frequency:   26.0444009618
  - # 17
    frequency:   26.2665243458
  - # 18
    frequency:   29.0380689352

- q-position: [    0.1111111,    0.0000000,    0.0000000 ]
  distance:    0.0395583
  band:
  - # 1
    frequency:   -3.1347622110
  - # 2
    frequency:   -2.2334446188
  - # 3
    frequency:    0.7857576501
  - # 4
    frequency:    0.8552077220
  - # 5
    frequency:    1.8712726832
  - # 6
    frequency:    3.1684793801
  - # 7
    frequency:    4.3432135079
  - # 8
    frequency:    5.2568406930
  - # 9
    frequency:    7.4895108085
  - # 10
    frequency:   11.9920573612
  - # 11
    frequency:   12.8863468574
  - # 12
    frequency:   13.9686357606
  - # 13
    frequency:   14.8410948247
  - # 14
    frequency:   15.3210841097
  - # 15
    frequency:   18.0901959625
  - # 16
    frequency:   26.0420892901
  - # 17
    frequency:   26.2736731745
  - # 18
    frequency:   29.0211867136

- q-position: [    0.1161616,    0.0000000,    0.0000000 ]
  distance:    0.0413564
  band:
  - # 1
    frequency:   -3.2465393917
  - # 2
    frequency:   -2.3149263861
  - # 3
    frequency:    0.8283604383
  - # 4
    frequency:    0.9225031368
  - # 5
    frequency:    1.9519834490
  - # 6
    frequency:    3.2949618361
  - # 7
    frequency:    4.3826422473
  - # 8
    frequency:    5.3549992419
  - # 9
    frequency:    7.4822131467
  - # 10
    frequency:   12.0073300889
  - # 11
    frequency:   12.8830091988
  - # 12
    frequency:   14.0154772203
  - # 13
    frequency:   14.8356445296
  - # 14
    frequency:   15.3146283467
  - # 15
    frequency:   18.1061690729
  - # 16
    frequency:   26.0396193018
  - # 17
    frequency:   26.2790152982
  - # 18
    frequency:   29.0054790222

- q-position: [    0.1212121,    0.0000000,    0.0000000 ]
  distance:    0.0431545
  band:
  - # 1
    frequency:   -3.3545366382
  - # 2
    frequency:   -2.3939388345
  - # 3
    frequency:    0.8705869466
  - # 4
    frequency:    0.9911707125
  - # 5
    frequency:    2.0321083538
  - # 6
    frequency:    3.4197059228
  - # 7
    frequency:    4.4229836907
  - # 8
    frequency:    5.4537732781
  - # 9
    frequency:    7.4748725027
  - # 10
    frequency:   12.0228617145
  - # 11
    frequency:   12.8662764219
  - # 12
    frequency:   14.0759323279
  - # 13
    frequency:   14.8299053075
  - # 14
    frequency:   15.3056115601
  - # 15
    frequency:   18.1241051750
  - # 16
    frequency:   26.0369883351
  - # 17
    frequency:   26.2823526457
  - # 18
    frequency:   28.9911400265

- q-position: [    0.1262626,    0.0000000,    0.0000000 ]
  distance:    0.0449526
  band:
  - # 1
    frequency:   -3.4586502332
  - # 2
    frequency:   -2.4704097835
  - # 3
    frequency:    0.9127318359
  - # 4
    frequency:    1.0608715219
  - # 5
    frequency:    2.1116241105
  - # 6
    frequency:    3.5426892504
  - # 7
    frequency:    4.4641643666
  - # 8
    frequency:    5.5529755708
  - # 9
    frequency:    7.4675281265
  - # 10
    frequency:   12.0386061219
  - # 11
    frequency:   12.8387277890
  - # 12
    frequency:   14.1471688694
  - # 13
    frequency:   14.8238808310
  - # 14
    frequency:   15.2941116940
  - # 15
    frequency:   18.1440229592
  - # 16
    frequency:   26.0341944007
  - # 17
    frequency:   26.2835064852
  - # 18
    frequency:   28.9783479456

- q-position: [    0.1313131,    0.0000000,    0.0000000 ]
  distance:    0.0467507
  band:
  - # 1
    frequency:   -3.5587836454
  - # 2
    frequency:   -2.5442713993
  - # 3
    frequency:    0.9549161428
  - # 4
    frequency:    1.1314346755
  - # 5
    frequency:    2.1905078371
  - # 6
    frequency:    3.6638848068
  - # 7
    frequency:    4.5061128324
  - # 8
    frequency:    5.6524340520
  - # 9
    frequency:    7.4602218862
  - # 10
    frequency:   12.0545176661
  - # 11
    frequency:   12.8029559789
  - # 12
    frequency:   14.2263615899
  - # 13
    frequency:   14.8175759013
  - # 14
    frequency:   15.2802270633
  - # 15
    frequency:   18.1659218968
  - # 16
    frequency:   26.0312362416
  - # 17
    frequency:   26.2823220496
  - # 18
    frequency:   28.9672606719

- q-position: [    0.1363636,    0.0000000,    0.0000000 ]
  distance:    0.0485488
  band:
  - # 1
    frequency:   -3.6548476616
  - # 2
    frequency:   -2.6154602663
  - # 3
    frequency:    0.9971941242
  - # 4
    frequency:    1.2027517457
  - # 5
    frequency:    2.2687371142
  - # 6
    frequency:    3.7832600819
  - # 7
    frequency:    4.5487598202
  - # 8
    frequency:    5.7519905990
  - # 9
    frequency:    7.4529985453
  - # 10
    frequency:   12.0705515458
  - # 11
    frequency:   12.7612302080
  - # 12
    frequency:   14.3110259493
  - # 13
    frequency:   14.8109963497
  - # 14
    frequency:   15.2640798060
  - # 15
    frequency:   18.1897822861
  - # 16
    frequency:   26.0281133872
  - # 17
    frequency:   26.2786728673
  - # 18
    frequency:   28.9580116684

- q-position: [    0.1414141,    0.0000000,    0.0000000 ]
  distance:    0.0503469
  band:
  - # 1
    frequency:   -3.7467605064
  - # 2
    frequency:   -2.6839174554
  - # 3
    frequency:    1.0395896259
  - # 4
    frequency:    1.2747411776
  - # 5
    frequency:    2.3462900358
  - # 6
    frequency:    3.9007762730
  - # 7
    frequency:    4.5920383444
  - # 8
    frequency:    5.8514998267
  - # 9
    frequency:    7.4459061115
  - # 10
    frequency:   12.0866641776
  - # 11
    frequency:   12.7154036606
  - # 12
    frequency:   14.3991035453
  - # 13
    frequency:   14.8041489192
  - # 14
    frequency:   15.2458228527
  - # 15
    frequency:   18.2155654874
  - # 16
    frequency:   26.0248262011
  - # 17
    frequency:   26.2724645478
  - # 18
    frequency:   28.9507063915

- q-position: [    0.1464646,    0.0000000,    0.0000000 ]
  distance:    0.0521450
  band:
  - # 1
    frequency:   -3.8344479479
  - # 2
    frequency:   -2.7495885871
  - # 3
    frequency:    1.0821105279
  - # 4
    frequency:    1.3473343284
  - # 5
    frequency:    2.4231452542
  - # 6
    frequency:    4.0163875643
  - # 7
    frequency:    4.6358837766
  - # 8
    frequency:    5.9508278758
  - # 9
    frequency:    7.4389962865
  - # 10
    frequency:   12.1028135644
  - # 11
    frequency:   12.6669471848
  - # 12
    frequency:   14.4889133032
  - # 13
    frequency:   14.7970411304
  - # 14
    frequency:   15.2256544166
  - # 15
    frequency:   18.2432143057
  - # 16
    frequency:   26.0213759236
  - # 17
    frequency:   26.2636377784
  - # 18
    frequency:   28.9454194817

- q-position: [    0.1515152,    0.0000000,    0.0000000 ]
  distance:    0.0539432
  band:
  - # 1
    frequency:   -3.9178433894
  - # 2
    frequency:   -2.8124238893
  - # 3
    frequency:    1.1247552640
  - # 4
    frequency:    1.4204692579
  - # 5
    frequency:    2.4992820172
  - # 6
    frequency:    4.1300404768
  - # 7
    frequency:    4.6802338902
  - # 8
    frequency:    6.0498511617
  - # 9
    frequency:    7.4323250580
  - # 10
    frequency:   12.1189596518
  - # 11
    frequency:   12.6170235972
  - # 12
    frequency:   14.5790445962
  - # 13
    frequency:   14.7896811357
  - # 14
    frequency:   15.2038495444
  - # 15
    frequency:   18.2726534837
  - # 16
    frequency:   26.0177647058
  - # 17
    frequency:   26.2521703300
  - # 18
    frequency:   28.9421929198

- q-position: [    0.1565657,    0.0000000,    0.0000000 ]
  distance:    0.0557413
  band:
  - # 1
    frequency:   -3.9968879471
  - # 2
    frequency:   -2.8723782484
  - # 3
    frequency:    1.1675160936
  - # 4
    frequency:    1.4940876725
  - # 5
    frequency:    2.5746801953
  - # 6
    frequency:    4.2416732894
  - # 7
    frequency:    4.7250288797
  - # 8
    frequency:    6.1484550153
  - # 9
    frequency:    7.4259535051
  - # 10
    frequency:   12.1350646664
  - # 11
    frequency:   12.5665618344
  - # 12
    frequency:   14.6682077099
  - # 13
    frequency:   14.7820775670
  - # 14
    frequency:   15.1808341173
  - # 15
    frequency:   18.3037902849
  - # 16
    frequency:   26.0139956382
  - # 17
    frequency:   26.2380779322
  - # 18
    frequency:   28.9410352884

- q-position: [    0.1616162,    0.0000000,    0.0000000 ]
  distance:    0.0575394
  band:
  - # 1
    frequency:   -4.0715305110
  - # 2
    frequency:   -2.9294112529
  - # 3
    frequency:    1.2103809017
  - # 4
    frequency:    1.5681332958
  - # 5
    frequency:    2.6493203002
  - # 6
    frequency:    4.3512155371
  - # 7
    frequency:    4.7702113565
  - # 8
    frequency:    6.2465320958
  - # 9
    frequency:    7.4199489300
  - # 10
    frequency:   12.1510934282
  - # 11
    frequency:   12.5163174704
  - # 12
    frequency:   14.7549781887
  - # 13
    frequency:   14.7742393808
  - # 14
    frequency:   15.1573782670
  - # 15
    frequency:   18.3365151575
  - # 16
    frequency:   26.0100727696
  - # 17
    frequency:   26.2214139604
  - # 18
    frequency:   28.9419221898

- q-position: [    0.1666667,    0.0000000,    0.0000000 ]
  distance:    0.0593375
  band:
  - # 1
    frequency:   -4.1417277921
  - # 2
    frequency:   -2.9834872309
  - # 3
    frequency:    1.2533342743
  - # 4
    frequency:    1.6425509519
  - # 5
    frequency:    2.7231834919
  - # 6
    frequency:    4.4585875983
  - # 7
    frequency:    4.8157263268
  - # 8
    frequency:    6.3439803637
  - # 9
    frequency:    7.4143865151
  - # 10
    frequency:   12.1670136326
  - # 11
    frequency:   12.4669180767
  - # 12
    frequency:   14.7661757062
  - # 13
    frequency:   14.8371665524
  - # 14
    frequency:   15.1351792547
  - # 15
    frequency:   18.3707024870
  - # 16
    frequency:   26.0060011200
  - # 17
    frequency:   26.2022679697
  - # 18
    frequency:   28.9447977840

- q-position: [    0.1717172,    0.0000000,    0.0000000 ]
  distance:    0.0611356
  band:
  - # 1
    frequency:   -4.2074443528
  - # 2
    frequency:   -3.0345752790
  - # 3
    frequency:    1.2963581911
  - # 4
    frequency:    1.7172860393
  - # 5
    frequency:    2.7962515751
  - # 6
    frequency:    4.5637003921
  - # 7
    frequency:    4.8615211537
  - # 8
    frequency:    6.4407002454
  - # 9
    frequency:    7.4093518550
  - # 10
    frequency:   12.1827960944
  - # 11
    frequency:   12.4188958400
  - # 12
    frequency:   14.7578957000
  - # 13
    frequency:   14.9097715220
  - # 14
    frequency:   15.1188732603
  - # 15
    frequency:   18.4062114528
  - # 16
    frequency:   26.0017866834
  - # 17
    frequency:   26.1807631929
  - # 18
    frequency:   28.9495773254

- q-position: [    0.1767677,    0.0000000,    0.0000000 ]
  distance:    0.0629337
  band:
  - # 1
    frequency:   -4.2686526217
  - # 2
    frequency:   -3.0826492841
  - # 3
    frequency:    1.3394325041
  - # 4
    frequency:    1.7922842392
  - # 5
    frequency:    2.8685069840
  - # 6
    frequency:    4.6664552136
  - # 7
    frequency:    4.9075455068
  - # 8
    frequency:    6.5365903122
  - # 9
    frequency:    7.4049450087
  - # 10
    frequency:   12.1984149491
  - # 11
    frequency:   12.3727105015
  - # 12
    frequency:   14.7494084143
  - # 13
    frequency:   14.9593158839
  - # 14