nqpoint: 300    
npath: 3      
segment_nqpoint:
- 100
- 100
- 100
labels:
- [ 'G', 'M' ]
- [ 'M', 'K' ]
- [ 'K', 'G' ]
reciprocal_lattice:
- [   0.30832651,   0.17801240,   0.00000000 ] # a*
- [   0.00000000,   0.35602479,   0.00000000 ] # b*
- [   0.00000000,   0.00000000,   0.03657517 ] # c*
natom: 6      
lattice:
- [     3.243314965669049,     0.000000000000000,     0.000000000000000 ] # a
- [    -1.621657482834524,     2.808793152743106,     0.000000000000000 ] # b
- [     0.000000000000000,     0.000000000000000,    27.340950350644889 ] # c
points:
- symbol: Cl # 1
  coordinates: [  0.333332985432215,  0.666666983183674,  0.670823439398561 ]
  mass: 35.453000
- symbol: H # 2
  coordinates: [  0.666666984744047,  0.333332985985145,  0.329176560601439 ]
  mass: 1.007940
- symbol: N # 3
  coordinates: [  0.000000000000000,  0.000000000000000,  0.406278130694064 ]
  mass: 14.006700
- symbol: O # 4
  coordinates: [  0.333332985432215,  0.666666983183674,  0.491373854133046 ]
  mass: 15.999400
- symbol: Sc # 5
  coordinates: [  0.333332985432215,  0.666666983183674,  0.368675973003219 ]
  mass: 44.955912
- symbol: Sc # 6
  coordinates: [  0.666666984744047,  0.333332985985145,  0.465054447019940 ]
  mass: 44.955912

phonon:
- q-position: [    0.0000000,    0.0000000,    0.0000000 ]
  distance:    0.0000000
  band:
  - # 1
    frequency:   -0.4498726340
  - # 2
    frequency:   -0.0000066794
  - # 3
    frequency:   -0.0000002288
  - # 4
    frequency:    0.0000052569
  - # 5
    frequency:    0.2916338446
  - # 6
    frequency:    0.2916338446
  - # 7
    frequency:    4.0865027361
  - # 8
    frequency:    4.0865027361
  - # 9
    frequency:    7.5802154748
  - # 10
    frequency:   11.7744190617
  - # 11
    frequency:   11.7744190617
  - # 12
    frequency:   14.6880047327
  - # 13
    frequency:   14.9546186226
  - # 14
    frequency:   14.9546186226
  - # 15
    frequency:   17.9037181562
  - # 16
    frequency:   26.0596504562
  - # 17
    frequency:   26.0596504562
  - # 18
    frequency:   29.4726805289

- q-position: [    0.0050505,    0.0000000,    0.0000000 ]
  distance:    0.0017981
  band:
  - # 1
    frequency:   -0.4489084161
  - # 2
    frequency:   -0.0354603130
  - # 3
    frequency:   -0.0083588834
  - # 4
    frequency:    0.0689114293
  - # 5
    frequency:    0.2889731651
  - # 6
    frequency:    0.2915431518
  - # 7
    frequency:    4.0872579050
  - # 8
    frequency:    4.0900308273
  - # 9
    frequency:    7.5800019887
  - # 10
    frequency:   11.7748462568
  - # 11
    frequency:   11.7783218294
  - # 12
    frequency:   14.6789505795
  - # 13
    frequency:   14.9544478504
  - # 14
    frequency:   14.9619141157
  - # 15
    frequency:   17.9039350463
  - # 16
    frequency:   26.0595088518
  - # 17
    frequency:   26.0600639310
  - # 18
    frequency:   29.4715832479

- q-position: [    0.0101010,    0.0000000,    0.0000000 ]
  distance:    0.0035962
  band:
  - # 1
    frequency:   -0.4465010545
  - # 2
    frequency:   -0.1579079976
  - # 3
    frequency:   -0.1203065160
  - # 4
    frequency:    0.0278916867
  - # 5
    frequency:    0.2972260032
  - # 6
    frequency:    0.3581201277
  - # 7
    frequency:    4.0895232028
  - # 8
    frequency:    4.1005773093
  - # 9
    frequency:    7.5793621593
  - # 10
    frequency:   11.7761268315
  - # 11
    frequency:   11.7900005497
  - # 12
    frequency:   14.6542980498
  - # 13
    frequency:   14.9539354466
  - # 14
    frequency:   14.9813018617
  - # 15
    frequency:   17.9045884854
  - # 16
    frequency:   26.0590844160
  - # 17
    frequency:   26.0612986666
  - # 18
    frequency:   29.4682991645

- q-position: [    0.0151515,    0.0000000,    0.0000000 ]
  distance:    0.0053943
  band:
  - # 1
    frequency:   -0.4467016950
  - # 2
    frequency:   -0.3205762911
  - # 3
    frequency:   -0.2314706962
  - # 4
    frequency:    0.0408349518
  - # 5
    frequency:    0.3370142147
  - # 6
    frequency:    0.4830168537
  - # 7
    frequency:    4.0932979866
  - # 8
    frequency:    4.1180304862
  - # 9
    frequency:    7.5782978746
  - # 10
    frequency:   11.7782577540
  - # 11
    frequency:   11.8093662539
  - # 12
    frequency:   14.6188858005
  - # 13
    frequency:   14.9530811555
  - # 14
    frequency:   15.0079772180
  - # 15
    frequency:   17.9056867505
  - # 16
    frequency:   26.0583782802
  - # 17
    frequency:   26.0633376022
  - # 18
    frequency:   29.4628515500

- q-position: [    0.0202020,    0.0000000,    0.0000000 ]
  distance:    0.0071924
  band:
  - # 1
    frequency:   -0.5024668495
  - # 2
    frequency:   -0.4071121907
  - # 3
    frequency:   -0.3436435668
  - # 4
    frequency:    0.0614177980
  - # 5
    frequency:    0.3985860827
  - # 6
    frequency:    0.6219701796
  - # 7
    frequency:    4.0985811339
  - # 8
    frequency:    4.1422096230
  - # 9
    frequency:    7.5768122883
  - # 10
    frequency:   11.7812339704
  - # 11
    frequency:   11.8362698855
  - # 12
    frequency:   14.5766075121
  - # 13
    frequency:   14.9518845725
  - # 14
    frequency:   15.0381046461
  - # 15
    frequency:   17.9072435402
  - # 16
    frequency:   26.0573923240
  - # 17
    frequency:   26.0661523220
  - # 18
    frequency:   29.4552791628

- q-position: [    0.0252525,    0.0000000,    0.0000000 ]
  distance:    0.0089905
  band:
  - # 1
    frequency:   -0.6350586713
  - # 2
    frequency:   -0.4521687466
  - # 3
    frequency:   -0.4063338824
  - # 4
    frequency:    0.0876785067
  - # 5
    frequency:    0.4699610618
  - # 6
    frequency:    0.7650461901
  - # 7
    frequency:    4.1053709660
  - # 8
    frequency:    4.1728725106
  - # 9
    frequency:    7.5749098312
  - # 10
    frequency:   11.7850484049
  - # 11
    frequency:   11.8705009949
  - # 12
    frequency:   14.5298814342
  - # 13
    frequency:   14.9503451761
  - # 14
    frequency:   15.0693504803
  - # 15
    frequency:   17.9092778306
  - # 16
    frequency:   26.0561291667
  - # 17
    frequency:   26.0697030862
  - # 18
    frequency:   29.4456362052

- q-position: [    0.0303030,    0.0000000,    0.0000000 ]
  distance:    0.0107886
  band:
  - # 1
    frequency:   -0.7724897111
  - # 2
    frequency:   -0.5575868258
  - # 3
    frequency:   -0.3934966462
  - # 4
    frequency:    0.1189864759
  - # 5
    frequency:    0.5459265294
  - # 6
    frequency:    0.9095864607
  - # 7
    frequency:    4.1136651454
  - # 8
    frequency:    4.2097250194
  - # 9
    frequency:    7.5725962256
  - # 10
    frequency:   11.7896919587
  - # 11
    frequency:   11.9117856065
  - # 12
    frequency:   14.4801631822
  - # 13
    frequency:   14.9484623710
  - # 14
    frequency:   15.1003736602
  - # 15
    frequency:   17.9118136777
  - # 16
    frequency:   26.0545921555
  - # 17
    frequency:   26.0739388818
  - # 18
    frequency:   29.4339922544

- q-position: [    0.0353535,    0.0000000,    0.0000000 ]
  distance:    0.0125867
  band:
  - # 1
    frequency:   -0.9085645860
  - # 2
    frequency:   -0.6606486585
  - # 3
    frequency:   -0.3757972165
  - # 4
    frequency:    0.1547161400
  - # 5
    frequency:    0.6242763382
  - # 6
    frequency:    1.0545608659
  - # 7
    frequency:    4.1234605486
  - # 8
    frequency:    4.2524318186
  - # 9
    frequency:    7.5698785058
  - # 10
    frequency:   11.7951535115
  - # 11
    frequency:   11.9597829057
  - # 12
    frequency:   14.4283934417
  - # 13
    frequency:   14.9462355432
  - # 14
    frequency:   15.1303831097
  - # 15
    frequency:   17.9148799685
  - # 16
    frequency:   26.0527853497
  - # 17
    frequency:   26.0787974987
  - # 18
    frequency:   29.4204321618

- q-position: [    0.0404040,    0.0000000,    0.0000000 ]
  distance:    0.0143848
  band:
  - # 1
    frequency:   -1.0429620355
  - # 2
    frequency:   -0.7618313193
  - # 3
    frequency:   -0.3533963847
  - # 4
    frequency:    0.1941405196
  - # 5
    frequency:    0.7039522034
  - # 6
    frequency:    1.1994596122
  - # 7
    frequency:    4.1347531186
  - # 8
    frequency:    4.3006274513
  - # 9
    frequency:    7.5667650425
  - # 10
    frequency:   11.8014199242
  - # 11
    frequency:   12.0140802154
  - # 12
    frequency:   14.3752554124
  - # 13
    frequency:   14.9436641245
  - # 14
    frequency:   15.1588874384
  - # 15
    frequency:   17.9185101245
  - # 16
    frequency:   26.0507135026
  - # 17
    frequency:   26.0842056422
  - # 18
    frequency:   29.4050559090

- q-position: [    0.0454545,    0.0000000,    0.0000000 ]
  distance:    0.0161829
  band:
  - # 1
    frequency:   -1.1757237356
  - # 2
    frequency:   -0.8614042412
  - # 3
    frequency:   -0.3250785488
  - # 4
    frequency:    0.2364623755
  - # 5
    frequency:    0.7843817729
  - # 6
    frequency:    1.3439849037
  - # 7
    frequency:    4.1475377012
  - # 8
    frequency:    4.3539270591
  - # 9
    frequency:    7.5632655724
  - # 10
    frequency:   11.8084760439
  - # 11
    frequency:   12.0741854855
  - # 12
    frequency:   14.3213152301
  - # 13
    frequency:   14.9407476651
  - # 14
    frequency:   15.1855644766
  - # 15
    frequency:   17.9227417643
  - # 16
    frequency:   26.0483820398
  - # 17
    frequency:   26.0900790923
  - # 18
    frequency:   29.3879784087

- q-position: [    0.0505051,    0.0000000,    0.0000000 ]
  distance:    0.0179811
  band:
  - # 1
    frequency:   -1.3068821115
  - # 2
    frequency:   -0.9595087293
  - # 3
    frequency:   -0.2882484735
  - # 4
    frequency:    0.2808966775
  - # 5
    frequency:    0.8652236163
  - # 6
    frequency:    1.4879415277
  - # 7
    frequency:    4.1618078693
  - # 8
    frequency:    4.4119362160
  - # 9
    frequency:    7.5593912332
  - # 10
    frequency:   11.8163047132
  - # 11
    frequency:   12.1395161742
  - # 12
    frequency:   14.2671042609
  - # 13
    frequency:   14.9374859147
  - # 14
    frequency:   15.2101928357
  - # 15
    frequency:   17.9276163297
  - # 16
    frequency:   26.0457970345
  - # 17
    frequency:   26.0963229265
  - # 18
    frequency:   29.3693292330

- q-position: [    0.0555556,    0.0000000,    0.0000000 ]
  distance:    0.0197792
  band:
  - # 1
    frequency:   -1.4364303688
  - # 2
    frequency:   -1.0562083222
  - # 3
    frequency:   -0.2375407849
  - # 4
    frequency:    0.3267614765
  - # 5
    frequency:    0.9462571734
  - # 6
    frequency:    1.6311907992
  - # 7
    frequency:    4.1775557408
  - # 8
    frequency:    4.4742595192
  - # 9
    frequency:    7.5551546035
  - # 10
    frequency:   11.8248867838
  - # 11
    frequency:   12.2093829312
  - # 12
    frequency:   14.2131754906
  - # 13
    frequency:   14.9338789078
  - # 14
    frequency:   15.2326148207
  - # 15
    frequency:   17.9331786837
  - # 16
    frequency:   26.0429651808
  - # 17
    frequency:   26.1028318228
  - # 18
    frequency:   29.3492522497

- q-position: [    0.0606061,    0.0000000,    0.0000000 ]
  distance:    0.0215773
  band:
  - # 1
    frequency:   -1.5643302468
  - # 2
    frequency:   -1.1515184531
  - # 3
    frequency:   -0.1578158159
  - # 4
    frequency:    0.3735398078
  - # 5
    frequency:    1.0273302945
  - # 6
    frequency:    1.7736284280
  - # 7
    frequency:    4.1947717946
  - # 8
    frequency:    4.5405077564
  - # 9
    frequency:    7.5505697494
  - # 10
    frequency:   11.8342011371
  - # 11
    frequency:   12.2829658946
  - # 12
    frequency:   14.1601513002
  - # 13
    frequency:   14.9299270535
  - # 14
    frequency:   15.2527155458
  - # 15
    frequency:   17.9394766864
  - # 16
    frequency:   26.0398937636
  - # 17
    frequency:   26.1094904679
  - # 18
    frequency:   29.3279051446

- q-position: [    0.0656566,    0.0000000,    0.0000000 ]
  distance:    0.0233754
  band:
  - # 1
    frequency:   -1.6905217165
  - # 2
    frequency:   -1.2454240520
  - # 3
    frequency:    0.1106587156
  - # 4
    frequency:    0.4208998805
  - # 5
    frequency:    1.1083321129
  - # 6
    frequency:    1.9151725930
  - # 7
    frequency:    4.2134446888
  - # 8
    frequency:    4.6103036133
  - # 9
    frequency:    7.5456522761
  - # 10
    frequency:   11.8442247104
  - # 11
    frequency:   12.3592807750
  - # 12
    frequency:   14.1087729290
  - # 13
    frequency:   14.9256312269
  - # 14
    frequency:   15.2704107282
  - # 15
    frequency:   17.9465607570
  - # 16
    frequency:   26.0365906263
  - # 17
    frequency:   26.1161740922
  - # 18
    frequency:   29.3054588000

- q-position: [    0.0707071,    0.0000000,    0.0000000 ]
  distance:    0.0251735
  band:
  - # 1
    frequency:   -1.8149302501
  - # 2
    frequency:   -1.3378902778
  - # 3
    frequency:    0.2360157189
  - # 4
    frequency:    0.4686870212
  - # 5
    frequency:    1.1891780516
  - # 6
    frequency:    2.0557567913
  - # 7
    frequency:    4.2335610872
  - # 8
    frequency:    4.6832859935
  - # 9
    frequency:    7.5404193867
  - # 10
    frequency:   11.8549325334
  - # 11
    frequency:   12.4371315741
  - # 12
    frequency:   14.0599585755
  - # 13
    frequency:   14.9209928607
  - # 14
    frequency:   15.2856393068
  - # 15
    frequency:   17.9544834288
  - # 16
    frequency:   26.0330641372
  - # 17
    frequency:   26.1227491643
  - # 18
    frequency:   29.2820965025

- q-position: [    0.0757576,    0.0000000,    0.0000000 ]
  distance:    0.0269716
  band:
  - # 1
    frequency:   -1.9374718371
  - # 2
    frequency:   -1.4288692730
  - # 3
    frequency:    0.3255325333
  - # 4
    frequency:    0.5169107212
  - # 5
    frequency:    1.2698010693
  - # 6
    frequency:    2.1953250958
  - # 7
    frequency:    4.2551054979
  - # 8
    frequency:    4.7591130836
  - # 9
    frequency:    7.5348899477
  - # 10
    frequency:   11.8662977727
  - # 11
    frequency:   12.5150478368
  - # 12
    frequency:   14.0148742347
  - # 13
    frequency:   14.9160140350
  - # 14
    frequency:   15.2983588388
  - # 15
    frequency:   17.9632989004
  - # 16
    frequency:   26.0293231529
  - # 17
    frequency:   26.1290742747
  - # 18
    frequency:   29.2580129450

- q-position: [    0.0808081,    0.0000000,    0.0000000 ]
  distance:    0.0287697
  band:
  - # 1
    frequency:   -2.0580564089
  - # 2
    frequency:   -1.5183045513
  - # 3
    frequency:    0.4041000027
  - # 4
    frequency:    0.5657465972
  - # 5
    frequency:    1.3501463041
  - # 6
    frequency:    2.3338287158
  - # 7
    frequency:    4.2780601275
  - # 8
    frequency:    4.8374643373
  - # 9
    frequency:    7.5290845626
  - # 10
    frequency:   11.8782917889
  - # 11
    frequency:   12.5912093453
  - # 12
    frequency:   13.9750154355
  - # 13
    frequency:   14.9106975623
  - # 14
    frequency:   15.3085425457
  - # 15
    frequency:   17.9730625900
  - # 16
    frequency:   26.0253769805
  - # 17
    frequency:   26.1350012413
  - # 18
    frequency:   29.2334129892

- q-position: [    0.0858586,    0.0000000,    0.0000000 ]
  distance:    0.0305678
  band:
  - # 1
    frequency:   -2.1765902042
  - # 2
    frequency:   -1.6061339354
  - # 3
    frequency:    0.4770266848
  - # 4
    frequency:    0.6155646089
  - # 5
    frequency:    1.4301676628
  - # 6
    frequency:    2.4712233150
  - # 7
    frequency:    4.3024047551
  - # 8
    frequency:    4.9180415568
  - # 9
    frequency:    7.5230256532
  - # 10
    frequency:   11.8908842041
  - # 11
    frequency:   12.6633754071
  - # 12
    frequency:   13.9422833294
  - # 13
    frequency:   14.9050470673
  - # 14
    frequency:   15.3161773630
  - # 15
    frequency:   17.9838306885
  - # 16
    frequency:   26.0212353387
  - # 17
    frequency:   26.1403764712
  - # 18
    frequency:   29.2085101550

- q-position: [    0.0909091,    0.0000000,    0.0000000 ]
  distance:    0.0323659
  band:
  - # 1
    frequency:   -2.2929774333
  - # 2
    frequency:   -1.6922915807
  - # 3
    frequency:    0.5459703023
  - # 4
    frequency:    0.6669765615
  - # 5
    frequency:    1.5098255677
  - # 6
    frequency:    2.6074668083
  - # 7
    frequency:    4.3281166291
  - # 8
    frequency:    5.0005692493
  - # 9
    frequency:    7.5167375507
  - # 10
    frequency:   11.9040429839
  - # 11
    frequency:   12.7288665147
  - # 12
    frequency:   13.9190076858
  - # 13
    frequency:   14.8990670588
  - # 14
    frequency:   15.3212626191
  - # 15
    frequency:   17.9956597111
  - # 16
    frequency:   26.0169083168
  - # 17
    frequency:   26.1450426072
  - # 18
    frequency:   29.1835248069

- q-position: [    0.0959596,    0.0000000,    0.0000000 ]
  distance:    0.0341640
  band:
  - # 1
    frequency:   -2.4071214759
  - # 2
    frequency:   -1.7767094078
  - # 3
    frequency:    0.6111843480
  - # 4
    frequency:    0.7208405541
  - # 5
    frequency:    1.5890854178
  - # 6
    frequency:    2.7425174903
  - # 7
    frequency:    4.3551703887
  - # 8
    frequency:    5.0847944170
  - # 9
    frequency:    7.5102465975
  - # 10
    frequency:   11.9177345324
  - # 11
    frequency:   12.7846918876
  - # 12
    frequency:   13.9078234764
  - # 13
    frequency:   14.8927629911
  - # 14
    frequency:   15.3238091172
  - # 15
    frequency:   18.0086060375
  - # 16
    frequency:   26.0124063343
  - # 17
    frequency:   26.1488404811
  - # 18
    frequency:   29.1586820128

- q-position: [    0.1010101,    0.0000000,    0.0000000 ]
  distance:    0.0359621
  band:
  - # 1
    frequency:   -2.5189257638
  - # 2
    frequency:   -1.8593181425
  - # 3
    frequency:    0.6723627870
  - # 4
    frequency:    0.7780656186
  - # 5
    frequency:    1.6679165021
  - # 6
    frequency:    2.8763324155
  - # 7
    frequency:    4.3835380133
  - # 8
    frequency:    5.1704859197
  - # 9
    frequency:    7.5035812607
  - # 10
    frequency:   11.9319238024
  - # 11
    frequency:   12.8279368796
  - # 12
    frequency:   13.9112871730
  - # 13
    frequency:   14.8861413149
  - # 14
    frequency:   15.3238384973
  - # 15
    frequency:   18.0227254272
  - # 16
    frequency:   26.0077400979
  - # 17
    frequency:   26.1516113875
  - # 18
    frequency:   29.1342090640

- q-position: [    0.1060606,    0.0000000,    0.0000000 ]
  distance:    0.0377602
  band:
  - # 1
    frequency:   -2.6282944472
  - # 2
    frequency:   -1.9400480900
  - # 3
    frequency:    0.7293572423
  - # 4
    frequency:    0.8391450701
  - # 5
    frequency:    1.7462912090
  - # 6
    frequency:    3.0088659832
  - # 7
    frequency:    4.4131887984
  - # 8
    frequency:    5.2574335298
  - # 9
    frequency:    7.4967722608
  - # 10
    frequency:   11.9465744208
  - # 11
    frequency:   12.8564187710
  - # 12
    frequency:   13.9312242885
  - # 13
    frequency:   14.8792095145
  - # 14
    frequency:   15.3213828123
  - # 15
    frequency:   18.0380724935
  - # 16
    frequency:   26.0029205598
  - # 17
    frequency:   26.1531996717
  - # 18
    frequency:   29.1103326600

- q-position: [    0.1111111,    0.0000000,    0.0000000 ]
  distance:    0.0395583
  band:
  - # 1
    frequency:   -2.7351329104
  - # 2
    frequency:   -2.0188297244
  - # 3
    frequency:    0.7826189238
  - # 4
    frequency:    0.9038290701
  - # 5
    frequency:    1.8241844295
  - # 6
    frequency:    3.1400686983
  - # 7
    frequency:    4.4440893610
  - # 8
    frequency:    5.3454467741
  - # 9
    frequency:    7.4898527161
  - # 10
    frequency:   11.9616488295
  - # 11
    frequency:   12.8693457470
  - # 12
    frequency:   13.9680733712
  - # 13
    frequency:   14.8719761308
  - # 14
    frequency:   15.3164843130
  - # 15
    frequency:   18.0547001120
  - # 16
    frequency:   25.9979588747
  - # 17
    frequency:   26.1534556074
  - # 18
    frequency:   29.0872757845

- q-position: [    0.1161616,    0.0000000,    0.0000000 ]
  distance:    0.0413564
  band:
  - # 1
    frequency:   -2.8393481813
  - # 2
    frequency:   -2.0955941475
  - # 3
    frequency:    0.8330112567
  - # 4
    frequency:    0.9713705007
  - # 5
    frequency:    1.9015730949
  - # 6
    frequency:    3.2698860887
  - # 7
    frequency:    4.4762036733
  - # 8
    frequency:    5.4343536390
  - # 9
    frequency:    7.4828583092
  - # 10
    frequency:   11.9771084425
  - # 11
    frequency:   12.8675344110
  - # 12
    frequency:   14.0206710671
  - # 13
    frequency:   14.8644507681
  - # 14
    frequency:   15.3091954850
  - # 15
    frequency:   18.0726587395
  - # 16
    frequency:   25.9928663575
  - # 17
    frequency:   26.1522385126
  - # 18
    frequency:   29.0652543235

- q-position: [    0.1212121,    0.0000000,    0.0000000 ]
  distance:    0.0431545
  band:
  - # 1
    frequency:   -2.9408492636
  - # 2
    frequency:   -2.1702734539
  - # 3
    frequency:    0.8813827167
  - # 4
    frequency:    1.0409844729
  - # 5
    frequency:    1.9784358049
  - # 6
    frequency:    3.3982577625
  - # 7
    frequency:    4.5094931228
  - # 8
    frequency:    5.5239991986
  - # 9
    frequency:    7.4758274775
  - # 10
    frequency:   11.9929138180
  - # 11
    frequency:   12.8530147674
  - # 12
    frequency:   14.0866492104
  - # 13
    frequency:   14.8566440854
  - # 14
    frequency:   15.2995794601
  - # 15
    frequency:   18.0919956154
  - # 16
    frequency:   25.9876544409
  - # 17
    frequency:   26.1494200238
  - # 18
    frequency:   29.0444735057

- q-position: [    0.1262626,    0.0000000,    0.0000000 ]
  distance:    0.0449526
  band:
  - # 1
    frequency:   -3.0395474136
  - # 2
    frequency:   -2.2428010279
  - # 3
    frequency:    0.9283656946
  - # 4
    frequency:    1.1120684046
  - # 5
    frequency:    2.0547525213
  - # 6
    frequency:    3.5251165947
  - # 7
    frequency:    4.5439165993
  - # 8
    frequency:    5.6142442051
  - # 9
    frequency:    7.4688016371
  - # 10
    frequency:   12.0090248467
  - # 11
    frequency:   12.8283352094
  - # 12
    frequency:   14.1631311883
  - # 13
    frequency:   14.8485677691
  - # 14
    frequency:   15.2877110417
  - # 15
    frequency:   18.1127538188
  - # 16
    frequency:   25.9823346337
  - # 17
    frequency:   26.1448874195
  - # 18
    frequency:   29.0251242771

- q-position: [    0.1313131,    0.0000000,    0.0000000 ]
  distance:    0.0467507
  band:
  - # 1
    frequency:   -3.1353563754
  - # 2
    frequency:   -2.3131117883
  - # 3
    frequency:    0.9743810179
  - # 4
    frequency:    1.1842090845
  - # 5
    frequency:    2.1305043089
  - # 6
    frequency:    3.6503880304
  - # 7
    frequency:    4.5794306054
  - # 8
    frequency:    5.7049636665
  - # 9
    frequency:    7.4618254481
  - # 10
    frequency:   12.0254009537
  - # 11
    frequency:   12.7959885701
  - # 12
    frequency:   14.2473060707
  - # 13
    frequency:   14.8402344887
  - # 14
    frequency:   15.2736788190
  - # 15
    frequency:   18.1349711594
  - # 16
    frequency:   25.9769184797
  - # 17
    frequency:   26.1385468585
  - # 18
    frequency:   29.0073797428

- q-position: [    0.1363636,    0.0000000,    0.0000000 ]
  distance:    0.0485488
  band:
  - # 1
    frequency:   -3.2281925847
  - # 2
    frequency:   -2.3811423950
  - # 3
    frequency:    1.0196997651
  - # 4
    frequency:    1.2571281852
  - # 5
    frequency:    2.2056731109
  - # 6
    frequency:    3.7739895006
  - # 7
    frequency:    4.6159893879
  - # 8
    frequency:    5.7960454232
  - # 9
    frequency:    7.4549471356
  - # 10
    frequency:   12.0420013149
  - # 11
    frequency:   12.7581225722
  - # 12
    frequency:   14.3367162339
  - # 13
    frequency:   14.8316578341
  - # 14
    frequency:   15.2575893172
  - # 15
    frequency:   18.1586788858
  - # 16
    frequency:   25.9714175180
  - # 17
    frequency:   26.1303263797
  - # 18
    frequency:   28.9913918336

- q-position: [    0.1414141,    0.0000000,    0.0000000 ]
  distance:    0.0503469
  band:
  - # 1
    frequency:   -3.3179753494
  - # 2
    frequency:   -2.4468314258
  - # 3
    frequency:    1.0644971696
  - # 4
    frequency:    1.3306331152
  - # 5
    frequency:    2.2802415532
  - # 6
    frequency:    3.8958299427
  - # 7
    frequency:    4.6535450891
  - # 8
    frequency:    5.8873887132
  - # 9
    frequency:    7.4482188878
  - # 10
    frequency:   12.0587850843
  - # 11
    frequency:   12.7164724843
  - # 12
    frequency:   14.4293186551
  - # 13
    frequency:   14.8228522356
  - # 14
    frequency:   15.2395752148
  - # 15
    frequency:   18.1839002077
  - # 16
    frequency:   25.9658432435
  - # 17
    frequency:   26.1201785014
  - # 18
    frequency:   28.9772883598

- q-position: [    0.1464646,    0.0000000,    0.0000000 ]
  distance:    0.0521450
  band:
  - # 1
    frequency:   -3.4046270104
  - # 2
    frequency:   -2.5101195302
  - # 3
    frequency:    1.1088883632
  - # 4
    frequency:    1.4045844262
  - # 5
    frequency:    2.3541927706
  - # 6
    frequency:    4.0158094299
  - # 7
    frequency:    4.6920479121
  - # 8
    frequency:    5.9789027014
  - # 9
    frequency:    7.4416973611
  - # 10
    frequency:   12.0757116334
  - # 11
    frequency:   12.6724030661
  - # 12
    frequency:   14.5234280969
  - # 13
    frequency:   14.8138328672
  - # 14
    frequency:   15.2198123151
  - # 15
    frequency:   18.2106486430
  - # 16
    frequency:   25.9602070697
  - # 17
    frequency:   26.1080822669
  - # 18
    frequency:   28.9651706072

- q-position: [    0.1515152,    0.0000000,    0.0000000 ]
  distance:    0.0539432
  band:
  - # 1
    frequency:   -3.4880730892
  - # 2
    frequency:   -2.5709495641
  - # 3
    frequency:    1.1529503063
  - # 4
    frequency:    1.4788760089
  - # 5
    frequency:    2.4275102533
  - # 6
    frequency:    4.1338189105
  - # 7
    frequency:    4.7314462999
  - # 8
    frequency:    6.0705049168
  - # 9
    frequency:    7.4354443434
  - # 10
    frequency:   12.0927407982
  - # 11
    frequency:   12.6269831600
  - # 12
    frequency:   14.6176068366
  - # 13
    frequency:   14.8046155326
  - # 14
    frequency:   15.1985572404
  - # 15
    frequency:   18.2389262188
  - # 16
    frequency:   25.9545202922
  - # 17
    frequency:   26.0940446018
  - # 18
    frequency:   28.9551116126

- q-position: [    0.1565657,    0.0000000,    0.0000000 ]
  distance:    0.0557413
  band:
  - # 1
    frequency:   -3.5682424228
  - # 2
    frequency:   -2.6292667108
  - # 3
    frequency:    1.1967350597
  - # 4
    frequency:    1.5534232746
  - # 5
    frequency:    2.5001777115
  - # 6
    frequency:    4.2497400715
  - # 7
    frequency:    4.7716871222
  - # 8
    frequency:    6.1621195093
  - # 9
    frequency:    7.4295276534
  - # 10
    frequency:   12.1098331319
  - # 11
    frequency:   12.5810577281
  - # 12
    frequency:   14.7105015156
  - # 13
    frequency:   14.7952165376
  - # 14
    frequency:   15.1762404284
  - # 15
    frequency:   18.2687215780
  - # 16
    frequency:   25.9487940541
  - # 17
    frequency:   26.0781008906
  - # 18
    frequency:   28.9471552144

- q-position: [    0.1616162,    0.0000000,    0.0000000 ]
  distance:    0.0575394
  band:
  - # 1
    frequency:   -3.6450672891
  - # 2
    frequency:   -2.6850185892
  - # 3
    frequency:    1.2402779129
  - # 4
    frequency:    1.6281560358
  - # 5
    frequency:    2.5721789569
  - # 6
    frequency:    4.3634453428
  - # 7
    frequency:    4.8127158683
  - # 8
    frequency:    6.2536751739
  - # 9
    frequency:    7.4240224051
  - # 10
    frequency:   12.1269501625
  - # 11
    frequency:   12.5353061946
  - # 12
    frequency:   14.7856525490
  - # 13
    frequency:   14.8005213605
  - # 14
    frequency:   15.1537312533
  - # 15
    frequency:   18.3000080656
  - # 16
    frequency:   25.9430393134
  - # 17
    frequency:   26.0603147226
  - # 18
    frequency:   28.9413159288

- q-position: [    0.1666667,    0.0000000,    0.0000000 ]
  distance:    0.0593375
  band:
  - # 1
    frequency:   -3.7184835248
  - # 2
    frequency:   -2.7381553528
  - # 3
    frequency:    1.2836024755
  - # 4
    frequency:    1.7030141256
  - # 5
    frequency:    2.6434978013
  - # 6
    frequency:    4.4747980681
  - # 7
    frequency:    4.8544768432
  - # 8
    frequency:    6.3451024959
  - # 9
    frequency:    7.4190128602
  - # 10
    frequency:   12.1440546489
  - # 11
    frequency:   12.4902862568
  - # 12
    frequency:   14.7759404424
  - # 13
    frequency:   14.8848836178
  - # 14
    frequency:   15.1332501785
  - # 15
    frequency:   18.3327418889
  - # 16
    frequency:   25.9372668114
  - # 17
    frequency:   26.0407768148
  - # 18
    frequency:   28.9375796483

- q-position: [    0.1717172,    0.0000000,    0.0000000 ]
  distance:    0.0611356
  band:
  - # 1
    frequency:   -3.7884306359
  - # 2
    frequency:   -2.7886297800
  - # 3
    frequency:    1.3267239497
  - # 4
    frequency:    1.7779446303
  - # 5
    frequency:    2.7141179717
  - # 6
    frequency:    4.5836528750
  - # 7
    frequency:    4.8969133620
  - # 8
    frequency:    6.4363302970
  - # 9
    frequency:    7.4145952490
  - # 10
    frequency:   12.1611108359
  - # 11
    frequency:   12.4464656208
  - # 12
    frequency:   14.7660971417
  - # 13
    frequency:   14.9559000753
  - # 14
    frequency:   15.1220515051
  - # 15
    frequency:   18.3668604625
  - # 16
    frequency:   25.9314870438
  - # 17
    frequency:   26.0196031715
  - # 18
    frequency:   28.9359051041

- q-position: [    0.1767677,    0.0000000,    0.0000000 ]
  distance:    0.0629337
  band:
  - # 1
    frequency:   -3.8548519031
  - # 2
    frequency:   -2.8363973573
  - # 3
    frequency:    1.3696512939
  - # 4
    frequency:    1.8529000950
  - # 5
    frequency:    2.7840230423
  - # 6
    frequency:    4.6898562869
  - # 7
    frequency:    4.9399679427
  - # 8
    frequency:    6.5272802473
  - # 9
    frequency:    7.4108822544
  - # 10
    frequency:   12.1780847018
  - # 11
    frequency:   12.4042445819
  - # 12
    frequency:   14.7561394527
  - # 13
    frequency:   14.9928015014
  - # 14