nqpoint: 300    
npath: 3      
segment_nqpoint:
- 100
- 100
- 100
labels:
- [ 'G', 'M' ]
- [ 'M', 'K' ]
- [ 'K', 'G' ]
reciprocal_lattice:
- [   0.29353680,   0.16947355,   0.00000000 ] # a*
- [   0.00000000,   0.33894710,   0.00000000 ] # b*
- [   0.00000000,   0.00000000,   0.03854299 ] # c*
natom: 7      
lattice:
- [     3.406727840909722,     0.000000000000000,     0.000000000000000 ] # a
- [    -1.703363920454861,     2.950312854002716,     0.000000000000000 ] # b
- [     0.000000000000000,     0.000000000000000,    25.945055081145583 ] # c
points:
- symbol: C # 1
  coordinates: [  0.000000000000000,  0.000000000000000,  0.459594341923523 ]
  mass: 12.010700
- symbol: C # 2
  coordinates: [  0.333332985432215,  0.666666983183674,  0.606672097359381 ]
  mass: 12.010700
- symbol: Cl # 3
  coordinates: [  0.666666984744047,  0.333332985985145,  0.346886910505746 ]
  mass: 35.453000
- symbol: N # 4
  coordinates: [  0.333332985432215,  0.666666983183674,  0.558639292714018 ]
  mass: 14.006700
- symbol: O # 5
  coordinates: [  0.333332985432215,  0.666666983183674,  0.653113089494254 ]
  mass: 15.999400
- symbol: Sc # 6
  coordinates: [  0.333332985432215,  0.666666983183674,  0.411875049194287 ]
  mass: 44.955912
- symbol: Sc # 7
  coordinates: [  0.666666984744047,  0.333332985985145,  0.507642837423512 ]
  mass: 44.955912

phonon:
- q-position: [    0.0000000,    0.0000000,    0.0000000 ]
  distance:    0.0000000
  band:
  - # 1
    frequency:   -0.9192117212
  - # 2
    frequency:   -0.9192117212
  - # 3
    frequency:   -0.0000016962
  - # 4
    frequency:   -0.0000009862
  - # 5
    frequency:    0.0000017191
  - # 6
    frequency:    3.9745728915
  - # 7
    frequency:    3.9745728915
  - # 8
    frequency:    5.4614811361
  - # 9
    frequency:    5.4614811361
  - # 10
    frequency:    5.6446038279
  - # 11
    frequency:    6.4426603925
  - # 12
    frequency:    6.4426603925
  - # 13
    frequency:    9.1860573214
  - # 14
    frequency:   10.8385218853
  - # 15
    frequency:   10.8385218853
  - # 16
    frequency:   12.2217145963
  - # 17
    frequency:   17.7329486755
  - # 18
    frequency:   17.7329486755
  - # 19
    frequency:   18.7050477332
  - # 20
    frequency:   38.7761104472
  - # 21
    frequency:   69.2930311169

- q-position: [    0.0050505,    0.0000000,    0.0000000 ]
  distance:    0.0017119
  band:
  - # 1
    frequency:   -0.9183735016
  - # 2
    frequency:   -0.9165820519
  - # 3
    frequency:   -0.0178771000
  - # 4
    frequency:    0.0778410408
  - # 5
    frequency:    0.1209171079
  - # 6
    frequency:    3.9749997565
  - # 7
    frequency:    3.9764913771
  - # 8
    frequency:    5.4619745067
  - # 9
    frequency:    5.4647250473
  - # 10
    frequency:    5.6466039662
  - # 11
    frequency:    6.4427741700
  - # 12
    frequency:    6.4432923133
  - # 13
    frequency:    9.1857407421
  - # 14
    frequency:   10.8392315961
  - # 15
    frequency:   10.8461781550
  - # 16
    frequency:   12.2208937655
  - # 17
    frequency:   17.7329994361
  - # 18
    frequency:   17.7331310421
  - # 19
    frequency:   18.7034951076
  - # 20
    frequency:   38.7760487743
  - # 21
    frequency:   69.2915580224

- q-position: [    0.0101010,    0.0000000,    0.0000000 ]
  distance:    0.0034237
  band:
  - # 1
    frequency:   -0.9158916124
  - # 2
    frequency:   -0.9088332373
  - # 3
    frequency:   -0.0293812419
  - # 4
    frequency:    0.1558559201
  - # 5
    frequency:    0.2417439320
  - # 6
    frequency:    3.9762790118
  - # 7
    frequency:    3.9822193893
  - # 8
    frequency:    5.4634511544
  - # 9
    frequency:    5.4737932354
  - # 10
    frequency:    5.6530925082
  - # 11
    frequency:    6.4431142765
  - # 12
    frequency:    6.4452041841
  - # 13
    frequency:    9.1847931385
  - # 14
    frequency:   10.8413557004
  - # 15
    frequency:   10.8690956251
  - # 16
    frequency:   12.2184671517
  - # 17
    frequency:   17.7331515833
  - # 18
    frequency:   17.7336738065
  - # 19
    frequency:   18.6988450322
  - # 20
    frequency:   38.7758639525
  - # 21
    frequency:   69.2871431912

- q-position: [    0.0151515,    0.0000000,    0.0000000 ]
  distance:    0.0051356
  band:
  - # 1
    frequency:   -0.9118592899
  - # 2
    frequency:   -0.8963390215
  - # 3
    frequency:   -0.0395562970
  - # 4
    frequency:    0.2341948709
  - # 5
    frequency:    0.3638665408
  - # 6
    frequency:    3.9784066522
  - # 7
    frequency:    3.9916770730
  - # 8
    frequency:    5.4659007355
  - # 9
    frequency:    5.4867252728
  - # 10
    frequency:    5.6655123293
  - # 11
    frequency:    6.4436770473
  - # 12
    frequency:    6.4484457884
  - # 13
    frequency:    9.1832208700
  - # 14
    frequency:   10.8448791546
  - # 15
    frequency:   10.9071115654
  - # 16
    frequency:   12.2145484949
  - # 17
    frequency:   17.7334047138
  - # 18
    frequency:   17.7345638016
  - # 19
    frequency:   18.6911210677
  - # 20
    frequency:   38.7755565714
  - # 21
    frequency:   69.2797999570

- q-position: [    0.0202020,    0.0000000,    0.0000000 ]
  distance:    0.0068474
  band:
  - # 1
    frequency:   -0.9064161226
  - # 2
    frequency:   -0.8795853508
  - # 3
    frequency:   -0.0460914534
  - # 4
    frequency:    0.3129653814
  - # 5
    frequency:    0.4874116696
  - # 6
    frequency:    3.9813760454
  - # 7
    frequency:    4.0047389951
  - # 8
    frequency:    5.4693061715
  - # 9
    frequency:    5.5005822983
  - # 10
    frequency:    5.6859676857
  - # 11
    frequency:    6.4444564202
  - # 12
    frequency:    6.4531051010
  - # 13
    frequency:    9.1810344025
  - # 14
    frequency:   10.8497770236
  - # 15
    frequency:   10.9599239693
  - # 16
    frequency:   12.2093497346
  - # 17
    frequency:   17.7337581585
  - # 18
    frequency:   17.7357785366
  - # 19
    frequency:   18.6803630156
  - # 20
    frequency:   38.7751276104
  - # 21
    frequency:   69.2695504666

- q-position: [    0.0252525,    0.0000000,    0.0000000 ]
  distance:    0.0085593
  band:
  - # 1
    frequency:   -0.8997279663
  - # 2
    frequency:   -0.8590244589
  - # 3
    frequency:   -0.0461833615
  - # 4
    frequency:    0.3922209493
  - # 5
    frequency:    0.6123460478
  - # 6
    frequency:    3.9851779975
  - # 7
    frequency:    4.0212437572
  - # 8
    frequency:    5.4736438858
  - # 9
    frequency:    5.5124573100
  - # 10
    frequency:    5.7162523371
  - # 11
    frequency:    6.4454440028
  - # 12
    frequency:    6.4593162676
  - # 13
    frequency:    9.1782481401
  - # 14
    frequency:   10.8560146859
  - # 15
    frequency:   11.0270382223
  - # 16
    frequency:   12.2032226925
  - # 17
    frequency:   17.7342109865
  - # 18
    frequency:   17.7372853301
  - # 19
    frequency:   18.6666277662
  - # 20
    frequency:   38.7745784338
  - # 21
    frequency:   69.2564255663

- q-position: [    0.0303030,    0.0000000,    0.0000000 ]
  distance:    0.0102711
  band:
  - # 1
    frequency:   -0.8919652113
  - # 2
    frequency:   -0.8349600132
  - # 3
    frequency:   -0.0328685441
  - # 4
    frequency:    0.4719592206
  - # 5
    frequency:    0.7384607472
  - # 6
    frequency:    3.9898008415
  - # 7
    frequency:    4.0410044455
  - # 8
    frequency:    5.4788841269
  - # 9
    frequency:    5.5207389464
  - # 10
    frequency:    5.7566327078
  - # 11
    frequency:    6.4466291655
  - # 12
    frequency:    6.4672716314
  - # 13
    frequency:    9.1748802420
  - # 14
    frequency:   10.8635481192
  - # 15
    frequency:   11.1076737312
  - # 16
    frequency:   12.1967380336
  - # 17
    frequency:   17.7347620109
  - # 18
    frequency:   17.7390399998
  - # 19
    frequency:   18.6499905849
  - # 20
    frequency:   38.7739107847
  - # 21
    frequency:   69.2404646443

- q-position: [    0.0353535,    0.0000000,    0.0000000 ]
  distance:    0.0119830
  band:
  - # 1
    frequency:   -0.8832837606
  - # 2
    frequency:   -0.8074923042
  - # 3
    frequency:    0.0404057022
  - # 4
    frequency:    0.5521286519
  - # 5
    frequency:    0.8654541932
  - # 6
    frequency:    3.9952305489
  - # 7
    frequency:    4.0638182271
  - # 8
    frequency:    5.4849913689
  - # 9
    frequency:    5.5253500194
  - # 10
    frequency:    5.8056589176
  - # 11
    frequency:    6.4479991591
  - # 12
    frequency:    6.4772382856
  - # 13
    frequency:    9.1709524540
  - # 14
    frequency:   10.8723242652
  - # 15
    frequency:   11.2005986192
  - # 16
    frequency:   12.1908351479
  - # 17
    frequency:   17.7354097965
  - # 18
    frequency:   17.7409849981
  - # 19
    frequency:   18.6305469466
  - # 20
    frequency:   38.7731267758
  - # 21
    frequency:   69.2217154291

- q-position: [    0.0404040,    0.0000000,    0.0000000 ]
  distance:    0.0136948
  band:
  - # 1
    frequency:   -0.8738118165
  - # 2
    frequency:   -0.7765141875
  - # 3
    frequency:    0.0817532702
  - # 4
    frequency:    0.6326408839
  - # 5
    frequency:    0.9930111007
  - # 6
    frequency:    4.0014508633
  - # 7
    frequency:    4.0894740447
  - # 8
    frequency:    5.4919247804
  - # 9
    frequency:    5.5269815452
  - # 10
    frequency:    5.8609773487
  - # 11
    frequency:    6.4495392548
  - # 12
    frequency:    6.4895787739
  - # 13
    frequency:    9.1664899710
  - # 14
    frequency:   10.8822814708
  - # 15
    frequency:   11.3038241702
  - # 16
    frequency:   12.1871132518
  - # 17
    frequency:   17.7361526686
  - # 18
    frequency:   17.7430468402
  - # 19
    frequency:   18.6084150760
  - # 20
    frequency:   38.7722288796
  - # 21
    frequency:   69.2002337463

- q-position: [    0.0454545,    0.0000000,    0.0000000 ]
  distance:    0.0154067
  band:
  - # 1
    frequency:   -0.8636435341
  - # 2
    frequency:   -0.7417269279
  - # 3
    frequency:    0.1217257654
  - # 4
    frequency:    0.7133851885
  - # 5
    frequency:    1.1208502213
  - # 6
    frequency:    4.0084434510
  - # 7
    frequency:    4.1177580628
  - # 8
    frequency:    5.4996387501
  - # 9
    frequency:    5.5264106597
  - # 10
    frequency:    5.9200536753
  - # 11
    frequency:    6.4512329052
  - # 12
    frequency:    6.5047729345
  - # 13
    frequency:    9.1615213370
  - # 14
    frequency:   10.8933500033
  - # 15
    frequency:   11.4140217505
  - # 16
    frequency:   12.1884029543
  - # 17
    frequency:   17.7369887234
  - # 18
    frequency:   17.7451326114
  - # 19
    frequency:   18.5837394069
  - # 20
    frequency:   38.7712199161
  - # 21
    frequency:   69.1760832349

- q-position: [    0.0505051,    0.0000000,    0.0000000 ]
  distance:    0.0171185
  band:
  - # 1
    frequency:   -0.8528386900
  - # 2
    frequency:   -0.7026452943
  - # 3
    frequency:    0.1638102425
  - # 4
    frequency:    0.7942418132
  - # 5
    frequency:    1.2487418994
  - # 6
    frequency:    4.0161880703
  - # 7
    frequency:    4.1484570434
  - # 8
    frequency:    5.5080834569
  - # 9
    frequency:    5.5242587245
  - # 10
    frequency:    5.9804544531
  - # 11
    frequency:    6.4530619237
  - # 12
    frequency:    6.5234318313
  - # 13
    frequency:    9.1560783768
  - # 14
    frequency:   10.9054526358
  - # 15
    frequency:   11.5254564896
  - # 16
    frequency:   12.1998256917
  - # 17
    frequency:   17.7379158403
  - # 18
    frequency:   17.7471252721
  - # 19
    frequency:   18.5566952472
  - # 20
    frequency:   38.7701030393
  - # 21
    frequency:   69.1493350246

- q-position: [    0.0555556,    0.0000000,    0.0000000 ]
  distance:    0.0188304
  band:
  - # 1
    frequency:   -0.8414264002
  - # 2
    frequency:   -0.6585678485
  - # 3
    frequency:    0.2087549031
  - # 4
    frequency:    0.8750923039
  - # 5
    frequency:    1.3765068375
  - # 6
    frequency:    4.0246627535
  - # 7
    frequency:    4.1813600906
  - # 8
    frequency:    5.5172054732
  - # 9
    frequency:    5.5209802911
  - # 10
    frequency:    6.0399133876
  - # 11
    frequency:    6.4550066796
  - # 12
    frequency:    6.5462839071
  - # 13
    frequency:    9.1501961480
  - # 14
    frequency:   10.9185052983
  - # 15
    frequency:   11.6285559861
  - # 16
    frequency:   12.2302238988
  - # 17
    frequency:   17.7389316946
  - # 18
    frequency:   17.7488774063
  - # 19
    frequency:   18.5274950082
  - # 20
    frequency:   38.7688817216
  - # 21
    frequency:   69.1200673771

- q-position: [    0.0606061,    0.0000000,    0.0000000 ]
  distance:    0.0205422
  band:
  - # 1
    frequency:   -0.8294107524
  - # 2
    frequency:   -0.6084844173
  - # 3
    frequency:    0.2567647036
  - # 4
    frequency:    0.9558262393
  - # 5
    frequency:    1.5040067636
  - # 6
    frequency:    4.0338440011
  - # 7
    frequency:    4.2162592513
  - # 8
    frequency:    5.5169085651
  - # 9
    frequency:    5.5269483883
  - # 10
    frequency:    6.0963871219
  - # 11
    frequency:    6.4570463066
  - # 12
    frequency:    6.5741015652
  - # 13
    frequency:    9.1439129027
  - # 14
    frequency:   10.9324177903
  - # 15
    frequency:   11.7103283932
  - # 16
    frequency:   12.2917479679
  - # 17
    frequency:   17.7400337723
  - # 18
    frequency:   17.7502029980
  - # 19
    frequency:   18.4963964203
  - # 20
    frequency:   38.7675597375
  - # 21
    frequency:   69.0883652925

- q-position: [    0.0656566,    0.0000000,    0.0000000 ]
  distance:    0.0222541
  band:
  - # 1
    frequency:   -0.8167766790
  - # 2
    frequency:   -0.5508608310
  - # 3
    frequency:    0.3078494305
  - # 4
    frequency:    1.0363447694
  - # 5
    frequency:    1.6311334900
  - # 6
    frequency:    4.0437069851
  - # 7
    frequency:    4.2529493704
  - # 8
    frequency:    5.5122982254
  - # 9
    frequency:    5.5372534413
  - # 10
    frequency:    6.1481874846
  - # 11
    frequency:    6.4591589219
  - # 12
    frequency:    6.6075407328
  - # 13
    frequency:    9.1372700473
  - # 14
    frequency:   10.9470945474
  - # 15
    frequency:   11.7611578329
  - # 16
    frequency:   12.3930716844
  - # 17
    frequency:   17.7412193852
  - # 18
    frequency:   17.7508668275
  - # 19
    frequency:   18.4637131522
  - # 20
    frequency:   38.7661411444
  - # 21
    frequency:   69.0543200845

- q-position: [    0.0707071,    0.0000000,    0.0000000 ]
  distance:    0.0239660
  band:
  - # 1
    frequency:   -0.8034950582
  - # 2
    frequency:   -0.4831319658
  - # 3
    frequency:    0.3619096953
  - # 4
    frequency:    1.1165617803
  - # 5
    frequency:    1.7577992484
  - # 6
    frequency:    4.0542257587
  - # 7
    frequency:    4.2912274727
  - # 8
    frequency:    5.5073555244
  - # 9
    frequency:    5.5480601523
  - # 10
    frequency:    6.1941800464
  - # 11
    frequency:    6.4613218519
  - # 12
    frequency:    6.6469152699
  - # 13
    frequency:    9.1303120932
  - # 14
    frequency:   10.9624354570
  - # 15
    frequency:   11.7824598491
  - # 16
    frequency:   12.5317523895
  - # 17
    frequency:   17.7424856881
  - # 18
    frequency:   17.7505712678
  - # 19
    frequency:   18.4298280641
  - # 20
    frequency:   38.7646302639
  - # 21
    frequency:   69.0180289262

- q-position: [    0.0757576,    0.0000000,    0.0000000 ]
  distance:    0.0256778
  band:
  - # 1
    frequency:   -0.7895266101
  - # 2
    frequency:   -0.4003148831
  - # 3
    frequency:    0.4187505140
  - # 4
    frequency:    1.1964035514
  - # 5
    frequency:    1.8839291134
  - # 6
    frequency:    4.0653734703
  - # 7
    frequency:    4.3308918186
  - # 8
    frequency:    5.5022579653
  - # 9
    frequency:    5.5593069429
  - # 10
    frequency:    6.2339410860
  - # 11
    frequency:    6.4635118631
  - # 12
    frequency:    6.6920142863
  - # 13
    frequency:    9.1230865936
  - # 14
    frequency:   10.9783367141
  - # 15
    frequency:   11.7825281356
  - # 16
    frequency:   12.6984031457
  - # 17
    frequency:   17.7438296954
  - # 18
    frequency:   17.7489408599
  - # 19
    frequency:   18.3952087335
  - # 20
    frequency:   38.7630316605
  - # 21
    frequency:   68.9795943704

- q-position: [    0.0808081,    0.0000000,    0.0000000 ]
  distance:    0.0273897
  band:
  - # 1
    frequency:   -0.7748245274
  - # 2
    frequency:   -0.2897418195
  - # 3
    frequency:    0.4780705578
  - # 4
    frequency:    1.2758076049
  - # 5
    frequency:    2.0094554061
  - # 6
    frequency:    4.0771225787
  - # 7
    frequency:    4.3717406895
  - # 8
    frequency:    5.4971671649
  - # 9
    frequency:    5.5709317389
  - # 10
    frequency:    6.2677384879
  - # 11
    frequency:    6.4657053941
  - # 12
    frequency:    6.7420960210
  - # 13
    frequency:    9.1156440634
  - # 14
    frequency:   10.9946917103
  - # 15
    frequency:   11.7688940840
  - # 16
    frequency:   12.8843536771
  - # 17
    frequency:   17.7452482998
  - # 18
    frequency:   17.7455064498
  - # 19
    frequency:   18.3604234916
  - # 20
    frequency:   38.7613501194
  - # 21
    frequency:   68.9391238464

- q-position: [    0.0858586,    0.0000000,    0.0000000 ]
  distance:    0.0291015
  band:
  - # 1
    frequency:   -0.7593359673
  - # 2
    frequency:   -0.0658098269
  - # 3
    frequency:    0.5394543671
  - # 4
    frequency:    1.3547212301
  - # 5
    frequency:    2.1343136744
  - # 6
    frequency:    4.0894450691
  - # 7
    frequency:    4.4135708993
  - # 8
    frequency:    5.4922376052
  - # 9
    frequency:    5.5828725471
  - # 10
    frequency:    6.2963177354
  - # 11
    frequency:    6.4678787852
  - # 12
    frequency:    6.7960771128
  - # 13
    frequency:    9.1080378834
  - # 14
    frequency:   11.0113919463
  - # 15
    frequency:   11.7463222466
  - # 16
    frequency:   13.0836753777
  - # 17
    frequency:   17.7396933978
  - # 18
    frequency:   17.7467382907
  - # 19
    frequency:   18.3261534905
  - # 20
    frequency:   38.7595906241
  - # 21
    frequency:   68.8967291375

- q-position: [    0.0909091,    0.0000000,    0.0000000 ]
  distance:    0.0308134
  band:
  - # 1
    frequency:   -0.7430025832
  - # 2
    frequency:    0.2811121267
  - # 3
    frequency:    0.6023916849
  - # 4
    frequency:    1.4330999739
  - # 5
    frequency:    2.2584398266
  - # 6
    frequency:    4.1023126648
  - # 7
    frequency:    4.4561760023
  - # 8
    frequency:    5.4876230170
  - # 9
    frequency:    5.5950680030
  - # 10
    frequency:    6.3206180131
  - # 11
    frequency:    6.4700085054
  - # 12
    frequency:    6.8527928332
  - # 13
    frequency:    9.1003241899
  - # 14
    frequency:   11.0283279596
  - # 15
    frequency:   11.7175726342
  - # 16
    frequency:   13.2924381065
  - # 17
    frequency:   17.7308226643
  - # 18
    frequency:   17.7482963738
  - # 19
    frequency:   18.2931920360
  - # 20
    frequency:   38.7577583321
  - # 21
    frequency:   68.8525258417

- q-position: [    0.0959596,    0.0000000,    0.0000000 ]
  distance:    0.0325252
  band:
  - # 1
    frequency:   -0.7257602554
  - # 2
    frequency:    0.4083729362
  - # 3
    frequency:    0.6663348395
  - # 4
    frequency:    1.5109062491
  - # 5
    frequency:    2.3817680696
  - # 6
    frequency:    4.1156970359
  - # 7
    frequency:    4.4993441608
  - # 8
    frequency:    5.4834814668
  - # 9
    frequency:    5.6074578862
  - # 10
    frequency:    6.3415538780
  - # 11
    frequency:    6.4720713712
  - # 12
    frequency:    6.9111935399
  - # 13
    frequency:    9.0925617519
  - # 14
    frequency:   11.0453902573
  - # 15
    frequency:   11.6842655069
  - # 16
    frequency:   13.5078621098
  - # 17
    frequency:   17.7181382161
  - # 18
    frequency:   17.7499191901
  - # 19
    frequency:   18.2624178051
  - # 20
    frequency:   38.7558585505
  - # 21
    frequency:   68.8066328203

- q-position: [    0.1010101,    0.0000000,    0.0000000 ]
  distance:    0.0342371
  band:
  - # 1
    frequency:   -0.7075381167
  - # 2
    frequency:    0.5096195430
  - # 3
    frequency:    0.7307789854
  - # 4
    frequency:    1.5881081224
  - # 5
    frequency:    2.5042293845
  - # 6
    frequency:    4.1295700015
  - # 7
    frequency:    4.5428556608
  - # 8
    frequency:    5.4799797879
  - # 9
    frequency:    5.6199835996
  - # 10
    frequency:    6.3599066385
  - # 11
    frequency:    6.4740447571
  - # 12
    frequency:    6.9704337945
  - # 13
    frequency:    9.0848118412
  - # 14
    frequency:   11.0624702442
  - # 15
    frequency:   11.6473994113
  - # 16
    frequency:   13.7278136746
  - # 17
    frequency:   17.7008745848
  - # 18
    frequency:   17.7516033359
  - # 19
    frequency:   18.2347281986
  - # 20
    frequency:   38.7538967109
  - # 21
    frequency:   68.7591716362

- q-position: [    0.1060606,    0.0000000,    0.0000000 ]
  distance:    0.0359489
  band:
  - # 1
    frequency:   -0.6882568989
  - # 2
    frequency:    0.5989062385
  - # 3
    frequency:    0.7953328187
  - # 4
    frequency:    1.6646782944
  - # 5
    frequency:    2.6257503508
  - # 6
    frequency:    4.1439037237
  - # 7
    frequency:    4.5864801117
  - # 8
    frequency:    5.4772977008
  - # 9
    frequency:    5.6325886142
  - # 10
    frequency:    6.3762984678
  - # 11
    frequency:    6.4759067957
  - # 12
    frequency:    7.0298814437
  - # 13
    frequency:    9.0771380997
  - # 14
    frequency:   11.0794611377
  - # 15
    frequency:   11.6076273726
  - # 16
    frequency:   13.9505392764
  - # 17
    frequency:   17.6783667682
  - # 18
    frequency:   17.7533453823
  - # 19
    frequency:   18.2109307641
  - # 20
    frequency:   38.7518783435
  - # 21
    frequency:   68.7102659868

- q-position: [    0.1111111,    0.0000000,    0.0000000 ]
  distance:    0.0376608
  band:
  - # 1
    frequency:   -0.6678265311
  - # 2
    frequency:    0.6814840999
  - # 3
    frequency:    0.8597568699
  - # 4
    frequency:    1.7405932566
  - # 5
    frequency:    2.7462521815
  - # 6
    frequency:    4.1586708936
  - # 7
    frequency:    4.6299734644
  - # 8
    frequency:    5.4756317319
  - # 9
    frequency:    5.6452188770
  - # 10
    frequency:    6.3912079136
  - # 11
    frequency:    6.4776365649
  - # 12
    frequency:    7.0890880742
  - # 13
    frequency:    9.0696064104
  - # 14
    frequency:   11.0962588588
  - # 15
    frequency:   11.5654033982
  - # 16
    frequency:   14.1745259380
  - # 17
    frequency:   17.6501780001
  - # 18
    frequency:   17.7551418950
  - # 19
    frequency:   18.1916173562
  - # 20
    frequency:   38.7498090517
  - # 21
    frequency:   68.6600411352

- q-position: [    0.1161616,    0.0000000,    0.0000000 ]
  distance:    0.0393726
  band:
  - # 1
    frequency:   -0.6461428152
  - # 2
    frequency:    0.7598750269
  - # 3
    frequency:    0.9239698913
  - # 4
    frequency:    1.8158326006
  - # 5
    frequency:    2.8656498711
  - # 6
    frequency:    4.1738449063
  - # 7
    frequency:    4.6730751464
  - # 8
    frequency:    5.4751987914
  - # 9
    frequency:    5.6578231853
  - # 10
    frequency:    6.4049986255
  - # 11
    frequency:    6.4792142623
  - # 12
    frequency:    7.1477488895
  - # 13
    frequency:    9.0622847781
  - # 14
    frequency:   11.1127628900
  - # 15
    frequency:   11.5210624081
  - # 16
    frequency:   14.3984246372
  - # 17
    frequency:   17.6161950227
  - # 18
    frequency:   17.7569894532
  - # 19
    frequency:   18.1770717005
  - # 20
    frequency:   38.7476944857
  - # 21
    frequency:   68.6086233420

- q-position: [    0.1212121,    0.0000000,    0.0000000 ]
  distance:    0.0410845
  band:
  - # 1
    frequency:   -0.6230828501
  - # 2
    frequency:    0.8353804422
  - # 3
    frequency:    0.9880377199
  - # 4
    frequency:    1.8903784543
  - # 5
    frequency:    2.9838513796
  - # 6
    frequency:    4.1894000263
  - # 7
    frequency:    4.7155058681
  - # 8
    frequency:    5.4762389706
  - # 9
    frequency:    5.6703535260
  - # 10
    frequency:    6.4179478741
  - # 11
    frequency:    6.4806213651
  - # 12
    frequency:    7.2056651706
  - # 13
    frequency:    9.0552432285
  - # 14
    frequency:   11.1288770933
  - # 15
    frequency:   11.4748654928
  - # 16
    frequency:   14.6210047317
  - # 17
    frequency:   17.5766455573
  - # 18
    frequency:   17.7588846685
  - # 19
    frequency:   18.1672561475
  - # 20
    frequency:   38.7455403167
  - # 21
    frequency:   68.5561393023

- q-position: [    0.1262626,    0.0000000,    0.0000000 ]
  distance:    0.0427964
  band:
  - # 1
    frequency:   -0.5984986476
  - # 2
    frequency:    0.9086351305
  - # 3
    frequency:    1.0521568926
  - # 4
    frequency:    1.9642150169
  - # 5
    frequency:    3.1007567938
  - # 6
    frequency:    4.2053115399
  - # 7
    frequency:    4.7569670315
  - # 8
    frequency:    5.4790167157
  - # 9
    frequency:    5.6827653835
  - # 10
    frequency:    6.4302702750
  - # 11
    frequency:    6.4818407757
  - # 12
    frequency:    7.2627135674
  - # 13
    frequency:    9.0485537306
  - # 14
    frequency:   11.1445104768
  - # 15
    frequency:   11.4270265252
  - # 16
    frequency:   14.8411229521
  - # 17
    frequency:   17.5320355610
  - # 18
    frequency:   17.7608242027
  - # 19
    frequency:   18.1618808522
  - # 20
    frequency:   38.7433522109
  - # 21
    frequency:   68.5027155915

- q-position: [    0.1313131,    0.0000000,    0.0000000 ]
  distance:    0.0445082
  band:
  - # 1
    frequency:   -0.5722080023
  - # 2
    frequency:    0.9798638174
  - # 3
    frequency:    1.1166345178
  - # 4
    frequency:    2.0373281752
  - # 5
    frequency:    3.2162574038
  - # 6
    frequency:    4.2215558968
  - # 7
    frequency:    4.7971431342
  - # 8
    frequency:    5.4838190634
  - # 9
    frequency:    5.6950180157
  - # 10
    frequency:    6.4421361158
  - # 11
    frequency:    6.4828569536
  - # 12
    frequency:    7.3188224677
  - # 13
    frequency:    9.0422901523
  - # 14
    frequency:   11.1595779065
  - # 15
    frequency:   11.3777283738
  - # 16
    frequency:   15.0576976678
  - # 17
    frequency:   17.4830481209
  - # 18
    frequency:   17.7628047856
  - # 19
    frequency:   18.1605149625
  - # 20
    frequency:   38.7411358040
  - # 21
    frequency:   68.4484781225

- q-position: [    0.1363636,    0.0000000,    0.0000000 ]
  distance:    0.0462201
  band:
  - # 1
    frequency:   -0.5439809955
  - # 2
    frequency:    1.0490335787
  - # 3
    frequency:    1.1818545080
  - # 4
    frequency:    2.1097051809
  - # 5
    frequency:    3.3302346377
  - # 6
    frequency:    4.2381108387
  - # 7
    frequency:    4.8357090044
  - # 8
    frequency:    5.4909491799
  - # 9
    frequency:    5.7070747005
  - # 10
    frequency:    6.4536850552
  - # 11
    frequency:    6.4836560324
  - # 12
    frequency:    7.3739543245
  - # 13
    frequency:    9.0365282512
  - # 14
    frequency:   11.1740007530
  - # 15
    frequency:   11.3271331115
  - # 16
    frequency:   15.2696817436
  - # 17
    frequency:   17.4304551006
  - # 18
    frequency:   17.7648232311
  - # 19
    frequency:   18.1626913508
  - # 20
    frequency:   38.7388966765
  - # 21
    frequency:   68.3935516187

- q-position: [    0.1414141,    0.0000000,    0.0000000 ]
  distance:    0.0479319
  band:
  - # 1
    frequency:   -0.5135192277
  - # 2
    frequency:    1.1159802987
  - # 3
    frequency:    1.2482164335
  - # 4
    frequency:    2.1813343765
  - # 5
    frequency:    3.4425587781
  - # 6
    frequency:    4.2549555162
  - # 7
    frequency:    4.8723438334
  - # 8
    frequency:    5.5007133271
  - # 9
    frequency:    5.7189029523
  - # 10
    frequency:    6.4650362356
  - # 11
    frequency:    6.4842259235
  - # 12
    frequency:    7.4280925868
  - # 13
    frequency:    9.0313457049
  - # 14
    frequency:   11.1877074700
  - # 15
    frequency:   11.2753886450
  - # 16
    frequency:   15.4760267276
  - # 17
    frequency:   17.3750729972
  - # 18
    frequency:   17.7668764525
  - # 19
    frequency:   18.1679785774
  - # 20
    frequency:   38.7366403292
  - # 21
    frequency:   68.3380591043

- q-position: [    0.1464646,    0.0000000,    0.0000000 ]
  distance:    0.0496438
  band:
  - # 1
    frequency:   -0.4804222492
  - # 2
    frequency:    1.1805346002
  - # 3
    frequency:    1.3160481137
  - # 4
    frequency:    2.2522049597
  - # 5
    frequency:    3.5530873705
  - # 6
    frequency:    4.2720705928
  - # 7
    frequency:    4.9067533161
  - # 8
    frequency:    5.5134000519
  - # 9
    frequency:    5.7304747097
  - # 10
    frequency:    6.4762957277
  - # 11
    frequency:    6.4845564079
  - # 12
    frequency:    7.4812320442
  - # 13
    frequency:    9.0268221779
  - # 14
    frequency:   11.2006340985
  - # 15
    frequency:   11.2226331535
  - # 16
    frequency:   15.6756266546
  - # 17
    frequency:   17.3177753680
  - # 18
    frequency:   17.7689614765
  - # 19
    frequency:   18.1760183126
  - # 20
    frequency:   38.7343721594
  - # 21
    frequency:   68.2821214168

- q-position: [    0.1515152,    0.0000000,    0.0000000 ]
  distance:    0.0513556
  band:
  - # 1
    frequency:   -0.4441298716
  - # 2
    frequency:    1.2426263795
  - # 3
    frequency:    1.3855250484
  - # 4
    frequency:    2.3223067763
  - # 5
    frequency:    3.6616631973
  - # 6
    frequency:    4.2894383382
  - # 7
    frequency:    4.9386993094
  - # 8
    frequency:    5.5292523307
  - # 9
    frequency:    5.7417664930
  - # 10
    frequency:    6.4846392154
  - # 11
    frequency:    6.4875620168
  - # 12
    frequency:    7.5333716500
  - # 13
    frequency:    9.0230394137
  - # 14
    frequency:   11.1689981614
  - # 15
    frequency:   11.2127246927
  - # 16
    frequency:   15.8672176118
  - # 17
    frequency:   17.2595750209
  - # 18
    frequency:   17.7710754561
  - # 19
    frequency:   18.1865382678
  - # 20
    frequency:   38.7320974386
  - # 21