nqpoint: 300    
npath: 3      
segment_nqpoint:
- 100
- 100
- 100
labels:
- [ 'G', 'M' ]
- [ 'M', 'K' ]
- [ 'K', 'G' ]
reciprocal_lattice:
- [   0.29417529,   0.16984218,   0.00000000 ] # a*
- [   0.00000000,   0.33968437,   0.00000000 ] # b*
- [   0.00000000,   0.00000000,   0.03638384 ] # c*
natom: 8      
lattice:
- [     3.399333757769543,     0.000000000000000,     0.000000000000000 ] # a
- [    -1.699666878884772,     2.943909390165659,     0.000000000000000 ] # b
- [     0.000000000000000,     0.000000000000000,    27.484730692607251 ] # c
points:
- symbol: C # 1
  coordinates: [  0.333332985432215,  0.666666983183674,  0.628524763212009 ]
  mass: 12.010700
- symbol: C # 2
  coordinates: [  0.666666984744047,  0.333332985985145,  0.370768189311061 ]
  mass: 12.010700
- symbol: Hf # 3
  coordinates: [  0.333332985432215,  0.666666983183674,  0.491967566444818 ]
  mass: 178.490000
- symbol: Hf # 4
  coordinates: [  0.666666984744047,  0.333332985985145,  0.576413028569851 ]
  mass: 178.490000
- symbol: N # 5
  coordinates: [  0.000000000000000,  0.000000000000000,  0.536706681635857 ]
  mass: 14.006700
- symbol: N # 6
  coordinates: [  0.333332985432215,  0.666666983183674,  0.672545454395855 ]
  mass: 14.006700
- symbol: N # 7
  coordinates: [  0.666666984744047,  0.333332985985145,  0.327454545604145 ]
  mass: 14.006700
- symbol: S # 8
  coordinates: [  0.666666984744047,  0.333332985985145,  0.432426998702087 ]
  mass: 32.065000

phonon:
- q-position: [    0.0000000,    0.0000000,    0.0000000 ]
  distance:    0.0000000
  band:
  - # 1
    frequency:   -1.7539234286
  - # 2
    frequency:   -1.7539234286
  - # 3
    frequency:   -0.0000102661
  - # 4
    frequency:   -0.0000003273
  - # 5
    frequency:    0.0000082849
  - # 6
    frequency:    2.0150780863
  - # 7
    frequency:    2.0150780863
  - # 8
    frequency:    2.9795600133
  - # 9
    frequency:    2.9795600133
  - # 10
    frequency:    4.2122285897
  - # 11
    frequency:    6.6137749824
  - # 12
    frequency:    6.6137749824
  - # 13
    frequency:    6.8544334807
  - # 14
    frequency:    6.8544334807
  - # 15
    frequency:    7.1007656316
  - # 16
    frequency:    8.5629290660
  - # 17
    frequency:   10.4517093315
  - # 18
    frequency:   10.4517093315
  - # 19
    frequency:   12.6652465350
  - # 20
    frequency:   15.0916030121
  - # 21
    frequency:   15.0916030121
  - # 22
    frequency:   18.8778183495
  - # 23
    frequency:   59.1676596976
  - # 24
    frequency:   64.6864379357

- q-position: [    0.0050505,    0.0000000,    0.0000000 ]
  distance:    0.0017156
  band:
  - # 1
    frequency:   -1.7544000679
  - # 2
    frequency:   -1.7543012559
  - # 3
    frequency:    0.0020013842
  - # 4
    frequency:    0.0480478751
  - # 5
    frequency:    0.0893242984
  - # 6
    frequency:    2.0154532359
  - # 7
    frequency:    2.0160641048
  - # 8
    frequency:    2.9795242135
  - # 9
    frequency:    2.9800132506
  - # 10
    frequency:    4.2119674226
  - # 11
    frequency:    6.6138560044
  - # 12
    frequency:    6.6142508299
  - # 13
    frequency:    6.8544394854
  - # 14
    frequency:    6.8549188964
  - # 15
    frequency:    7.1004725202
  - # 16
    frequency:    8.5627572469
  - # 17
    frequency:   10.4516524827
  - # 18
    frequency:   10.4518416268
  - # 19
    frequency:   12.6650010535
  - # 20
    frequency:   15.0916247152
  - # 21
    frequency:   15.0919260634
  - # 22
    frequency:   18.8776875482
  - # 23
    frequency:   59.1672961734
  - # 24
    frequency:   64.6863458816

- q-position: [    0.0101010,    0.0000000,    0.0000000 ]
  distance:    0.0034312
  band:
  - # 1
    frequency:   -1.7558295138
  - # 2
    frequency:   -1.7554368707
  - # 3
    frequency:    0.0074584416
  - # 4
    frequency:    0.0960971972
  - # 5
    frequency:    0.1785660119
  - # 6
    frequency:    2.0165778421
  - # 7
    frequency:    2.0190155008
  - # 8
    frequency:    2.9794155408
  - # 9
    frequency:    2.9813711924
  - # 10
    frequency:    4.2111868863
  - # 11
    frequency:    6.6140987655
  - # 12
    frequency:    6.6156771895
  - # 13
    frequency:    6.8544574162
  - # 14
    frequency:    6.8563718878
  - # 15
    frequency:    7.0995960367
  - # 16
    frequency:    8.5622429956
  - # 17
    frequency:   10.4514823068
  - # 18
    frequency:   10.4522393871
  - # 19
    frequency:   12.6642645977
  - # 20
    frequency:   15.0916883012
  - # 21
    frequency:   15.0928934841
  - # 22
    frequency:   18.8772953763
  - # 23
    frequency:   59.1662065655
  - # 24
    frequency:   64.6860699019

- q-position: [    0.0151515,    0.0000000,    0.0000000 ]
  distance:    0.0051467
  band:
  - # 1
    frequency:   -1.7582103382
  - # 2
    frequency:   -1.7573363963
  - # 3
    frequency:    0.0164326449
  - # 4
    frequency:    0.1441492629
  - # 5
    frequency:    0.2676449097
  - # 6
    frequency:    2.0184493727
  - # 7
    frequency:    2.0239125951
  - # 8
    frequency:    2.9792303083
  - # 9
    frequency:    2.9836285420
  - # 10
    frequency:    4.2098958533
  - # 11
    frequency:    6.6145023534
  - # 12
    frequency:    6.6180504857
  - # 13
    frequency:    6.8544870250
  - # 14
    frequency:    6.8587825309
  - # 15
    frequency:    7.0981449190
  - # 16
    frequency:    8.5613899149
  - # 17
    frequency:   10.4511999122
  - # 18
    frequency:   10.4529052195
  - # 19
    frequency:   12.6630371493
  - # 20
    frequency:   15.0917892105
  - # 21
    frequency:   15.0945000833
  - # 22
    frequency:   18.8766425294
  - # 23
    frequency:   59.1643937644
  - # 24
    frequency:   64.6856105443

- q-position: [    0.0202020,    0.0000000,    0.0000000 ]
  distance:    0.0068623
  band:
  - # 1
    frequency:   -1.7615401231
  - # 2
    frequency:   -1.7600091639
  - # 3
    frequency:    0.0288959685
  - # 4
    frequency:    0.1922050645
  - # 5
    frequency:    0.3564745891
  - # 6
    frequency:    2.0210635918
  - # 7
    frequency:    2.0307235594
  - # 8
    frequency:    2.9789628061
  - # 9
    frequency:    2.9867765188
  - # 10
    frequency:    4.2081090389
  - # 11
    frequency:    6.6150652535
  - # 12
    frequency:    6.6213646707
  - # 13
    frequency:    6.8545279037
  - # 14
    frequency:    6.8621337370
  - # 15
    frequency:    7.0961343749
  - # 16
    frequency:    8.5602039569
  - # 17
    frequency:   10.4508071368
  - # 18
    frequency:   10.4538434170
  - # 19
    frequency:   12.6613187276
  - # 20
    frequency:   15.0919198806
  - # 21
    frequency:   15.0967372403
  - # 22
    frequency:   18.8757301647
  - # 23
    frequency:   59.1618625773
  - # 24
    frequency:   64.6849687196

- q-position: [    0.0252525,    0.0000000,    0.0000000 ]
  distance:    0.0085779
  band:
  - # 1
    frequency:   -1.7658154037
  - # 2
    frequency:   -1.7634665423
  - # 3
    frequency:    0.0447671205
  - # 4
    frequency:    0.2402651360
  - # 5
    frequency:    0.4449640074
  - # 6
    frequency:    2.0244145390
  - # 7
    frequency:    2.0394057840
  - # 8
    frequency:    2.9786059320
  - # 9
    frequency:    2.9908029262
  - # 10
    frequency:    4.2058468951
  - # 11
    frequency:    6.6157853588
  - # 12
    frequency:    6.6256110917
  - # 13
    frequency:    6.8545794929
  - # 14
    frequency:    6.8664003237
  - # 15
    frequency:    7.0935871557
  - # 16
    frequency:    8.5586933454
  - # 17
    frequency:   10.4503065335
  - # 18
    frequency:   10.4550598814
  - # 19
    frequency:   12.6591094629
  - # 20
    frequency:   15.0920698006
  - # 21
    frequency:   15.0995929501
  - # 22
    frequency:   18.8745598970
  - # 23
    frequency:   59.1586197115
  - # 24
    frequency:   64.6841456991

- q-position: [    0.0303030,    0.0000000,    0.0000000 ]
  distance:    0.0102935
  band:
  - # 1
    frequency:   -1.7710315922
  - # 2
    frequency:   -1.7677205454
  - # 3
    frequency:    0.0639406079
  - # 4
    frequency:    0.2883293969
  - # 5
    frequency:    0.5330163145
  - # 6
    frequency:    2.0284945022
  - # 7
    frequency:    2.0499076323
  - # 8
    frequency:    2.9781520298
  - # 9
    frequency:    2.9956922474
  - # 10
    frequency:    4.2031354699
  - # 11
    frequency:    6.6166599829
  - # 12
    frequency:    6.6307783054
  - # 13
    frequency:    6.8546410931
  - # 14
    frequency:    6.8715474816
  - # 15
    frequency:    7.0905352928
  - # 16
    frequency:    8.5568684688
  - # 17
    frequency:   10.4497013503
  - # 18
    frequency:   10.4565620175
  - # 19
    frequency:   12.6564096965
  - # 20
    frequency:   15.0922255875
  - # 21
    frequency:   15.1030518867
  - # 22
    frequency:   18.8731337944
  - # 23
    frequency:   59.1546737520
  - # 24
    frequency:   64.6831431109

- q-position: [    0.0353535,    0.0000000,    0.0000000 ]
  distance:    0.0120090
  band:
  - # 1
    frequency:   -1.7771828821
  - # 2
    frequency:   -1.7727823945
  - # 3
    frequency:    0.0862922234
  - # 4
    frequency:    0.3363969935
  - # 5
    frequency:    0.6205282652
  - # 6
    frequency:    2.0332939897
  - # 7
    frequency:    2.0621704512
  - # 8
    frequency:    2.9775938956
  - # 9
    frequency:    3.0014257627
  - # 10
    frequency:    4.2000062358
  - # 11
    frequency:    6.6176858762
  - # 12
    frequency:    6.6368518396
  - # 13
    frequency:    6.8547118799
  - # 14
    frequency:    6.8775283400
  - # 15
    frequency:    7.0870227967
  - # 16
    frequency:    8.5547417448
  - # 17
    frequency:   10.4489955058
  - # 18
    frequency:   10.4583586018
  - # 19
    frequency:   12.6532201043
  - # 20
    frequency:   15.0923710832
  - # 21
    frequency:   15.1070954834
  - # 22
    frequency:   18.8714543720
  - # 23
    frequency:   59.1500351330
  - # 24
    frequency:   64.6819629349

- q-position: [    0.0404040,    0.0000000,    0.0000000 ]
  distance:    0.0137246
  band:
  - # 1
    frequency:   -1.7842621391
  - # 2
    frequency:   -1.7786611863
  - # 3
    frequency:    0.1116824802
  - # 4
    frequency:    0.3844661406
  - # 5
    frequency:    0.7073899886
  - # 6
    frequency:    2.0388017026
  - # 7
    frequency:    2.0761307052
  - # 8
    frequency:    2.9769259038
  - # 9
    frequency:    3.0079816903
  - # 10
    frequency:    4.1964958967
  - # 11
    frequency:    6.6188592460
  - # 12
    frequency:    6.6438138982
  - # 13
    frequency:    6.8547909216
  - # 14
    frequency:    6.8842801472
  - # 15
    frequency:    7.0831098082
  - # 16
    frequency:    8.5523274608
  - # 17
    frequency:   10.4481935588
  - # 18
    frequency:   10.4604596274
  - # 19
    frequency:   12.6495418396
  - # 20
    frequency:   15.0924874725
  - # 21
    frequency:   15.1117020295
  - # 22
    frequency:   18.8695245845
  - # 23
    frequency:   59.1447161032
  - # 24
    frequency:   64.6806074971

- q-position: [    0.0454545,    0.0000000,    0.0000000 ]
  distance:    0.0154402
  band:
  - # 1
    frequency:   -1.7922607792
  - # 2
    frequency:   -1.7853627740
  - # 3
    frequency:    0.1399597068
  - # 4
    frequency:    0.4325339647
  - # 5
    frequency:    0.7934849968
  - # 6
    frequency:    2.0450045132
  - # 7
    frequency:    2.0917221181
  - # 8
    frequency:    2.9761451979
  - # 9
    frequency:    3.0153353448
  - # 10
    frequency:    4.1926461794
  - # 11
    frequency:    6.6201757792
  - # 12
    frequency:    6.6516430035
  - # 13
    frequency:    6.8548772008
  - # 14
    frequency:    6.8917182805
  - # 15
    frequency:    7.0788789944
  - # 16
    frequency:    8.5496415896
  - # 17
    frequency:   10.4473006743
  - # 18
    frequency:   10.4628761288
  - # 19
    frequency:   12.6453766935
  - # 20
    frequency:   15.0925534206
  - # 21
    frequency:   15.1168467820
  - # 22
    frequency:   18.8673478186
  - # 23
    frequency:   59.1387306840
  - # 24
    frequency:   64.6790794624

- q-position: [    0.0505051,    0.0000000,    0.0000000 ]
  distance:    0.0171558
  band:
  - # 1
    frequency:   -1.8011686409
  - # 2
    frequency:   -1.7928889190
  - # 3
    frequency:    0.1709629816
  - # 4
    frequency:    0.4805963519
  - # 5
    frequency:    0.8786903148
  - # 6
    frequency:    2.0518874521
  - # 7
    frequency:    2.1088777253
  - # 8
    frequency:    2.9752528915
  - # 9
    frequency:    3.0234593127
  - # 10
    frequency:    4.1885036191
  - # 11
    frequency:    6.6216306678
  - # 12
    frequency:    6.6603135594
  - # 13
    frequency:    6.8549696385
  - # 14
    frequency:    6.8997268560
  - # 15
    frequency:    7.0744454381
  - # 16
    frequency:    8.5467015869
  - # 17
    frequency:   10.4463225847
  - # 18
    frequency:   10.4656199908
  - # 19
    frequency:   12.6407272663
  - # 20
    frequency:   15.0925452297
  - # 21
    frequency:   15.1225020926
  - # 22
    frequency:   18.8649278828
  - # 23
    frequency:   59.1320946234
  - # 24
    frequency:   64.6773818272

- q-position: [    0.0555556,    0.0000000,    0.0000000 ]
  distance:    0.0188714
  band:
  - # 1
    frequency:   -1.8109738560
  - # 2
    frequency:   -1.8012367241
  - # 3
    frequency:    0.2045248803
  - # 4
    frequency:    0.5286478034
  - # 5
    frequency:    0.9628766323
  - # 6
    frequency:    2.0594337085
  - # 7
    frequency:    2.1275317724
  - # 8
    frequency:    2.9742552223
  - # 9
    frequency:    3.0323236416
  - # 10
    frequency:    4.1841193444
  - # 11
    frequency:    6.6232186374
  - # 12
    frequency:    6.6697953109
  - # 13
    frequency:    6.8550671207
  - # 14
    frequency:    6.9081441207
  - # 15
    frequency:    7.0699718656
  - # 16
    frequency:    8.5435261708
  - # 17
    frequency:   10.4452655484
  - # 18
    frequency:   10.4687037440
  - # 19
    frequency:   12.6355971460
  - # 20
    frequency:   15.0924370132
  - # 21
    frequency:   15.1286375467
  - # 22
    frequency:   18.8622689981
  - # 23
    frequency:   59.1248253427
  - # 24
    frequency:   64.6755179098

- q-position: [    0.0606061,    0.0000000,    0.0000000 ]
  distance:    0.0205869
  band:
  - # 1
    frequency:   -1.8216627240
  - # 2
    frequency:   -1.8103983272
  - # 3
    frequency:    0.2404739857
  - # 4
    frequency:    0.5766813018
  - # 5
    frequency:    1.0459084073
  - # 6
    frequency:    2.0676246461
  - # 7
    frequency:    2.1476214184
  - # 8
    frequency:    2.9731646049
  - # 9
    frequency:    3.0418960394
  - # 10
    frequency:    4.1795488703
  - # 11
    frequency:    6.6249339778
  - # 12
    frequency:    6.6800526462
  - # 13
    frequency:    6.8551685286
  - # 14
    frequency:    6.9167403918
  - # 15
    frequency:    7.0656915031
  - # 16
    frequency:    8.5401350893
  - # 17
    frequency:   10.4441363040
  - # 18
    frequency:   10.4721403512
  - # 19
    frequency:   12.6299910904
  - # 20
    frequency:   15.0922008869
  - # 21
    frequency:   15.1352201161
  - # 22
    frequency:   18.8593757873
  - # 23
    frequency:   59.1169418787
  - # 24
    frequency:   64.6734913413

- q-position: [    0.0656566,    0.0000000,    0.0000000 ]
  distance:    0.0223025
  band:
  - # 1
    frequency:   -1.8332195966
  - # 2
    frequency:   -1.8203608178
  - # 3
    frequency:    0.2786371271
  - # 4
    frequency:    0.6246881920
  - # 5
    frequency:    1.1276438901
  - # 6
    frequency:    2.0764398382
  - # 7
    frequency:    2.1690882230
  - # 8
    frequency:    2.9720005305
  - # 9
    frequency:    3.0521420829
  - # 10
    frequency:    4.1748519018
  - # 11
    frequency:    6.6267705750
  - # 12
    frequency:    6.6910436584
  - # 13
    frequency:    6.8552727709
  - # 14
    frequency:    6.9251873713
  - # 15
    frequency:    7.0619398168
  - # 16
    frequency:    8.5365488784
  - # 17
    frequency:   10.4429420228
  - # 18
    frequency:   10.4759429892
  - # 19
    frequency:   12.6239152068
  - # 20
    frequency:   15.0918071749
  - # 21
    frequency:   15.1422143212
  - # 22
    frequency:   18.8562532632
  - # 23
    frequency:   59.1084648193
  - # 24
    frequency:   64.6713060545

- q-position: [    0.0707071,    0.0000000,    0.0000000 ]
  distance:    0.0240181
  band:
  - # 1
    frequency:   -1.8456267777
  - # 2
    frequency:   -1.8311063296
  - # 3
    frequency:    0.3188413265
  - # 4
    frequency:    0.6726580781
  - # 5
    frequency:    1.2079350792
  - # 6
    frequency:    2.0858571225
  - # 7
    frequency:    2.1918794057
  - # 8
    frequency:    2.9707902689
  - # 9
    frequency:    3.0630254305
  - # 10
    frequency:    4.1700921502
  - # 11
    frequency:    6.6287219463
  - # 12
    frequency:    6.7027188098
  - # 13
    frequency:    6.8553788179
  - # 14
    frequency:    6.9330242536
  - # 15
    frequency:    7.0591898796
  - # 16
    frequency:    8.5327886153
  - # 17
    frequency:   10.4416902591
  - # 18
    frequency:   10.4801248280
  - # 19
    frequency:   12.6173771256
  - # 20
    frequency:   15.0912246290
  - # 21
    frequency:   15.1495824038
  - # 22
    frequency:   18.8529068178
  - # 23
    frequency:   59.0994162350
  - # 24
    frequency:   64.6689662723

- q-position: [    0.0757576,    0.0000000,    0.0000000 ]
  distance:    0.0257337
  band:
  - # 1
    frequency:   -1.8588644436
  - # 2
    frequency:   -1.8426122671
  - # 3
    frequency:    0.3609154515
  - # 4
    frequency:    0.7205787396
  - # 5
    frequency:    1.2866276615
  - # 6
    frequency:    2.0958526786
  - # 7
    frequency:    2.2159488575
  - # 8
    frequency:    2.9695693308
  - # 9
    frequency:    3.0745080393
  - # 10
    frequency:    4.1653371615
  - # 11
    frequency:    6.6307812755
  - # 12
    frequency:    6.7150189324
  - # 13
    frequency:    6.8554857387
  - # 14
    frequency:    6.9396459505
  - # 15
    frequency:    7.0580663033
  - # 16
    frequency:    8.5288756712
  - # 17
    frequency:   10.4403888985
  - # 18
    frequency:   10.4846988122
  - # 19
    frequency:   12.6103861638
  - # 20
    frequency:   15.0904206603
  - # 21
    frequency:   15.1572845079
  - # 22
    frequency:   18.8493422096
  - # 23
    frequency:   59.0898196051
  - # 24
    frequency:   64.6664764958

- q-position: [    0.0808081,    0.0000000,    0.0000000 ]
  distance:    0.0274492
  band:
  - # 1
    frequency:   -1.8729105877
  - # 2
    frequency:   -1.8548516257
  - # 3
    frequency:    0.4046915800
  - # 4
    frequency:    0.7684360681
  - # 5
    frequency:    1.3635610390
  - # 6
    frequency:    2.1064011263
  - # 7
    frequency:    2.2412578714
  - # 8
    frequency:    2.9683816577
  - # 9
    frequency:    3.0865503831
  - # 10
    frequency:    4.1606581498
  - # 11
    frequency:    6.6329414507
  - # 12
    frequency:    6.7278720829
  - # 13
    frequency:    6.8555927389
  - # 14
    frequency:    6.9443718330
  - # 15
    frequency:    7.0592798208
  - # 16
    frequency:    8.5248314680
  - # 17
    frequency:   10.4390461055
  - # 18
    frequency:   10.4896774475
  - # 19
    frequency:   12.6029534749
  - # 20
    frequency:   15.0893615795
  - # 21
    frequency:   15.1652788675
  - # 22
    frequency:   18.8455655521
  - # 23
    frequency:   59.0796997385
  - # 24
    frequency:   64.6638414904

- q-position: [    0.0858586,    0.0000000,    0.0000000 ]
  distance:    0.0291648
  band:
  - # 1
    frequency:   -1.8877409945
  - # 2
    frequency:   -1.8677933738
  - # 3
    frequency:    0.4500060944
  - # 4
    frequency:    0.8162140243
  - # 5
    frequency:    1.4385685879
  - # 6
    frequency:    2.1174756457
  - # 7
    frequency:    2.2677755176
  - # 8
    frequency:    2.9672795098
  - # 9
    frequency:    3.0991116694
  - # 10
    frequency:    4.1561298265
  - # 11
    frequency:    6.6351951025
  - # 12
    frequency:    6.7411883743
  - # 13
    frequency:    6.8556992006
  - # 14
    frequency:    6.9466478743
  - # 15
    frequency:    7.0634305089
  - # 16
    frequency:    8.5206772421
  - # 17
    frequency:   10.4376702705
  - # 18
    frequency:   10.4950725941
  - # 19
    frequency:   12.5950921809
  - # 20
    frequency:   15.0880128452
  - # 21
    frequency:   15.1735220007
  - # 22
    frequency:   18.8415833017
  - # 23
    frequency:   59.0690826910
  - # 24
    frequency:   64.6610662726

- q-position: [    0.0909091,    0.0000000,    0.0000000 ]
  distance:    0.0308804
  band:
  - # 1
    frequency:   -1.9033292429
  - # 2
    frequency:   -1.8814028714
  - # 3
    frequency:    0.4967005259
  - # 4
    frequency:    0.8638946171
  - # 5
    frequency:    1.5114783561
  - # 6
    frequency:    2.1290481177
  - # 7
    frequency:    2.2954785482
  - # 8
    frequency:    2.9663230336
  - # 9
    frequency:    3.1121500550
  - # 10
    frequency:    4.1518302114
  - # 11
    frequency:    6.6375346433
  - # 12
    frequency:    6.7548511448
  - # 13
    frequency:    6.8558047224
  - # 14
    frequency:    6.9463004038
  - # 15
    frequency:    7.0707630792
  - # 16
    frequency:    8.5164338211
  - # 17
    frequency:   10.4362699566
  - # 18
    frequency:   10.5008952710
  - # 19
    frequency:   12.5868174847
  - # 20
    frequency:   15.0863393178
  - # 21
    frequency:   15.1819689078
  - # 22
    frequency:   18.8374022452
  - # 23
    frequency:   59.0579956781
  - # 24
    frequency:   64.6581560953

- q-position: [    0.0959596,    0.0000000,    0.0000000 ]
  distance:    0.0325960
  band:
  - # 1
    frequency:   -1.9196467423
  - # 2
    frequency:   -1.8956423045
  - # 3
    frequency:    0.5446221749
  - # 4
    frequency:    0.9114579019
  - # 5
    frequency:    1.5821144531
  - # 6
    frequency:    2.1410892821
  - # 7
    frequency:    2.3243506547
  - # 8
    frequency:    2.9655794929
  - # 9
    frequency:    3.1256228574
  - # 10
    frequency:    4.1478404036
  - # 11
    frequency:    6.6399523081
  - # 12
    frequency:    6.7687013352
  - # 13
    frequency:    6.8559091603
  - # 14
    frequency:    6.9436210896
  - # 15
    frequency:    7.0810977446
  - # 16
    frequency:    8.5121214155
  - # 17
    frequency:   10.4348538469
  - # 18
    frequency:   10.5071554726
  - # 19
    frequency:   12.5781467600
  - # 20
    frequency:   15.0843055155
  - # 21
    frequency:   15.1905732735
  - # 22
    frequency:   18.8330294885
  - # 23
    frequency:   59.0464669836
  - # 24
    frequency:   64.6551164323

- q-position: [    0.1010101,    0.0000000,    0.0000000 ]
  distance:    0.0343116
  band:
  - # 1
    frequency:   -1.9366628004
  - # 2
    frequency:   -1.9104711215
  - # 3
    frequency:    0.5936245351
  - # 4
    frequency:    0.9588819988
  - # 5
    frequency:    1.6502994351
  - # 6
    frequency:    2.1535689117
  - # 7
    frequency:    2.3543808608
  - # 8
    frequency:    2.9651221610
  - # 9
    frequency:    3.1394867630
  - # 10
    frequency:    4.1442442902
  - # 11
    frequency:    6.6424401960
  - # 12
    frequency:    6.7825090820
  - # 13
    frequency:    6.8560126677
  - # 14
    frequency:    6.9392274205
  - # 15
    frequency:    7.0939983816
  - # 16
    frequency:    8.5077594303
  - # 17
    frequency:   10.4334306924
  - # 18
    frequency:   10.5138619995
  - # 19
    frequency:   12.5690996172
  - # 20
    frequency:   15.0818758718
  - # 21
    frequency:   15.1992876709
  - # 22
    frequency:   18.8284724446
  - # 23
    frequency:   59.0345258653
  - # 24
    frequency:   64.6519529629

- q-position: [    0.1060606,    0.0000000,    0.0000000 ]
  distance:    0.0360271
  band:
  - # 1
    frequency:   -1.9543447217
  - # 2
    frequency:   -1.9258464589
  - # 3
    frequency:    0.6435675507
  - # 4
    frequency:    1.0061431280
  - # 5
    frequency:    1.7158579889
  - # 6
    frequency:    2.1664560002
  - # 7
    frequency:    2.3855608121
  - # 8
    frequency:    2.9650288797
  - # 9
    frequency:    3.1536980286
  - # 10
    frequency:    4.1411281618
  - # 11
    frequency:    6.6449903121
  - # 12
    frequency:    6.7959215850
  - # 13
    frequency:    6.8561157346
  - # 14
    frequency:    6.9339003285
  - # 15
    frequency:    7.1089872833
  - # 16
    frequency:    8.5033662978
  - # 17
    frequency:   10.4320092614
  - # 18
    frequency:   10.5210223050
  - # 19
    frequency:   12.5596979429
  - # 20
    frequency:   15.0790149909
  - # 21
    frequency:   15.2080637672
  - # 22
    frequency:   18.8237388219
  - # 23
    frequency:   59.0222024567
  - # 24
    frequency:   64.6486715556

- q-position: [    0.1111111,    0.0000000,    0.0000000 ]
  distance:    0.0377427
  band:
  - # 1
    frequency:   -1.9726579363
  - # 2
    frequency:   -1.9417235526
  - # 3
    frequency:    0.6943177354
  - # 4
    frequency:    1.0532156604
  - # 5
    frequency:    1.7786221565
  - # 6
    frequency:    2.1797189600
  - # 7
    frequency:    2.4178807744
  - # 8
    frequency:    2.9653803104
  - # 9
    frequency:    3.1682126785
  - # 10
    frequency:    4.1385802038
  - # 11
    frequency:    6.6475946119
  - # 12
    frequency:    6.8083713722
  - # 13
    frequency:    6.8562192249
  - # 14
    frequency:    6.9285615476
  - # 15
    frequency:    7.1256597782
  - # 16
    frequency:    8.4989593362
  - # 17
    frequency:   10.4305982899
  - # 18
    frequency:   10.5286423590
  - # 19
    frequency:   12.5499659136
  - # 20
    frequency:   15.0756878992
  - # 21
    frequency:   15.2168525298
  - # 22
    frequency:   18.8188366130
  - # 23
    frequency:   59.0095276668
  - # 24
    frequency:   64.6452782514

- q-position: [    0.1161616,    0.0000000,    0.0000000 ]
  distance:    0.0394583
  band:
  - # 1
    frequency:   -1.9915661538
  - # 2
    frequency:   -1.9580561297
  - # 3
    frequency:    0.7457481824
  - # 4
    frequency:    1.1000721819
  - # 5
    frequency:    1.8384381588
  - # 6
    frequency:    2.1933258272
  - # 7
    frequency:    2.4513243103
  - # 8
    frequency:    2.9662579227
  - # 9
    frequency:    3.1829866945
  - # 10
    frequency:    4.1366898293
  - # 11
    frequency:    6.6502450459
  - # 12
    frequency:    6.8189446166
  - # 13
    frequency:    6.8563244105
  - # 14
    frequency:    6.9243828118
  - # 15
    frequency:    7.1437069571
  - # 16
    frequency:    8.4945546339
  - # 17
    frequency:   10.4292064345
  - # 18
    frequency:   10.5367265307
  - # 19
    frequency:   12.5399299816
  - # 20
    frequency:   15.0718602918
  - # 21
    frequency:   15.2256044314
  - # 22
    frequency:   18.8137740836
  - # 23
    frequency:   58.9965330765
  - # 24
    frequency:   64.6417792467

- q-position: [    0.1212121,    0.0000000,    0.0000000 ]
  distance:    0.0411739
  band:
  - # 1
    frequency:   -2.0110315423
  - # 2
    frequency:   -1.9747967816
  - # 3
    frequency:    0.7977384897
  - # 4
    frequency:    1.1466835680
  - # 5
    frequency:    1.8951745558
  - # 6
    frequency:    2.2072444725
  - # 7
    frequency:    2.4858618843
  - # 8
    frequency:    2.9677418045
  - # 9
    frequency:    3.1979761995
  - # 10
    frequency:    4.1355468198
  - # 11
    frequency:    6.6529336067
  - # 12
    frequency:    6.8263251037
  - # 13
    frequency:    6.8564330023
  - # 14
    frequency:    6.9228580515
  - # 15
    frequency:    7.1628997413
  - # 16
    frequency:    8.4901669625
  - # 17
    frequency:   10.4278422269
  - # 18
    frequency:   10.5452774888
  - # 19
    frequency:   12.5296188335
  - # 20
    frequency:   15.0674987697
  - # 21
    frequency:   15.2342696541
  - # 22
    frequency:   18.8085597610
  - # 23
    frequency:   58.9832508332
  - # 24
    frequency:   64.6381808760

- q-position: [    0.1262626,    0.0000000,    0.0000000 ]
  distance:    0.0428894
  band:
  - # 1
    frequency:   -2.0310149268
  - # 2
    frequency:   -1.9918973205
  - # 3
    frequency:    0.8501746258
  - # 4
    frequency:    1.1930190679
  - # 5
    frequency:    1.9487310468
  - # 6
    frequency:    2.2214428130
  - # 7
    frequency:    2.5214440302
  - # 8
    frequency:    2.9699084208
  - # 9
    frequency:    3.2131376345
  - # 10
    frequency:    4.1352402455
  - # 11
    frequency:    6.6556523773
  - # 12
    frequency:    6.8291876886
  - # 13
    frequency:    6.8565471757
  - # 14
    frequency:    6.9254328550
  - # 15
    frequency:    7.1830661845
  - # 16
    frequency:    8.4858097173
  - # 17
    frequency:   10.4265140314
  - # 18
    frequency:   10.5542961233
  - # 19
    frequency:   12.5190633212
  - # 20
    frequency:   15.0625710685
  - # 21
    frequency:   15.2427982920
  - # 22
    frequency:   18.8032024230
  - # 23
    frequency:   58.9697135443
  - # 24
    frequency:   64.6344895939

- q-position: [    0.1313131,    0.0000000,    0.0000000 ]
  distance:    0.0446050
  band:
  - # 1
    frequency:   -2.0514760036
  - # 2
    frequency:   -2.0093091235
  - # 3
    frequency:    0.9029487548
  - # 4
    frequency:    1.2390463945
  - # 5
    frequency:    1.9990467673
  - # 6
    frequency:    2.2358890247
  - # 7
    frequency:    2.5579950810
  - # 8
    frequency:    2.9728285195
  - # 9
    frequency:    3.2284279280
  - # 10
    frequency:    4.1358571437
  - # 11
    frequency:    6.6583935827
  - # 12
    frequency:    6.8271273309
  - # 13
    frequency:    6.8566695900
  - # 14
    frequency:    6.9325944432
  - # 15
    frequency:    7.2040726697
  - # 16
    frequency:    8.4814948873
  - # 17
    frequency:   10.4252300045
  - # 18
    frequency:   10.5637814859
  - # 19
    frequency:   12.5082963666
  - # 20
    frequency:   15.0570462756
  - # 21
    frequency:   15.2511405498
  - # 22
    frequency:   18.7977110868
  - # 23
    frequency:   58.9559541679
  - # 24
    frequency:   64.6307119577

- q-position: [    0.1363636,    0.0000000,    0.0000000 ]
  distance:    0.0463206
  band:
  - # 1
    frequency:   -2.0723735675
  - # 2
    frequency:   -2.0269834662
  - # 3
    frequency:    0.9559590368
  - # 4
    frequency:    1.2847318192
  - # 5
    frequency:    2.0461066753
  - # 6
    frequency:    2.2505517520
  - # 7