nqpoint: 300    
npath: 3      
segment_nqpoint:
- 100
- 100
- 100
labels:
- [ 'G', 'M' ]
- [ 'M', 'K' ]
- [ 'K', 'G' ]
reciprocal_lattice:
- [   0.32001007,   0.18475790,   0.00000000 ] # a*
- [   0.00000000,   0.36951580,   0.00000000 ] # b*
- [   0.00000000,   0.00000000,   0.03601654 ] # c*
natom: 8      
lattice:
- [     3.124901662921065,     0.000000000000000,     0.000000000000000 ] # a
- [    -1.562450831460532,     2.706244224416735,     0.000000000000000 ] # b
- [     0.000000000000000,     0.000000000000000,    27.765018326158721 ] # c
points:
- symbol: C # 1
  coordinates: [  0.666666984744047,  0.333332985985145,  0.366935444128011 ]
  mass: 12.010700
- symbol: N # 2
  coordinates: [  0.000000000000000,  0.000000000000000,  0.489051321423001 ]
  mass: 14.006700
- symbol: N # 3
  coordinates: [  0.333332985432215,  0.666666983183674,  0.603950386250213 ]
  mass: 14.006700
- symbol: N # 4
  coordinates: [  0.666666984744047,  0.333332985985145,  0.324148894636986 ]
  mass: 14.006700
- symbol: O # 5
  coordinates: [  0.333332985432215,  0.666666983183674,  0.675851105363014 ]
  mass: 15.999400
- symbol: O # 6
  coordinates: [  0.666666984744047,  0.333332985985145,  0.414887376149975 ]
  mass: 15.999400
- symbol: Ti # 7
  coordinates: [  0.333332985432215,  0.666666983183674,  0.464796277814585 ]
  mass: 47.867000
- symbol: Ti # 8
  coordinates: [  0.666666984744047,  0.333332985985145,  0.635068246678934 ]
  mass: 47.867000

phonon:
- q-position: [    0.0000000,    0.0000000,    0.0000000 ]
  distance:    0.0000000
  band:
  - # 1
    frequency:  -14.3808302093
  - # 2
    frequency:  -14.3808302093
  - # 3
    frequency:   -0.0690213402
  - # 4
    frequency:   -0.0690213402
  - # 5
    frequency:   -0.0000021843
  - # 6
    frequency:    0.0000001222
  - # 7
    frequency:    0.0000019480
  - # 8
    frequency:    0.3189221098
  - # 9
    frequency:    0.3189221098
  - # 10
    frequency:    0.4765294455
  - # 11
    frequency:    4.9788345232
  - # 12
    frequency:    4.9788345232
  - # 13
    frequency:    9.7949853566
  - # 14
    frequency:   13.0608806661
  - # 15
    frequency:   13.7085547437
  - # 16
    frequency:   13.7085547437
  - # 17
    frequency:   14.4847417109
  - # 18
    frequency:   14.4847417109
  - # 19
    frequency:   15.7843861830
  - # 20
    frequency:   15.7843861830
  - # 21
    frequency:   16.3878747632
  - # 22
    frequency:   18.5678288099
  - # 23
    frequency:   32.2604355031
  - # 24
    frequency:   67.5402699894

- q-position: [    0.0050505,    0.0000000,    0.0000000 ]
  distance:    0.0018662
  band:
  - # 1
    frequency:  -14.3812829157
  - # 2
    frequency:  -14.3812614275
  - # 3
    frequency:   -0.0834868811
  - # 4
    frequency:   -0.0413918611
  - # 5
    frequency:    0.0516436782
  - # 6
    frequency:    0.1041705946
  - # 7
    frequency:    0.1576344267
  - # 8
    frequency:    0.3293708171
  - # 9
    frequency:    0.3524182892
  - # 10
    frequency:    0.4797049726
  - # 11
    frequency:    4.9793612746
  - # 12
    frequency:    4.9835155075
  - # 13
    frequency:    9.7943507864
  - # 14
    frequency:   13.0591104930
  - # 15
    frequency:   13.7086427890
  - # 16
    frequency:   13.7089351669
  - # 17
    frequency:   14.4805376522
  - # 18
    frequency:   14.4841742814
  - # 19
    frequency:   15.7843554670
  - # 20
    frequency:   15.7917468734
  - # 21
    frequency:   16.3872667200
  - # 22
    frequency:   18.5692103063
  - # 23
    frequency:   32.2600483729
  - # 24
    frequency:   67.5400854563

- q-position: [    0.0101010,    0.0000000,    0.0000000 ]
  distance:    0.0037325
  band:
  - # 1
    frequency:  -14.3826403255
  - # 2
    frequency:  -14.3825449719
  - # 3
    frequency:   -0.0636102469
  - # 4
    frequency:   -0.0578379524
  - # 5
    frequency:    0.1798611688
  - # 6
    frequency:    0.1846789592
  - # 7
    frequency:    0.3002433670
  - # 8
    frequency:    0.3585855024
  - # 9
    frequency:    0.4292089859
  - # 10
    frequency:    0.4948938230
  - # 11
    frequency:    4.9809375823
  - # 12
    frequency:    4.9974801239
  - # 13
    frequency:    9.7924482575
  - # 14
    frequency:   13.0537891211
  - # 15
    frequency:   13.7089068329
  - # 16
    frequency:   13.7100756519
  - # 17
    frequency:   14.4679520178
  - # 18
    frequency:   14.4824723887
  - # 19
    frequency:   15.7842587849
  - # 20
    frequency:   15.8137568667
  - # 21
    frequency:   16.3854799546
  - # 22
    frequency:   18.5733411001
  - # 23
    frequency:   32.2588882971
  - # 24
    frequency:   67.5395322184

- q-position: [    0.0151515,    0.0000000,    0.0000000 ]
  distance:    0.0055987
  band:
  - # 1
    frequency:  -14.3849002829
  - # 2
    frequency:  -14.3846505913
  - # 3
    frequency:   -0.0542858764
  - # 4
    frequency:    0.0703200415
  - # 5
    frequency:    0.2632780804
  - # 6
    frequency:    0.2891613678
  - # 7
    frequency:    0.4019645233
  - # 8
    frequency:    0.4241163182
  - # 9
    frequency:    0.5003788470
  - # 10
    frequency:    0.5633197499
  - # 11
    frequency:    4.9835516798
  - # 12
    frequency:    5.0204975754
  - # 13
    frequency:    9.7892813057
  - # 14
    frequency:   13.0448829058
  - # 15
    frequency:   13.7093465978
  - # 16
    frequency:   13.7119738564
  - # 17
    frequency:   14.4470684139
  - # 18
    frequency:   14.4796372202
  - # 19
    frequency:   15.7840825912
  - # 20
    frequency:   15.8501821135
  - # 21
    frequency:   16.3826411282
  - # 22
    frequency:   18.5801808616
  - # 23
    frequency:   32.2569592121
  - # 24
    frequency:   67.5386113581

- q-position: [    0.0202020,    0.0000000,    0.0000000 ]
  distance:    0.0074650
  band:
  - # 1
    frequency:  -14.3880591020
  - # 2
    frequency:  -14.3875281312
  - # 3
    frequency:   -0.0311117164
  - # 4
    frequency:    0.1408313357
  - # 5
    frequency:    0.3420477083
  - # 6
    frequency:    0.3946757851
  - # 7
    frequency:    0.4551984761
  - # 8
    frequency:    0.4717424562
  - # 9
    frequency:    0.6170805610
  - # 10
    frequency:    0.6792297731
  - # 11
    frequency:    4.9871841994
  - # 12
    frequency:    5.0521968002
  - # 13
    frequency:    9.7848557984
  - # 14
    frequency:   13.0323322347
  - # 15
    frequency:   13.7099616207
  - # 16
    frequency:   13.7146259134
  - # 17
    frequency:   14.4180376988
  - # 18
    frequency:   14.4756707560
  - # 19
    frequency:   15.7838045024
  - # 20
    frequency:   15.9005625063
  - # 21
    frequency:   16.3790222872
  - # 22
    frequency:   18.5896648422
  - # 23
    frequency:   32.2542676497
  - # 24
    frequency:   67.5373246751

- q-position: [    0.0252525,    0.0000000,    0.0000000 ]
  distance:    0.0093312
  band:
  - # 1
    frequency:  -14.3921114321
  - # 2
    frequency:  -14.3911079255
  - # 3
    frequency:    0.0410382417
  - # 4
    frequency:    0.2014238607
  - # 5
    frequency:    0.4210003591
  - # 6
    frequency:    0.4866410472
  - # 7
    frequency:    0.5045196632
  - # 8
    frequency:    0.5153205414
  - # 9
    frequency:    0.7589895622
  - # 10
    frequency:    0.8075483057
  - # 11
    frequency:    4.9918085271
  - # 12
    frequency:    5.0920853938
  - # 13
    frequency:    9.7791798960
  - # 14
    frequency:   13.0160465007
  - # 15
    frequency:   13.7107512512
  - # 16
    frequency:   13.7180264782
  - # 17
    frequency:   14.3810903381
  - # 18
    frequency:   14.4705757698
  - # 19
    frequency:   15.7833935811
  - # 20
    frequency:   15.9640501010
  - # 21
    frequency:   16.3751938891
  - # 22
    frequency:   18.6017074029
  - # 23
    frequency:   32.2508226949
  - # 24
    frequency:   67.5356746803

- q-position: [    0.0303030,    0.0000000,    0.0000000 ]
  distance:    0.0111974
  band:
  - # 1
    frequency:  -14.3970500804
  - # 2
    frequency:  -14.3953013369
  - # 3
    frequency:    0.0654566039
  - # 4
    frequency:    0.2590423292
  - # 5
    frequency:    0.4998755634
  - # 6
    frequency:    0.5105457225
  - # 7
    frequency:    0.5805215271
  - # 8
    frequency:    0.6039892740
  - # 9
    frequency:    0.9023897023
  - # 10
    frequency:    0.9425833658
  - # 11
    frequency:    4.9973912818
  - # 12
    frequency:    5.1395734097
  - # 13
    frequency:    9.7722640016
  - # 14
    frequency:   12.9958975679
  - # 15
    frequency:   13.7117146498
  - # 16
    frequency:   13.7221687812
  - # 17
    frequency:   14.3365471814
  - # 18
    frequency:   14.4643558304
  - # 19
    frequency:   15.7828107287
  - # 20
    frequency:   16.0389576746
  - # 21
    frequency:   16.3724704163
  - # 22
    frequency:   18.6162066488
  - # 23
    frequency:   32.2466359265
  - # 24
    frequency:   67.5336645870

- q-position: [    0.0353535,    0.0000000,    0.0000000 ]
  distance:    0.0130637
  band:
  - # 1
    frequency:  -14.4028657982
  - # 2
    frequency:  -14.4000014378
  - # 3
    frequency:    0.0800226764
  - # 4
    frequency:    0.3151702334
  - # 5
    frequency:    0.5335026914
  - # 6
    frequency:    0.5784525031
  - # 7
    frequency:    0.6497029317
  - # 8
    frequency:    0.7064165271
  - # 9
    frequency:    1.0436336739
  - # 10
    frequency:    1.0829408717
  - # 11
    frequency:    5.0038929022
  - # 12
    frequency:    5.1939998907
  - # 13
    frequency:    9.7641207004
  - # 14
    frequency:   12.9717121559
  - # 15
    frequency:   13.7128507859
  - # 16
    frequency:   13.7270446742
  - # 17
    frequency:   14.2848269223
  - # 18
    frequency:   14.4570153030
  - # 19
    frequency:   15.7820091789
  - # 20
    frequency:   16.1212568502
  - # 21
    frequency:   16.3744109581
  - # 22
    frequency:   18.6330499516
  - # 23
    frequency:   32.2417213419
  - # 24
    frequency:   67.5312982994

- q-position: [    0.0404040,    0.0000000,    0.0000000 ]
  distance:    0.0149299
  band:
  - # 1
    frequency:  -14.4095470442
  - # 2
    frequency:  -14.4050838226
  - # 3
    frequency:    0.0889957074
  - # 4
    frequency:    0.3703170818
  - # 5
    frequency:    0.5594470259
  - # 6
    frequency:    0.6566404243
  - # 7
    frequency:    0.7221145558
  - # 8
    frequency:    0.8084186497
  - # 9
    frequency:    1.1821538909
  - # 10
    frequency:    1.2272212700
  - # 11
    frequency:    5.0112683218
  - # 12
    frequency:    5.2546599949
  - # 13
    frequency:    9.7547646920
  - # 14
    frequency:   12.9432636797
  - # 15
    frequency:   13.7141584356
  - # 16
    frequency:   13.7326446517
  - # 17
    frequency:   14.2264504669
  - # 18
    frequency:   14.4485593506
  - # 19
    frequency:   15.7809350859
  - # 20
    frequency:   16.1993296288
  - # 21
    frequency:   16.3920704072
  - # 22
    frequency:   18.6521201887
  - # 23
    frequency:   32.2360952658
  - # 24
    frequency:   67.5285803998

- q-position: [    0.0454545,    0.0000000,    0.0000000 ]
  distance:    0.0167962
  band:
  - # 1
    frequency:  -14.4170797345
  - # 2
    frequency:  -14.4104075386
  - # 3
    frequency:    0.0947711219
  - # 4
    frequency:    0.4246995967
  - # 5
    frequency:    0.5882910472
  - # 6
    frequency:    0.7345104322
  - # 7
    frequency:    0.7971314593
  - # 8
    frequency:    0.9098952020
  - # 9
    frequency:    1.3185737652
  - # 10
    frequency:    1.3736527761
  - # 11
    frequency:    5.0194677115
  - # 12
    frequency:    5.3208308417
  - # 13
    frequency:    9.7442127167
  - # 14
    frequency:   12.9102643201
  - # 15
    frequency:   13.7156361788
  - # 16
    frequency:   13.7389578130
  - # 17
    frequency:   14.1620432276
  - # 18
    frequency:   14.4389939347
  - # 19
    frequency:   15.7795281969
  - # 20
    frequency:   16.2482285132
  - # 21
    frequency:   16.4497444230
  - # 22
    frequency:   18.6733026371
  - # 23
    frequency:   32.2297762450
  - # 24
    frequency:   67.5255161317

- q-position: [    0.0505051,    0.0000000,    0.0000000 ]
  distance:    0.0186624
  band:
  - # 1
    frequency:  -14.4254469908
  - # 2
    frequency:  -14.4158161239
  - # 3
    frequency:    0.0996418105
  - # 4
    frequency:    0.4784254705
  - # 5
    frequency:    0.6195968301
  - # 6
    frequency:    0.8122633509
  - # 7
    frequency:    0.8741705581
  - # 8
    frequency:    1.0108313345
  - # 9
    frequency:    1.4533446528
  - # 10
    frequency:    1.5209606244
  - # 11
    frequency:    5.0284372675
  - # 12
    frequency:    5.3917946350
  - # 13
    frequency:    9.7324834802
  - # 14
    frequency:   12.8723585761
  - # 15
    frequency:   13.7172823975
  - # 16
    frequency:   13.7459716621
  - # 17
    frequency:   14.0923359235
  - # 18
    frequency:   14.4283258151
  - # 19
    frequency:   15.7777226012
  - # 20
    frequency:   16.2615683314
  - # 21
    frequency:   16.5530832115
  - # 22
    frequency:   18.6964926453
  - # 23
    frequency:   32.2227849278
  - # 24
    frequency:   67.5221113828

- q-position: [    0.0555556,    0.0000000,    0.0000000 ]
  distance:    0.0205287
  band:
  - # 1
    frequency:  -14.4346289004
  - # 2
    frequency:  -14.4211387391
  - # 3
    frequency:    0.1059153131
  - # 4
    frequency:    0.5315560493
  - # 5
    frequency:    0.6528561053
  - # 6
    frequency:    0.8901478865
  - # 7
    frequency:    0.9527046610
  - # 8
    frequency:    1.1112177793
  - # 9
    frequency:    1.5865054849
  - # 10
    frequency:    1.6684317599
  - # 11
    frequency:    5.0381200239
  - # 12
    frequency:    5.4668581166
  - # 13
    frequency:    9.7195975771
  - # 14
    frequency:   12.8291203216
  - # 15
    frequency:   13.7190952737
  - # 16
    frequency:   13.7536713737
  - # 17
    frequency:   14.0181634165
  - # 18
    frequency:   14.4165625485
  - # 19
    frequency:   15.7754475429
  - # 20
    frequency:   16.2577327891
  - # 21
    frequency:   16.6828894813
  - # 22
    frequency:   18.7216044715
  - # 23
    frequency:   32.2151439311
  - # 24
    frequency:   67.5183726643

- q-position: [    0.0606061,    0.0000000,    0.0000000 ]
  distance:    0.0223949
  band:
  - # 1
    frequency:  -14.4446022953
  - # 2
    frequency:  -14.4261913760
  - # 3
    frequency:    0.1156026183
  - # 4
    frequency:    0.5841307263
  - # 5
    frequency:    0.6875943950
  - # 6
    frequency:    0.9683842536
  - # 7
    frequency:    1.0322987460
  - # 8
    frequency:    1.2110424462
  - # 9
    frequency:    1.7178592974
  - # 10
    frequency:    1.8156575600
  - # 11
    frequency:    5.0484566707
  - # 12
    frequency:    5.5453678903
  - # 13
    frequency:    9.7055774161
  - # 14
    frequency:   12.7800564440
  - # 15
    frequency:   13.7210727878
  - # 16
    frequency:   13.7620366417
  - # 17
    frequency:   13.9404609771
  - # 18
    frequency:   14.4037124862
  - # 19
    frequency:   15.7726282878
  - # 20
    frequency:   16.2467863401
  - # 21
    frequency:   16.8282085328
  - # 22
    frequency:   18.7485820834
  - # 23
    frequency:   32.2068776948
  - # 24
    frequency:   67.5143070887

- q-position: [    0.0656566,    0.0000000,    0.0000000 ]
  distance:    0.0242611
  band:
  - # 1
    frequency:  -14.4553405624
  - # 2
    frequency:  -14.4307781318
  - # 3
    frequency:    0.1299976294
  - # 4
    frequency:    0.6361773145
  - # 5
    frequency:    0.7234105812
  - # 6
    frequency:    1.0471281468
  - # 7
    frequency:    1.1126218192
  - # 8
    frequency:    1.3102899516
  - # 9
    frequency:    1.8470917491
  - # 10
    frequency:    1.9623716834
  - # 11
    frequency:    5.0593863588
  - # 12
    frequency:    5.6267215629
  - # 13
    frequency:    9.6904471480
  - # 14
    frequency:   12.7246211954
  - # 15
    frequency:   13.7232127178
  - # 16
    frequency:   13.7710188063
  - # 17
    frequency:   13.8602713130
  - # 18
    frequency:   14.3897847693
  - # 19
    frequency:   15.7691870316
  - # 20
    frequency:   16.2321622409
  - # 21
    frequency:   16.9846379297
  - # 22
    frequency:   18.7774133395
  - # 23
    frequency:   32.1980123255
  - # 24
    frequency:   67.5099223460

- q-position: [    0.0707071,    0.0000000,    0.0000000 ]
  distance:    0.0261274
  band:
  - # 1
    frequency:  -14.4668134916
  - # 2
    frequency:  -14.4346925310
  - # 3
    frequency:    0.1495223319
  - # 4
    frequency:    0.6877167789
  - # 5
    frequency:    0.7599852224
  - # 6
    frequency:    1.1264687608
  - # 7
    frequency:    1.1934340304
  - # 8
    frequency:    1.4089422211
  - # 9
    frequency:    1.9738185172
  - # 10
    frequency:    2.1083758418
  - # 11
    frequency:    5.0708474800
  - # 12
    frequency:    5.7103749647
  - # 13
    frequency:    9.6742325982
  - # 14
    frequency:   12.6622457802
  - # 15
    frequency:   13.7255126387
  - # 16
    frequency:   13.7759639147
  - # 17
    frequency:   13.7832921029
  - # 18
    frequency:   14.3747893227
  - # 19
    frequency:   15.7650438387
  - # 20
    frequency:   16.2151915495
  - # 21
    frequency:   17.1497894902
  - # 22
    frequency:   18.8081500000
  - # 23
    frequency:   32.1885754296
  - # 24
    frequency:   67.5052266779

- q-position: [    0.0757576,    0.0000000,    0.0000000 ]
  distance:    0.0279936
  band:
  - # 1
    frequency:  -14.4789871674
  - # 2
    frequency:  -14.4377188828
  - # 3
    frequency:    0.1739517323
  - # 4
    frequency:    0.7387655410
  - # 5
    frequency:    0.7970751174
  - # 6
    frequency:    1.2064413419
  - # 7
    frequency:    1.2745648441
  - # 8
    frequency:    1.5069791008
  - # 9
    frequency:    2.0975996576
  - # 10
    frequency:    2.2535067529
  - # 11
    frequency:    5.0827784072
  - # 12
    frequency:    5.7958459122
  - # 13
    frequency:    9.6569612053
  - # 14
    frequency:   12.5923863641
  - # 15
    frequency:   13.6961418553
  - # 16
    frequency:   13.7279699230
  - # 17
    frequency:   13.7913005437
  - # 18
    frequency:   14.3587368463
  - # 19
    frequency:   15.7601175984
  - # 20
    frequency:   16.1965048857
  - # 21
    frequency:   17.3218675981
  - # 22
    frequency:   18.8409377756
  - # 23
    frequency:   32.1785959385
  - # 24
    frequency:   67.5002288501

- q-position: [    0.0808081,    0.0000000,    0.0000000 ]
  distance:    0.0298599
  band:
  - # 1
    frequency:  -14.4918239105
  - # 2
    frequency:  -14.4396336580
  - # 3
    frequency:    0.2027677330
  - # 4
    frequency:    0.7893366836
  - # 5
    frequency:    0.8345032777
  - # 6
    frequency:    1.2870415947
  - # 7
    frequency:    1.3558928006
  - # 8
    frequency:    1.6043788317
  - # 9
    frequency:    2.2179402303
  - # 10
    frequency:    2.3976207759
  - # 11
    frequency:    5.0951181907
  - # 12
    frequency:    5.8827150840
  - # 13
    frequency:    9.6386619675
  - # 14
    frequency:   12.5145895599
  - # 15
    frequency:   13.6146587921
  - # 16
    frequency:   13.7305817422
  - # 17
    frequency:   13.8021784475
  - # 18
    frequency:   14.3416388041
  - # 19
    frequency:   15.7543269898
  - # 20
    frequency:   16.1764608290
  - # 21
    frequency:   17.4992026890
  - # 22
    frequency:   18.8760637214
  - # 23
    frequency:   32.1681039256
  - # 24
    frequency:   67.4949381239

- q-position: [    0.0858586,    0.0000000,    0.0000000 ]
  distance:    0.0317261
  band:
  - # 1
    frequency:  -14.5052822700
  - # 2
    frequency:  -14.4402068733
  - # 3
    frequency:    0.2354067164
  - # 4
    frequency:    0.8394406344
  - # 5
    frequency:    0.8721485086
  - # 6
    frequency:    1.3682373846
  - # 7
    frequency:    1.4373301655
  - # 8
    frequency:    1.7011184030
  - # 9
    frequency:    2.3342848532
  - # 10
    frequency:    2.5405863144
  - # 11
    frequency:    5.1078072019
  - # 12
    frequency:    5.9706246150
  - # 13
    frequency:    9.6193653999
  - # 14
    frequency:   12.4285676685
  - # 15
    frequency:   13.5346051350
  - # 16
    frequency:   13.7333450683
  - # 17
    frequency:   13.8136932139
  - # 18
    frequency:   14.3235074109
  - # 19
    frequency:   15.7475914405
  - # 20
    frequency:   16.1552977679
  - # 21
    frequency:   17.6800303817
  - # 22
    frequency:   18.9140337151
  - # 23
    frequency:   32.1571304185
  - # 24
    frequency:   67.4893642251

- q-position: [    0.0909091,    0.0000000,    0.0000000 ]
  distance:    0.0335923
  band:
  - # 1
    frequency:  -14.5193170700
  - # 2
    frequency:  -14.4392034702
  - # 3
    frequency:    0.2713666661
  - # 4
    frequency:    0.8890855948
  - # 5
    frequency:    0.9099361598
  - # 6
    frequency:    1.4499771889
  - # 7
    frequency:    1.5188122471
  - # 8
    frequency:    1.7971738211
  - # 9
    frequency:    2.4460090794
  - # 10
    frequency:    2.6822797864
  - # 11
    frequency:    5.1207877256
  - # 12
    frequency:    6.0592749837
  - # 13
    frequency:    9.5991035058
  - # 14
    frequency:   12.3342690511
  - # 15
    frequency:   13.4566921830
  - # 16
    frequency:   13.7362566772
  - # 17
    frequency:   13.8257960272
  - # 18
    frequency:   14.3043556166
  - # 19
    frequency:   15.7398320731
  - # 20
    frequency:   16.1331955552
  - # 21
    frequency:   17.8623081880
  - # 22
    frequency:   18.9557017381
  - # 23
    frequency:   32.1457072057
  - # 24
    frequency:   67.4835173136

- q-position: [    0.0959596,    0.0000000,    0.0000000 ]
  distance:    0.0354586
  band:
  - # 1
    frequency:  -14.5338795095
  - # 2
    frequency:  -14.4363846766
  - # 3
    frequency:    0.3102313288
  - # 4
    frequency:    0.9382778376
  - # 5
    frequency:    0.9478303626
  - # 6
    frequency:    1.5321959728
  - # 7
    frequency:    1.6002902164
  - # 8
    frequency:    1.8925203193
  - # 9
    frequency:    2.5524086301
  - # 10
    frequency:    2.8225833088
  - # 11
    frequency:    5.1340044987
  - # 12
    frequency:    6.1484207109
  - # 13
    frequency:    9.5779097678
  - # 14
    frequency:   12.2319265557
  - # 15
    frequency:   13.3813698301
  - # 16
    frequency:   13.7393131514
  - # 17
    frequency:   13.8384618387
  - # 18
    frequency:   14.2841970879
  - # 19
    frequency:   15.7309726264
  - # 20
    frequency:   16.1103033612
  - # 21
    frequency:   18.0434799091
  - # 22
    frequency:   19.0024844576
  - # 23
    frequency:   32.1338666417
  - # 24
    frequency:   67.4774079498

- q-position: [    0.1010101,    0.0000000,    0.0000000 ]
  distance:    0.0373248
  band:
  - # 1
    frequency:  -14.5489173142
  - # 2
    frequency:  -14.4315093412
  - # 3
    frequency:    0.3516615612
  - # 4
    frequency:    0.9858275654
  - # 5
    frequency:    0.9870219355
  - # 6
    frequency:    1.6148192793
  - # 7
    frequency:    1.6817263316
  - # 8
    frequency:    1.9871325274
  - # 9
    frequency:    2.6526867844
  - # 10
    frequency:    2.9613832451
  - # 11
    frequency:    5.1474051996
  - # 12
    frequency:    6.2378653022
  - # 13
    frequency:    9.5558191661
  - # 14
    frequency:   12.1220722117
  - # 15
    frequency:   13.3088388220
  - # 16
    frequency:   13.7425108846
  - # 17
    frequency:   13.8516692874
  - # 18
    frequency:   14.2630461883
  - # 19
    frequency:   15.7209403443
  - # 20
    frequency:   16.0867533166
  - # 21
    frequency:   18.2201338572
  - # 22
    frequency:   19.0566953803
  - # 23
    frequency:   32.1216414497
  - # 24
    frequency:   67.4710470623

- q-position: [    0.1060606,    0.0000000,    0.0000000 ]
  distance:    0.0391911
  band:
  - # 1
    frequency:  -14.5643749404
  - # 2
    frequency:  -14.4243352312
  - # 3
    frequency:    0.3953784862
  - # 4
    frequency:    1.0239510053
  - # 5
    frequency:    1.0353209496
  - # 6
    frequency:    1.6977661361
  - # 7
    frequency:    1.7630907488
  - # 8
    frequency:    2.0809846052
  - # 9
    frequency:    2.7459399406
  - # 10
    frequency:    3.0985692202
  - # 11
    frequency:    5.1609408915
  - # 12
    frequency:    6.3274557835
  - # 13
    frequency:    9.5328682370
  - # 14
    frequency:   12.0055177267
  - # 15
    frequency:   13.2390805710
  - # 16
    frequency:   13.7458460856
  - # 17
    frequency:   13.8653978197
  - # 18
    frequency:   14.2409179556
  - # 19
    frequency:   15.7096668237
  - # 20
    frequency:   16.0626675974
  - # 21
    frequency:   18.3875899064
  - # 22
    frequency:   19.1219559256
  - # 23
    frequency:   32.1090645264
  - # 24
    frequency:   67.4644459131

- q-position: [    0.1111111,    0.0000000,    0.0000000 ]
  distance:    0.0410573
  band:
  - # 1
    frequency:  -14.5801938253
  - # 2
    frequency:  -14.4146202851
  - # 3
    frequency:    0.4411473183
  - # 4
    frequency:    1.0622457215
  - # 5
    frequency:    1.0831765944
  - # 6
    frequency:    1.7809511902
  - # 7
    frequency:    1.8443593677
  - # 8
    frequency:    2.1740503420
  - # 9
    frequency:    2.8311412611
  - # 10
    frequency:    3.2340334160
  - # 11
    frequency:    5.1745664252
  - # 12
    frequency:    6.4170770882
  - # 13
    frequency:    9.5090951865
  - # 14
    frequency:   11.8833112724
  - # 15
    frequency:   13.1719087381
  - # 16
    frequency:   13.7493147820
  - # 17
    frequency:   13.8796270152
  - # 18
    frequency:   14.2178280787
  - # 19
    frequency:   15.6970888145
  - # 20
    frequency:   16.0381622486
  - # 21
    frequency:   18.5397956505
  - # 22
    frequency:   19.2032998646
  - # 23
    frequency:   32.0961687481
  - # 24
    frequency:   67.4576160631

- q-position: [    0.1161616,    0.0000000,    0.0000000 ]
  distance:    0.0429236
  band:
  - # 1
    frequency:  -14.5963126822
  - # 2
    frequency:  -14.4021238150
  - # 3
    frequency:    0.4887639526
  - # 4
    frequency:    1.1007737140
  - # 5
    frequency:    1.1305893859
  - # 6
    frequency:    1.8642863350
  - # 7
    frequency:    1.9255123452
  - # 8
    frequency:    2.2663032098
  - # 9
    frequency:    2.9071223064
  - # 10
    frequency:    3.3676700674
  - # 11
    frequency:    5.1882408070
  - # 12
    frequency:    6.5066464801
  - # 13
    frequency:    9.4845400860
  - # 14
    frequency:   11.7566857400
  - # 15
    frequency:   13.1070286555
  - # 16
    frequency:   13.7529128239
  - # 17
    frequency:   13.8943364083
  - # 18
    frequency:   14.1937928741
  - # 19
    frequency:   15.6831489652
  - # 20
    frequency:   16.0133492809
  - # 21
    frequency:   18.6705661029
  - # 22
    frequency:   19.3059351876
  - # 23
    frequency:   32.0829867815
  - # 24
    frequency:   67.4505693376

- q-position: [    0.1212121,    0.0000000,    0.0000000 ]
  distance:    0.0447898
  band:
  - # 1
    frequency:  -14.6126678359
  - # 2
    frequency:  -14.3866076500
  - # 3
    frequency:    0.5380440418
  - # 4
    frequency:    1.1396088271
  - # 5
    frequency:    1.1775587767
  - # 6
    frequency:    1.9476820056
  - # 7
    frequency:    2.0065330298
  - # 8
    frequency:    2.3577163434
  - # 9
    frequency:    2.9725525973
  - # 10
    frequency:    3.4993751264
  - # 11
    frequency:    5.2019275391
  - # 12
    frequency:    6.5961081261
  - # 13
    frequency:    9.4592451826
  - # 14
    frequency:   11.6270111508
  - # 15
    frequency:   13.0440915750
  - # 16
    frequency:   13.7566358848
  - # 17
    frequency:   13.9095054599
  - # 18
    frequency:   14.1688292623
  - # 19
    frequency:   15.6677965094
  - # 20
    frequency:   15.9883378053
  - # 21
    frequency:   18.7767011691
  - # 22
    frequency:   19.4321284480
  - # 23
    frequency:   32.0695509009
  - # 24
    frequency:   67.4433177902

- q-position: [    0.1262626,    0.0000000,    0.0000000 ]
  distance:    0.0466560
  band:
  - # 1
    frequency:  -14.6291935940
  - # 2
    frequency:  -14.3678372197
  - # 3
    frequency:    0.5888135688
  - # 4
    frequency:    1.1788308608
  - # 5
    frequency:    1.2240832813
  - # 6
    frequency:    2.0310482646
  - # 7
    frequency:    2.0874071430
  - # 8
    frequency:    2.4482623761
  - # 9
    frequency:    3.0259171112
  - # 10
    frequency:    3.6290460847
  - # 11
    frequency:    5.2155949364
  - # 12
    frequency:    6.6854278781
  - # 13
    frequency:    9.4332553731
  - # 14
    frequency:   11.4957576171
  - # 15
    frequency:   12.9827364761
  - # 16
    frequency:   13.7604794590
  - # 17
    frequency:   13.9251135823
  - # 18
    frequency:   14.1429547482
  - # 19
    frequency:   15.6509878880
  - # 20
    frequency:   15.9632346096
  - # 21
    frequency:   18.8601535286
  - # 22
    frequency:   19.5790385984
  - # 23
    frequency:   32.0558928128
  - # 24
    frequency:   67.4358736684

- q-position: [    0.1313131,    0.0000000,    0.0000000 ]
  distance:    0.0485223
  band:
  - # 1
    frequency:  -14.6458226488
  - # 2
    frequency:  -14.3455825711
  - # 3
    frequency:    0.6408996468
  - # 4
    frequency:    1.2185182077
  - # 5
    frequency:    1.2701605905
  - # 6
    frequency:    2.1142957763
  - # 7
    frequency:    2.1681220708
  - # 8
    frequency:    2.5379129516
  - # 9
    frequency:    3.0654918056
  - # 10
    frequency:    3.7565819551
  - # 11
    frequency:    5.2292164283
  - # 12
    frequency:    6.7745882754
  - # 13
    frequency:    9.4066189036
  - # 14
    frequency:   11.3644691331
  - # 15
    frequency:   12.9226178825
  - # 16
    frequency:   13.7644388523
  - # 17
    frequency:   13.9411401878
  - # 18
    frequency:   14.1161874070
  - # 19
    frequency:   15.6326873041
  - # 20
    frequency:   15.9381444008
  - # 21
    frequency:   18.9261722367
  - # 22
    frequency:   19.7405748438
  - # 23
    frequency:   32.0420434910
  - # 24
    frequency:   67.4282493779

- q-position: [    0.1363636,    0.0000000,    0.0000000 ]
  distance:    0.0503885
  band:
  - # 1
    frequency:  -14.6624865057
  - # 2
    frequency:  -14.3196193183
  - # 3
    frequency:    0.6941199044
  - # 4
    frequency:    1.2587378969
  - # 5
    frequency:    1.3157876777
  - # 6
    frequency:    2.1973367572
  - # 7