nqpoint: 300    
npath: 3      
segment_nqpoint:
- 100
- 100
- 100
labels:
- [ 'G', 'M' ]
- [ 'M', 'K' ]
- [ 'K', 'G' ]
reciprocal_lattice:
- [   0.29072034,   0.16784746,   0.00000000 ] # a*
- [   0.00000000,   0.33569493,   0.00000000 ] # b*
- [   0.00000000,   0.00000000,   0.03844646 ] # c*
natom: 7      
lattice:
- [     3.439731854410563,     0.000000000000000,     0.000000000000000 ] # a
- [    -1.719865927205282,     2.978895168115014,     0.000000000000000 ] # b
- [     0.000000000000000,     0.000000000000000,    26.010199692760182 ] # c
points:
- symbol: C # 1
  coordinates: [  0.000000000000000,  0.000000000000000,  0.430288783235594 ]
  mass: 12.010700
- symbol: C # 2
  coordinates: [  0.333332985432215,  0.666666983183674,  0.608203099968800 ]
  mass: 12.010700
- symbol: H # 3
  coordinates: [  0.666666984744047,  0.333332985985145,  0.346018104678570 ]
  mass: 1.007940
- symbol: N # 4
  coordinates: [  0.333332985432215,  0.666666983183674,  0.653981895321430 ]
  mass: 14.006700
- symbol: S # 5
  coordinates: [  0.333332985432215,  0.666666983183674,  0.543703775088974 ]
  mass: 32.065000
- symbol: Zr # 6
  coordinates: [  0.333332985432215,  0.666666983183674,  0.383414746709698 ]
  mass: 91.224000
- symbol: Zr # 7
  coordinates: [  0.666666984744047,  0.333332985985145,  0.478139449616803 ]
  mass: 91.224000

phonon:
- q-position: [    0.0000000,    0.0000000,    0.0000000 ]
  distance:    0.0000000
  band:
  - # 1
    frequency:   -0.5261608609
  - # 2
    frequency:   -0.5261608608
  - # 3
    frequency:   -0.0000183770
  - # 4
    frequency:   -0.0000003629
  - # 5
    frequency:    0.0000190608
  - # 6
    frequency:    4.1179026027
  - # 7
    frequency:    4.1179026027
  - # 8
    frequency:    5.5197022601
  - # 9
    frequency:    6.8987450801
  - # 10
    frequency:    6.8987450801
  - # 11
    frequency:    7.6023419006
  - # 12
    frequency:   10.8897002263
  - # 13
    frequency:   10.8897002263
  - # 14
    frequency:   14.3978881305
  - # 15
    frequency:   16.4219649081
  - # 16
    frequency:   16.4219649082
  - # 17
    frequency:   20.2936738665
  - # 18
    frequency:   26.4386601885
  - # 19
    frequency:   27.1683465282
  - # 20
    frequency:   27.1683465283
  - # 21
    frequency:   64.8612030231

- q-position: [    0.0050505,    0.0000000,    0.0000000 ]
  distance:    0.0016954
  band:
  - # 1
    frequency:   -0.5255959568
  - # 2
    frequency:   -0.5238661216
  - # 3
    frequency:    0.0023536344
  - # 4
    frequency:    0.0681912625
  - # 5
    frequency:    0.1017681311
  - # 6
    frequency:    4.1181867879
  - # 7
    frequency:    4.1192917962
  - # 8
    frequency:    5.5193630497
  - # 9
    frequency:    6.8986611514
  - # 10
    frequency:    6.8992991167
  - # 11
    frequency:    7.6027546781
  - # 12
    frequency:   10.8894392450
  - # 13
    frequency:   10.8895851873
  - # 14
    frequency:   14.3976929510
  - # 15
    frequency:   16.4218074965
  - # 16
    frequency:   16.4221715444
  - # 17
    frequency:   20.2935955104
  - # 18
    frequency:   26.4376358982
  - # 19
    frequency:   27.1681433713
  - # 20
    frequency:   27.1688350314
  - # 21
    frequency:   64.8611374224

- q-position: [    0.0101010,    0.0000000,    0.0000000 ]
  distance:    0.0033909
  band:
  - # 1
    frequency:   -0.5237491096
  - # 2
    frequency:   -0.5166104354
  - # 3
    frequency:    0.0094558994
  - # 4
    frequency:    0.1358187472
  - # 5
    frequency:    0.2026603902
  - # 6
    frequency:    4.1190391304
  - # 7
    frequency:    4.1234485121
  - # 8
    frequency:    5.5183519553
  - # 9
    frequency:    6.8984096823
  - # 10
    frequency:    6.9009555570
  - # 11
    frequency:    7.6039915886
  - # 12
    frequency:   10.8886574330
  - # 13
    frequency:   10.8892409036
  - # 14
    frequency:   14.3971088636
  - # 15
    frequency:   16.4213358016
  - # 16
    frequency:   16.4227891131
  - # 17
    frequency:   20.2933607691
  - # 18
    frequency:   26.4345723956
  - # 19
    frequency:   27.1675341496
  - # 20
    frequency:   27.1702931006
  - # 21
    frequency:   64.8609407013

- q-position: [    0.0151515,    0.0000000,    0.0000000 ]
  distance:    0.0050863
  band:
  - # 1
    frequency:   -0.5202150731
  - # 2
    frequency:   -0.5034595904
  - # 3
    frequency:    0.0214488373
  - # 4
    frequency:    0.2024566369
  - # 5
    frequency:    0.3021669727
  - # 6
    frequency:    4.1204589876
  - # 7
    frequency:    4.1303403821
  - # 8
    frequency:    5.5166884748
  - # 9
    frequency:    6.8979916258
  - # 10
    frequency:    6.9036975494
  - # 11
    frequency:    7.6060483551
  - # 12
    frequency:   10.8873581796
  - # 13
    frequency:   10.8886698693
  - # 14
    frequency:   14.3961402004
  - # 15
    frequency:   16.4205514429
  - # 16
    frequency:   16.4238106256
  - # 17
    frequency:   20.2929706206
  - # 18
    frequency:   26.4294972968
  - # 19
    frequency:   27.1665196104
  - # 20
    frequency:   27.1726988958
  - # 21
    frequency:   64.8606131036

- q-position: [    0.0202020,    0.0000000,    0.0000000 ]
  distance:    0.0067817
  band:
  - # 1
    frequency:   -0.5144474635
  - # 2
    frequency:   -0.4832316960
  - # 3
    frequency:    0.0386287441
  - # 4
    frequency:    0.2678794807
  - # 5
    frequency:    0.4001991921
  - # 6
    frequency:    4.1224452733
  - # 7
    frequency:    4.1399141964
  - # 8
    frequency:    5.5144047402
  - # 9
    frequency:    6.8974085755
  - # 10
    frequency:    6.9074975200
  - # 11
    frequency:    7.6089178171
  - # 12
    frequency:   10.8855471135
  - # 13
    frequency:   10.8878762230
  - # 14
    frequency:   14.3947941098
  - # 15
    frequency:   16.4194571196
  - # 16
    frequency:   16.4252245427
  - # 17
    frequency:   20.2924266813
  - # 18
    frequency:   26.4224550661
  - # 19
    frequency:   27.1651009982
  - # 20
    frequency:   27.1760175530
  - # 21
    frequency:   64.8601550351

- q-position: [    0.0252525,    0.0000000,    0.0000000 ]
  distance:    0.0084771
  band:
  - # 1
    frequency:   -0.5058555913
  - # 2
    frequency:   -0.4546469211
  - # 3
    frequency:    0.0615707960
  - # 4
    frequency:    0.3320423439
  - # 5
    frequency:    0.4969220658
  - # 6
    frequency:    4.1249964372
  - # 7
    frequency:    4.1520969650
  - # 8
    frequency:    5.5115449983
  - # 9
    frequency:    6.8966627732
  - # 10
    frequency:    6.9123179100
  - # 11
    frequency:    7.6125898840
  - # 12
    frequency:   10.8832320716
  - # 13
    frequency:   10.8868657201
  - # 14
    frequency:   14.3930804523
  - # 15
    frequency:   16.4180566097
  - # 16
    frequency:   16.4270149327
  - # 17
    frequency:   20.2917311876
  - # 18
    frequency:   26.4135048886
  - # 19
    frequency:   27.1632800530
  - # 20
    frequency:   27.1802032736
  - # 21
    frequency:   64.8595670625

- q-position: [    0.0303030,    0.0000000,    0.0000000 ]
  distance:    0.0101726
  band:
  - # 1
    frequency:   -0.4938454474
  - # 2
    frequency:   -0.4163158864
  - # 3
    frequency:    0.0913961106
  - # 4
    frequency:    0.3950221440
  - # 5
    frequency:    0.5925814904
  - # 6
    frequency:    4.1281104357
  - # 7
    frequency:    4.1667973133
  - # 8
    frequency:    5.5081649350
  - # 9
    frequency:    6.8957571196
  - # 10
    frequency:    6.9181121487
  - # 11
    frequency:    7.6170514749
  - # 12
    frequency:   10.8804230568
  - # 13
    frequency:   10.8856456952
  - # 14
    frequency:   14.3910116574
  - # 15
    frequency:   16.4163547693
  - # 16
    frequency:   16.4291616889
  - # 17
    frequency:   20.2908869694
  - # 18
    frequency:   26.4027180731
  - # 19
    frequency:   27.1610590082
  - # 20
    frequency:   27.1852018666
  - # 21
    frequency:   64.8588499130

- q-position: [    0.0353535,    0.0000000,    0.0000000 ]
  distance:    0.0118680
  band:
  - # 1
    frequency:   -0.4778061588
  - # 2
    frequency:   -0.3668492716
  - # 3
    frequency:    0.1303149598
  - # 4
    frequency:    0.4569602552
  - # 5
    frequency:    0.6874083086
  - # 6
    frequency:    4.1317846970
  - # 7
    frequency:    4.1839071388
  - # 8
    frequency:    5.5043308887
  - # 9
    frequency:    6.8946951873
  - # 10
    frequency:    6.9248258122
  - # 11
    frequency:    7.6222864501
  - # 12
    frequency:   10.8771321839
  - # 13
    frequency:   10.8842250138
  - # 14
    frequency:   14.3886025474
  - # 15
    frequency:   16.4143575305
  - # 16
    frequency:   16.4316408001
  - # 17
    frequency:   20.2898974168
  - # 18
    frequency:   26.3901752663
  - # 19
    frequency:   27.1584405877
  - # 20
    frequency:   27.1909534661
  - # 21
    frequency:   64.8580044726

- q-position: [    0.0404040,    0.0000000,    0.0000000 ]
  distance:    0.0135634
  band:
  - # 1
    frequency:   -0.4570541972
  - # 2
    frequency:   -0.3058681493
  - # 3
    frequency:    0.1823597679
  - # 4
    frequency:    0.5180224279
  - # 5
    frequency:    0.7815838986
  - # 6
    frequency:    4.1360160799
  - # 7
    frequency:    4.2033034401
  - # 8
    frequency:    5.5001190010
  - # 9
    frequency:    6.8934812365
  - # 10
    frequency:    6.9323979077
  - # 11
    frequency:    7.6282755385
  - # 12
    frequency:   10.8733736142
  - # 13
    frequency:   10.8826140154
  - # 14
    frequency:   14.3858701316
  - # 15
    frequency:   16.4120718986
  - # 16
    frequency:   16.4344246674
  - # 17
    frequency:   20.2887664411
  - # 18
    frequency:   26.3759637333
  - # 19
    frequency:   27.1554280026
  - # 20
    frequency:   27.1973951667
  - # 21
    frequency:   64.8570317845

- q-position: [    0.0454545,    0.0000000,    0.0000000 ]
  distance:    0.0152589
  band:
  - # 1
    frequency:   -0.4307337986
  - # 2
    frequency:   -0.2367853139
  - # 3
    frequency:    0.2519156127
  - # 4
    frequency:    0.5783758263
  - # 5
    frequency:    0.8752364656
  - # 6
    frequency:    4.1408008304
  - # 7
    frequency:    4.2248502337
  - # 8
    frequency:    5.4956143512
  - # 9
    frequency:    6.8921202321
  - # 10
    frequency:    6.9407622277
  - # 11
    frequency:    7.6349962696
  - # 12
    frequency:   10.8691634804
  - # 13
    frequency:   10.8808244474
  - # 14
    frequency:   14.3828333764
  - # 15
    frequency:   16.4095059478
  - # 16
    frequency:   16.4374824623
  - # 17
    frequency:   20.2874984297
  - # 18
    frequency:   26.3601748996
  - # 19
    frequency:   27.1520249468
  - # 20
    frequency:   27.2044633850
  - # 21
    frequency:   64.8559330474

- q-position: [    0.0505051,    0.0000000,    0.0000000 ]
  distance:    0.0169543
  band:
  - # 1
    frequency:   -0.3976404096
  - # 2
    frequency:   -0.1637675078
  - # 3
    frequency:    0.3358118884
  - # 4
    frequency:    0.6381778528
  - # 5
    frequency:    0.9684485416
  - # 6
    frequency:    4.1461345337
  - # 7
    frequency:    4.2484004770
  - # 8
    frequency:    5.4909101190
  - # 9
    frequency:    6.8906178622
  - # 10
    frequency:    6.9498487152
  - # 11
    frequency:    7.6424229164
  - # 12
    frequency:   10.8645198002
  - # 13
    frequency:   10.8788693911
  - # 14
    frequency:   14.3795129570
  - # 15
    frequency:   16.4066688141
  - # 16
    frequency:   16.4407805155
  - # 17
    frequency:   20.2860981965
  - # 18
    frequency:   26.3429022747
  - # 19
    frequency:   27.1482355926
  - # 20
    frequency:   27.2120958244
  - # 21
    frequency:   64.8547096133

- q-position: [    0.0555556,    0.0000000,    0.0000000 ]
  distance:    0.0186497
  band:
  - # 1
    frequency:   -0.3558586692
  - # 2
    frequency:   -0.0588846977
  - # 3
    frequency:    0.4234374111
  - # 4
    frequency:    0.6975717559
  - # 5
    frequency:    1.0612667479
  - # 6
    frequency:    4.1520120676
  - # 7
    frequency:    4.2737979284
  - # 8
    frequency:    5.4861068071
  - # 9
    frequency:    6.8889805579
  - # 10
    frequency:    6.9595847929
  - # 11
    frequency:    7.6505264577
  - # 12
    frequency:   10.8594623824
  - # 13
    frequency:   10.8767631810
  - # 14
    frequency:   14.3759309967
  - # 15
    frequency:   16.4035706868
  - # 16
    frequency:   16.4442827321
  - # 17
    frequency:   20.2845709281
  - # 18
    frequency:   26.3242398115
  - # 19
    frequency:   27.1440645850
  - # 20
    frequency:   27.2202329928
  - # 21
    frequency:   64.8533629848

- q-position: [    0.0606061,    0.0000000,    0.0000000 ]
  distance:    0.0203451
  band:
  - # 1
    frequency:   -0.3018439335
  - # 2
    frequency:    0.1372831053
  - # 3
    frequency:    0.5085889270
  - # 4
    frequency:    0.7566856711
  - # 5
    frequency:    1.1537105237
  - # 6
    frequency:    4.1584275555
  - # 7
    frequency:    4.3008788907
  - # 8
    frequency:    5.4813115484
  - # 9
    frequency:    6.8872155128
  - # 10
    frequency:    6.9698966134
  - # 11
    frequency:    7.6592745679
  - # 12
    frequency:   10.8540127227
  - # 13
    frequency:   10.8745213175
  - # 14
    frequency:   14.3721107983
  - # 15
    frequency:   16.4002227963
  - # 16
    frequency:   16.4479510225
  - # 17
    frequency:   20.2829221273
  - # 18
    frequency:   26.3042806943
  - # 19
    frequency:   27.1395170355
  - # 20
    frequency:   27.2288192786
  - # 21
    frequency:   64.8518948127

- q-position: [    0.0656566,    0.0000000,    0.0000000 ]
  distance:    0.0220406
  band:
  - # 1
    frequency:   -0.2271704646
  - # 2
    frequency:    0.2080612028
  - # 3
    frequency:    0.5900532022
  - # 4
    frequency:    0.8156331712
  - # 5
    frequency:    1.2457789864
  - # 6
    frequency:    4.1653743224
  - # 7
    frequency:    4.3294738033
  - # 8
    frequency:    5.4766375053
  - # 9
    frequency:    6.8853307026
  - # 10
    frequency:    6.9807101983
  - # 11
    frequency:    7.6686316411
  - # 12
    frequency:   10.8481938937
  - # 13
    frequency:   10.8721603749
  - # 14
    frequency:   14.3680765742
  - # 15
    frequency:   16.3966373980
  - # 16
    frequency:   16.4517457426
  - # 17
    frequency:   20.2811575536
  - # 18
    frequency:   26.2831165158
  - # 19
    frequency:   27.1345985160
  - # 20
    frequency:   27.2378036276
  - # 21
    frequency:   64.8503068932

- q-position: [    0.0707071,    0.0000000,    0.0000000 ]
  distance:    0.0237360
  band:
  - # 1
    frequency:   -0.0906884756
  - # 2
    frequency:    0.2677092924
  - # 3
    frequency:    0.6681745193
  - # 4
    frequency:    0.8745143292
  - # 5
    frequency:    1.3374560009
  - # 6
    frequency:    4.1728448555
  - # 7
    frequency:    4.3594086655
  - # 8
    frequency:    5.4722033585
  - # 9
    frequency:    6.8833349028
  - # 10
    frequency:    6.9919524449
  - # 11
    frequency:    7.6785588581
  - # 12
    frequency:   10.8420304264
  - # 13
    frequency:   10.8696979049
  - # 14
    frequency:   14.3638531789
  - # 15
    frequency:   16.3928277535
  - # 16
    frequency:   16.4556261359
  - # 17
    frequency:   20.2792831631
  - # 18
    frequency:   26.2608367780
  - # 19
    frequency:   27.1293150505
  - # 20
    frequency:   27.2471398845
  - # 21
    frequency:   64.8486011644

- q-position: [    0.0757576,    0.0000000,    0.0000000 ]
  distance:    0.0254314
  band:
  - # 1
    frequency:    0.1972527084
  - # 2
    frequency:    0.3242788806
  - # 3
    frequency:    0.7435224068
  - # 4
    frequency:    0.9334168205
  - # 5
    frequency:    1.4287138003
  - # 6
    frequency:    4.1808307701
  - # 7
    frequency:    4.3905062989
  - # 8
    frequency:    5.4681328660
  - # 9
    frequency:    6.8812377051
  - # 10
    frequency:    7.0035519846
  - # 11
    frequency:    7.6890142991
  - # 12
    frequency:   10.8355481874
  - # 13
    frequency:   10.8671523368
  - # 14
    frequency:   14.3594658493
  - # 15
    frequency:   16.3888081055
  - # 16
    frequency:   16.4595507703
  - # 17
    frequency:   20.2773050478
  - # 18
    frequency:   26.2375286494
  - # 19
    frequency:   27.1236731077
  - # 20
    frequency:   27.2567868685
  - # 21
    frequency:   64.8467797030

- q-position: [    0.0808081,    0.0000000,    0.0000000 ]
  distance:    0.0271269
  band:
  - # 1
    frequency:    0.2994003698
  - # 2
    frequency:    0.3803117559
  - # 3
    frequency:    0.8165911969
  - # 4
    frequency:    0.9924168807
  - # 5
    frequency:    1.5195155187
  - # 6
    frequency:    4.1893227832
  - # 7
    frequency:    4.4225874716
  - # 8
    frequency:    5.4645544557
  - # 9
    frequency:    6.8790495305
  - # 10
    frequency:    7.0154398889
  - # 11
    frequency:    7.6999531085
  - # 12
    frequency:   10.8287742499
  - # 13
    frequency:   10.8645428758
  - # 14
    frequency:   14.3549399554
  - # 15
    frequency:   16.3845936494
  - # 16
    frequency:   16.4634779641
  - # 17
    frequency:   20.2752293755
  - # 18
    frequency:   26.2132769110
  - # 19
    frequency:   27.1176795920
  - # 20
    frequency:   27.2667082525
  - # 21
    frequency:   64.8448447208

- q-position: [    0.0858586,    0.0000000,    0.0000000 ]
  distance:    0.0288223
  band:
  - # 1
    frequency:    0.3792080195
  - # 2
    frequency:    0.4368515975
  - # 3
    frequency:    0.8877638388
  - # 4
    frequency:    1.0515800716
  - # 5
    frequency:    1.6098169413
  - # 6
    frequency:    4.1983106947
  - # 7
    frequency:    4.4554719340
  - # 8
    frequency:    5.4616008018
  - # 9
    frequency:    6.8767816390
  - # 10
    frequency:    7.0275502237
  - # 11
    frequency:    7.7113277128
  - # 12
    frequency:   10.8217367615
  - # 13
    frequency:   10.8618893997
  - # 14
    frequency:   14.3503007654
  - # 15
    frequency:   16.3802004979
  - # 16
    frequency:   16.4673661944
  - # 17
    frequency:   20.2730623314
  - # 18
    frequency:   26.1881640309
  - # 19
    frequency:   27.1113418339
  - # 20
    frequency:   27.2768723041
  - # 21
    frequency:   64.8427985605

- q-position: [    0.0909091,    0.0000000,    0.0000000 ]
  distance:    0.0305177
  band:
  - # 1
    frequency:    0.4485456531
  - # 2
    frequency:    0.4943693824
  - # 3
    frequency:    0.9573294317
  - # 4
    frequency:    1.1109618780
  - # 5
    frequency:    1.6995677029
  - # 6
    frequency:    4.2077833791
  - # 7
    frequency:    4.4889794336
  - # 8
    frequency:    5.4594083118
  - # 9
    frequency:    6.8744461348
  - # 10
    frequency:    7.0398204567
  - # 11
    frequency:    7.7230880900
  - # 12
    frequency:   10.8144648087
  - # 13
    frequency:   10.8592123552
  - # 14
    frequency:   14.3455732275
  - # 15
    frequency:   16.3756456415
  - # 16
    frequency:   16.4711744856
  - # 17
    frequency:   20.2708100615
  - # 18
    frequency:   26.1622703214
  - # 19
    frequency:   27.1046675800
  - # 20
    frequency:   27.2872515385
  - # 21
    frequency:   64.8406436924

- q-position: [    0.0959596,    0.0000000,    0.0000000 ]
  distance:    0.0322131
  band:
  - # 1
    frequency:    0.5114884126
  - # 2
    frequency:    0.5530755229
  - # 3
    frequency:    1.0255060443
  - # 4
    frequency:    1.1706081831
  - # 5
    frequency:    1.7887121103
  - # 6
    frequency:    4.2177287858
  - # 7
    frequency:    4.5229307993
  - # 8
    frequency:    5.4581164369
  - # 9
    frequency:    6.8720559658
  - # 10
    frequency:    7.0521917302
  - # 11
    frequency:    7.7351820904
  - # 12
    frequency:   10.8069882794
  - # 13
    frequency:   10.8565326547
  - # 14
    frequency:   14.3407817694
  - # 15
    frequency:   16.3709469018
  - # 16
    frequency:   16.4748627716
  - # 17
    frequency:   20.2684786197
  - # 18
    frequency:   26.1356741373
  - # 19
    frequency:   27.0976649823
  - # 20
    frequency:   27.2978223228
  - # 21
    frequency:   64.8383827093

- q-position: [    0.1010101,    0.0000000,    0.0000000 ]
  distance:    0.0339086
  band:
  - # 1
    frequency:    0.5699702471
  - # 2
    frequency:    0.6130481950
  - # 3
    frequency:    1.0924593252
  - # 4
    frequency:    1.2305556740
  - # 5
    frequency:    1.8771897098
  - # 6
    frequency:    4.2281339516
  - # 7
    frequency:    4.5571492064
  - # 8
    frequency:    5.4578666949
  - # 9
    frequency:    6.8696249168
  - # 10
    frequency:    7.0646090122
  - # 11
    frequency:    7.7475558025
  - # 12
    frequency:   10.7993377239
  - # 13
    frequency:   10.8538715747
  - # 14
    frequency:   14.3359501175
  - # 15
    frequency:   16.3661228795
  - # 16
    frequency:   16.4783922299
  - # 17
    frequency:   20.2660739186
  - # 18
    frequency:   26.1084520896
  - # 19
    frequency:   27.0903425864
  - # 20
    frequency:   27.3085644605
  - # 21
    frequency:   64.8360183227

- q-position: [    0.1060606,    0.0000000,    0.0000000 ]
  distance:    0.0356040
  band:
  - # 1
    frequency:    0.6250667612
  - # 2
    frequency:    0.6742932958
  - # 3
    frequency:    1.1583162479
  - # 4
    frequency:    1.2908322244
  - # 5
    frequency:    1.9649356938
  - # 6
    frequency:    4.2389850229
  - # 7
    frequency:    4.5914617479
  - # 8
    frequency:    5.4588012830
  - # 9
    frequency:    6.8671675961
  - # 10
    frequency:    7.0770211404
  - # 11
    frequency:    7.7601539587
  - # 12
    frequency:   10.7915442166
  - # 13
    frequency:   10.8512506554
  - # 14
    frequency:   14.3311011369
  - # 15
    frequency:   16.3611928952
  - # 16
    frequency:   16.4817255855
  - # 17
    frequency:   20.2636016848
  - # 18
    frequency:   26.0806792514
  - # 19
    frequency:   27.0827093196
  - # 20
    frequency:   27.3194607786
  - # 21
    frequency:   64.8335533582

- q-position: [    0.1111111,    0.0000000,    0.0000000 ]
  distance:    0.0372994
  band:
  - # 1
    frequency:    0.6774370133
  - # 2
    frequency:    0.7367751285
  - # 3
    frequency:    1.2231750216
  - # 4
    frequency:    1.3514572885
  - # 5
    frequency:    2.0518812091
  - # 6
    frequency:    4.2502672890
  - # 7
    frequency:    4.6257014446
  - # 8
    frequency:    5.4610611480
  - # 9
    frequency:    6.8646994135
  - # 10
    frequency:    7.0893807761
  - # 11
    frequency:    7.7729203729
  - # 12
    frequency:   10.7836392175
  - # 13
    frequency:   10.8486916040
  - # 14
    frequency:   14.3262566909
  - # 15
    frequency:   16.3561769253
  - # 16
    frequency:   16.4848273818
  - # 17
    frequency:   20.2610674189
  - # 18
    frequency:   26.0524293446
  - # 19
    frequency:   27.0747744777
  - # 20
    frequency:   27.3304967305
  - # 21
    frequency:   64.8309907503

- q-position: [    0.1161616,    0.0000000,    0.0000000 ]
  distance:    0.0389949
  band:
  - # 1
    frequency:    0.7275125656
  - # 2
    frequency:    0.8004332095
  - # 3
    frequency:    1.2871122430
  - # 4
    frequency:    1.4124423283
  - # 5
    frequency:    2.1379536181
  - # 6
    frequency:    4.2619652261
  - # 7
    frequency:    4.6597098150
  - # 8
    frequency:    5.4647833970
  - # 9
    frequency:    6.8622365510
  - # 10
    frequency:    7.1016442853
  - # 11
    frequency:    7.7857984006
  - # 12
    frequency:   10.7756544355
  - # 13
    frequency:   10.8462162008
  - # 14
    frequency:   14.3214375215
  - # 15
    frequency:   16.3510955308
  - # 16
    frequency:   16.4876642182
  - # 17
    frequency:   20.2584763614
  - # 18
    frequency:   26.0237748962
  - # 19
    frequency:   27.0665477120
  - # 20
    frequency:   27.3416600256
  - # 21
    frequency:   64.8283335383

- q-position: [    0.1212121,    0.0000000,    0.0000000 ]
  distance:    0.0406903
  band:
  - # 1
    frequency:    0.7755903165
  - # 2
    frequency:    0.8651919604
  - # 3
    frequency:    1.3501881168
  - # 4
    frequency:    1.4737912829
  - # 5
    frequency:    2.2230767482
  - # 6
    frequency:    4.2740625506
  - # 7
    frequency:    4.6933400861
  - # 8
    frequency:    5.4700979634
  - # 9
    frequency:    6.8597959228
  - # 10
    frequency:    7.1137715609
  - # 11
    frequency:    7.7987314140
  - # 12
    frequency:   10.7676216944
  - # 13
    frequency:   10.8438462094
  - # 14
    frequency:   14.3166631493
  - # 15
    frequency:   16.3459697807
  - # 16
    frequency:   16.4902049536
  - # 17
    frequency:   20.2558334643
  - # 18
    frequency:   25.9947873617
  - # 19
    frequency:   27.0580390146
  - # 20
    frequency:   27.3529402901
  - # 21
    frequency:   64.8255848607

- q-position: [    0.1262626,    0.0000000,    0.0000000 ]
  distance:    0.0423857
  band:
  - # 1
    frequency:    0.8218826566
  - # 2
    frequency:    0.9309665125
  - # 3
    frequency:    1.4124503263
  - # 4
    frequency:    1.5355010806
  - # 5
    frequency:    2.3071711623
  - # 6
    frequency:    4.2865422821
  - # 7
    frequency:    4.7264610473
  - # 8
    frequency:    5.4771235259
  - # 9
    frequency:    6.8573951276
  - # 10
    frequency:    7.1257258028
  - # 11
    frequency:    7.8116632816
  - # 12
    frequency:   10.7595728015
  - # 13
    frequency:   10.8416032912
  - # 14
    frequency:   14.3119517930
  - # 15
    frequency:   16.3408211696
  - # 16
    frequency:   16.4924208762
  - # 17
    frequency:   20.2531433678
  - # 18
    frequency:   25.9655372114
  - # 19
    frequency:   27.0492587039
  - # 20
    frequency:   27.3643287630
  - # 21
    frequency:   64.8227479504

- q-position: [    0.1313131,    0.0000000,    0.0000000 ]
  distance:    0.0440812
  band:
  - # 1
    frequency:    0.8665465324
  - # 2
    frequency:    0.9976662747
  - # 3
    frequency:    1.4739369608
  - # 4
    frequency:    1.5975621829
  - # 5
    frequency:    2.3901544737
  - # 6
    frequency:    4.2993868141
  - # 7
    frequency:    4.7589614297
  - # 8
    frequency:    5.4859627942
  - # 9
    frequency:    6.8550523907
  - # 10
    frequency:    7.1374732670
  - # 11
    frequency:    7.8245388445
  - # 12
    frequency:   10.7515394209
  - # 13
    frequency:   10.8395089253
  - # 14
    frequency:   14.3073203062
  - # 15
    frequency:   16.3356715302
  - # 16
    frequency:   16.4942858393
  - # 17
    frequency:   20.2504103846
  - # 18
    frequency:   25.9360939802
  - # 19
    frequency:   27.0402174091
  - # 20
    frequency:   27.3758180274
  - # 21
    frequency:   64.8198261298

- q-position: [    0.1363636,    0.0000000,    0.0000000 ]
  distance:    0.0457766
  band:
  - # 1
    frequency:    0.9097012030
  - # 2
    frequency:    1.0651971528
  - # 3
    frequency:    1.5346787782
  - # 4
    frequency:    1.6599591492
  - # 5
    frequency:    2.4719417285
  - # 6
    frequency:    4.3125779912
  - # 7
    frequency:    4.7907545306
  - # 8
    frequency:    5.4966974358
  - # 9
    frequency:    6.8527864958
  - # 10
    frequency:    7.1489829980
  - # 11
    frequency:    7.8373043812
  - # 12
    frequency:   10.7435529497
  - # 13
    frequency:   10.8375843328
  - # 14
    frequency:   14.3027841323
  - # 15
    frequency:   16.3305429417
  - # 16
    frequency:   16.4957763643
  - # 17
    frequency:   20.2476384885
  - # 18
    frequency:   25.9065262826
  - # 19
    frequency:   27.0309260541
  - # 20
    frequency:   27.3874017755
  - # 21
    frequency:   64.8168228049

- q-position: [    0.1414141,    0.0000000,    0.0000000 ]
  distance:    0.0474720
  band:
  - # 1
    frequency:    0.9514395468
  - # 2
    frequency:    1.1334629220
  - # 3
    frequency:    1.5947009984
  - # 4
    frequency:    1.7226712072
  - # 5
    frequency:    2.5524458755
  - # 6
    frequency:    4.3260971921
  - # 7
    frequency:    4.8217826303
  - # 8
    frequency:    5.5093830892
  - # 9
    frequency:    6.8506167085
  - # 10
    frequency:    7.1602265510
  - # 11
    frequency:    7.8499080547
  - # 12
    frequency:   10.7356444012
  - # 13
    frequency:   10.8358504077
  - # 14
    frequency:   14.2983572747
  - # 15
    frequency:   16.3254576329
  - # 16
    frequency:   16.4968717122
  - # 17
    frequency:   20.2448313099
  - # 18
    frequency:   25.8769017939
  - # 19
    frequency:   27.0213958411
  - # 20
    frequency:   27.3990746086
  - # 21
    frequency:   64.8137414605

- q-position: [    0.1464646,    0.0000000,    0.0000000 ]
  distance:    0.0491674
  band:
  - # 1
    frequency:    0.9918355010
  - # 2
    frequency:    1.2023660448
  - # 3
    frequency:    1.6540247703
  - # 4
    frequency:    1.7856728129
  - # 5
    frequency:    2.6315783424
  - # 6
    frequency:    4.3399254163
  - # 7
    frequency:    4.8520206091
  - # 8
    frequency:    5.5240450507
  - # 9
    frequency:    6.8485626900
  - # 10
    frequency:    7.1711777135
  - # 11
    frequency:    7.8623003355
  - # 12
    frequency:   10.7278442917
  - # 13
    frequency:   10.8343276521
  - # 14
    frequency:   14.2940522818
  - # 15
    frequency:   16.3204378832
  - # 16
    frequency:   16.4975539250
  - # 17
    frequency:   20.2419921367
  - # 18
    frequency:   25.8472872018
  - # 19
    frequency:   27.0116382332
  - # 20
    frequency:   27.4108318662
  - # 21
    frequency:   64.8105856547

- q-position: [    0.1515152,    0.0000000,    0.0000000 ]
  distance:    0.0508629
  band:
  - # 1
    frequency:    1.0309490919
  - # 2
    frequency:    1.2718081067
  - # 3
    frequency:    1.7126684136
  - # 4
    frequency:    1.8489341898
  - # 5
    frequency:    2.7092497330
  - # 6
    frequency:    4.3540433729
  - # 7
    frequency:    4.8814781157
  - # 8
    frequency:    5.5406752743
  - # 9
    frequency:    6.8466444025
  - # 10
    frequency:    7.1818122307
  - # 11
    frequency:    7.8744343969
  - # 12
    frequency:   10.7201825347
  - # 13
    frequency:   10.8330361187
  - # 14
    frequency:   14.2898802455
  - # 15
    frequency:   16.3155059201
  - # 16
    frequency:   16.4978078379
  - # 17
    frequency:   20.2391239205
  - # 18
    frequency:   25.8177481296
  - # 19
    frequency:   27.0016649367
  - # 20
    frequency:   27.4226694844
  - # 21
    frequency:   64.8073590134
