nqpoint: 300    
npath: 3      
segment_nqpoint:
- 100
- 100
- 100
labels:
- [ 'G', 'M' ]
- [ 'M', 'K' ]
- [ 'K', 'G' ]
reciprocal_lattice:
- [   0.29072034,   0.16784746,   0.00000000 ] # a*
- [   0.00000000,   0.33569493,   0.00000000 ] # b*
- [   0.00000000,   0.00000000,   0.03844646 ] # c*
natom: 7      
lattice:
- [     3.439731854410563,     0.000000000000000,     0.000000000000000 ] # a
- [    -1.719865927205282,     2.978895168115014,     0.000000000000000 ] # b
- [     0.000000000000000,     0.000000000000000,    26.010199692760182 ] # c
points:
- symbol: C # 1
  coordinates: [  0.000000000000000,  0.000000000000000,  0.430288783235594 ]
  mass: 12.010700
- symbol: C # 2
  coordinates: [  0.333332985432215,  0.666666983183674,  0.608203099968800 ]
  mass: 12.010700
- symbol: H # 3
  coordinates: [  0.666666984744047,  0.333332985985145,  0.346018104678570 ]
  mass: 1.007940
- symbol: N # 4
  coordinates: [  0.333332985432215,  0.666666983183674,  0.653981895321430 ]
  mass: 14.006700
- symbol: S # 5
  coordinates: [  0.333332985432215,  0.666666983183674,  0.543703775088974 ]
  mass: 32.065000
- symbol: Zr # 6
  coordinates: [  0.333332985432215,  0.666666983183674,  0.383414746709698 ]
  mass: 91.224000
- symbol: Zr # 7
  coordinates: [  0.666666984744047,  0.333332985985145,  0.478139449616803 ]
  mass: 91.224000

phonon:
- q-position: [    0.0000000,    0.0000000,    0.0000000 ]
  distance:    0.0000000
  band:
  - # 1
    frequency:   -0.0000023341
  - # 2
    frequency:   -0.0000004955
  - # 3
    frequency:    0.0000021684
  - # 4
    frequency:    0.7990861184
  - # 5
    frequency:    0.7990861184
  - # 6
    frequency:    3.8331417768
  - # 7
    frequency:    3.8331417768
  - # 8
    frequency:    5.4426707874
  - # 9
    frequency:    6.7958969989
  - # 10
    frequency:    6.7958969989
  - # 11
    frequency:    7.4342333815
  - # 12
    frequency:   10.6343986882
  - # 13
    frequency:   10.6343986882
  - # 14
    frequency:   14.1767150379
  - # 15
    frequency:   16.1392701395
  - # 16
    frequency:   16.1392701395
  - # 17
    frequency:   20.2417816512
  - # 18
    frequency:   26.0002809867
  - # 19
    frequency:   26.8224865935
  - # 20
    frequency:   26.8224865935
  - # 21
    frequency:   64.8599893195

- q-position: [    0.0050505,    0.0000000,    0.0000000 ]
  distance:    0.0016954
  band:
  - # 1
    frequency:   -0.1217325889
  - # 2
    frequency:    0.0714907210
  - # 3
    frequency:    0.1572172621
  - # 4
    frequency:    0.7999604819
  - # 5
    frequency:    0.8021822463
  - # 6
    frequency:    3.8339420721
  - # 7
    frequency:    3.8351409929
  - # 8
    frequency:    5.4423582149
  - # 9
    frequency:    6.7961749442
  - # 10
    frequency:    6.7966844425
  - # 11
    frequency:    7.4350178143
  - # 12
    frequency:   10.6346680933
  - # 13
    frequency:   10.6348788184
  - # 14
    frequency:   14.1771105520
  - # 15
    frequency:   16.1397346387
  - # 16
    frequency:   16.1400101712
  - # 17
    frequency:   20.2418162827
  - # 18
    frequency:   26.0003489616
  - # 19
    frequency:   26.8226104620
  - # 20
    frequency:   26.8231397844
  - # 21
    frequency:   64.8599285160

- q-position: [    0.0101010,    0.0000000,    0.0000000 ]
  distance:    0.0033909
  band:
  - # 1
    frequency:   -0.1540073897
  - # 2
    frequency:    0.1428265762
  - # 3
    frequency:    0.2514923823
  - # 4
    frequency:    0.8025959676
  - # 5
    frequency:    0.8114552507
  - # 6
    frequency:    3.8363387184
  - # 7
    frequency:    3.8411184880
  - # 8
    frequency:    5.4414296174
  - # 9
    frequency:    6.7970062679
  - # 10
    frequency:    6.7990367318
  - # 11
    frequency:    7.4373672553
  - # 12
    frequency:   10.6354737831
  - # 13
    frequency:   10.6363159712
  - # 14
    frequency:   14.1782937869
  - # 15
    frequency:   16.1411242321
  - # 16
    frequency:   16.1422239609
  - # 17
    frequency:   20.2419196797
  - # 18
    frequency:   26.0005493992
  - # 19
    frequency:   26.8229808084
  - # 20
    frequency:   26.8250977574
  - # 21
    frequency:   64.8597461507

- q-position: [    0.0151515,    0.0000000,    0.0000000 ]
  distance:    0.0050863
  band:
  - # 1
    frequency:   -0.1717472300
  - # 2
    frequency:    0.2138394150
  - # 3
    frequency:    0.3437625634
  - # 4
    frequency:    0.8070327918
  - # 5
    frequency:    0.8268766504
  - # 6
    frequency:    3.8403190418
  - # 7
    frequency:    3.8510144227
  - # 8
    frequency:    5.4399120861
  - # 9
    frequency:    6.7983834671
  - # 10
    frequency:    6.8029241022
  - # 11
    frequency:    7.4412701135
  - # 12
    frequency:   10.6368082021
  - # 13
    frequency:   10.6387004568
  - # 14
    frequency:   14.1802548501
  - # 15
    frequency:   16.1434272456
  - # 16
    frequency:   16.1458926614
  - # 17
    frequency:   20.2420903547
  - # 18
    frequency:   26.0008718801
  - # 19
    frequency:   26.8235938643
  - # 20
    frequency:   26.8283557088
  - # 21
    frequency:   64.8594423591

- q-position: [    0.0202020,    0.0000000,    0.0000000 ]
  distance:    0.0067817
  band:
  - # 1
    frequency:   -0.1832521677
  - # 2
    frequency:    0.2843315200
  - # 3
    frequency:    0.4363996430
  - # 4
    frequency:    0.8133488552
  - # 5
    frequency:    0.8484604241
  - # 6
    frequency:    3.8458620684
  - # 7
    frequency:    3.8647310790
  - # 8
    frequency:    5.4378499024
  - # 9
    frequency:    6.8002941528
  - # 10
    frequency:    6.8082981240
  - # 11
    frequency:    7.4467070106
  - # 12
    frequency:   10.6386588288
  - # 13
    frequency:   10.6420162060
  - # 14
    frequency:   14.1829773577
  - # 15
    frequency:   16.1466243506
  - # 16
    frequency:   16.1509850933
  - # 17
    frequency:   20.2423258479
  - # 18
    frequency:   26.0012991791
  - # 19
    frequency:   26.8244433787
  - # 20
    frequency:   26.8329056179
  - # 21
    frequency:   64.8590173680

- q-position: [    0.0252525,    0.0000000,    0.0000000 ]
  distance:    0.0084771
  band:
  - # 1
    frequency:   -0.1909279061
  - # 2
    frequency:    0.3540524363
  - # 3
    frequency:    0.5287965728
  - # 4
    frequency:    0.8216789872
  - # 5
    frequency:    0.8763650441
  - # 6
    frequency:    3.8529387453
  - # 7
    frequency:    3.8821357122
  - # 8
    frequency:    5.4353033086
  - # 9
    frequency:    6.8027212203
  - # 10
    frequency:    6.8150933777
  - # 11
    frequency:    7.4536507013
  - # 12
    frequency:   10.6410082818
  - # 13
    frequency:   10.6462408897
  - # 14
    frequency:   14.1864385871
  - # 15
    frequency:   16.1506887539
  - # 16
    frequency:   16.1574580882
  - # 17
    frequency:   20.2426227554
  - # 18
    frequency:   26.0018074731
  - # 19
    frequency:   26.8255206616
  - # 20
    frequency:   26.8387362259
  - # 21
    frequency:   64.8584714953

- q-position: [    0.0303030,    0.0000000,    0.0000000 ]
  distance:    0.0101726
  band:
  - # 1
    frequency:   -0.1950993559
  - # 2
    frequency:    0.4226630945
  - # 3
    frequency:    0.6196288775
  - # 4
    frequency:    0.8322485469
  - # 5
    frequency:    0.9110536499
  - # 6
    frequency:    3.8615122434
  - # 7
    frequency:    3.9030642306
  - # 8
    frequency:    5.4323469306
  - # 9
    frequency:    6.8056430827
  - # 10
    frequency:    6.8232296330
  - # 11
    frequency:    7.4620659803
  - # 12
    frequency:   10.6438344681
  - # 13
    frequency:   10.6513460866
  - # 14
    frequency:   14.1906096887
  - # 15
    frequency:   16.1555864615
  - # 16
    frequency:   16.1652569632
  - # 17
    frequency:   20.2429767678
  - # 18
    frequency:   26.0023666289
  - # 19
    frequency:   26.8268146455
  - # 20
    frequency:   26.8458330095
  - # 21
    frequency:   64.8578051516

- q-position: [    0.0353535,    0.0000000,    0.0000000 ]
  distance:    0.0118680
  band:
  - # 1
    frequency:   -0.1951239723
  - # 2
    frequency:    0.4896786706
  - # 3
    frequency:    0.7070887647
  - # 4
    frequency:    0.8454293948
  - # 5
    frequency:    0.9534928594
  - # 6
    frequency:    3.8715383378
  - # 7
    frequency:    3.9273254381
  - # 8
    frequency:    5.4290679707
  - # 9
    frequency:    6.8090339625
  - # 10
    frequency:    6.8326143861
  - # 11
    frequency:    7.4719095944
  - # 12
    frequency:   10.6471107732
  - # 13
    frequency:   10.6572974967
  - # 14
    frequency:   14.1954559546
  - # 15
    frequency:   16.1612766114
  - # 16
    frequency:   16.1743161174
  - # 17
    frequency:   20.2433827178
  - # 18
    frequency:   26.0029405667
  - # 19
    frequency:   26.8283119629
  - # 20
    frequency:   26.8541781503
  - # 21
    frequency:   64.8570188409

- q-position: [    0.0404040,    0.0000000,    0.0000000 ]
  distance:    0.0135634
  band:
  - # 1
    frequency:   -0.1896894804
  - # 2
    frequency:    0.5543808548
  - # 3
    frequency:    0.7889077688
  - # 4
    frequency:    0.8618271958
  - # 5
    frequency:    1.0052010643
  - # 6
    frequency:    3.8829658570
  - # 7
    frequency:    3.9547055677
  - # 8
    frequency:    5.4255642973
  - # 9
    frequency:    6.8128642343
  - # 10
    frequency:    6.8431456025
  - # 11
    frequency:    7.4831301831
  - # 12
    frequency:   10.6508062923
  - # 13
    frequency:   10.6640552020
  - # 14
    frequency:   14.2009371394
  - # 15
    frequency:   16.1677118732
  - # 16
    frequency:   16.1845597415
  - # 17
    frequency:   20.2438346359
  - # 18
    frequency:   26.0034876940
  - # 19
    frequency:   26.8299970401
  - # 20
    frequency:   26.8637505045
  - # 21
    frequency:   64.8561131624

- q-position: [    0.0454545,    0.0000000,    0.0000000 ]
  distance:    0.0152589
  band:
  - # 1
    frequency:   -0.1766299886
  - # 2
    frequency:    0.6157046945
  - # 3
    frequency:    0.8629872094
  - # 4
    frequency:    0.8823946333
  - # 5
    frequency:    1.0676177475
  - # 6
    frequency:    3.8957371943
  - # 7
    frequency:    3.9849728453
  - # 8
    frequency:    5.4219425469
  - # 9
    frequency:    6.8171008127
  - # 10
    frequency:    6.8547145118
  - # 11
    frequency:    7.4956682699
  - # 12
    frequency:   10.6548861012
  - # 13
    frequency:   10.6715739708
  - # 14
    frequency:   14.2070078313
  - # 15
    frequency:   16.1748389078
  - # 16
    frequency:   16.1959026305
  - # 17
    frequency:   20.2443258126
  - # 18
    frequency:   26.0039614045
  - # 19
    frequency:   26.8318522064
  - # 20
    frequency:   26.8745255752
  - # 21
    frequency:   64.8550888116

- q-position: [    0.0505051,    0.0000000,    0.0000000 ]
  distance:    0.0169543
  band:
  - # 1
    frequency:   -0.1519209018
  - # 2
    frequency:    0.6721748087
  - # 3
    frequency:    0.9084955541
  - # 4
    frequency:    0.9288265975
  - # 5
    frequency:    1.1406637894
  - # 6
    frequency:    3.9097888715
  - # 7
    frequency:    4.0178818646
  - # 8
    frequency:    5.4183163396
  - # 9
    frequency:    6.8217075771
  - # 10
    frequency:    6.8672083199
  - # 11
    frequency:    7.5094563319
  - # 12
    frequency:   10.6593115669
  - # 13
    frequency:   10.6798036062
  - # 14
    frequency:   14.2136178688
  - # 15
    frequency:   16.1825988844
  - # 16
    frequency:   16.2082510858
  - # 17
    frequency:   20.2448488658
  - # 18
    frequency:   26.0043106356
  - # 19
    frequency:   26.8338578176
  - # 20
    frequency:   26.8864754918
  - # 21
    frequency:   64.8539465825

- q-position: [    0.0555556,    0.0000000,    0.0000000 ]
  distance:    0.0186497
  band:
  - # 1
    frequency:   -0.1047095463
  - # 2
    frequency:    0.7221278898
  - # 3
    frequency:    0.9416829991
  - # 4
    frequency:    0.9880590853
  - # 5
    frequency:    1.2221950683
  - # 6
    frequency:    3.9250521475
  - # 7
    frequency:    4.0531776053
  - # 8
    frequency:    5.4148046810
  - # 9
    frequency:    6.8266458248
  - # 10
    frequency:    6.8805127258
  - # 11
    frequency:    7.5244189701
  - # 12
    frequency:   10.6640406954
  - # 13
    frequency:   10.6886893356
  - # 14
    frequency:   14.2207127981
  - # 15
    frequency:   16.1909280464
  - # 16
    frequency:   16.2215038947
  - # 17
    frequency:   20.2453958114
  - # 18
    frequency:   26.0044804759
  - # 19
    frequency:   26.8359923933
  - # 20
    frequency:   26.8995690007
  - # 21
    frequency:   64.8526873693

- q-position: [    0.0606061,    0.0000000,    0.0000000 ]
  distance:    0.0203451
  band:
  - # 1
    frequency:    0.0762544042
  - # 2
    frequency:    0.7644744768
  - # 3
    frequency:    0.9829380387
  - # 4
    frequency:    1.0431124113
  - # 5
    frequency:    1.3093322454
  - # 6
    frequency:    3.9414536588
  - # 7
    frequency:    4.0905989849
  - # 8
    frequency:    5.4115305989
  - # 9
    frequency:    6.8318747447
  - # 10
    frequency:    6.8945141568
  - # 11
    frequency:    7.5404732007
  - # 12
    frequency:   10.6690285149
  - # 13
    frequency:   10.6981722407
  - # 14
    frequency:   14.2282343680
  - # 15
    frequency:   16.1997583219
  - # 16
    frequency:   16.2355533724
  - # 17
    frequency:   20.2459581368
  - # 18
    frequency:   26.0044128163
  - # 19
    frequency:   26.8382327664
  - # 20
    frequency:   26.9137714716
  - # 21
    frequency:   64.8513121687

- q-position: [    0.0656566,    0.0000000,    0.0000000 ]
  distance:    0.0220406
  band:
  - # 1
    frequency:    0.1670588949
  - # 2
    frequency:    0.7995290273
  - # 3
    frequency:    1.0318403239
  - # 4
    frequency:    1.0959142547
  - # 5
    frequency:    1.3997474987
  - # 6
    frequency:    3.9589160870
  - # 7
    frequency:    4.1298818900
  - # 8
    frequency:    5.4086200329
  - # 9
    frequency:    6.8373519033
  - # 10
    frequency:    6.9091016690
  - # 11
    frequency:    7.5575288834
  - # 12
    frequency:   10.6742274922
  - # 13
    frequency:   10.7081897231
  - # 14
    frequency:   14.2361210554
  - # 15
    frequency:   16.2090179708
  - # 16
    frequency:   16.2502864521
  - # 17
    frequency:   20.2465268741
  - # 18
    frequency:   26.0040470350
  - # 19
    frequency:   26.8405542443
  - # 20
    frequency:   26.9290449235
  - # 21
    frequency:   64.8498220821

- q-position: [    0.0707071,    0.0000000,    0.0000000 ]
  distance:    0.0237360
  band:
  - # 1
    frequency:    0.2365280821
  - # 2
    frequency:    0.8288415277
  - # 3
    frequency:    1.0867370634
  - # 4
    frequency:    1.1476417957
  - # 5
    frequency:    1.4919080560
  - # 6
    frequency:    3.9773588389
  - # 7
    frequency:    4.1707616823
  - # 8
    frequency:    5.4062009710
  - # 9
    frequency:    6.8430337354
  - # 10
    frequency:    6.9241684822
  - # 11
    frequency:    7.5754892908
  - # 12
    frequency:   10.6795879797
  - # 13
    frequency:   10.7186760059
  - # 14
    frequency:   14.2443086185
  - # 15
    frequency:   16.2186322625
  - # 16
    frequency:   16.2655858081
  - # 17
    frequency:   20.2470926736
  - # 18
    frequency:   26.0033207083
  - # 19
    frequency:   26.8429307801
  - # 20
    frequency:   26.9453480746
  - # 21
    frequency:   64.8482183179

- q-position: [    0.0757576,    0.0000000,    0.0000000 ]
  distance:    0.0254314
  band:
  - # 1
    frequency:    0.3008660746
  - # 2
    frequency:    0.8542366813
  - # 3
    frequency:    1.1457043651
  - # 4
    frequency:    1.1989330808
  - # 5
    frequency:    1.5848587330
  - # 6
    frequency:    3.9966987356
  - # 7
    frequency:    4.2129752191
  - # 8
    frequency:    5.4044028025
  - # 9
    frequency:    6.8488760317
  - # 10
    frequency:    6.9396131480
  - # 11
    frequency:    7.5942518207
  - # 12
    frequency:   10.6850586890
  - # 13
    frequency:   10.7295626648
  - # 14
    frequency:   14.2527306711
  - # 15
    frequency:   16.2285241755
  - # 16
    frequency:   16.2813309974
  - # 17
    frequency:   20.2476458755
  - # 18
    frequency:   26.0021703387
  - # 19
    frequency:   26.8453351527
  - # 20
    frequency:   26.9626364193
  - # 21
    frequency:   64.8465021941

- q-position: [    0.0808081,    0.0000000,    0.0000000 ]
  distance:    0.0271269
  band:
  - # 1
    frequency:    0.3635789046
  - # 2
    frequency:    0.8771629666
  - # 3
    frequency:    1.2071986286
  - # 4
    frequency:    1.2501092212
  - # 5
    frequency:    1.6779943511
  - # 6
    frequency:    4.0168506973
  - # 7
    frequency:    4.2562624586
  - # 8
    frequency:    5.4033558345
  - # 9
    frequency:    6.8548344166
  - # 10
    frequency:    6.9553403670
  - # 11
    frequency:    7.6137088375
  - # 12
    frequency:   10.6905871873
  - # 13
    frequency:   10.7407791867
  - # 14
    frequency:   14.2613192726
  - # 15
    frequency:   16.2386151137
  - # 16
    frequency:   16.2973996048
  - # 17
    frequency:   20.2481765792
  - # 18
    frequency:   26.0005320918
  - # 19
    frequency:   26.8477391544
  - # 20
    frequency:   26.9808623354
  - # 21
    frequency:   64.8446751405

- q-position: [    0.0858586,    0.0000000,    0.0000000 ]
  distance:    0.0288223
  band:
  - # 1
    frequency:    0.4259891689
  - # 2
    frequency:    0.8985876554
  - # 3
    frequency:    1.2701618974
  - # 4
    frequency:    1.3013162582
  - # 5
    frequency:    1.7709131439
  - # 6
    frequency:    4.0377284204
  - # 7
    frequency:    4.3003677503
  - # 8
    frequency:    5.4031909003
  - # 9
    frequency:    6.8608648113
  - # 10
    frequency:    6.9712614863
  - # 11
    frequency:    7.6337486272
  - # 12
    frequency:   10.6961204134
  - # 13
    frequency:   10.7522535523
  - # 14
    frequency:   14.2700055297
  - # 15
    frequency:   16.2488256306
  - # 16
    frequency:   16.3136683778
  - # 17
    frequency:   20.2486747102
  - # 18
    frequency:   25.9983425339
  - # 19
    frequency:   26.8501137849
  - # 20
    frequency:   26.9999752234
  - # 21
    frequency:   64.8427387016

- q-position: [    0.0909091,    0.0000000,    0.0000000 ]
  distance:    0.0305177
  band:
  - # 1
    frequency:    0.4886922299
  - # 2
    frequency:    0.9191132478
  - # 3
    frequency:    1.3339057101
  - # 4
    frequency:    1.3526051627
  - # 5
    frequency:    1.8633326364
  - # 6
    frequency:    4.0592450374
  - # 7
    frequency:    4.3450409335
  - # 8
    frequency:    5.4040389643
  - # 9
    frequency:    6.8669238763
  - # 10
    frequency:    6.9872947207
  - # 11
    frequency:    7.6542564401
  - # 12
    frequency:   10.7016052060
  - # 13
    frequency:   10.7639128363
  - # 14
    frequency:   14.2787202029
  - # 15
    frequency:   16.2590761547
  - # 16
    frequency:   16.3300143387
  - # 17
    frequency:   20.2491300837
  - # 18
    frequency:   25.9955393631
  - # 19
    frequency:   26.8524294500
  - # 20
    frequency:   27.0199216795
  - # 21
    frequency:   64.8406945386

- q-position: [    0.0959596,    0.0000000,    0.0000000 ]
  distance:    0.0322131
  band:
  - # 1
    frequency:    0.5519703169
  - # 2
    frequency:    0.9391064391
  - # 3
    frequency:    1.3979823425
  - # 4
    frequency:    1.4039757262
  - # 5
    frequency:    1.9550421895
  - # 6
    frequency:    4.0813137552
  - # 7
    frequency:    4.3900383865
  - # 8
    frequency:    5.4060306119
  - # 9
    frequency:    6.8729694300
  - # 10
    frequency:    7.0033651444
  - # 11
    frequency:    7.6751155939
  - # 12
    frequency:   10.7069888422
  - # 13
    frequency:   10.7756838223
  - # 14
    frequency:   14.2873943125
  - # 15
    frequency:   16.2692877097
  - # 16
    frequency:   16.3463158600
  - # 17
    frequency:   20.2495324653
  - # 18
    frequency:   25.9920621261
  - # 19
    frequency:   26.8546561635
  - # 20
    frequency:   27.0406457010
  - # 21
    frequency:   64.8385444321

- q-position: [    0.1010101,    0.0000000,    0.0000000 ]
  distance:    0.0339086
  band:
  - # 1
    frequency:    0.6159503872
  - # 2
    frequency:    0.9587888049
  - # 3
    frequency:    1.4554007473
  - # 4
    frequency:    1.4620942605
  - # 5
    frequency:    2.0458757561
  - # 6
    frequency:    4.1038484662
  - # 7
    frequency:    4.4351241848
  - # 8
    frequency:    5.4092952874
  - # 9
    frequency:    6.8789608397
  - # 10
    frequency:    7.0194045023
  - # 11
    frequency:    7.6962086049
  - # 12
    frequency:   10.7122195784
  - # 13
    frequency:   10.7874936268
  - # 14
    frequency:   14.2959597402
  - # 15
    frequency:   16.2793826215
  - # 16
    frequency:   16.3624536943
  - # 17
    frequency:   20.2498716283
  - # 18
    frequency:   25.9878529160
  - # 19
    frequency:   26.8567637509
  - # 20
    frequency:   27.0620889256
  - # 21
    frequency:   64.8362902842

- q-position: [    0.1060606,    0.0000000,    0.0000000 ]
  distance:    0.0356040
  band:
  - # 1
    frequency:    0.6806755315
  - # 2
    frequency:    0.9782931781
  - # 3
    frequency:    1.5068395354
  - # 4
    frequency:    1.5260378183
  - # 5
    frequency:    2.1356957746
  - # 6
    frequency:    4.1267643281
  - # 7
    frequency:    4.4800715411
  - # 8
    frequency:    5.4139601315
  - # 9
    frequency:    6.8848593835
  - # 10
    frequency:    7.0353508890
  - # 11
    frequency:    7.7174183214
  - # 12
    frequency:   10.7172471876
  - # 13
    frequency:   10.7992703270
  - # 14
    frequency:   14.3043498182
  - # 15
    frequency:   16.2892852071
  - # 16
    frequency:   16.3783119468
  - # 17
    frequency:   20.2501374099
  - # 18
    frequency:   25.9828570433
  - # 19
    frequency:   26.8587220536
  - # 20
    frequency:   27.0841909009
  - # 21
    frequency:   64.8339341207

- q-position: [    0.1111111,    0.0000000,    0.0000000 ]
  distance:    0.0372994
  band:
  - # 1
    frequency:    0.7461411226
  - # 2
    frequency:    0.9976975945
  - # 3
    frequency:    1.5582455464
  - # 4
    frequency:    1.5896693343
  - # 5
    frequency:    2.2243833388
  - # 6
    frequency:    4.1499783087
  - # 7
    frequency:    4.5246646978
  - # 8
    frequency:    5.4201482608
  - # 9
    frequency:    6.8906285810
  - # 10
    frequency:    7.0511483369
  - # 11
    frequency:    7.7386290292
  - # 12
    frequency:   10.7220234896
  - # 13
    frequency:   10.8109435870
  - # 14
    frequency:   14.3124999024
  - # 15
    frequency:   16.2989224382
  - # 16
    frequency:   16.3937789829
  - # 17
    frequency:   20.2503197641
  - # 18
    frequency:   25.9770236763
  - # 19
    frequency:   26.8605011326
  - # 20
    frequency:   27.1068893832
  - # 21
    frequency:   64.8314780930

- q-position: [    0.1161616,    0.0000000,    0.0000000 ]
  distance:    0.0389949
  band:
  - # 1
    frequency:    0.8123146026
  - # 2
    frequency:    1.0170457816
  - # 3
    frequency:    1.6095707306
  - # 4
    frequency:    1.6528845801
  - # 5
    frequency:    2.3118320228
  - # 6
    frequency:    4.1734096948
  - # 7
    frequency:    4.5687014287
  - # 8
    frequency:    5.4279763431
  - # 9
    frequency:    6.8962344929
  - # 10
    frequency:    7.0667463499
  - # 11
    frequency:    7.7597275086
  - # 12
    frequency:   10.7265028650
  - # 13
    frequency:   10.8224452772
  - # 14
    frequency:   14.3203479236
  - # 15
    frequency:   16.3082245741
  - # 16
    frequency:   16.4087482634
  - # 17
    frequency:   20.2504088149
  - # 18
    frequency:   25.9703064468
  - # 19
    frequency:   26.8620714688
  - # 20
    frequency:   27.1301206611
  - # 21
    frequency:   64.8289244797

- q-position: [    0.1212121,    0.0000000,    0.0000000 ]
  distance:    0.0406903
  band:
  - # 1
    frequency:    0.8791469281
  - # 2
    frequency:    1.0363597214
  - # 3
    frequency:    1.6607680066
  - # 4
    frequency:    1.7156061570
  - # 5
    frequency:    2.3979439110
  - # 6
    frequency:    4.1969805602
  - # 7
    frequency:    4.6119962545
  - # 8
    frequency:    5.4375513698
  - # 9
    frequency:    6.9016459881
  - # 10
    frequency:    7.0820994131
  - # 11
    frequency:    7.7806040253
  - # 12
    frequency:   10.7306427489
  - # 13
    frequency:   10.8337100817
  - # 14
    frequency:   14.3278349118
  - # 15
    frequency:   16.3171257593
  - # 16
    frequency:   16.4231191021
  - # 17
    frequency:   20.2503949082
  - # 18
    frequency:   25.9626640147
  - # 19
    frequency:   26.8634041602
  - # 20
    frequency:   27.1538199008
  - # 21
    frequency:   64.8262756882

- q-position: [    0.1262626,    0.0000000,    0.0000000 ]
  distance:    0.0423857
  band:
  - # 1
    frequency:    0.9465794402
  - # 2
    frequency:    1.0556475099
  - # 3
    frequency:    1.7117926513
  - # 4
    frequency:    1.7777755482
  - # 5
    frequency:    2.4826270172
  - # 6
    frequency:    4.2206161952
  - # 7
    frequency:    4.6543843839
  - # 8
    frequency:    5.4489666117
  - # 9
    frequency:    6.9068349808
  - # 10
    frequency:    7.0971664995
  - # 11
    frequency:    7.8011532415
  - # 12
    frequency:   10.7344040975
  - # 13
    frequency:   10.8446760879
  - # 14
    frequency:   14.3349054873
  - # 15
    frequency:   16.3255645796
  - # 16
    frequency:   16.4367973394
  - # 17
    frequency:   20.2502686646
  - # 18
    frequency:   25.9540605906
  - # 19
    frequency:   26.8644711136
  - # 20
    frequency:   27.1779215099
  - # 21
    frequency:   64.8235342555

- q-position: [    0.1313131,    0.0000000,    0.0000000 ]
  distance:    0.0440812
  band:
  - # 1
    frequency:    1.0145480840
  - # 2
    frequency:    1.0749083769
  - # 3
    frequency:    1.7626030580
  - # 4
    frequency:    1.8393479862
  - # 5
    frequency:    2.5657936174
  - # 6
    frequency:    4.2442454939
  - # 7
    frequency:    4.6957262513
  - # 8
    frequency:    5.4622968854
  - # 9
    frequency:    6.9117766353
  - # 10
    frequency:    7.1119105902
  - # 11
    frequency:    7.8212750410
  - # 12
    frequency:   10.7377518230
  - # 13
    frequency:   10.8552853525
  - # 14
    frequency:   14.3415083165
  - # 15
    frequency:   16.3334845745
  - # 16
    frequency:   16.4496959315
  - # 17
    frequency:   20.2500210336
  - # 18
    frequency:   25.9444664104
  - # 19
    frequency:   26.8652452299
  - # 20
    frequency:   27.2023595127
  - # 21
    frequency:   64.8207028490

- q-position: [    0.1363636,    0.0000000,    0.0000000 ]
  distance:    0.0457766
  band:
  - # 1
    frequency:    1.0829860172
  - # 2
    frequency:    1.0941359515
  - # 3
    frequency:    1.8131611312
  - # 4
    frequency:    1.9002890575
  - # 5
    frequency:    2.6473592174
  - # 6
    frequency:    4.2678013005
  - # 7
    frequency:    4.7359123283
  - # 8
    frequency:    5.4775934450
  - # 9
    frequency:    6.9164495427
  - # 10
    frequency:    7.1262982178
  - # 11
    frequency:    7.8408752647
  - # 12
    frequency:   10.7406551892
  - # 13
    frequency:   10.8654844398
  - # 14
    frequency:   14.3475965250
  - # 15
    frequency:   16.3408346997
  - # 16
    frequency:   16.4617354511
  - # 17
    frequency:   20.2496433492
  - # 18
    frequency:   25.9338581602
  - # 19
    frequency:   26.8657005821
  - # 20
    frequency:   27.2270679355
  - # 21
    frequency:   64.8177842666

- q-position: [    0.1414141,    0.0000000,    0.0000000 ]
  distance:    0.0474720
  band:
  - # 1
    frequency:    1.1133204218
  - # 2
    frequency:    1.1518252051
  - # 3
    frequency:    1.8634324725
  - # 4
    frequency:    1.9605723998
  - # 5
    frequency:    2.7272419860
  - # 6
    frequency:    4.2912207145
  - # 7
    frequency:    4.7748676881
  - # 8
    frequency:    5.4948790115
  - # 9
    frequency:    6.9208358672
  - # 10
    frequency:    7.1402990378
  - # 11
    frequency:    7.8598663574
  - # 12
    frequency:   10.7430881663
  - # 13
    frequency:   10.8752249265
  - # 14
    frequency:   14.3531280662
  - # 15
    frequency:   16.3475697380
  - # 16
    frequency:   16.4728445000
  - # 17
    frequency:   20.2491273876
  - # 18
    frequency:   25.9222193485
  - # 19
    frequency:   26.8658125836
  - # 20
    frequency:   27.2519811952
  - # 21
    frequency:   64.8147814370

- q-position: [    0.1464646,    0.0000000,    0.0000000 ]
  distance:    0.0491674
  band:
  - # 1
    frequency:    1.1324499805
  - # 2
    frequency:    1.2209973550
  - # 3
    frequency:    1.9133864592
  - # 4
    frequency:    2.0201781021
  - # 5
    frequency:    2.8053625538
  - # 6
    frequency:    4.3144453553
  - # 7
    frequency:    4.8125556345
  - # 8
    frequency:    5.5141436172
  - # 9
    frequency:    6.9249214653
  - # 10
    frequency:    7.1538854310
  - # 11
    frequency:    7.8781679276
  - # 12
    frequency:   10.7450297370
  - # 13
    frequency:   10.8844638684
  - # 14
    frequency:   14.3580660412
  - # 15
    frequency:   16.3536506560
  - # 16
    frequency:   16.4829600334
  - # 17
    frequency:   20.2484654279
  - # 18
    frequency:   25.9095406214
  - # 19
    frequency:   26.8655581475
  - # 20
    frequency:   27.2770344870
  - # 21
    frequency:   64.8116974184

- q-position: [    0.1515152,    0.0000000,    0.0000000 ]
  distance:    0.0508629
  band:
  - # 1
    frequency:    1.1515118018
  - # 2
    frequency:    1.2904344069
  - # 3
    frequency:    1.9629962736
  - # 4
    frequency:    2.0790915673
  - # 5
    frequency:    2.8816441114
  - # 6
    frequency:    4.3374215853
  - # 7
    frequency:    4.8489796591
  - # 8
    frequency:    5.5353419934
  - # 9
    frequency:    6.9286959777
  - # 10
    frequency:    7.1670321330
  - # 11
    frequency:    7.8957072281
  - # 12
    frequency:   10.7464641526
  - # 13
    frequency:   10.8931642237
  - # 14
    frequency:   14.3623789665
  - # 15
    frequency:   16.3590449023
  - # 16
    frequency:   16.4920275980
  - # 17
    frequency:   20.2476503146
  - # 18
    frequency:   25.8958200208
  - # 19
    frequency:   26.8649158344
  - # 20
    frequency:   27.3021641676
  - # 21
    frequency:   64.8085353976
