nqpoint: 300    
npath: 3      
segment_nqpoint:
- 100
- 100
- 100
labels:
- [ 'G', 'M' ]
- [ 'M', 'K' ]
- [ 'K', 'G' ]
reciprocal_lattice:
- [   0.30344603,   0.17519465,   0.00000000 ] # a*
- [   0.00000000,   0.35038930,   0.00000000 ] # b*
- [   0.00000000,   0.00000000,   0.04200723 ] # c*
natom: 6      
lattice:
- [     3.295478903906998,     0.000000000000000,     0.000000000000000 ] # a
- [    -1.647739451953499,     2.853968448416367,     0.000000000000000 ] # b
- [     0.000000000000000,     0.000000000000000,    23.805428490109655 ] # c
points:
- symbol: F # 1
  coordinates: [  0.333332985432215,  0.666666983183674,  0.621934971523861 ]
  mass: 18.998403
- symbol: H # 2
  coordinates: [  0.666666984744047,  0.333332985985145,  0.378065028476139 ]
  mass: 1.007940
- symbol: N # 3
  coordinates: [  0.000000000000000,  0.000000000000000,  0.522435621716479 ]
  mass: 14.006700
- symbol: O # 4
  coordinates: [  0.666666984744047,  0.333332985985145,  0.419516618355057 ]
  mass: 15.999400
- symbol: Sc # 5
  coordinates: [  0.333332985432215,  0.666666983183674,  0.470295207729245 ]
  mass: 44.955912
- symbol: Sc # 6
  coordinates: [  0.666666984744047,  0.333332985985145,  0.572598150201431 ]
  mass: 44.955912

phonon:
- q-position: [    0.0000000,    0.0000000,    0.0000000 ]
  distance:    0.0000000
  band:
  - # 1
    frequency:   -0.0000017588
  - # 2
    frequency:   -0.0000000676
  - # 3
    frequency:    0.0000016644
  - # 4
    frequency:    4.6675767010
  - # 5
    frequency:    4.6675767010
  - # 6
    frequency:    6.1420240178
  - # 7
    frequency:    6.1420240178
  - # 8
    frequency:    7.6505683351
  - # 9
    frequency:    8.3233741585
  - # 10
    frequency:    8.3233741585
  - # 11
    frequency:   12.3781951052
  - # 12
    frequency:   13.0219454870
  - # 13
    frequency:   13.0219454870
  - # 14
    frequency:   13.2827485969
  - # 15
    frequency:   13.6118359789
  - # 16
    frequency:   13.6118359789
  - # 17
    frequency:   15.4805438458
  - # 18
    frequency:  111.3679707925

- q-position: [    0.0050505,    0.0000000,    0.0000000 ]
  distance:    0.0017696
  band:
  - # 1
    frequency:   -0.1762540629
  - # 2
    frequency:    0.0923835886
  - # 3
    frequency:    0.2252139885
  - # 4
    frequency:    4.6678811025
  - # 5
    frequency:    4.6697690052
  - # 6
    frequency:    6.1439080337
  - # 7
    frequency:    6.1440742242
  - # 8
    frequency:    7.6500186359
  - # 9
    frequency:    8.3233160863
  - # 10
    frequency:    8.3235917955
  - # 11
    frequency:   12.3764591301
  - # 12
    frequency:   13.0205859651
  - # 13
    frequency:   13.0221577016
  - # 14
    frequency:   13.2810083572
  - # 15
    frequency:   13.6117120265
  - # 16
    frequency:   13.6121845559
  - # 17
    frequency:   15.4789778467
  - # 18
    frequency:  111.3669703821

- q-position: [    0.0101010,    0.0000000,    0.0000000 ]
  distance:    0.0035393
  band:
  - # 1
    frequency:   -0.2343131794
  - # 2
    frequency:    0.1847210614
  - # 3
    frequency:    0.3654699153
  - # 4
    frequency:    4.6687952009
  - # 5
    frequency:    4.6763205656
  - # 6
    frequency:    6.1495444995
  - # 7
    frequency:    6.1502006709
  - # 8
    frequency:    7.6483754961
  - # 9
    frequency:    8.3231368884
  - # 10
    frequency:    8.3242423760
  - # 11
    frequency:   12.3712443797
  - # 12
    frequency:   13.0165271995
  - # 13
    frequency:   13.0227946805
  - # 14
    frequency:   13.2757975956
  - # 15
    frequency:   13.6113302255
  - # 16
    frequency:   13.6132266500
  - # 17
    frequency:   15.4742923037
  - # 18
    frequency:  111.3639741990

- q-position: [    0.0151515,    0.0000000,    0.0000000 ]
  distance:    0.0053089
  band:
  - # 1
    frequency:   -0.2811220790
  - # 2
    frequency:    0.2769661110
  - # 3
    frequency:    0.5061427508
  - # 4
    frequency:    4.6703216790
  - # 5
    frequency:    4.6871561475
  - # 6
    frequency:    6.1588868892
  - # 7
    frequency:    6.1603312533
  - # 8
    frequency:    7.6456566453
  - # 9
    frequency:    8.3228218318
  - # 10
    frequency:    8.3253189751
  - # 11
    frequency:   12.3625310948
  - # 12
    frequency:   13.0098272446
  - # 13
    frequency:   13.0238573187
  - # 14
    frequency:   13.2671462876
  - # 15
    frequency:   13.6106614843
  - # 16
    frequency:   13.6149514708
  - # 17
    frequency:   15.4665243702
  - # 18
    frequency:  111.3589973618

- q-position: [    0.0202020,    0.0000000,    0.0000000 ]
  distance:    0.0070786
  band:
  - # 1
    frequency:   -0.3262347964
  - # 2
    frequency:    0.3690720617
  - # 3
    frequency:    0.6494053364
  - # 4
    frequency:    4.6724650042
  - # 5
    frequency:    4.7021530294
  - # 6
    frequency:    6.1718583860
  - # 7
    frequency:    6.1743471476
  - # 8
    frequency:    7.6418911639
  - # 9
    frequency:    8.3223470543
  - # 10
    frequency:    8.3268102714
  - # 11
    frequency:   12.3502887044
  - # 12
    frequency:   13.0005784563
  - # 13
    frequency:   13.0253467428
  - # 14
    frequency:   13.2551047963
  - # 15
    frequency:   13.6096596570
  - # 16
    frequency:   13.6173414301
  - # 17
    frequency:   15.4557352707
  - # 18
    frequency:  111.3520649807

- q-position: [    0.0252525,    0.0000000,    0.0000000 ]
  distance:    0.0088482
  band:
  - # 1
    frequency:   -0.3710435111
  - # 2
    frequency:    0.4609917169
  - # 3
    frequency:    0.7943610412
  - # 4
    frequency:    4.6752314189
  - # 5
    frequency:    4.7211447692
  - # 6
    frequency:    6.1883529500
  - # 7
    frequency:    6.1920847373
  - # 8
    frequency:    7.6371188262
  - # 9
    frequency:    8.3216805784
  - # 10
    frequency:    8.3287008658
  - # 11
    frequency:   12.3344792706
  - # 12
    frequency:   12.9889011461
  - # 13
    frequency:   13.0272637845
  - # 14
    frequency:   13.2397446852
  - # 15
    frequency:   13.6082646609
  - # 16
    frequency:   13.6203727194
  - # 17
    frequency:   15.4420092629
  - # 18
    frequency:  111.3432120271

- q-position: [    0.0303030,    0.0000000,    0.0000000 ]
  distance:    0.0106179
  band:
  - # 1
    frequency:   -0.4149950346
  - # 2
    frequency:    0.5526772469
  - # 3
    frequency:    0.9400681187
  - # 4
    frequency:    4.6786289132
  - # 5
    frequency:    4.7439260435
  - # 6
    frequency:    6.2082367733
  - # 7
    frequency:    6.2133381273
  - # 8
    frequency:    7.6313892676
  - # 9
    frequency:    8.3207836850
  - # 10
    frequency:    8.3309717080
  - # 11
    frequency:   12.3150621037
  - # 12
    frequency:   12.9749351232
  - # 13
    frequency:   13.0296082826
  - # 14
    frequency:   13.2211602410
  - # 15
    frequency:   13.6064061878
  - # 16
    frequency:   13.6240160878
  - # 17
    frequency:   15.4254522011
  - # 18
    frequency:  111.3324831520

- q-position: [    0.0353535,    0.0000000,    0.0000000 ]
  distance:    0.0123875
  band:
  - # 1
    frequency:   -0.4571501905
  - # 2
    frequency:    0.6440801238
  - # 3
    frequency:    1.0858273250
  - # 4
    frequency:    4.6826671736
  - # 5
    frequency:    4.7702582013
  - # 6
    frequency:    6.2313500824
  - # 7
    frequency:    6.2378620791
  - # 8
    frequency:    7.6247610468
  - # 9
    frequency:    8.3196126089
  - # 10
    frequency:    8.3336006108
  - # 11
    frequency:   12.2919993094
  - # 12
    frequency:   12.9588293631
  - # 13
    frequency:   13.0323782485
  - # 14
    frequency:   13.1994710658
  - # 15
    frequency:   13.6040075986
  - # 16
    frequency:   13.6282377915
  - # 17
    frequency:   15.4061897204
  - # 18
    frequency:  111.3199324543

- q-position: [    0.0404040,    0.0000000,    0.0000000 ]
  distance:    0.0141571
  band:
  - # 1
    frequency:   -0.4965777274
  - # 2
    frequency:    0.7351511134
  - # 3
    frequency:    1.2311293708
  - # 4
    frequency:    4.6873574962
  - # 5
    frequency:    4.7998751704
  - # 6
    frequency:    6.2575092405
  - # 7
    frequency:    6.2653751832
  - # 8
    frequency:    7.6173006840
  - # 9
    frequency:    8.3181205255
  - # 10
    frequency:    8.3365628278
  - # 11
    frequency:   12.2652619369
  - # 12
    frequency:   12.9407299039
  - # 13
    frequency:   13.0355689373
  - # 14
    frequency:   13.1748262044
  - # 15
    frequency:   13.6009896985
  - # 16
    frequency:   13.6330006836
  - # 17
    frequency:   15.3843650709
  - # 18
    frequency:  111.3056232003

- q-position: [    0.0454545,    0.0000000,    0.0000000 ]
  distance:    0.0159268
  band:
  - # 1
    frequency:   -0.5324310453
  - # 2
    frequency:    0.8258403302
  - # 3
    frequency:    1.3755884185
  - # 4
    frequency:    4.6927126561
  - # 5
    frequency:    4.8324893804
  - # 6
    frequency:    6.2865090961
  - # 7
    frequency:    6.2955630817
  - # 8
    frequency:    7.6090817454
  - # 9
    frequency:    8.3162597982
  - # 10
    frequency:    8.3398316712
  - # 11
    frequency:   12.2348363163
  - # 12
    frequency:   12.9207658409
  - # 13
    frequency:   13.0391718687
  - # 14
    frequency:   13.1474104375
  - # 15
    frequency:   13.5972742272
  - # 16
    frequency:   13.6382654085
  - # 17
    frequency:   15.3601366382
  - # 18
    frequency:  111.2896274960

- q-position: [    0.0505051,    0.0000000,    0.0000000 ]
  distance:    0.0176964
  band:
  - # 1
    frequency:   -0.5639406443
  - # 2
    frequency:    0.9160973570
  - # 3
    frequency:    1.5188974981
  - # 4
    frequency:    4.6987467255
  - # 5
    frequency:    4.8677974288
  - # 6
    frequency:    6.3181255213
  - # 7
    frequency:    6.3280815621
  - # 8
    frequency:    7.6001840391
  - # 9
    frequency:    8.3139844723
  - # 10
    frequency:    8.3433791394
  - # 11
    frequency:   12.2007301229
  - # 12
    frequency:   12.8990330028
  - # 13
    frequency:   13.0431738439
  - # 14
    frequency:   13.1174535672
  - # 15
    frequency:   13.5927870214
  - # 16
    frequency:   13.6439916654
  - # 17
    frequency:   15.3336752034
  - # 18
    frequency:  111.2720259144

- q-position: [    0.0555556,    0.0000000,    0.0000000 ]
  distance:    0.0194661
  band:
  - # 1
    frequency:   -0.5903857455
  - # 2
    frequency:    1.0058714285
  - # 3
    frequency:    1.6608014105
  - # 4
    frequency:    4.7054748367
  - # 5
    frequency:    4.9054852865
  - # 6
    frequency:    6.3521180792
  - # 7
    frequency:    6.3625593723
  - # 8
    frequency:    7.5906929617
  - # 9
    frequency:    8.3112530078
  - # 10
    frequency:    8.3471765286
  - # 11
    frequency:   12.1629777132
  - # 12
    frequency:   12.8755746619
  - # 13
    frequency:   13.0475560035
  - # 14
    frequency:   13.0852436521
  - # 15
    frequency:   13.5874608898
  - # 16
    frequency:   13.6501395042
  - # 17
    frequency:   15.3051610060
  - # 18
    frequency:  111.2529070789

- q-position: [    0.0606061,    0.0000000,    0.0000000 ]
  distance:    0.0212357
  band:
  - # 1
    frequency:   -0.6110604330
  - # 2
    frequency:    1.0951116747
  - # 3
    frequency:    1.8010804136
  - # 4
    frequency:    4.7129128879
  - # 5
    frequency:    4.9452329128
  - # 6
    frequency:    6.3882327649
  - # 7
    frequency:    6.3986006462
  - # 8
    frequency:    7.5806990133
  - # 9
    frequency:    8.3080312541
  - # 10
    frequency:    8.3511950028
  - # 11
    frequency:   12.1216443500
  - # 12
    frequency:   12.8503587971
  - # 13
    frequency:   13.0511448606
  - # 14
    frequency:   13.0522929724
  - # 15
    frequency:   13.5812382792
  - # 16
    frequency:   13.6566706163
  - # 17
    frequency:   15.2747806890
  - # 18
    frequency:  111.2323672068

- q-position: [    0.0656566,    0.0000000,    0.0000000 ]
  distance:    0.0230054
  band:
  - # 1
    frequency:   -0.6252354057
  - # 2
    frequency:    1.1837674146
  - # 3
    frequency:    1.9395402143
  - # 4
    frequency:    4.7210771925
  - # 5
    frequency:    4.9867182125
  - # 6
    frequency:    6.4262047647
  - # 7
    frequency:    6.4357868866
  - # 8
    frequency:    7.5702974581
  - # 9
    frequency:    8.3042956717
  - # 10
    frequency:    8.3554060964
  - # 11
    frequency:   12.0768290687
  - # 12
    frequency:   12.8232528475
  - # 13
    frequency:   13.0156190479
  - # 14
    frequency:   13.0573521324
  - # 15
    frequency:   13.5740738104
  - # 16
    frequency:   13.6635495859
  - # 17
    frequency:   15.2427242191
  - # 18
    frequency:  111.2105096140

- q-position: [    0.0707071,    0.0000000,    0.0000000 ]
  distance:    0.0247750
  band:
  - # 1
    frequency:   -0.6321110434
  - # 2
    frequency:    1.2717884868
  - # 3
    frequency:    2.0760056271
  - # 4
    frequency:    4.7299840789
  - # 5
    frequency:    5.0296203229
  - # 6
    frequency:    6.4657611854
  - # 7
    frequency:    6.4736785307
  - # 8
    frequency:    7.5595880624
  - # 9
    frequency:    8.3000368027
  - # 10
    frequency:    8.3597821330
  - # 11
    frequency:   12.0286661006
  - # 12
    frequency:   12.7940012047
  - # 13
    frequency:   12.9792457037
  - # 14
    frequency:   13.0626930653
  - # 15
    frequency:   13.5659367429
  - # 16
    frequency:   13.6707450609
  - # 17
    frequency:   15.2091818860
  - # 18
    frequency:  111.1874441846

- q-position: [    0.0757576,    0.0000000,    0.0000000 ]
  distance:    0.0265446
  band:
  - # 1
    frequency:   -0.6307529965
  - # 2
    frequency:    1.3591256009
  - # 3
    frequency:    2.2103163737
  - # 4
    frequency:    4.7396494466
  - # 5
    frequency:    5.0736222490
  - # 6
    frequency:    6.5066237142
  - # 7
    frequency:    6.5118162215
  - # 8
    frequency:    7.5486747770
  - # 9
    frequency:    8.2952629705
  - # 10
    frequency:    8.3642965438
  - # 11
    frequency:   11.9773249296
  - # 12
    frequency:   12.7622195108
  - # 13
    frequency:   12.9427259692
  - # 14
    frequency:   13.0682672061
  - # 15
    frequency:   13.5568133980
  - # 16
    frequency:   13.6782308052
  - # 17
    frequency:   15.1743414932
  - # 18
    frequency:  111.1632868083

- q-position: [    0.0808081,    0.0000000,    0.0000000 ]
  distance:    0.0283143
  band:
  - # 1
    frequency:   -0.6199935266
  - # 2
    frequency:    1.4457306877
  - # 3
    frequency:    2.3423241302
  - # 4
    frequency:    4.7500882911
  - # 5
    frequency:    5.1184128916
  - # 6
    frequency:    6.5485111732
  - # 7
    frequency:    6.5497220495
  - # 8
    frequency:    7.5376651478
  - # 9
    frequency:    8.2900041602
  - # 10
    frequency:    8.3689240768
  - # 11
    frequency:   11.9230091807
  - # 12
    frequency:   12.7274302889
  - # 13
    frequency:   12.9068458715
  - # 14
    frequency:   13.0740177447
  - # 15
    frequency:   13.5467095420
  - # 16
    frequency:   13.6859865894
  - # 17
    frequency:   15.1383858538
  - # 18
    frequency:  111.1381587880

- q-position: [    0.0858586,    0.0000000,    0.0000000 ]
  distance:    0.0300839
  band:
  - # 1
    frequency:   -0.5982634236
  - # 2
    frequency:    1.5315572248
  - # 3
    frequency:    2.4718902912
  - # 4
    frequency:    4.7613142113
  - # 5
    frequency:    5.1636885246
  - # 6
    frequency:    6.5869011977
  - # 7
    frequency:    6.5911419457
  - # 8
    frequency:    7.5266691353
  - # 9
    frequency:    8.2843159697
  - # 10
    frequency:    8.3736408945
  - # 11
    frequency:   11.8659545971
  - # 12
    frequency:   12.6891607920
  - # 13
    frequency:   12.8723775440
  - # 14
    frequency:   13.0798798144
  - # 15
    frequency:   13.5356527132
  - # 16
    frequency:   13.6939988753
  - # 17
    frequency:   15.1014906983
  - # 18
    frequency:  111.1121862229

- q-position: [    0.0909091,    0.0000000,    0.0000000 ]
  distance:    0.0318536
  band:
  - # 1
    frequency:   -0.5632708767
  - # 2
    frequency:    1.6165605122
  - # 3
    frequency:    2.5988841175
  - # 4
    frequency:    4.7733389159
  - # 5
    frequency:    5.2091537784
  - # 6
    frequency:    6.6228446398
  - # 7
    frequency:    6.6342362566
  - # 8
    frequency:    7.5157969080
  - # 9
    frequency:    8.2782834373
  - # 10
    frequency:    8.3784245638
  - # 11
    frequency:   11.8064263591
  - # 12
    frequency:   12.6470840654
  - # 13
    frequency:   12.8399371188
  - # 14
    frequency:   13.0857810010
  - # 15
    frequency:   13.5236944703
  - # 16
    frequency:   13.7022612464
  - # 17
    frequency:   15.0638230902
  - # 18
    frequency:  111.0854993677

- q-position: [    0.0959596,    0.0000000,    0.0000000 ]
  distance:    0.0336232
  band:
  - # 1
    frequency:   -0.5112935892
  - # 2
    frequency:    1.7006978715
  - # 3
    frequency:    2.7231810584
  - # 4
    frequency:    4.7861717477
  - # 5
    frequency:    5.2545221878
  - # 6
    frequency:    6.6570337686
  - # 7
    frequency:    6.6775182975
  - # 8
    frequency:    7.5051550768
  - # 9
    frequency:    8.2720244305
  - # 10
    frequency:    8.3832539454
  - # 11
    frequency:   11.7447159440
  - # 12
    frequency:   12.6011272597
  - # 13
    frequency:   12.8098750175
  - # 14
    frequency:   13.0916422048
  - # 15
    frequency:   13.5109125457
  - # 16
    frequency:   13.7107745396
  - # 17
    frequency:   15.0255404167
  - # 18
    frequency:  111.0582319747

- q-position: [    0.1010101,    0.0000000,    0.0000000 ]
  distance:    0.0353929
  band:
  - # 1
    frequency:   -0.4352562643
  - # 2
    frequency:    1.7839287440
  - # 3
    frequency:    2.8446611089
  - # 4
    frequency:    4.7998192474
  - # 5
    frequency:    5.2995163594
  - # 6
    frequency:    6.6889480127
  - # 7
    frequency:    6.7207181948
  - # 8
    frequency:    7.4948408209
  - # 9
    frequency:    8.2656921181
  - # 10
    frequency:    8.3881089997
  - # 11
    frequency:   11.6811376514
  - # 12
    frequency:   12.5514759049
  - # 13
    frequency:   12.7822697893
  - # 14
    frequency:   13.0973788760
  - # 15
    frequency:   13.4974129001
  - # 16
    frequency:   13.7195466375
  - # 17
    frequency:   14.9867899969
  - # 18
    frequency:  111.0305206200

- q-position: [    0.1060606,    0.0000000,    0.0000000 ]
  distance:    0.0371625
  band:
  - # 1
    frequency:   -0.3171224736
  - # 2
    frequency:    1.8662146659
  - # 3
    frequency:    2.9632071031
  - # 4
    frequency:    4.8142847765
  - # 5
    frequency:    5.3438678102
  - # 6
    frequency:    6.7180765298
  - # 7
    frequency:    6.7635738225
  - # 8
    frequency:    7.4849335276
  - # 9
    frequency:    8.2594758595
  - # 10
    frequency:    8.3929705264
  - # 11
    frequency:   11.6160248291
  - # 12
    frequency:   12.4984869852
  - # 13
    frequency:   12.7570126250
  - # 14
    frequency:   13.1029026332
  - # 15
    frequency:   13.4833316958
  - # 16
    frequency:   13.7285918879
  - # 17
    frequency:   14.9477093079
  - # 18
    frequency:  111.0025040188

- q-position: [    0.1111111,    0.0000000,    0.0000000 ]
  distance:    0.0389321
  band:
  - # 1
    frequency:    0.0767284791
  - # 2
    frequency:    1.9475191054
  - # 3
    frequency:    3.0787028750
  - # 4
    frequency:    4.8295682199
  - # 5
    frequency:    5.3873165264
  - # 6
    frequency:    6.7439347489
  - # 7
    frequency:    6.8058324691
  - # 8
    frequency:    7.4754840676
  - # 9
    frequency:    8.2535996535
  - # 10
    frequency:    8.3978198606
  - # 11
    frequency:   11.5497257747
  - # 12
    frequency:   12.4425838280
  - # 13
    frequency:   12.7339095984
  - # 14
    frequency:   13.1081232547
  - # 15
    frequency:   13.4688372157
  - # 16
    frequency:   13.7379301400
  - # 17
    frequency:   14.9084267923
  - # 18
    frequency:  110.9743223336

- q-position: [    0.1161616,    0.0000000,    0.0000000 ]
  distance:    0.0407018
  band:
  - # 1
    frequency:    0.3611866224
  - # 2
    frequency:    2.0278071532
  - # 3
    frequency:    3.1910312346
  - # 4
    frequency:    4.8456657884
  - # 5
    frequency:    5.4296103006
  - # 6
    frequency:    6.7660857317
  - # 7
    frequency:    6.8472523684
  - # 8
    frequency:    7.4665027684
  - # 9
    frequency:    8.2483171543
  - # 10
    frequency:    8.4026385506
  - # 11
    frequency:   11.4825992355
  - # 12
    frequency:   12.3841851543
  - # 13
    frequency:   12.7127494378
  - # 14
    frequency:   13.1129510037
  - # 15
    frequency:   13.4541317569
  - # 16
    frequency:   13.7475854062
  - # 17
    frequency:   14.8690631706
  - # 18
    frequency:  110.9461164787

- q-position: [    0.1212121,    0.0000000,    0.0000000 ]
  distance:    0.0424714
  band:
  - # 1
    frequency:    0.5230302821
  - # 2
    frequency:    2.1070450669
  - # 3
    frequency:    3.3000717177
  - # 4
    frequency:    4.8625699335
  - # 5
    frequency:    5.4705039101
  - # 6
    frequency:    6.7841649620
  - # 7
    frequency:    6.8876041082
  - # 8
    frequency:    7.4579484546
  - # 9
    frequency:    8.2439023032
  - # 10
    frequency:    8.4074080417
  - # 11
    frequency:   11.4150094218
  - # 12
    frequency:   12.3236749920
  - # 13
    frequency:   12.6933303613
  - # 14
    frequency:   13.1172992210
  - # 15
    frequency:   13.4394534949
  - # 16
    frequency:   13.7575841913
  - # 17
    frequency:   14.8297331470
  - # 18
    frequency:  110.9180274253

- q-position: [    0.1262626,    0.0000000,    0.0000000 ]
  distance:    0.0442411
  band:
  - # 1
    frequency:    0.6599288321
  - # 2
    frequency:    2.1851996834
  - # 3
    frequency:    3.4056980818
  - # 4
    frequency:    4.8802693851
  - # 5
    frequency:    5.5097582238
  - # 6
    frequency:    6.7979055721
  - # 7
    frequency:    6.9266719308
  - # 8
    frequency:    7.4497221695
  - # 9
    frequency:    8.2406349549
  - # 10
    frequency:    8.4121093905
  - # 11
    frequency:   11.3473204540
  - # 12
    frequency:   12.2613987903
  - # 13
    frequency:   12.6754609585
  - # 14
    frequency:   13.1210870802
  - # 15
    frequency:   13.4250782507
  - # 16
    frequency:   13.7679535669
  - # 17
    frequency:   14.7905473712
  - # 18
    frequency:  110.8901955105

- q-position: [    0.1313131,    0.0000000,    0.0000000 ]
  distance:    0.0460107
  band:
  - # 1
    frequency:    0.7851631880
  - # 2
    frequency:    2.2622377240
  - # 3
    frequency:    3.5077755272
  - # 4
    frequency:    4.8987493160
  - # 5
    frequency:    5.5471393597
  - # 6
    frequency:    6.8071598392
  - # 7
    frequency:    6.9642549403
  - # 8
    frequency:    7.4416695655
  - # 9
    frequency:    8.2387816315
  - # 10
    frequency:    8.4167230320
  - # 11
    frequency:   11.2798902098
  - # 12
    frequency:   12.1976713670
  - # 13
    frequency:   12.6589499182
  - # 14
    frequency:   13.1242423706
  - # 15
    frequency:   13.4113209666
  - # 16
    frequency:   13.7787190986
  - # 17
    frequency:   14.7516145030
  - # 18
    frequency:  110.8627597546

- q-position: [    0.1363636,    0.0000000,    0.0000000 ]
  distance:    0.0477804
  band:
  - # 1
    frequency:    0.9036391707
  - # 2
    frequency:    2.3381250297
  - # 3
    frequency:    3.6061576403
  - # 4
    frequency:    4.9179916256
  - # 5
    frequency:    5.5824180697
  - # 6
    frequency:    6.8119129135
  - # 7
    frequency:    7.0001682286
  - # 8
    frequency:    7.4335945824
  - # 9
    frequency:    8.2385727031
  - # 10
    frequency:    8.4212286193
  - # 11
    frequency:   11.2130635960
  - # 12
    frequency:   12.1327884533
  - # 13
    frequency:   12.6435934016
  - # 14
    frequency:   13.1267041475
  - # 15
    frequency:   13.3985365211
  - # 16
    frequency:   13.7899027646
  - # 17
    frequency:   14.7130432191
  - # 18
    frequency:  110.8358571901

- q-position: [    0.1414141,    0.0000000,    0.0000000 ]
  distance:    0.0495500
  band:
  - # 1
    frequency:    1.0177046178
  - # 2
    frequency:    2.4128257771
  - # 3
    frequency:    3.7006830746
  - # 4
    frequency:    4.9379753321
  - # 5
    frequency:    5.6153696126
  - # 6
    frequency:    6.8122865498
  - # 7
    frequency:    7.0342439327
  - # 8
    frequency:    7.4252837488
  - # 9
    frequency:    8.2401786457
  - # 10
    frequency:    8.4256049481
  - # 11
    frequency:   11.1471653561
  - # 12
    frequency:   12.0670382800
  - # 13
    frequency:   12.6291643314
  - # 14
    frequency:   13.1284250790
  - # 15
    frequency:   13.3871192901
  - # 16
    frequency:   13.8015210143
  - # 17
    frequency:   14.6749440125
  - # 18
    frequency:  110.8096222056

- q-position: [    0.1464646,    0.0000000,    0.0000000 ]
  distance:    0.0513196
  band:
  - # 1
    frequency:    1.1286371920
  - # 2
    frequency:    2.4863017354
  - # 3
    frequency:    3.7911720251
  - # 4
    frequency:    4.9586770493
  - # 5
    frequency:    5.6457744974
  - # 6
    frequency:    6.8085335089
  - # 7
    frequency:    7.0663322302
  - # 8
    frequency:    7.4165363187
  - # 9
    frequency:    8.2436890827
  - # 10
    frequency:    8.4298299782
  - # 11
    frequency:   11.0824926314
  - # 12
    frequency:   12.0007120175
  - # 13
    frequency:   12.6154056304
  - # 14
    frequency:   13.1293733259
  - # 15
    frequency:   13.3775006263
  - # 16
    frequency:   13.8135831142
  - # 17
    frequency:   14.6374306480
  - # 18
    frequency:  110.7841859088

- q-position: [    0.1515152,    0.0000000,    0.0000000 ]
  distance:    0.0530893
  band:
  - # 1
    frequency:    1.2371836540
  - # 2
    frequency:    2.5585116346
  - # 3
    frequency:    3.8774226090
  - # 4
    frequency:    4.9800715186
  - # 5
    frequency:    5.6734206367
  - # 6
    frequency:    6.8010258080
  - # 7
    frequency:    7.0963022793
  - # 8
    frequency:    7.4071925213
  - # 9
    frequency:    8.2490984985
  - # 10
    frequency:    8.4338809527
  - # 11
    frequency:   11.0193076145
  - # 12
    frequency:   11.9341127934
  - # 13
    frequency:   12.6020285549
  - # 14
    frequency:   13.1295338192
  - # 15
    frequency:   13.3701432779
  - # 16
    frequency:   13.8260899048
  - # 17
    frequency:   14.6006211652
  - # 18
    frequency:  110.7596755115

- q-position: [    0.1565657,    0.0000000,    0.0000000 ]
  distance:    0.0548589
  band:
  - # 1
    frequency:    1.3437970508
  - # 2
    frequency:    2.6294107172
  - # 3
    frequency:    3.9592073607
  - # 4
    frequency:    5.0021321588
  - # 5
    frequency:    5.6981076412
  - # 6
    frequency:    6.7902407661
  - # 7
    frequency:    7.1240431007
  - # 8
    frequency:    7.3971521453
  - # 9
    frequency:    8.2563015011
  - # 10
    frequency:    8.4377346144
  - # 11
    frequency:   10.9578307746
  - # 12
    frequency:   11.8675632202
  - # 13
    frequency:   12.5887168491
  - # 14
    frequency:   13.1289088418
  - # 15
    frequency:   13.3655318153
  - # 16
    frequency:   13.8390330549
  - # 17
    frequency:   14.5646383532
  - # 18
    frequency:  110.7362137399

- q-position: [    0.1616162,    0.0000000,    0.0000000 ]
  distance:    0.0566286
  band:
  - # 1
    frequency:    1.4487550692
  - # 2
    frequency:    2.6989505503
  - # 3
    frequency:    4.0362702025
  - # 4
    frequency:    5.0248315942
  - # 5
    frequency:    5.7196541723
  - # 6
    frequency:    6.7767474811
  - # 7
    frequency:    7.1494643993
  - # 8
    frequency:    7.3863786474
  - # 9
    frequency:    8.2650985148
  - # 10
    frequency:    8.4413675088
  - # 11
    frequency:   10.8982352841
  - # 12
    frequency:   11.8014112696
  - # 13
    frequency:   12.5751369505
  - # 14
    frequency:   13.1275178798
  - # 15
    frequency:   13.3641585345
  - # 16
    frequency:   13.8523948483
  - # 17
    frequency:   14.5296096561
  - # 18
    frequency:  110.7139182728

- q-position: [    0.1666667,    0.0000000,    0.0000000 ]
  distance:    0.0583982
  band:
  - # 1
    frequency:    1.5522246065
  - # 2
    frequency:    2.7670791684
  - # 3
    frequency:    4.1083244731
  - # 4
    frequency:    5.0481421148
  - # 5
    frequency:    5.7379093392
  - # 6
    frequency:    6.7611938245
  - # 7
    frequency:    7.1724973124
  - # 8
    frequency:    7.3748884536
  - # 9
    frequency:    8.2752105689
  - # 10
    frequency:    8.4447563619
  - # 11
    frequency:   10.8406434255
  - # 12
    frequency:   11.7360341211
  - # 13
    frequency:   12.5609536464
  - # 14
    frequency:   13.1253967620
  - # 15
    frequency:   13.3665051286
  - # 16
    frequency:   13.8661484896
  - # 17
    frequency:   14.4956665087
  - # 18
    frequency:  110.6929012110

- q-position: [    0.1717172,    0.0000000,    0.0000000 ]
  distance:    0.0601679
  band:
  - # 1
    frequency:    1.6542994051
  - # 2
    frequency:    2.8337416111
  - # 3
    frequency:    4.1750529186
  - # 4
    frequency:    5.0720360299
  - # 5
    frequency:    5.7527689135
  - # 6
    frequency:    6.7442915985
  - # 7
    frequency:    7.1930950697
  - # 8
    frequency:    7.3627290968
  - # 9
    frequency:    8.2863002550
  - # 10
    frequency:    8.4478785121
  - # 11
    frequency:   10.7851258808
  - # 12
    frequency:   11.6718393710
  - # 13
    frequency:   12.5458494443
  - # 14
    frequency:   13.1225961604
  - # 15
    frequency:   13.3730215779
  - # 16
    frequency:   13.8802588706
  - # 17
    frequency:   14.4629431416
  - # 18
    frequency:  110.6732685803

- q-position: [    0.1767677,    0.0000000,    0.0000000 ]
  distance:    0.0619375
  band:
  - # 1
    frequency:    1.7550231017
  - # 2
    frequency:    2.8988809057
  - # 3
    frequency:    4.2361109659
  - # 4
    frequency:    5.0964858754
  - # 5
    frequency:    5.7641963493
  - # 6
    frequency:    6.7267963181
  - # 7
    frequency:    7.2112335416
  - # 8
    frequency:    7.3499519198
  - # 9
    frequency:    8.2979954493
  - # 10
    frequency:    8.4507123753
  - # 11
    frequency:   10.7317048600
  - # 12
    frequency:   11.6092627803
  - # 13
    frequency:   12.5295448062
  - # 14