nqpoint: 300    
npath: 3      
segment_nqpoint:
- 100
- 100
- 100
labels:
- [ 'G', 'M' ]
- [ 'M', 'K' ]
- [ 'K', 'G' ]
reciprocal_lattice:
- [   0.28983478,   0.16733619,   0.00000000 ] # a*
- [   0.00000000,   0.33467238,   0.00000000 ] # b*
- [   0.00000000,   0.00000000,   0.04199853 ] # c*
natom: 5      
lattice:
- [     3.450241501034649,     0.000000000000000,     0.000000000000000 ] # a
- [    -1.725120750517324,     2.987996789083354,     0.000000000000000 ] # b
- [     0.000000000000000,     0.000000000000000,    23.810356829288345 ] # c
points:
- symbol: C # 1
  coordinates: [  0.000000000000000,  0.000000000000000,  0.500000032957822 ]
  mass: 12.010700
- symbol: Cl # 2
  coordinates: [  0.333332985432215,  0.666666983183674,  0.622013224559096 ]
  mass: 35.453000
- symbol: Cl # 3
  coordinates: [  0.666666984744047,  0.333332985985145,  0.377986775440904 ]
  mass: 35.453000
- symbol: Sc # 4
  coordinates: [  0.333332985432215,  0.666666983183674,  0.448242910128025 ]
  mass: 44.955912
- symbol: Sc # 5
  coordinates: [  0.666666984744047,  0.333332985985145,  0.551757089380059 ]
  mass: 44.955912

phonon:
- q-position: [    0.0000000,    0.0000000,    0.0000000 ]
  distance:    0.0000000
  band:
  - # 1
    frequency:   -0.0000119277
  - # 2
    frequency:   -0.0000001756
  - # 3
    frequency:    0.0000120462
  - # 4
    frequency:    3.7056916249
  - # 5
    frequency:    3.7056916249
  - # 6
    frequency:    5.2433655107
  - # 7
    frequency:    5.2433655107
  - # 8
    frequency:    5.7262563869
  - # 9
    frequency:    6.3027920916
  - # 10
    frequency:    6.3027920916
  - # 11
    frequency:    9.2690778442
  - # 12
    frequency:   11.0436929076
  - # 13
    frequency:   11.0436929077
  - # 14
    frequency:   12.1175260051
  - # 15
    frequency:   18.0933583705

- q-position: [    0.0050505,    0.0000000,    0.0000000 ]
  distance:    0.0016903
  band:
  - # 1
    frequency:    0.0020749745
  - # 2
    frequency:    0.0721513283
  - # 3
    frequency:    0.1239649769
  - # 4
    frequency:    3.7057997649
  - # 5
    frequency:    3.7074011129
  - # 6
    frequency:    5.2433320152
  - # 7
    frequency:    5.2442490770
  - # 8
    frequency:    5.7279179379
  - # 9
    frequency:    6.3027194642
  - # 10
    frequency:    6.3027778908
  - # 11
    frequency:    9.2689115395
  - # 12
    frequency:   11.0433911858
  - # 13
    frequency:   11.0494851304
  - # 14
    frequency:   12.1170642718
  - # 15
    frequency:   18.0918492732

- q-position: [    0.0101010,    0.0000000,    0.0000000 ]
  distance:    0.0033805
  band:
  - # 1
    frequency:    0.0082867718
  - # 2
    frequency:    0.1442714543
  - # 3
    frequency:    0.2478911208
  - # 4
    frequency:    3.7061243983
  - # 5
    frequency:    3.7125164508
  - # 6
    frequency:    5.2432321608
  - # 7
    frequency:    5.2468151758
  - # 8
    frequency:    5.7329429903
  - # 9
    frequency:    6.3025052440
  - # 10
    frequency:    6.3027350135
  - # 11
    frequency:    9.2684129132
  - # 12
    frequency:   11.0424871933
  - # 13
    frequency:   11.0667845504
  - # 14
    frequency:   12.1157266150
  - # 15
    frequency:   18.0873245054

- q-position: [    0.0151515,    0.0000000,    0.0000000 ]
  distance:    0.0050708
  band:
  - # 1
    frequency:    0.0185964065
  - # 2
    frequency:    0.2163292600
  - # 3
    frequency:    0.3717392416
  - # 4
    frequency:    3.7066661649
  - # 5
    frequency:    3.7209986504
  - # 6
    frequency:    5.2430678404
  - # 7
    frequency:    5.2508195381
  - # 8
    frequency:    5.7414453567
  - # 9
    frequency:    6.3021604257
  - # 10
    frequency:    6.3026626348
  - # 11
    frequency:    9.2675828553
  - # 12
    frequency:   11.0409844452
  - # 13
    frequency:   11.0953515932
  - # 14
    frequency:   12.1136634303
  - # 15
    frequency:   18.0797916358

- q-position: [    0.0202020,    0.0000000,    0.0000000 ]
  distance:    0.0067611
  band:
  - # 1
    frequency:    0.0329401887
  - # 2
    frequency:    0.2882937918
  - # 3
    frequency:    0.4954694404
  - # 4
    frequency:    3.7074261264
  - # 5
    frequency:    3.7327840082
  - # 6
    frequency:    5.2428421985
  - # 7
    frequency:    5.2558862424
  - # 8
    frequency:    5.7535904634
  - # 9
    frequency:    6.3017033888
  - # 10
    frequency:    6.3025593789
  - # 11
    frequency:    9.2664229331
  - # 12
    frequency:   11.0388887866
  - # 13
    frequency:   11.1347587643
  - # 14
    frequency:   12.1111534175
  - # 15
    frequency:   18.0692632666

- q-position: [    0.0252525,    0.0000000,    0.0000000 ]
  distance:    0.0084513
  band:
  - # 1
    frequency:    0.0512315592
  - # 2
    frequency:    0.3601343430
  - # 3
    frequency:    0.6190407623
  - # 4
    frequency:    3.7084057615
  - # 5
    frequency:    3.7477859297
  - # 6
    frequency:    5.2425596144
  - # 7
    frequency:    5.2615519104
  - # 8
    frequency:    5.7695608184
  - # 9
    frequency:    6.3011600678
  - # 10
    frequency:    6.3024233174
  - # 11
    frequency:    9.2649355022
  - # 12
    frequency:   11.0362083724
  - # 13
    frequency:   11.1843402225
  - # 14
    frequency:   12.1086539121
  - # 15
    frequency:   18.0557570153

- q-position: [    0.0303030,    0.0000000,    0.0000000 ]
  distance:    0.0101416
  band:
  - # 1
    frequency:    0.0733634857
  - # 2
    frequency:    0.4318205357
  - # 3
    frequency:    0.7424108597
  - # 4
    frequency:    3.7096069572
  - # 5
    frequency:    3.7658973163
  - # 6
    frequency:    5.2422256806
  - # 7
    frequency:    5.2673208396
  - # 8
    frequency:    5.7895130075
  - # 9
    frequency:    6.3005643821
  - # 10
    frequency:    6.3022519685
  - # 11
    frequency:    9.2631238377
  - # 12
    frequency:   11.0329536389
  - # 13
    frequency:   11.2431021978
  - # 14
    frequency:   12.1068906103
  - # 15
    frequency:   18.0392954899

- q-position: [    0.0353535,    0.0000000,    0.0000000 ]
  distance:    0.0118319
  band:
  - # 1
    frequency:    0.0992112707
  - # 2
    frequency:    0.5033224002
  - # 3
    frequency:    0.8655356694
  - # 4
    frequency:    3.7110319985
  - # 5
    frequency:    3.7869933676
  - # 6
    frequency:    5.2418471730
  - # 7
    frequency:    5.2727223497
  - # 8
    frequency:    5.8135336819
  - # 9
    frequency:    6.2999591672
  - # 10
    frequency:    6.3020422971
  - # 11
    frequency:    9.2609922684
  - # 12
    frequency:   11.0291372663
  - # 13
    frequency:   11.3095691671
  - # 14
    frequency:   12.1070119958
  - # 15
    frequency:   18.0199062591

- q-position: [    0.0404040,    0.0000000,    0.0000000 ]
  distance:    0.0135221
  band:
  - # 1
    frequency:    0.1286356079
  - # 2
    frequency:    0.5746104538
  - # 3
    frequency:    0.9883691059
  - # 4
    frequency:    3.7126835558
  - # 5
    frequency:    3.8109346393
  - # 6
    frequency:    5.2414320160
  - # 7
    frequency:    5.2773596439
  - # 8
    frequency:    5.8416037511
  - # 9
    frequency:    6.2993980136
  - # 10
    frequency:    6.3017907171
  - # 11
    frequency:    9.2585463033
  - # 12
    frequency:   11.0247741319
  - # 13
    frequency:   11.3815294242
  - # 14
    frequency:   12.1108450486
  - # 15
    frequency:   17.9976218167

- q-position: [    0.0454545,    0.0000000,    0.0000000 ]
  distance:    0.0152124
  band:
  - # 1
    frequency:    0.1614857296
  - # 2
    frequency:    0.6456557776
  - # 3
    frequency:    1.1108627747
  - # 4
    frequency:    3.7145646699
  - # 5
    frequency:    3.8375701989
  - # 6
    frequency:    5.2409892405
  - # 7
    frequency:    5.2809411049
  - # 8
    frequency:    5.8735781169
  - # 9
    frequency:    6.2989487347
  - # 10
    frequency:    6.3014930968
  - # 11
    frequency:    9.2557927422
  - # 12
    frequency:   11.0198812540
  - # 13
    frequency:   11.4556558971
  - # 14
    frequency:   12.1212765640
  - # 15
    frequency:   17.9724795441

- q-position: [    0.0505051,    0.0000000,    0.0000000 ]
  distance:    0.0169026
  band:
  - # 1
    frequency:    0.1976025001
  - # 2
    frequency:    0.7164300919
  - # 3
    frequency:    1.2329657110
  - # 4
    frequency:    3.7166787350
  - # 5
    frequency:    3.8667407347
  - # 6
    frequency:    5.2405289356
  - # 7
    frequency:    5.2832902485
  - # 8
    frequency:    5.9091825095
  - # 9
    frequency:    6.2986998098
  - # 10
    frequency:    6.3011447691
  - # 11
    frequency:    9.2527397711
  - # 12
    frequency:   11.0144777253
  - # 13
    frequency:   11.5271065229
  - # 14
    frequency:   12.1426558888
  - # 15
    frequency:   17.9445216710

- q-position: [    0.0555556,    0.0000000,    0.0000000 ]
  distance:    0.0185929
  band:
  - # 1
    frequency:    0.2368213367
  - # 2
    frequency:    0.7869058276
  - # 3
    frequency:    1.3546241438
  - # 4
    frequency:    3.7190294797
  - # 5
    frequency:    3.8982814962
  - # 6
    frequency:    5.2400621941
  - # 7
    frequency:    5.2843369991
  - # 8
    frequency:    5.9480214325
  - # 9
    frequency:    6.2987724795
  - # 10
    frequency:    6.3007405479
  - # 11
    frequency:    9.2493970441
  - # 12
    frequency:   11.0085846349
  - # 13
    frequency:   11.5896297531
  - # 14
    frequency:   12.1806935361
  - # 15
    frequency:   17.9137952374

- q-position: [    0.0606061,    0.0000000,    0.0000000 ]
  distance:    0.0202832
  band:
  - # 1
    frequency:    0.2789748685
  - # 2
    frequency:    0.8570561967
  - # 3
    frequency:    1.4757812926
  - # 4
    frequency:    3.7216209461
  - # 5
    frequency:    3.9320249746
  - # 6
    frequency:    5.2396010519
  - # 7
    frequency:    5.2840972660
  - # 8
    frequency:    5.9895841757
  - # 9
    frequency:    6.2993441464
  - # 10
    frequency:    6.3002747507
  - # 11
    frequency:    9.2457757561
  - # 12
    frequency:   11.0022249803
  - # 13
    frequency:   11.6371568812
  - # 14
    frequency:   12.2408739354
  - # 15
    frequency:   17.8803520617

- q-position: [    0.0656566,    0.0000000,    0.0000000 ]
  distance:    0.0219734
  band:
  - # 1
    frequency:    0.3238952750
  - # 2
    frequency:    0.9268552576
  - # 3
    frequency:    1.5963771974
  - # 4
    frequency:    3.7244574666
  - # 5
    frequency:    3.9678032613
  - # 6
    frequency:    5.2391584208
  - # 7
    frequency:    5.2826485116
  - # 8
    frequency:    6.0332283831
  - # 9
    frequency:    6.2997412315
  - # 10
    frequency:    6.3006957398
  - # 11
    frequency:    9.2418887126
  - # 12
    frequency:   10.9954235656
  - # 13
    frequency:   11.6666437509
  - # 14
    frequency:   12.3256196260
  - # 15
    frequency:   17.8442487165

- q-position: [    0.0707071,    0.0000000,    0.0000000 ]
  distance:    0.0236637
  band:
  - # 1
    frequency:    0.3714162725
  - # 2
    frequency:    0.9962779787
  - # 3
    frequency:    1.7163485869
  - # 4
    frequency:    3.7275436394
  - # 5
    frequency:    4.0054500485
  - # 6
    frequency:    5.2387480165
  - # 7
    frequency:    5.2801070099
  - # 8
    frequency:    6.0781059204
  - # 9
    frequency:    6.2991334221
  - # 10
    frequency:    6.3033126453
  - # 11
    frequency:    9.2377504004
  - # 12
    frequency:   10.9882068893
  - # 13
    frequency:   11.6792215912
  - # 14
    frequency:   12.4331469478
  - # 15
    frequency:   17.8055465215

- q-position: [    0.0757576,    0.0000000,    0.0000000 ]
  distance:    0.0253540
  band:
  - # 1
    frequency:    0.4213747436
  - # 2
    frequency:    1.0653002957
  - # 3
    frequency:    1.8356287866
  - # 4
    frequency:    3.7308843023
  - # 5
    frequency:    4.0448022655
  - # 6
    frequency:    5.2383842803
  - # 7
    frequency:    5.2766096808
  - # 8
    frequency:    6.1229600139
  - # 9
    frequency:    6.2984443852
  - # 10
    frequency:    6.3081075541
  - # 11
    frequency:    9.2333770640
  - # 12
    frequency:   10.9806030173
  - # 13
    frequency:   11.6783269217
  - # 14
    frequency:   12.5593430420
  - # 15
    frequency:   17.7643115594

- q-position: [    0.0808081,    0.0000000,    0.0000000 ]
  distance:    0.0270442
  band:
  - # 1
    frequency:    0.4736120213
  - # 2
    frequency:    1.1338991662
  - # 3
    frequency:    1.9541476712
  - # 4
    frequency:    3.7344845045
  - # 5
    frequency:    4.0857013570
  - # 6
    frequency:    5.2380822959
  - # 7
    frequency:    5.2723011243
  - # 8
    frequency:    6.1656721923
  - # 9
    frequency:    6.2976668791
  - # 10
    frequency:    6.3168863975
  - # 11
    frequency:    9.2287867892
  - # 12
    frequency:   10.9726414447
  - # 13
    frequency:   11.6674502524
  - # 14
    frequency:   12.7000241740
  - # 15
    frequency:   17.7206147260

- q-position: [    0.0858586,    0.0000000,    0.0000000 ]
  distance:    0.0287345
  band:
  - # 1
    frequency:    0.5279748542
  - # 2
    frequency:    1.2020526178
  - # 3
    frequency:    2.0718316618
  - # 4
    frequency:    3.7383494783
  - # 5
    frequency:    4.1279942270
  - # 6
    frequency:    5.2378577023
  - # 7
    frequency:    5.2673252132
  - # 8
    frequency:    6.2026660225
  - # 9
    frequency:    6.2967934356
  - # 10
    frequency:    6.3329513954
  - # 11
    frequency:    9.2239995967
  - # 12
    frequency:   10.9643529431
  - # 13
    frequency:   11.6492379949
  - # 14
    frequency:   12.8518407034
  - # 15
    frequency:   17.6745318313

- q-position: [    0.0909091,    0.0000000,    0.0000000 ]
  distance:    0.0304248
  band:
  - # 1
    frequency:    0.5843160878
  - # 2
    frequency:    1.2697397915
  - # 3
    frequency:    2.1886037716
  - # 4
    frequency:    3.7424846076
  - # 5
    frequency:    4.1715338787
  - # 6
    frequency:    5.2377266013
  - # 7
    frequency:    5.2618201583
  - # 8
    frequency:    6.2298690527
  - # 9
    frequency:    6.2958164499
  - # 10
    frequency:    6.3601412853
  - # 11
    frequency:    9.2190375459
  - # 12
    frequency:   10.9557693955
  - # 13
    frequency:   11.6254965622
  - # 14
    frequency:   13.0122794809
  - # 15
    frequency:   17.6261437718

- q-position: [    0.0959596,    0.0000000,    0.0000000 ]
  distance:    0.0321150
  band:
  - # 1
    frequency:    0.6424950988
  - # 2
    frequency:    1.3369409785
  - # 3
    frequency:    2.3043837001
  - # 4
    frequency:    3.7468953975
  - # 5
    frequency:    4.2161797828
  - # 6
    frequency:    5.2377054628
  - # 7
    frequency:    5.2559159849
  - # 8
    frequency:    6.2467689182
  - # 9
    frequency:    6.2947282848
  - # 10
    frequency:    6.3987742077
  - # 11
    frequency:    9.2139248510
  - # 12
    frequency:   10.9469236185
  - # 13
    frequency:   11.5974293077
  - # 14
    frequency:   13.1794328183
  - # 15
    frequency:   17.5755368041

- q-position: [    0.1010101,    0.0000000,    0.0000000 ]
  distance:    0.0338053
  band:
  - # 1
    frequency:    0.7023780243
  - # 2
    frequency:    1.4036376509
  - # 3
    frequency:    2.4190879766
  - # 4
    frequency:    3.7515874414
  - # 5
    frequency:    4.2617980068
  - # 6
    frequency:    5.2378110263
  - # 7
    frequency:    5.2497335759
  - # 8
    frequency:    6.2567801191
  - # 9
    frequency:    6.2935213871
  - # 10
    frequency:    6.4452779120
  - # 11
    frequency:    9.2086880076
  - # 12
    frequency:   10.9378491721
  - # 13
    frequency:   11.5658479297
  - # 14
    frequency:   13.3517922299
  - # 15
    frequency:   17.5228029651

- q-position: [    0.1060606,    0.0000000,    0.0000000 ]
  distance:    0.0354956
  band:
  - # 1
    frequency:    0.7638378225
  - # 2
    frequency:    1.4698124849
  - # 3
    frequency:    2.5326301532
  - # 4
    frequency:    3.7565663883
  - # 5
    frequency:    4.3082611341
  - # 6
    frequency:    5.2380602012
  - # 7
    frequency:    5.2433846839
  - # 8
    frequency:    6.2631799333
  - # 9
    frequency:    6.2921884156
  - # 10
    frequency:    6.4962496917
  - # 11
    frequency:    9.2033559318
  - # 12
    frequency:   10.9285801583
  - # 13
    frequency:   11.5313162490
  - # 14
    frequency:   13.5281088925
  - # 15
    frequency:   17.4680407031

- q-position: [    0.1111111,    0.0000000,    0.0000000 ]
  distance:    0.0371858
  band:
  - # 1
    frequency:    0.8267541998
  - # 2
    frequency:    1.5354493779
  - # 3
    frequency:    2.6449210438
  - # 4
    frequency:    3.7618379088
  - # 5
    frequency:    4.3554479922
  - # 6
    frequency:    5.2369725257
  - # 7
    frequency:    5.2384699651
  - # 8
    frequency:    6.2678144348
  - # 9
    frequency:    6.2907223816
  - # 10
    frequency:    6.5497456853
  - # 11
    frequency:    9.1979601119
  - # 12
    frequency:   10.9191510094
  - # 13
    frequency:   11.4942406594
  - # 14
    frequency:   13.7073063933
  - # 15
    frequency:   17.4113558168

- q-position: [    0.1161616,    0.0000000,    0.0000000 ]
  distance:    0.0388761
  band:
  - # 1
    frequency:    0.8910134373
  - # 2
    frequency:    1.6005334560
  - # 3
    frequency:    2.7558690064
  - # 4
    frequency:    3.7674076609
  - # 5
    frequency:    4.4032432010
  - # 6
    frequency:    5.2305927276
  - # 7
    frequency:    5.2390572623
  - # 8
    frequency:    6.2716180282
  - # 9
    frequency:    6.2891167972
  - # 10
    frequency:    6.6047565313
  - # 11
    frequency:    9.1925347708
  - # 12
    frequency:   10.9095962674
  - # 13
    frequency:   11.4549260841
  - # 14
    frequency:   13.8884267848
  - # 15
    frequency:   17.3528628537

- q-position: [    0.1212121,    0.0000000,    0.0000000 ]
  distance:    0.0405663
  band:
  - # 1
    frequency:    0.9565081419
  - # 2
    frequency:    1.6650510759
  - # 3
    frequency:    2.8653802620
  - # 4
    frequency:    3.7732812556
  - # 5
    frequency:    4.4515365364
  - # 6
    frequency:    5.2243345089
  - # 7
    frequency:    5.2398389018
  - # 8
    frequency:    6.2750816481
  - # 9
    frequency:    6.2873658326
  - # 10
    frequency:    6.6607344746
  - # 11
    frequency:    9.1871170417
  - # 12
    frequency:   10.8999503566
  - # 13
    frequency:   11.4136108466
  - # 14
    frequency:   14.0705963357
  - # 15
    frequency:   17.2926872024

- q-position: [    0.1262626,    0.0000000,    0.0000000 ]
  distance:    0.0422566
  band:
  - # 1
    frequency:    1.0231369459
  - # 2
    frequency:    1.7289898163
  - # 3
    frequency:    2.9733592430
  - # 4
    frequency:    3.7794642214
  - # 5
    frequency:    4.5002220827
  - # 6
    frequency:    5.2182820693
  - # 7
    frequency:    5.2408314580
  - # 8
    frequency:    6.2784831003
  - # 9
    frequency:    6.2854644776
  - # 10
    frequency:    6.7173585900
  - # 11
    frequency:    9.1817471538
  - # 12
    frequency:   10.8902473510
  - # 13
    frequency:   11.3704887800
  - # 14
    frequency:   14.2530023270
  - # 15
    frequency:   17.2309682643

- q-position: [    0.1313131,    0.0000000,    0.0000000 ]
  distance:    0.0439469
  band:
  - # 1
    frequency:    1.0908041739
  - # 2
    frequency:    1.7923384629
  - # 3
    frequency:    3.0797089572
  - # 4
    frequency:    3.7859619694
  - # 5
    frequency:    4.5491971151
  - # 6
    frequency:    5.2125162221
  - # 7
    frequency:    5.2420511722
  - # 8
    frequency:    6.2819922861
  - # 9
    frequency:    6.2834087059
  - # 10
    frequency:    6.7744254513
  - # 11
    frequency:    9.1764686285
  - # 12
    frequency:   10.8805207384
  - # 13
    frequency:   11.3257235448
  - # 14
    frequency:   14.4348753541
  - # 15
    frequency:   17.1678643398

- q-position: [    0.1363636,    0.0000000,    0.0000000 ]
  distance:    0.0456371
  band:
  - # 1
    frequency:    1.1594194919
  - # 2
    frequency:    1.8550869837
  - # 3
    frequency:    3.1843313540
  - # 4
    frequency:    3.7927797572
  - # 5
    frequency:    4.5983606003
  - # 6
    frequency:    5.2071163855
  - # 7
    frequency:    5.2435138581
  - # 8
    frequency:    6.2811956391
  - # 9
    frequency:    6.2857209089
  - # 10
    frequency:    6.8317956710
  - # 11
    frequency:    9.1713284823
  - # 12
    frequency:   10.8708031854
  - # 13
    frequency:   11.2794581128
  - # 14
    frequency:   14.6154731542
  - # 15
    frequency:   17.1035603324

- q-position: [    0.1414141,    0.0000000,    0.0000000 ]
  distance:    0.0473274
  band:
  - # 1
    frequency:    1.2288975515
  - # 2
    frequency:    1.9172264966
  - # 3
    frequency:    3.2871276715
  - # 4
    frequency:    3.7999226524
  - # 5
    frequency:    4.6476111126
  - # 6
    frequency:    5.2021631508
  - # 7
    frequency:    5.2452348108
  - # 8
    frequency:    6.2788237065
  - # 9
    frequency:    6.2897473494
  - # 10
    frequency:    6.8893656230
  - # 11
    frequency:    9.1663774329
  - # 12
    frequency:   10.8611263035
  - # 13
    frequency:   11.2318211942
  - # 14
    frequency:   14.7940622911
  - # 15
    frequency:   17.0382802367

- q-position: [    0.1464646,    0.0000000,    0.0000000 ]
  distance:    0.0490177
  band:
  - # 1
    frequency:    1.2991576374
  - # 2
    frequency:    1.9787492284
  - # 3
    frequency:    3.3879987401
  - # 4
    frequency:    3.8073954965
  - # 5
    frequency:    4.6968438016
  - # 6
    frequency:    5.1977418154
  - # 7
    frequency:    5.2472287205
  - # 8
    frequency:    6.2762927975
  - # 9
    frequency:    6.2941298759
  - # 10
    frequency:    6.9470511648
  - # 11
    frequency:    9.1616701007
  - # 12
    frequency:   10.8515204217
  - # 13
    frequency:   11.1829317015
  - # 14
    frequency:   14.9698930091
  - # 15
    frequency:   16.9723080864

- q-position: [    0.1515152,    0.0000000,    0.0000000 ]
  distance:    0.0507079
  band:
  - # 1
    frequency:    1.3701233259
  - # 2
    frequency:    2.0396484659
  - # 3
    frequency:    3.4868452126
  - # 4
    frequency:    3.8152028669
  - # 5
    frequency:    4.7459457427
  - # 6
    frequency:    5.1939475786
  - # 7
    frequency:    5.2495095921
  - # 8
    frequency:    6.2736044026
  - # 9
    frequency:    6.2989140555
  - # 10
    frequency:    7.0047774721
  - # 11
    frequency:    9.1572651964
  - # 12
    frequency:   10.8420143674
  - # 13
    frequency:   11.1329019293
  - # 14
    frequency:   15.1421594737
  - # 15
    frequency:   16.9060245358

- q-position: [    0.1565657,    0.0000000,    0.0000000 ]
  distance:    0.0523982
  band:
  - # 1
    frequency:    1.4417221594
  - # 2
    frequency:    2.0999184990
  - # 3
    frequency:    3.5835676823
  - # 4
    frequency:    3.8233490390
  - # 5
    frequency:    4.7947884017
  - # 6
    frequency:    5.1908937003
  - # 7
    frequency:    5.2520906703
  - # 8
    frequency:    6.2707617402
  - # 9
    frequency:    6.3041371223
  - # 10
    frequency:    7.0624722090
  - # 11
    frequency:    9.1532256774
  - # 12
    frequency:   10.8326352586
  - # 13
    frequency:   11.0818398913
  - # 14
    frequency:   15.3099302692
  - # 15
    frequency:   16.8399738354

- q-position: [    0.1616162,    0.0000000,    0.0000000 ]
  distance:    0.0540885
  band:
  - # 1
    frequency:    1.5138853402
  - # 2
    frequency:    2.1595545567
  - # 3
    frequency:    3.6780666462
  - # 4
    frequency:    3.8318379463
  - # 5
    frequency:    4.8432147201
  - # 6
    frequency:    5.1887251579
  - # 7
    frequency:    5.2549843718
  - # 8
    frequency:    6.2677698643
  - # 9
    frequency:    6.3098306660
  - # 10
    frequency:    7.1200606560
  - # 11
    frequency:    9.1496188512
  - # 12
    frequency:   10.8234083113
  - # 13
    frequency:   11.0298511028
  - # 14
    frequency:   15.4720169156
  - # 15
    frequency:   16.7749932137

- q-position: [    0.1666667,    0.0000000,    0.0000000 ]
  distance:    0.0557787
  band:
  - # 1
    frequency:    1.5865474457
  - # 2
    frequency:    2.2185527358
  - # 3
    frequency:    3.7702422608
  - # 4
    frequency:    3.8406731403
  - # 5
    frequency:    4.8910157163
  - # 6
    frequency:    5.1876429475
  - # 7
    frequency:    5.2582022247
  - # 8
    frequency:    6.2646357504
  - # 9
    frequency:    6.3160223496
  - # 10
    frequency:    7.1774620815
  - # 11
    frequency:    9.1465163925
  - # 12
    frequency:   10.8143566642
  - # 13
    frequency:   10.9770400076
  - # 14
    frequency:   15.6267073385
  - # 15
    frequency:   16.7124775923

- q-position: [    0.1717172,    0.0000000,    0.0000000 ]
  distance:    0.0574690
  band:
  - # 1
    frequency:    1.6596461657
  - # 2
    frequency:    2.2769099238
  - # 3
    frequency:    3.8498577475
  - # 4
    frequency:    3.8599938320
  - # 5
    frequency:    4.9378858253
  - # 6
    frequency:    5.1879498590
  - # 7
    frequency:    5.2617548157
  - # 8
    frequency:    6.2613683565
  - # 9
    frequency:    6.3227370395
  - # 10
    frequency:    7.2345869777
  - # 11
    frequency:    9.1439942289
  - # 12
    frequency:   10.8055012245
  - # 13
    frequency:   10.9235111918
  - # 14
    frequency:   15.7711945923
  - # 15
    frequency:   16.6549492502

- q-position: [    0.1767677,    0.0000000,    0.0000000 ]
  distance:    0.0591593
  band:
  - # 1
    frequency:    1.7331220631
  - # 2
    frequency:    2.3346237161
  - # 3
    frequency:    3.8593944256
  - # 4
    frequency:    3.9472189733
  - # 5
    frequency:    4.9833343007
  - # 6
    frequency:    5.1901404558
  - # 7
    frequency:    5.2656517448
  - # 8
    frequency:    6.2579786552
  - # 9
    frequency:    6.3299975641
  - # 10
    frequency:    7.2913349687
  - # 11
    frequency:    9.1421322330
  - # 12
    frequency:   10.7968605363
  - # 13
    frequency:   10.8693704948
  - # 14
    frequency:   15.9003426858
  - # 15
    frequency:   16.6072905329

- q-position: [    0.1818182,    0.0000000,    0.0000000 ]
  distance:    0.0608495
  band:
  - # 1
    frequency:    1.8069183561
  - # 2
    frequency:    2.3916923278
  - # 3
    frequency:    3.8692853167
  - # 4
    frequency:    4.0318123632
  - # 5
    frequency:    5.0265107244
  - # 6
    frequency:    5.1950772758
  - # 7
    frequency:    5.2699015883
  - # 8
    frequency:    6.2544796363
  - # 9
    frequency:    6.3378252241
  - # 10
    frequency:    7.3475932990
  - # 11
    frequency:    9.1410136373
  - # 12
    frequency:   10.7884506750
  - # 13
    frequency:   10.8147261067
  - # 14
    frequency:   16.0044744022
  - # 15
    frequency:   16.5789546838

- q-position: [    0.1868687,    0.0000000,    0.0000000 ]
  distance:    0.0625398
  band:
  - # 1
    frequency:    1.8809807218
  - # 2
    frequency:    2.4481145024
  - # 3
    frequency:    3.8795319983
  - # 4
    frequency:    4.1136640373
  - # 5
    frequency:    5.0659154113
  - # 6
    frequency:    5.2042825212
  - # 7
    frequency:    5.2745118706
  - # 8
    frequency:    6.2508862759
  - # 9
    frequency:    6.3462401287
  - # 10
    frequency:    7.4032358848
  - # 11
    frequency:    9.1407240622
  - # 12
    frequency:   10.7596897400
  - # 13
    frequency:   10.7802851687
  - # 14
    frequency:   16.0688042689
  - # 15
    frequency:   16.5845316196

- q-position: [    0.1919192,    0.0000000,    0.0000000 ]
  distance:    0.0642301
  band:
  - # 1
    frequency:    1.9552571203
  - # 2
    frequency:    2.5038894168
  - # 3
    frequency:    3.8901354318
  - # 4
    frequency:    4.1926571693
  - # 5
    frequency:    5.0992635160
  - # 6
    frequency:    5.2200764728
  - # 7
    frequency:    5.2794890428
  - # 8
    frequency:    6.2472154729
  - # 9
    frequency:    6.3552614005
  - # 10
    frequency:    7.4581229565
  - # 11
    frequency:    9.1413500143
  - # 12
    frequency:   10.7043779589
  - # 13
    frequency:   10.7723749486
  - # 14
    frequency:   16.0841672186
  - # 15
    frequency:   16.6330180954

- q-position: [    0.1969697,    0.0000000,    0.0000000 ]
  distance:    0.0659203
  band:
  - # 1
    frequency:    2.0296976358
  - # 2
    frequency:    2.5590165845
  - # 3
    frequency:    3.9010959076
  - # 4
    frequency:    4.2686653451
  - # 5
    frequency:    5.1246201513
  - # 6
    frequency:    5.2444453116
  - # 7
    frequency:    5.2848384710
  - # 8
    frequency:    6.2434859507
  - # 9
    frequency:    6.3649072766
  - # 10
    frequency:    7.5121013537
  - # 11
    frequency:    9.1429766771
  - # 12
    frequency:   10.6489137665
  - # 13
    frequency:   10.7647283288
  - # 14
    frequency:   16.0599425130
  - # 15
    frequency:   16.7148926795

- q-position: [    0.2020202,    0.0000000,    0.0000000 ]
  distance:    0.0676106
  band:
  - # 1
    frequency:    2.1042543357
  - # 2
    frequency:    2.6134957579
  - # 3
    frequency:    3.9124129872
  - # 4
    frequency:    4.3415494360
  - # 5
    frequency:    5.1426765149
  - # 6
    frequency:    5.2767682456
  - # 7
    frequency:    5.2905644309
  - # 8
    frequency:    6.2397181246
  - # 9
    frequency:    6.3751951213
  - # 10
    frequency:    7.5650055624
  - # 11
    frequency:    9.1456847733
  - # 12
    frequency:   10.5934285673
  - # 13
    frequency:   10.7573510167
  - # 14
    frequency:   16.0124894237
  - # 15
    frequency:   16.8136790360

- q-position: [    0.2070707,    0.0000000,    0.0000000 ]
  distance:    0.0693008
  band:
  - # 1
    frequency:    2.1788811432
  - # 2
    frequency:    2.6673268303
  - # 3
    frequency:    3.9240854425
  - # 4
    frequency:    4.4111543768
  - # 5
    frequency:    5.1562840301
  - # 6
    frequency:    5.2966701106
  - # 7
    frequency:    5.3142866359
  - # 8
    frequency:    6.2359339365
  - # 9
    frequency:    6.3861413598
  - # 10
    frequency:    7.6166595916
  - # 11
    frequency:    9.1495462394
  - # 12
    frequency:   10.5380646524
  - # 13
    frequency:   10.7502461532
  - # 14
    frequency:   15.9527043712
  - # 15
    frequency:   16.9183878099

- q-position: [    0.2121212,    0.0000000,    0.0000000 ]
  distance:    0.0709911
  band:
  - # 1
    frequency:    2.2535337228