nqpoint: 300    
npath: 3      
segment_nqpoint:
- 100
- 100
- 100
labels:
- [ 'G', 'M' ]
- [ 'M', 'K' ]
- [ 'K', 'G' ]
reciprocal_lattice:
- [   0.31670317,   0.18284866,   0.00000000 ] # a*
- [   0.00000000,   0.36569732,   0.00000000 ] # b*
- [   0.00000000,   0.00000000,   0.03888586 ] # c*
natom: 7      
lattice:
- [     3.157530793373253,     0.000000000000000,     0.000000000000000 ] # a
- [    -1.578765396686626,     2.734501880293042,     0.000000000000000 ] # b
- [     0.000000000000000,     0.000000000000000,    25.716286027012373 ] # c
points:
- symbol: C # 1
  coordinates: [  0.333332985432215,  0.666666983183674,  0.603729479668572 ]
  mass: 12.010700
- symbol: N # 2
  coordinates: [  0.000000000000000,  0.000000000000000,  0.431528032019118 ]
  mass: 14.006700
- symbol: N # 3
  coordinates: [  0.333332985432215,  0.666666983183674,  0.650027224360998 ]
  mass: 14.006700
- symbol: O # 4
  coordinates: [  0.666666984744047,  0.333332985985145,  0.349972775639002 ]
  mass: 15.999400
- symbol: S # 5
  coordinates: [  0.333332985432215,  0.666666983183674,  0.538225492326972 ]
  mass: 32.065000
- symbol: Ti # 6
  coordinates: [  0.333332985432215,  0.666666983183674,  0.384157259077546 ]
  mass: 47.867000
- symbol: Ti # 7
  coordinates: [  0.666666984744047,  0.333332985985145,  0.477035982347539 ]
  mass: 47.867000

phonon:
- q-position: [    0.0000000,    0.0000000,    0.0000000 ]
  distance:    0.0000000
  band:
  - # 1
    frequency:   -3.2703374293
  - # 2
    frequency:   -3.2703374293
  - # 3
    frequency:   -1.3314173998
  - # 4
    frequency:   -1.3314173998
  - # 5
    frequency:   -0.0000023976
  - # 6
    frequency:   -0.0000005820
  - # 7
    frequency:    0.0000029793
  - # 8
    frequency:    6.0820050308
  - # 9
    frequency:    6.1088539627
  - # 10
    frequency:    6.1088539627
  - # 11
    frequency:    9.0381459829
  - # 12
    frequency:    9.0381459829
  - # 13
    frequency:    9.4845324234
  - # 14
    frequency:   11.4855573099
  - # 15
    frequency:   11.4855573099
  - # 16
    frequency:   13.5163135910
  - # 17
    frequency:   13.7793853818
  - # 18
    frequency:   13.7793853818
  - # 19
    frequency:   15.9022538634
  - # 20
    frequency:   19.3984247058
  - # 21
    frequency:   64.5677597950

- q-position: [    0.0050505,    0.0000000,    0.0000000 ]
  distance:    0.0018470
  band:
  - # 1
    frequency:   -3.2688129065
  - # 2
    frequency:   -3.2663969582
  - # 3
    frequency:   -1.3357815705
  - # 4
    frequency:   -1.3331513195
  - # 5
    frequency:    0.0029722583
  - # 6
    frequency:    0.1480616952
  - # 7
    frequency:    0.1725391403
  - # 8
    frequency:    6.0760841748
  - # 9
    frequency:    6.1098735048
  - # 10
    frequency:    6.1164518662
  - # 11
    frequency:    9.0372683491
  - # 12
    frequency:    9.0377738967
  - # 13
    frequency:    9.4852151074
  - # 14
    frequency:   11.4861166433
  - # 15
    frequency:   11.4865106382
  - # 16
    frequency:   13.5177687347
  - # 17
    frequency:   13.7795492050
  - # 18
    frequency:   13.7795819991
  - # 19
    frequency:   15.9016155609
  - # 20
    frequency:   19.3982013839
  - # 21
    frequency:   64.5676570845

- q-position: [    0.0101010,    0.0000000,    0.0000000 ]
  distance:    0.0036939
  band:
  - # 1
    frequency:   -3.2642444088
  - # 2
    frequency:   -3.2545886236
  - # 3
    frequency:   -1.3480744297
  - # 4
    frequency:   -1.3375291905
  - # 5
    frequency:    0.0119076603
  - # 6
    frequency:    0.2928793380
  - # 7
    frequency:    0.3420902374
  - # 8
    frequency:    6.0656722281
  - # 9
    frequency:    6.1129302848
  - # 10
    frequency:    6.1318850394
  - # 11
    frequency:    9.0346510001
  - # 12
    frequency:    9.0366604270
  - # 13
    frequency:    9.4872531435
  - # 14
    frequency:   11.4877914742
  - # 15
    frequency:   11.4893634336
  - # 16
    frequency:   13.5221075142
  - # 17
    frequency:   13.7800594962
  - # 18
    frequency:   13.7801715316
  - # 19
    frequency:   15.8997019575
  - # 20
    frequency:   19.3975318279
  - # 21
    frequency:   64.5673491534

- q-position: [    0.0151515,    0.0000000,    0.0000000 ]
  distance:    0.0055409
  band:
  - # 1
    frequency:   -3.2566472659
  - # 2
    frequency:   -3.2349532669
  - # 3
    frequency:   -1.3662907692
  - # 4
    frequency:   -1.3424685878
  - # 5
    frequency:    0.0268650449
  - # 6
    frequency:    0.4321132895
  - # 7
    frequency:    0.5065475360
  - # 8
    frequency:    6.0553302973
  - # 9
    frequency:    6.1180187557
  - # 10
    frequency:    6.1505628055
  - # 11
    frequency:    9.0303396641
  - # 12
    frequency:    9.0348138996
  - # 13
    frequency:    9.4906172077
  - # 14
    frequency:   11.4905723341
  - # 15
    frequency:   11.4940943879
  - # 16
    frequency:   13.5292471538
  - # 17
    frequency:   13.7809755535
  - # 18
    frequency:   13.7811530325
  - # 19
    frequency:   15.8965169676
  - # 20
    frequency:   19.3964172664
  - # 21
    frequency:   64.5668366017

- q-position: [    0.0202020,    0.0000000,    0.0000000 ]
  distance:    0.0073878
  band:
  - # 1
    frequency:   -3.2460474187
  - # 2
    frequency:   -3.2075644341
  - # 3
    frequency:   -1.3880261963
  - # 4
    frequency:   -1.3454101288
  - # 5
    frequency:    0.0479529474
  - # 6
    frequency:    0.5646315113
  - # 7
    frequency:    0.6649632949
  - # 8
    frequency:    6.0458534631
  - # 9
    frequency:    6.1251296450
  - # 10
    frequency:    6.1716413892
  - # 11
    frequency:    9.0244076240
  - # 12
    frequency:    9.0322480595
  - # 13
    frequency:    9.4952606886
  - # 14
    frequency:   11.4944435716
  - # 15
    frequency:   11.5006688336
  - # 16
    frequency:   13.5390398146
  - # 17
    frequency:   13.7824061284
  - # 18
    frequency:   13.7825249571
  - # 19
    frequency:   15.8920671238
  - # 20
    frequency:   19.3948597466
  - # 21
    frequency:   64.5661204278

- q-position: [    0.0252525,    0.0000000,    0.0000000 ]
  distance:    0.0092348
  band:
  - # 1
    frequency:   -3.2324820048
  - # 2
    frequency:   -3.1725370009
  - # 3
    frequency:   -1.4110972693
  - # 4
    frequency:   -1.3438867729
  - # 5
    frequency:    0.0753475837
  - # 6
    frequency:    0.6902595565
  - # 7
    frequency:    0.8172814365
  - # 8
    frequency:    6.0373594409
  - # 9
    frequency:    6.1342499157
  - # 10
    frequency:    6.1949361238
  - # 11
    frequency:    9.0169518439
  - # 12
    frequency:    9.0289818777
  - # 13
    frequency:    9.5011226122
  - # 14
    frequency:   11.4993835423
  - # 15
    frequency:   11.5090399433
  - # 16
    frequency:   13.5512561531
  - # 17
    frequency:   13.7842852123
  - # 18
    frequency:   13.7845259418
  - # 19
    frequency:   15.8863615903
  - # 20
    frequency:   19.3928621329
  - # 21
    frequency:   64.5652020253

- q-position: [    0.0303030,    0.0000000,    0.0000000 ]
  distance:    0.0110817
  band:
  - # 1
    frequency:   -3.2160001740
  - # 2
    frequency:   -3.1300399895
  - # 3
    frequency:   -1.4337807663
  - # 4
    frequency:   -1.3357010516
  - # 5
    frequency:    0.1093233429
  - # 6
    frequency:    0.8093699096
  - # 7
    frequency:    0.9639307787
  - # 8
    frequency:    6.0298156418
  - # 9
    frequency:    6.1453627109
  - # 10
    frequency:    6.2203955758
  - # 11
    frequency:    9.0080884147
  - # 12
    frequency:    9.0250392923
  - # 13
    frequency:    9.5081309682
  - # 14
    frequency:   11.5053648658
  - # 15
    frequency:   11.5191502782
  - # 16
    frequency:   13.5655594386
  - # 17
    frequency:   13.7864312232
  - # 18
    frequency:   13.7876016915
  - # 19
    frequency:   15.8794121830
  - # 20
    frequency:   19.3904281060
  - # 21
    frequency:   64.5640831786

- q-position: [    0.0353535,    0.0000000,    0.0000000 ]
  distance:    0.0129287
  band:
  - # 1
    frequency:   -3.1966641213
  - # 2
    frequency:   -3.0803140696
  - # 3
    frequency:   -1.4548010250
  - # 4
    frequency:   -1.3188509974
  - # 5
    frequency:    0.1503031375
  - # 6
    frequency:    0.9225619028
  - # 7
    frequency:    1.1055200886
  - # 8
    frequency:    6.0231484498
  - # 9
    frequency:    6.1584472867
  - # 10
    frequency:    6.2479937430
  - # 11
    frequency:    8.9979478651
  - # 12
    frequency:    9.0204488930
  - # 13
    frequency:    9.5162059795
  - # 14
    frequency:   11.5123547434
  - # 15
    frequency:   11.5309335733
  - # 16
    frequency:   13.5814692928
  - # 17
    frequency:   13.7889600150
  - # 18
    frequency:   13.7920285065
  - # 19
    frequency:   15.8712333964
  - # 20
    frequency:   19.3875621603
  - # 21
    frequency:   64.5627660582

- q-position: [    0.0404040,    0.0000000,    0.0000000 ]
  distance:    0.0147756
  band:
  - # 1
    frequency:   -3.1745503177
  - # 2
    frequency:   -3.0236938621
  - # 3
    frequency:   -1.4732256416
  - # 4
    frequency:   -1.2913667012
  - # 5
    frequency:    0.1989417965
  - # 6
    frequency:    1.0304779990
  - # 7
    frequency:    1.2426698463
  - # 8
    frequency:    6.0172753190
  - # 9
    frequency:    6.1734789328
  - # 10
    frequency:    6.2776996907
  - # 11
    frequency:    8.9866707501
  - # 12
    frequency:    9.0152435597
  - # 13
    frequency:    9.5252629920
  - # 14
    frequency:   11.5203153253
  - # 15
    frequency:   11.5443166378
  - # 16
    frequency:   13.5983200134
  - # 17
    frequency:   13.7918683060
  - # 18
    frequency:   13.7983719052
  - # 19
    frequency:   15.8618424411
  - # 20
    frequency:   19.3842696026
  - # 21
    frequency:   64.5612532138

- q-position: [    0.0454545,    0.0000000,    0.0000000 ]
  distance:    0.0166226
  band:
  - # 1
    frequency:   -3.1497508934
  - # 2
    frequency:   -2.9606341069
  - # 3
    frequency:   -1.4883550080
  - # 4
    frequency:   -1.2511482979
  - # 5
    frequency:    0.2562656577
  - # 6
    frequency:    1.1337183561
  - # 7
    frequency:    1.3759380187
  - # 8
    frequency:    6.0121168589
  - # 9
    frequency:    6.1904288839
  - # 10
    frequency:    6.3094674246
  - # 11
    frequency:    8.9744037572
  - # 12
    frequency:    9.0094600687
  - # 13
    frequency:    9.5352148356
  - # 14
    frequency:   11.5292041192
  - # 15
    frequency:   11.5592212559
  - # 16
    frequency:   13.6152353482
  - # 17
    frequency:   13.7951526108
  - # 18
    frequency:   13.8073934059
  - # 19
    frequency:   15.8512592914
  - # 20
    frequency:   19.3805565482
  - # 21
    frequency:   64.5595475671

- q-position: [    0.0505051,    0.0000000,    0.0000000 ]
  distance:    0.0184696
  band:
  - # 1
    frequency:   -3.1223751039
  - # 2
    frequency:   -2.8917365883
  - # 3
    frequency:   -1.4996334062
  - # 4
    frequency:   -1.1958641200
  - # 5
    frequency:    0.3239064430
  - # 6
    frequency:    1.2328101631
  - # 7
    frequency:    1.5057961383
  - # 8
    frequency:    6.0076022132
  - # 9
    frequency:    6.2092642249
  - # 10
    frequency:    6.3432326597
  - # 11
    frequency:    8.9612964167
  - # 12
    frequency:    9.0031386789
  - # 13
    frequency:    9.5459736446
  - # 14
    frequency:   11.5389744289
  - # 15
    frequency:   11.5755659817
  - # 16
    frequency:   13.6311710320
  - # 17
    frequency:   13.7988093475
  - # 18
    frequency:   13.8200084936
  - # 19
    frequency:   15.8395067471
  - # 20
    frequency:   19.3764299185
  - # 21
    frequency:   64.5576524031

- q-position: [    0.0555556,    0.0000000,    0.0000000 ]
  distance:    0.0203165
  band:
  - # 1
    frequency:   -3.0925507624
  - # 2
    frequency:   -2.8177711076
  - # 3
    frequency:   -1.5065839512
  - # 4
    frequency:   -1.1230106513
  - # 5
    frequency:    0.4044775772
  - # 6
    frequency:    1.3282032604
  - # 7
    frequency:    1.6326284209
  - # 8
    frequency:    6.0036717207
  - # 9
    frequency:    6.2299477917
  - # 10
    frequency:    6.3789124624
  - # 11
    frequency:    8.9474984061
  - # 12
    frequency:    8.9963227112
  - # 13
    frequency:    9.5574522107
  - # 14
    frequency:   11.5495758142
  - # 15
    frequency:   11.5932677490
  - # 16
    frequency:   13.6450868305
  - # 17
    frequency:   13.8028349464
  - # 18
    frequency:   13.8371152028
  - # 19
    frequency:   15.8266105125
  - # 20
    frequency:   19.3718974369
  - # 21
    frequency:   64.5555713602

- q-position: [    0.0606061,    0.0000000,    0.0000000 ]
  distance:    0.0221635
  band:
  - # 1
    frequency:   -3.0604254652
  - # 2
    frequency:   -2.7396791164
  - # 3
    frequency:   -1.5087622093
  - # 4
    frequency:   -1.0303853396
  - # 5
    frequency:    0.5020800232
  - # 6
    frequency:    1.4202767542
  - # 7
    frequency:    1.7567398535
  - # 8
    frequency:    6.0002783196
  - # 9
    frequency:    6.2524380730
  - # 10
    frequency:    6.4164062770
  - # 11
    frequency:    8.9331573807
  - # 12
    frequency:    8.9890581338
  - # 13
    frequency:    9.5695649762
  - # 14
    frequency:   11.5609545613
  - # 15
    frequency:   11.6122432375
  - # 16
    frequency:   13.6562252134
  - # 17
    frequency:   13.8072259561
  - # 18
    frequency:   13.8593161977
  - # 19
    frequency:   15.8125992957
  - # 20
    frequency:   19.3669676240
  - # 21
    frequency:   64.5533084202

- q-position: [    0.0656566,    0.0000000,    0.0000000 ]
  distance:    0.0240104
  band:
  - # 1
    frequency:   -3.0261673659
  - # 2
    frequency:   -2.6585449698
  - # 3
    frequency:   -1.5057226532
  - # 4
    frequency:   -0.9174356778
  - # 5
    frequency:    0.6225248593
  - # 6
    frequency:    1.5093492594
  - # 7
    frequency:    1.8783667693
  - # 8
    frequency:    5.9973883315
  - # 9
    frequency:    6.2766891149
  - # 10
    frequency:    6.4555976705
  - # 11
    frequency:    8.9184172533
  - # 12
    frequency:    8.9813931624
  - # 13
    frequency:    9.5822287692
  - # 14
    frequency:   11.5730541565
  - # 15
    frequency:   11.6324099660
  - # 16
    frequency:   13.6643154753
  - # 17
    frequency:   13.8119791416
  - # 18
    frequency:   13.8867155195
  - # 19
    frequency:   15.7975049350
  - # 20
    frequency:   19.3616497930
  - # 21
    frequency:   64.5508678960

- q-position: [    0.0707071,    0.0000000,    0.0000000 ]
  distance:    0.0258574
  band:
  - # 1
    frequency:   -2.9899651730
  - # 2
    frequency:   -2.5755215980
  - # 3
    frequency:   -1.4969932404
  - # 4
    frequency:   -0.7874151487
  - # 5
    frequency:    0.7716856939
  - # 6
    frequency:    1.5956895203
  - # 7
    frequency:    1.9976872334
  - # 8
    frequency:    5.9949819467
  - # 9
    frequency:    6.3026504335
  - # 10
    frequency:    6.4963564573
  - # 11
    frequency:    8.9034168480
  - # 12
    frequency:    8.9733778877
  - # 13
    frequency:    9.5953633593
  - # 14
    frequency:   11.5858157560
  - # 15
    frequency:   11.6536871055
  - # 16
    frequency:   13.6695344770
  - # 17
    frequency:   13.8170915724
  - # 18
    frequency:   13.9189588158
  - # 19
    frequency:   15.7813625565
  - # 20
    frequency:   19.3559540428
  - # 21
    frequency:   64.5482544193

- q-position: [    0.0757576,    0.0000000,    0.0000000 ]
  distance:    0.0277043
  band:
  - # 1
    frequency:   -2.9520269727
  - # 2
    frequency:   -2.4917097140
  - # 3
    frequency:   -1.4820545363
  - # 4
    frequency:   -0.6468309839
  - # 5
    frequency:    0.9502992662
  - # 6
    frequency:    1.6795261405
  - # 7
    frequency:    2.1148303445
  - # 8
    frequency:    5.9930535856
  - # 9
    frequency:    6.3302669393
  - # 10
    frequency:    6.5385410100
  - # 11
    frequency:    8.8882888692
  - # 12
    frequency:    8.9650639350
  - # 13
    frequency:    9.6088918866
  - # 14
    frequency:   11.5991786452
  - # 15
    frequency:   11.6759960268
  - # 16
    frequency:   13.6722935108
  - # 17
    frequency:   13.8225606950
  - # 18
    frequency:   13.9554475229
  - # 19
    frequency:   15.7642107741
  - # 20
    frequency:   19.3498912515
  - # 21
    frequency:   64.5454729273

- q-position: [    0.0808081,    0.0000000,    0.0000000 ]
  distance:    0.0295513
  band:
  - # 1
    frequency:   -2.9125774397
  - # 2
    frequency:   -2.4080118766
  - # 3
    frequency:   -1.4603204310
  - # 4
    frequency:   -0.4963412432
  - # 5
    frequency:    1.1503419206
  - # 6
    frequency:    1.7610560439
  - # 7
    frequency:    2.2298843501
  - # 8
    frequency:    5.9916122454
  - # 9
    frequency:    6.3594788780
  - # 10
    frequency:    6.5820006398
  - # 11
    frequency:    8.8731591387
  - # 12
    frequency:    8.9565041636
  - # 13
    frequency:    9.6227411911
  - # 14
    frequency:   11.6130806839
  - # 15
    frequency:   11.6992606110
  - # 16
    frequency:   13.6730396602
  - # 17
    frequency:   13.8283843876
  - # 18
    frequency:   13.9955385988
  - # 19
    frequency:   15.7460919399
  - # 20
    frequency:   19.3434730676
  - # 21
    frequency:   64.5425286482

- q-position: [    0.0858586,    0.0000000,    0.0000000 ]
  distance:    0.0313983
  band:
  - # 1
    frequency:   -2.8718530283
  - # 2
    frequency:   -2.3250027890
  - # 3
    frequency:   -1.4311174037
  - # 4
    frequency:   -0.3119179818
  - # 5
    frequency:    1.3603763357
  - # 6
    frequency:    1.8404516697
  - # 7
    frequency:    2.3429038288
  - # 8
    frequency:    5.9906818979
  - # 9
    frequency:    6.3902217913
  - # 10
    frequency:    6.6265779761
  - # 11
    frequency:    8.8581460646
  - # 12
    frequency:    8.9477524097
  - # 13
    frequency:    9.6368420543
  - # 14
    frequency:   11.6274587335
  - # 15
    frequency:   11.7234073620
  - # 16
    frequency:   13.6721559913
  - # 17
    frequency:   13.8345609931
  - # 18
    frequency:   14.0386454336
  - # 19
    frequency:   15.7270524626
  - # 20
    frequency:   19.3367119002
  - # 21
    frequency:   64.5394270862

- q-position: [    0.0909091,    0.0000000,    0.0000000 ]
  distance:    0.0332452
  band:
  - # 1
    frequency:   -2.8300948793
  - # 2
    frequency:   -2.2428573810
  - # 3
    frequency:   -1.3936582411
  - # 4
    frequency:    0.2024426883
  - # 5
    frequency:    1.5721131365
  - # 6
    frequency:    1.9178670378
  - # 7
    frequency:    2.4539163854
  - # 8
    frequency:    5.9903019814
  - # 9
    frequency:    6.4224265019
  - # 10
    frequency:    6.6721113024
  - # 11
    frequency:    8.8433603131
  - # 12
    frequency:    8.9388632741
  - # 13
    frequency:    9.6511293556
  - # 14
    frequency:   11.6422490647
  - # 15
    frequency:   11.7483653640
  - # 16
    frequency:   13.6699379932
  - # 17
    frequency:   13.8410893291
  - # 18
    frequency:   14.0842624721
  - # 19
    frequency:   15.7071432117
  - # 20
    frequency:   19.3296209074
  - # 21
    frequency:   64.5361740058

- q-position: [    0.0959596,    0.0000000,    0.0000000 ]
  distance:    0.0350922
  band:
  - # 1
    frequency:   -2.7875394712
  - # 2
    frequency:   -2.1613532873
  - # 3
    frequency:   -1.3470035580
  - # 4
    frequency:    0.4225624956
  - # 5
    frequency:    1.7811401490
  - # 6
    frequency:    1.9934428573
  - # 7
    frequency:    2.5629294966
  - # 8
    frequency:    5.9905280207
  - # 9
    frequency:    6.4560191261
  - # 10
    frequency:    6.7184368223
  - # 11
    frequency:    8.8289046559
  - # 12
    frequency:    8.9298919560
  - # 13
    frequency:    9.6655421434
  - # 14
    frequency:   11.6573877436
  - # 15
    frequency:   11.7740661283
  - # 16
    frequency:   13.6666037239
  - # 17
    frequency:   13.8479686721
  - # 18
    frequency:   14.1319560412
  - # 19
    frequency:   15.6864200356
  - # 20
    frequency:   19.3222139828
  - # 21
    frequency:   64.5327754151

- q-position: [    0.1010101,    0.0000000,    0.0000000 ]
  distance:    0.0369391
  band:
  - # 1
    frequency:   -2.7444074752
  - # 2
    frequency:   -2.0799310616
  - # 3
    frequency:   -1.2899991731
  - # 4
    frequency:    0.5676888124
  - # 5
    frequency:    1.9853083875
  - # 6
    frequency:    2.0673108340
  - # 7
    frequency:    2.6699384779
  - # 8
    frequency:    5.9914323981
  - # 9
    frequency:    6.4909211176
  - # 10
    frequency:    6.7653908363
  - # 11
    frequency:    8.8148739669
  - # 12
    frequency:    8.9208941324
  - # 13
    frequency:    9.6800236194
  - # 14
    frequency:   11.6728109951
  - # 15
    frequency:   11.8004433703
  - # 16
    frequency:   13.6623122810
  - # 17
    frequency:   13.8551987154
  - # 18
    frequency:   14.1813466962
  - # 19
    frequency:   15.6649444329
  - # 20
    frequency:   19.3145057391
  - # 21
    frequency:   64.5292375490

- q-position: [    0.1060606,    0.0000000,    0.0000000 ]
  distance:    0.0387861
  band:
  - # 1
    frequency:   -2.7008917766
  - # 2
    frequency:   -1.9977765005
  - # 3
    frequency:   -1.2211663197
  - # 4
    frequency:    0.6903662081
  - # 5
    frequency:    2.1395973083
  - # 6
    frequency:    2.1835354302
  - # 7
    frequency:    2.7749372477
  - # 8
    frequency:    5.9931052989
  - # 9
    frequency:    6.5270493437
  - # 10
    frequency:    6.8128118178
  - # 11
    frequency:    8.8013553446
  - # 12
    frequency:    8.9119258795
  - # 13
    frequency:    9.6945210434
  - # 14
    frequency:   11.6884555458
  - # 15
    frequency:   11.8274327513
  - # 16
    frequency:   13.6571807710
  - # 17
    frequency:   13.8627795008
  - # 18
    frequency:   14.2320928385
  - # 19
    frequency:   15.6427844287
  - # 20
    frequency:   19.3065114898
  - # 21
    frequency:   64.5255668514

- q-position: [    0.1111111,    0.0000000,    0.0000000 ]
  distance:    0.0406330
  band:
  - # 1
    frequency:   -2.6571460652
  - # 2
    frequency:   -1.9138916180
  - # 3
    frequency:   -1.1384966253
  - # 4
    frequency:    0.8028569490
  - # 5
    frequency:    2.2104263203
  - # 6
    frequency:    2.3752153302
  - # 7
    frequency:    2.8779351581
  - # 8
    frequency:    5.9956558486
  - # 9
    frequency:    6.5643161968
  - # 10
    frequency:    6.8605423703
  - # 11
    frequency:    8.7884283319
  - # 12
    frequency:    8.9030436333
  - # 13
    frequency:    9.7089855653
  - # 14
    frequency:   11.7042589432
  - # 15
    frequency:   11.8549716152
  - # 16
    frequency:   13.6512974167
  - # 17
    frequency:   13.8707113246
  - # 18
    frequency:   14.2838778618
  - # 19
    frequency:   15.6200157358
  - # 20
    frequency:   19.2982472271
  - # 21
    frequency:   64.5217699570

- q-position: [    0.1161616,    0.0000000,    0.0000000 ]
  distance:    0.0424800
  band:
  - # 1
    frequency:   -2.6132755834
  - # 2
    frequency:   -1.8271341026
  - # 3
    frequency:   -1.0390396902
  - # 4
    frequency:    0.9100993864
  - # 5
    frequency:    2.2799221645
  - # 6
    frequency:    2.5599306502
  - # 7
    frequency:    2.9789869470
  - # 8
    frequency:    5.9992134569
  - # 9
    frequency:    6.6026297421
  - # 10
    frequency:    6.9084310475
  - # 11
    frequency:    8.7761652108
  - # 12
    frequency:    8.8943041848
  - # 13
    frequency:    9.7233719983
  - # 14
    frequency:   11.7201598537
  - # 15
    frequency:   11.8829987420
  - # 16
    frequency:   13.6447310452
  - # 17
    frequency:   13.8789946181
  - # 18
    frequency:   14.3364004578
  - # 19
    frequency:   15.5967233094
  - # 20
    frequency:   19.2897295965
  - # 21
    frequency:   64.5178536730

- q-position: [    0.1212121,    0.0000000,    0.0000000 ]
  distance:    0.0443269
  band:
  - # 1
    frequency:   -2.5693314418
  - # 2
    frequency:   -1.7362167459
  - # 3
    frequency:   -0.9179774544
  - # 4
    frequency:    1.0144862561
  - # 5
    frequency:    2.3482114667
  - # 6
    frequency:    2.7372687754
  - # 7
    frequency:    3.0782524337
  - # 8
    frequency:    6.0039293632
  - # 9
    frequency:    6.6418939012
  - # 10
    frequency:    6.9563340075
  - # 11
    frequency:    8.7646313483
  - # 12
    frequency:    8.8857647051
  - # 13
    frequency:    9.7376385512
  - # 14
    frequency:   11.7360983384
  - # 15
    frequency:   11.9114541328
  - # 16
    frequency:   13.6375377976
  - # 17
    frequency:   13.8876298077
  - # 18
    frequency:   14.3893670610
  - # 19
    frequency:   15.5730034592
  - # 20
    frequency:   19.2809758679
  - # 21
    frequency:   64.5138249599

- q-position: [    0.1262626,    0.0000000,    0.0000000 ]
  distance:    0.0461739
  band:
  - # 1
    frequency:   -2.5253093399
  - # 2
    frequency:   -1.6396618444
  - # 3
    frequency:   -0.7661395529
  - # 4
    frequency:    1.1172794926
  - # 5
    frequency:    2.4154247821
  - # 6
    frequency:    2.9066238855
  - # 7
    frequency:    3.1761280350
  - # 8
    frequency:    6.0099783565
  - # 9
    frequency:    6.6820086722
  - # 10
    frequency:    7.0041164657
  - # 11
    frequency:    8.7538855750
  - # 12
    frequency:    8.8774827921
  - # 13
    frequency:    9.7517465385
  - # 14
    frequency:   11.7520161075
  - # 15
    frequency:   11.9402788365
  - # 16
    frequency:   13.6297658558
  - # 17
    frequency:   13.8966171545
  - # 18
    frequency:   14.4424853850
  - # 19
    frequency:   15.5489667550
  - # 20
    frequency:   19.2720039018
  - # 21
    frequency:   64.5096909127

- q-position: [    0.1313131,    0.0000000,    0.0000000 ]
  distance:    0.0480209
  band:
  - # 1
    frequency:   -2.4811527289
  - # 2
    frequency:   -1.5356991477
  - # 3
    frequency:   -0.5607069223
  - # 4
    frequency:    1.2191653529
  - # 5
    frequency:    2.4816976872
  - # 6
    frequency:    3.0668460176
  - # 7
    frequency:    3.2735586825
  - # 8
    frequency:    6.0175605857
  - # 9
    frequency:    6.7228703866
  - # 10
    frequency:    7.0516538992
  - # 11
    frequency:    8.7439805822
  - # 12
    frequency:    8.8695165350
  - # 13
    frequency:    9.7656600894
  - # 14
    frequency:   11.7678567520
  - # 15
    frequency:   11.9694148221
  - # 16
    frequency:   13.6214587924
  - # 17
    frequency:   13.9059565797
  - # 18
    frequency:   14.4954580847
  - # 19
    frequency:   15.5247420771
  - # 20
    frequency:   19.2628321113
  - # 21
    frequency:   64.5054587411

- q-position: [    0.1363636,    0.0000000,    0.0000000 ]
  distance:    0.0498678
  band:
  - # 1
    frequency:   -2.4367596705
  - # 2
    frequency:   -1.4220760441
  - # 3
    frequency:   -0.1648887598
  - # 4
    frequency:    1.3205110245
  - # 5
    frequency:    2.5471713108
  - # 6
    frequency:    3.2155041879
  - # 7
    frequency:    3.3727508982
  - # 8
    frequency:    6.0269032933
  - # 9
    frequency:    6.7643720001
  - # 10
    frequency:    7.0988329468
  - # 11
    frequency:    8.7349633339
  - # 12
    frequency:    8.8619245852
  - # 13
    frequency:    9.7793458737
  - # 14
    frequency:   11.7835659539
  - # 15
    frequency:   11.9988048965
  - # 16
    frequency:   13.6126579713
  - # 17
    frequency:   13.9156474788
  - # 18
    frequency:   14.5479755925
  - # 19
    frequency:   15.5004823243
  - # 20
    frequency:   19.2534794187
  - # 21
    frequency:   64.5011357502

- q-position: [    0.1414141,    0.0000000,    0.0000000 ]
  distance:    0.0517148
  band:
  - # 1
    frequency:   -2.3919921101
  - # 2
    frequency:   -1.2957001914
  - # 3
    frequency:    0.5216907612
  - # 4
    frequency:    1.4214973306
  - # 5
    frequency:    2.6119922290
  - # 6
    frequency:    3.3480138216
  - # 7
    frequency:    3.4780311986
  - # 8
    frequency:    6.0382621718
  - # 9
    frequency:    6.8064034197
  - # 10
    frequency:    7.1455519392
  - # 11
    frequency:    8.7268754954
  - # 12
    frequency:    8.8547662278
  - # 13
    frequency:    9.7927728629
  - # 14
    frequency:   11.7990916726
  - # 15
    frequency:   12.0283926663
  - # 16
    frequency:   13.6034042905
  - # 17
    frequency:   13.9256885301
  - # 18
    frequency:   14.5997070784
  - # 19
    frequency:   15.4763725350
  - # 20
    frequency:   19.2439652066
  - # 21
    frequency:   64.4967293208

- q-position: [    0.1464646,    0.0000000,    0.0000000 ]
  distance:    0.0535617
  band:
  - # 1
    frequency:   -2.3466861147
  - # 2
    frequency:   -1.1519020915
  - # 3
    frequency:    0.7622372710
  - # 4
    frequency:    1.5221933975
  - # 5
    frequency:    2.6763116422
  - # 6
    frequency:    3.4603261142
  - # 7
    frequency:    3.5931494810
  - # 8
    frequency:    6.0519218511
  - # 9
    frequency:    6.8488518656
  - # 10
    frequency:    7.1917209915
  - # 11
    frequency:    8.7197538935
  - # 12
    frequency:    8.8481014432
  - # 13
    frequency:    9.8059121390
  - # 14
    frequency:   11.8143843084
  - # 15
    frequency:   12.0581225384
  - # 16
    frequency:   13.5937394640
  - # 17
    frequency:   13.9360775027
  - # 18
    frequency:   14.6502882565
  - # 19
    frequency:   15.4526414927
  - # 20
    frequency:   19.2343092643
  - # 21
    frequency:   64.4922468897

- q-position: [    0.1515152,    0.0000000,    0.0000000 ]
  distance:    0.0554087
  band:
  - # 1
    frequency:   -2.3006617818
  - # 2
    frequency:   -0.9826589359
  - # 3
    frequency:    0.9468869101
  - # 4
    frequency:    1.6226015283
  - # 5
    frequency:    2.7402837565
  - # 6
    frequency:    3.5554411319
  - # 7
    frequency:    3.7147643676
  - # 8
    frequency:    6.0681947838
  - # 9
    frequency:    6.8916022686
  - # 10
    frequency:    7.2372615865
  - # 11
    frequency:    8.7136310310
  - # 12
    frequency:    8.8419909475
  - # 13
    frequency:    9.8187367590
  - # 14
    frequency:   11.8293968422
  - # 15
    frequency:   12.0879397545
  - # 16
    frequency:   13.5837069769
  - # 17
    frequency:   13.9468110693
  - # 18
    frequency:   14.6993044575
  - # 19
    frequency:   15.4295782626
  - # 20
    frequency:   19.2245317271
  - # 21
    frequency:   64.4876959301