nqpoint: 300    
npath: 3      
segment_nqpoint:
- 100
- 100
- 100
labels:
- [ 'G', 'M' ]
- [ 'M', 'K' ]
- [ 'K', 'G' ]
reciprocal_lattice:
- [   0.29735678,   0.17167902,   0.00000000 ] # a*
- [   0.00000000,   0.34335804,   0.00000000 ] # b*
- [   0.00000000,   0.00000000,   0.04319527 ] # c*
natom: 5      
lattice:
- [     3.362963493058089,     0.000000000000000,     0.000000000000000 ] # a
- [    -1.681481746529044,     2.912411816980871,     0.000000000000000 ] # b
- [     0.000000000000000,     0.000000000000000,    23.150682792928848 ] # c
points:
- symbol: Br # 1
  coordinates: [  0.666666984744047,  0.333332985985144,  0.388757432361734 ]
  mass: 79.904000
- symbol: N # 2
  coordinates: [  0.000000000000000,  0.000000000000000,  0.513891992592658 ]
  mass: 14.006700
- symbol: O # 3
  coordinates: [  0.333332985432215,  0.666666983183674,  0.611242567638266 ]
  mass: 15.999400
- symbol: Sc # 4
  coordinates: [  0.333332985432215,  0.666666983183674,  0.471499584874158 ]
  mass: 44.955912
- symbol: Sc # 5
  coordinates: [  0.666666984744047,  0.333332985985144,  0.582837822202212 ]
  mass: 44.955912

phonon:
- q-position: [    0.0000000,    0.0000000,    0.0000000 ]
  distance:    0.0000000
  band:
  - # 1
    frequency:   -0.0000209068
  - # 2
    frequency:    0.0000002120
  - # 3
    frequency:    0.0000153092
  - # 4
    frequency:    2.7360442600
  - # 5
    frequency:    2.7360442602
  - # 6
    frequency:    4.8277463678
  - # 7
    frequency:    4.8277463678
  - # 8
    frequency:    4.8610745407
  - # 9
    frequency:    9.3739069991
  - # 10
    frequency:   12.0571407626
  - # 11
    frequency:   12.0571407626
  - # 12
    frequency:   13.6783969410
  - # 13
    frequency:   13.6783969410
  - # 14
    frequency:   14.3298868735
  - # 15
    frequency:   17.0401188653

- q-position: [    0.0050505,    0.0000000,    0.0000000 ]
  distance:    0.0017341
  band:
  - # 1
    frequency:    0.0023791604
  - # 2
    frequency:    0.0574295733
  - # 3
    frequency:    0.1167979404
  - # 4
    frequency:    2.7363638401
  - # 5
    frequency:    2.7391779072
  - # 6
    frequency:    4.8139491066
  - # 7
    frequency:    4.8280137717
  - # 8
    frequency:    4.8762777628
  - # 9
    frequency:    9.3733970235
  - # 10
    frequency:   12.0565713527
  - # 11
    frequency:   12.0626678839
  - # 12
    frequency:   13.6742486873
  - # 13
    frequency:   13.6780732318
  - # 14
    frequency:   14.3321243994
  - # 15
    frequency:   17.0403762896

- q-position: [    0.0101010,    0.0000000,    0.0000000 ]
  distance:    0.0034683
  band:
  - # 1
    frequency:    0.0094897602
  - # 2
    frequency:    0.1148531502
  - # 3
    frequency:    0.2335389088
  - # 4
    frequency:    2.7373236729
  - # 5
    frequency:    2.7485425823
  - # 6
    frequency:    4.7919463931
  - # 7
    frequency:    4.8288164267
  - # 8
    frequency:    4.9025011300
  - # 9
    frequency:    9.3718680758
  - # 10
    frequency:   12.0548645999
  - # 11
    frequency:   12.0791770800
  - # 12
    frequency:   13.6620313859
  - # 13
    frequency:   13.6771026520
  - # 14
    frequency:   14.3386372319
  - # 15
    frequency:   17.0411544635

- q-position: [    0.0151515,    0.0000000,    0.0000000 ]
  distance:    0.0052024
  band:
  - # 1
    frequency:    0.0212550478
  - # 2
    frequency:    0.1722647143
  - # 3
    frequency:    0.3501647576
  - # 4
    frequency:    2.7389270131
  - # 5
    frequency:    2.7640313832
  - # 6
    frequency:    4.7698616196
  - # 7
    frequency:    4.8301556579
  - # 8
    frequency:    4.9316295424
  - # 9
    frequency:    9.3693230558
  - # 10
    frequency:   12.0520249365
  - # 11
    frequency:   12.1064493747
  - # 12
    frequency:   13.6423762135
  - # 13
    frequency:   13.6754868415
  - # 14
    frequency:   14.3488806105
  - # 15
    frequency:   17.0424711181

- q-position: [    0.0202020,    0.0000000,    0.0000000 ]
  distance:    0.0069365
  band:
  - # 1
    frequency:    0.0375513227
  - # 2
    frequency:    0.2296582034
  - # 3
    frequency:    0.4666150688
  - # 4
    frequency:    2.7411792039
  - # 5
    frequency:    2.7854722181
  - # 6
    frequency:    4.7486805504
  - # 7
    frequency:    4.8320336570
  - # 8
    frequency:    4.9626909967
  - # 9
    frequency:    9.3657666758
  - # 10
    frequency:   12.0480597558
  - # 11
    frequency:   12.1441107014
  - # 12
    frequency:   13.6161963514
  - # 13
    frequency:   13.6732285219
  - # 14
    frequency:   14.3620971107
  - # 15
    frequency:   17.0443559019

- q-position: [    0.0252525,    0.0000000,    0.0000000 ]
  distance:    0.0086707
  band:
  - # 1
    frequency:    0.0582144740
  - # 2
    frequency:    0.2870274893
  - # 3
    frequency:    0.5828261843
  - # 4
    frequency:    2.7440875567
  - # 5
    frequency:    2.8126361252
  - # 6
    frequency:    4.7286150509
  - # 7
    frequency:    4.8344534561
  - # 8
    frequency:    4.9954927729
  - # 9
    frequency:    9.3612053024
  - # 10
    frequency:   12.0429794205
  - # 11
    frequency:   12.1916149094
  - # 12
    frequency:   13.5845623946
  - # 13
    frequency:   13.6703314792
  - # 14
    frequency:   14.3774620206
  - # 15
    frequency:   17.0468505287

- q-position: [    0.0303030,    0.0000000,    0.0000000 ]
  distance:    0.0104048
  band:
  - # 1
    frequency:    0.0830476637
  - # 2
    frequency:    0.3443663545
  - # 3
    frequency:    0.6987304278
  - # 4
    frequency:    2.7476611861
  - # 5
    frequency:    2.8452474963
  - # 6
    frequency:    4.7097251153
  - # 7
    frequency:    4.8374188932
  - # 8
    frequency:    5.0299993026
  - # 9
    frequency:    9.3556467721
  - # 10
    frequency:   12.0367972738
  - # 11
    frequency:   12.2482120307
  - # 12
    frequency:   13.5486298727
  - # 13
    frequency:   13.6668005405
  - # 14
    frequency:   14.3941925931
  - # 15
    frequency:   17.0500089891

- q-position: [    0.0353535,    0.0000000,    0.0000000 ]
  distance:    0.0121389
  band:
  - # 1
    frequency:    0.1118295640
  - # 2
    frequency:    0.4016684705
  - # 3
    frequency:    0.8142555538
  - # 4
    frequency:    2.7519108022
  - # 5
    frequency:    2.8829951296
  - # 6
    frequency:    4.6920271123
  - # 7
    frequency:    4.8409345668
  - # 8
    frequency:    5.0662238137
  - # 9
    frequency:    9.3491002096
  - # 10
    frequency:   12.0295296522
  - # 11
    frequency:   12.3128902392
  - # 12
    frequency:   13.5096437211
  - # 13
    frequency:   13.6626415448
  - # 14
    frequency:   14.4116076634
  - # 15
    frequency:   17.0538978319

- q-position: [    0.0404040,    0.0000000,    0.0000000 ]
  distance:    0.0138731
  band:
  - # 1
    frequency:    0.1443224029
  - # 2
    frequency:    0.4589273741
  - # 3
    frequency:    0.9293244471
  - # 4
    frequency:    2.7568484642
  - # 5
    frequency:    2.9255431008
  - # 6
    frequency:    4.6755227281
  - # 7
    frequency:    4.8450057815
  - # 8
    frequency:    5.1041992883
  - # 9
    frequency:    9.3415758719
  - # 10
    frequency:   12.0211958991
  - # 11
    frequency:   12.3842695739
  - # 12
    frequency:   13.4690309103
  - # 13
    frequency:   13.6578613078
  - # 14
    frequency:   14.4291480906
  - # 15
    frequency:   17.0585965180

- q-position: [    0.0454545,    0.0000000,    0.0000000 ]
  distance:    0.0156072
  band:
  - # 1
    frequency:    0.1802792487
  - # 2
    frequency:    0.5161364448
  - # 3
    frequency:    1.0438550799
  - # 4
    frequency:    2.7624873009
  - # 5
    frequency:    2.9725406361
  - # 6
    frequency:    4.6602091026
  - # 7
    frequency:    4.8496384854
  - # 8
    frequency:    5.1439682597
  - # 9
    frequency:    9.3330850348
  - # 10
    frequency:   12.0118183774
  - # 11
    frequency:   12.4604064365
  - # 12
    frequency:   13.4286053238
  - # 13
    frequency:   13.6524675826
  - # 14
    frequency:   14.4463746493
  - # 15
    frequency:   17.0641978516

- q-position: [    0.0505051,    0.0000000,    0.0000000 ]
  distance:    0.0173413
  band:
  - # 1
    frequency:    0.2194501836
  - # 2
    frequency:    0.5732888811
  - # 3
    frequency:    1.1577607197
  - # 4
    frequency:    2.7688412009
  - # 5
    frequency:    3.0236304192
  - # 6
    frequency:    4.6460832313
  - # 7
    frequency:    4.8548391981
  - # 8
    frequency:    5.1855784048
  - # 9
    frequency:    9.3236399320
  - # 10
    frequency:   12.0014224811
  - # 11
    frequency:   12.5384381310
  - # 12
    frequency:   13.3909421032
  - # 13
    frequency:   13.6464690165
  - # 14
    frequency:   14.4629566264
  - # 15
    frequency:   17.0708084900

- q-position: [    0.0555556,    0.0000000,    0.0000000 ]
  distance:    0.0190754
  band:
  - # 1
    frequency:    0.2615872264
  - # 2
    frequency:    0.6303776759
  - # 3
    frequency:    1.2709503686
  - # 4
    frequency:    2.7759244804
  - # 5
    frequency:    3.0784550157
  - # 6
    frequency:    4.6331443627
  - # 7
    frequency:    4.8606149320
  - # 8
    frequency:    5.2290802365
  - # 9
    frequency:    9.3132537461
  - # 10
    frequency:   11.9900366420
  - # 11
    frequency:   12.6139821657
  - # 12
    frequency:   13.3599984430
  - # 13
    frequency:   13.6398751044
  - # 14
    frequency:   14.4786591872
  - # 15
    frequency:   17.0785495256

- q-position: [    0.0606061,    0.0000000,    0.0000000 ]
  distance:    0.0208096
  band:
  - # 1
    frequency:    0.3064480236
  - # 2
    frequency:    0.6873955920
  - # 3
    frequency:    1.3833294067
  - # 4
    frequency:    2.7837515339
  - # 5
    frequency:    3.1366613041
  - # 6
    frequency:    4.6213957011
  - # 7
    frequency:    4.8669731049
  - # 8
    frequency:    5.2745256349
  - # 9
    frequency:    9.3019406505
  - # 10
    frequency:   11.9776923331
  - # 11
    frequency:   12.6803757854
  - # 12
    frequency:   13.3418908991
  - # 13
    frequency:   13.6326961394
  - # 14
    frequency:   14.4933337879
  - # 15
    frequency:   17.0875571279

- q-position: [    0.0656566,    0.0000000,    0.0000000 ]
  distance:    0.0225437
  band:
  - # 1
    frequency:    0.3537984373
  - # 2
    frequency:    0.7443351358
  - # 3
    frequency:    1.4948004031
  - # 4
    frequency:    2.7923364745
  - # 5
    frequency:    3.1979029474
  - # 6
    frequency:    4.6108459785
  - # 7
    frequency:    4.8739214476
  - # 8
    frequency:    5.3219667178
  - # 9
    frequency:    9.2897158912
  - # 10
    frequency:   11.9644240641
  - # 11
    frequency:   12.7287111700
  - # 12
    frequency:   13.3448712726
  - # 13
    frequency:   13.6249431629
  - # 14
    frequency:   14.5069139920
  - # 15
    frequency:   17.0979832163

- q-position: [    0.0707071,    0.0000000,    0.0000000 ]
  distance:    0.0242778
  band:
  - # 1
    frequency:    0.4034142129
  - # 2
    frequency:    0.8011885308
  - # 3
    frequency:    1.6052640575
  - # 4
    frequency:    2.8016927710
  - # 5
    frequency:    3.2618410166
  - # 6
    frequency:    4.6015112073
  - # 7
    frequency:    4.8814679037
  - # 8
    frequency:    5.3714548318
  - # 9
    frequency:    9.2765959044
  - # 10
    frequency:   11.9502693691
  - # 11
    frequency:   12.7509398610
  - # 12
    frequency:   13.3762254788
  - # 13
    frequency:   13.6166279126
  - # 14
    frequency:   14.5194186399
  - # 15
    frequency:   17.1099961136

- q-position: [    0.0757576,    0.0000000,    0.0000000 ]
  distance:    0.0260120
  band:
  - # 1
    frequency:    0.4550819214
  - # 2
    frequency:    0.8579476885
  - # 3
    frequency:    1.7146202278
  - # 4
    frequency:    2.8118328895
  - # 5
    frequency:    3.3281428883
  - # 6
    frequency:    4.5934168540
  - # 7
    frequency:    4.8896205252
  - # 8
    frequency:    5.4230395560
  - # 9
    frequency:    9.2625984586
  - # 10
    frequency:   11.9352687846
  - # 11
    frequency:   12.7453169126
  - # 12
    frequency:   13.4368221278
  - # 13
    frequency:   13.6077627719
  - # 14
    frequency:   14.5309651282
  - # 15
    frequency:   17.1237811003

- q-position: [    0.0808081,    0.0000000,    0.0000000 ]
  distance:    0.0277461
  band:
  - # 1
    frequency:    0.5085993636
  - # 2
    frequency:    0.9146041794
  - # 3
    frequency:    1.8227690014
  - # 4
    frequency:    2.8227679451
  - # 5
    frequency:    3.3964794985
  - # 6
    frequency:    4.5866006808
  - # 7
    frequency:    4.8983873623
  - # 8
    frequency:    5.4767676607
  - # 9
    frequency:    9.2477428169
  - # 10
    frequency:   11.9194658156
  - # 11
    frequency:   12.7169344481
  - # 12
    frequency:   13.5205563130
  - # 13
    frequency:   13.5983607182
  - # 14
    frequency:   14.5417976866
  - # 15
    frequency:   17.1395407451

- q-position: [    0.0858586,    0.0000000,    0.0000000 ]
  distance:    0.0294802
  band:
  - # 1
    frequency:    0.5637755915
  - # 2
    frequency:    0.9711492005
  - # 3
    frequency:    1.9296117643
  - # 4
    frequency:    2.8345073737
  - # 5
    frequency:    3.4665209364
  - # 6
    frequency:    4.5811165662
  - # 7
    frequency:    4.9077763498
  - # 8
    frequency:    5.5326819911
  - # 9
    frequency:    9.2320499136
  - # 10
    frequency:   11.9029068891
  - # 11
    frequency:   12.6727313235
  - # 12
    frequency:   13.5884352745
  - # 13
    frequency:   13.6192931814
  - # 14
    frequency:   14.5523395202
  - # 15
    frequency:   17.1574948365

- q-position: [    0.0909091,    0.0000000,    0.0000000 ]
  distance:    0.0312144
  band:
  - # 1
    frequency:    0.6204306754
  - # 2
    frequency:    1.0275735418
  - # 3
    frequency:    2.0350522227
  - # 4
    frequency:    2.8470586275
  - # 5
    frequency:    3.5379302167
  - # 6
    frequency:    4.5770397251
  - # 7
    frequency:    4.9177951893
  - # 8
    frequency:    5.5908202579
  - # 9
    frequency:    9.2155425425
  - # 10
    frequency:   11.8856412933
  - # 11
    frequency:   12.6181178384
  - # 12
    frequency:   13.5780004607
  - # 13
    frequency:   13.7261570843
  - # 14
    frequency:   14.5632843185
  - # 15
    frequency:   17.1778796666

- q-position: [    0.0959596,    0.0000000,    0.0000000 ]
  distance:    0.0329485
  band:
  - # 1
    frequency:    0.6783953125
  - # 2
    frequency:    1.0838675496
  - # 3
    frequency:    2.1389973334
  - # 4
    frequency:    2.8604269032
  - # 5
    frequency:    3.6103548554
  - # 6
    frequency:    4.5744739166
  - # 7
    frequency:    4.9284512287
  - # 8
    frequency:    5.6512137304
  - # 9
    frequency:    9.1982455546
  - # 10
    frequency:   11.8677211011
  - # 11
    frequency:   12.5566087672
  - # 12
    frequency:   13.5670707494
  - # 13
    frequency:   13.8357490864
  - # 14
    frequency:   14.5757514182
  - # 15
    frequency:   17.2009463474

- q-position: [    0.1010101,    0.0000000,    0.0000000 ]
  distance:    0.0346826
  band:
  - # 1
    frequency:    0.7375103471
  - # 2
    frequency:    1.1400210880
  - # 3
    frequency:    2.2413581025
  - # 4
    frequency:    2.8746149077
  - # 5
    frequency:    3.6834156095
  - # 6
    frequency:    4.5735614585
  - # 7
    frequency:    4.9397513393
  - # 8
    frequency:    5.7138858344
  - # 9
    frequency:    9.1801860663
  - # 10
    frequency:   11.8492010772
  - # 11
    frequency:   12.4904072749
  - # 12
    frequency:   13.5556610220
  - # 13
    frequency:   13.9433252003
  - # 14
    frequency:   14.5915301193
  - # 15
    frequency:   17.2269577560

- q-position: [    0.1060606,    0.0000000,    0.0000000 ]
  distance:    0.0364168
  band:
  - # 1
    frequency:    0.7976262496
  - # 2
    frequency:    1.1960234965
  - # 3
    frequency:    2.3420502153
  - # 4
    frequency:    2.8896226657
  - # 5
    frequency:    3.7566914222
  - # 6
    frequency:    4.5744971366
  - # 7
    frequency:    4.9517017916
  - # 8
    frequency:    5.7788506672
  - # 9
    frequency:    9.1613936768
  - # 10
    frequency:   11.8301385677
  - # 11
    frequency:   12.4209325203
  - # 12
    frequency:   13.5437865300
  - # 13
    frequency:   14.0439715533
  - # 14
    frequency:   14.6133846536
  - # 15
    frequency:   17.2561836458

- q-position: [    0.1111111,    0.0000000,    0.0000000 ]
  distance:    0.0381509
  band:
  - # 1
    frequency:    0.8586025871
  - # 2
    frequency:    1.2518635454
  - # 3
    frequency:    2.4409944680
  - # 4
    frequency:    2.9054473747
  - # 5
    frequency:    3.8296993613
  - # 6
    frequency:    4.5775473160
  - # 7
    frequency:    4.9643081296
  - # 8
    frequency:    5.8461114501
  - # 9
    frequency:    9.1419006983
  - # 10
    frequency:   11.8105933714
  - # 11
    frequency:   12.3491485090
  - # 12
    frequency:   13.5314628571
  - # 13
    frequency:   14.1321947317
  - # 14
    frequency:   14.6451445213
  - # 15
    frequency:   17.2888934438

- q-position: [    0.1161616,    0.0000000,    0.0000000 ]
  distance:    0.0398850
  band:
  - # 1
    frequency:    0.9203075035
  - # 2
    frequency:    1.3075293869
  - # 3
    frequency:    2.5381169825
  - # 4
    frequency:    2.9220833099
  - # 5
    frequency:    3.9018684678
  - # 6
    frequency:    4.5830753915
  - # 7
    frequency:    4.9775750455
  - # 8
    frequency:    5.9156589478
  - # 9
    frequency:    9.1217423997
  - # 10
    frequency:   11.7906275933
  - # 11
    frequency:   12.2757522277
  - # 12
    frequency:   13.5187058865
  - # 13
    frequency:   14.2026444420
  - # 14
    frequency:   14.6908054982
  - # 15
    frequency:   17.3253463190

- q-position: [    0.1212121,    0.0000000,    0.0000000 ]
  distance:    0.0416192
  band:
  - # 1
    frequency:    0.9826172192
  - # 2
    frequency:    1.3630085037
  - # 3
    frequency:    2.6333491914
  - # 4
    frequency:    2.9395217807
  - # 5
    frequency:    3.9725078189
  - # 6
    frequency:    4.5915732939
  - # 7
    frequency:    4.9915062544
  - # 8
    frequency:    5.9874698886
  - # 9
    frequency:    9.1009572675
  - # 10
    frequency:   11.7703054781
  - # 11
    frequency:   12.2012805454
  - # 12
    frequency:   13.5055317696
  - # 13
    frequency:   14.2523954931
  - # 14
    frequency:   14.7521550883
  - # 15
    frequency:   17.3657783061

- q-position: [    0.1262626,    0.0000000,    0.0000000 ]
  distance:    0.0433533
  band:
  - # 1
    frequency:    1.0454155566
  - # 2
    frequency:    1.4182876540
  - # 3
    frequency:    2.7266275952
  - # 4
    frequency:    2.9577511402
  - # 5
    frequency:    4.0407737166
  - # 6
    frequency:    4.6036941288
  - # 7
    frequency:    5.0061043708
  - # 8
    frequency:    6.0615054286
  - # 9
    frequency:    9.0795872872
  - # 10
    frequency:   11.7496932258
  - # 11
    frequency:   12.1261722194
  - # 12
    frequency:   13.4919568987
  - # 13
    frequency:   14.2826970793
  - # 14
    frequency:   14.8269780091
  - # 15
    frequency:   17.4103866335

- q-position: [    0.1313131,    0.0000000,    0.0000000 ]
  distance:    0.0450874
  band:
  - # 1
    frequency:    1.1085934892
  - # 2
    frequency:    1.4733528128
  - # 3
    frequency:    2.8178933027
  - # 4
    frequency:    2.9767568466
  - # 5
    frequency:    4.1056520360
  - # 6
    frequency:    4.6202698809
  - # 7
    frequency:    5.0213707872
  - # 8
    frequency:    6.1377097009
  - # 9
    frequency:    9.0576782504
  - # 10
    frequency:   11.7288587886
  - # 11
    frequency:   12.0508049489
  - # 12
    frequency:   13.4779978820
  - # 13
    frequency:   14.2976136698
  - # 14
    frequency:   14.9103968188
  - # 15
    frequency:   17.4593119450

- q-position: [    0.1363636,    0.0000000,    0.0000000 ]
  distance:    0.0468216
  band:
  - # 1
    frequency:    1.1720487153
  - # 2
    frequency:    1.5281891112
  - # 3
    frequency:    2.9070913728
  - # 4
    frequency:    2.9965215764
  - # 5
    frequency:    4.1659913524
  - # 6
    frequency:    4.6422785130
  - # 7
    frequency:    5.0373055555
  - # 8
    frequency:    6.2160084928
  - # 9
    frequency:    9.0352800938
  - # 10
    frequency:   11.7078716490
  - # 11
    frequency:   11.9755182297
  - # 12
    frequency:   13.4636715217
  - # 13
    frequency:   14.3014028075
  - # 14
    frequency:   14.9974903261
  - # 15
    frequency:   17.5126197615

- q-position: [    0.1414141,    0.0000000,    0.0000000 ]
  distance:    0.0485557
  band:
  - # 1
    frequency:    1.2356852503
  - # 2
    frequency:    1.5827807723
  - # 3
    frequency:    2.9941699858
  - # 4
    frequency:    3.0170253844
  - # 5
    frequency:    4.2206395356
  - # 6
    frequency:    4.6707077115
  - # 7
    frequency:    5.0539072736
  - # 8
    frequency:    6.2963080862
  - # 9
    frequency:    9.0124472778
  - # 10
    frequency:   11.6868025811
  - # 11
    frequency:   11.9006278878
  - # 12
    frequency:   13.4489947940
  - # 13
    frequency:   14.2972645176
  - # 14
    frequency:   15.0845472645
  - # 15
    frequency:   17.5702831586

- q-position: [    0.1464646,    0.0000000,    0.0000000 ]
  distance:    0.0502898
  band:
  - # 1
    frequency:    1.2994130375
  - # 2
    frequency:    1.6371110462
  - # 3
    frequency:    3.0382459086
  - # 4
    frequency:    3.0790794763
  - # 5
    frequency:    4.2687099595
  - # 6
    frequency:    4.7062890704
  - # 7
    frequency:    5.0711729763
  - # 8
    frequency:    6.3784942853
  - # 9
    frequency:    8.9892392180
  - # 10
    frequency:   11.6657233951
  - # 11
    frequency:   11.8264355786
  - # 12
    frequency:   13.4339848313
  - # 13
    frequency:   14.2873224342
  - # 14
    frequency:   15.1690894933
  - # 15
    frequency:   17.6321690361

- q-position: [    0.1515152,    0.0000000,    0.0000000 ]
  distance:    0.0520239
  band:
  - # 1
    frequency:    1.3631475702
  - # 2
    frequency:    1.6911621439
  - # 3
    frequency:    3.0601586136
  - # 4
    frequency:    3.1617712632
  - # 5
    frequency:    4.3098908186
  - # 6
    frequency:    4.7491891674
  - # 7
    frequency:    5.0890980337
  - # 8
    frequency:    6.4624316410
  - # 9
    frequency:    8.9657207841
  - # 10
    frequency:   11.6447066662
  - # 11
    frequency:   11.7532351372
  - # 12
    frequency:   13.4186589065
  - # 13
    frequency:   14.2729464482
  - # 14
    frequency:   15.2495507356
  - # 15
    frequency:   17.6980302980

- q-position: [    0.1565657,    0.0000000,    0.0000000 ]
  distance:    0.0537581
  band:
  - # 1
    frequency:    1.4268095251
  - # 2
    frequency:    1.7449151706
  - # 3
    frequency:    3.0827370675
  - # 4
    frequency:    3.2421967186
  - # 5
    frequency:    4.3445925205
  - # 6
    frequency:    4.7988625182
  - # 7
    frequency:    5.1076760569
  - # 8
    frequency:    6.5479628606
  - # 9
    frequency:    8.9419628901
  - # 10
    frequency:   11.6238254489
  - # 11
    frequency:   11.6813168919
  - # 12
    frequency:   13.4030344181
  - # 13
    frequency:   14.2550348033
  - # 14
    frequency:   15.3249901359
  - # 15
    frequency:   17.7675056399

- q-position: [    0.1616162,    0.0000000,    0.0000000 ]
  distance:    0.0554922
  band:
  - # 1
    frequency:    1.4903244043
  - # 2
    frequency:    1.7983500625
  - # 3
    frequency:    3.1059532450
  - # 4
    frequency:    3.3203060218
  - # 5
    frequency:    4.3738039145
  - # 6
    frequency:    4.8541956140
  - # 7
    frequency:    5.1268988131
  - # 8
    frequency:    6.6349083677
  - # 9
    frequency:    8.9180432097
  - # 10
    frequency:   11.6031529797
  - # 11
    frequency:   11.6109706030
  - # 12
    frequency:   13.3871288768
  - # 13
    frequency:   14.2341981775
  - # 14
    frequency:   15.3948968575
  - # 15
    frequency:   17.8401275264

- q-position: [    0.1666667,    0.0000000,    0.0000000 ]
  distance:    0.0572263
  band:
  - # 1
    frequency:    1.5536221823
  - # 2
    frequency:    1.8514455252
  - # 3
    frequency:    3.1297778490
  - # 4
    frequency:    3.3960470596
  - # 5
    frequency:    4.3987700313
  - # 6
    frequency:    4.9138293390
  - # 7
    frequency:    5.1467561517
  - # 8
    frequency:    6.7230659503
  - # 9
    frequency:    8.8940470636
  - # 10
    frequency:   11.5424874290
  - # 11
    frequency:   11.5827623677
  - # 12
    frequency:   13.3709598932
  - # 13
    frequency:   14.2108705078
  - # 14
    frequency:   15.4590613092
  - # 15
    frequency:   17.9153376025

- q-position: [    0.1717172,    0.0000000,    0.0000000 ]
  distance:    0.0589605
  band:
  - # 1
    frequency:    1.6166369611
  - # 2
    frequency:    1.9041789788
  - # 3
    frequency:    3.1541806437
  - # 4
    frequency:    3.4693644500
  - # 5
    frequency:    4.4207065781
  - # 6
    frequency:    4.9764444860
  - # 7
    frequency:    5.1672359416
  - # 8
    frequency:    6.8122104050
  - # 9
    frequency:    8.8700685484
  - # 10
    frequency:   11.4761611589
  - # 11
    frequency:   11.5627262766
  - # 12
    frequency:   13.3545451652
  - # 13
    frequency:   14.1853747675
  - # 14
    frequency:   15.5174864574
  - # 15
    frequency:   17.9925076205

- q-position: [    0.1767677,    0.0000000,    0.0000000 ]
  distance:    0.0606946
  band:
  - # 1
    frequency:    1.6793066311
  - # 2
    frequency:    1.9565265099
  - # 3
    frequency:    3.1791307903
  - # 4
    frequency:    3.5401988042
  - # 5
    frequency:    4.4406536644
  - # 6
    frequency:    5.0409078471
  - # 7
    frequency:    5.1883240226
  - # 8
    frequency:    6.9020930492
  - # 9
    frequency:    8.8462120067
  - # 10
    frequency:   11.4122888461
  - # 11
    frequency:   11.5431165998
  - # 12
    frequency:   13.3379024667
  - # 13
    frequency:   14.1579624382
  - # 14
    frequency:   15.5703229240
  - # 15
    frequency:   18.0709632712

- q-position: [    0.1818182,    0.0000000,    0.0000000 ]
  distance:    0.0624287
  band:
  - # 1
    frequency:    1.7415725405
  - # 2
    frequency:    2.0084628350
  - # 3
    frequency:    3.2045971757
  - # 4
    frequency:    3.6084863830
  - # 5
    frequency:    4.4594445256
  - # 6
    frequency:    5.1063030171
  - # 7
    frequency:    5.2100041715
  - # 8
    frequency:    6.9924409315
  - # 9
    frequency:    8.8225939827
  - # 10
    frequency:   11.3511709065
  - # 11
    frequency:   11.5240041299
  - # 12
    frequency:   13.3210496348
  - # 13
    frequency:   14.1288376923
  - # 14
    frequency:   15.6178194255
  - # 15
    frequency:   18.1500082452

- q-position: [    0.1868687,    0.0000000,    0.0000000 ]
  distance:    0.0641629
  band:
  - # 1
    frequency:    1.8033791752
  - # 2
    frequency:    2.0599612760
  - # 3
    frequency:    3.2305487284
  - # 4
    frequency:    3.6741593644
  - # 5
    frequency:    4.4777301784
  - # 6
    frequency:    5.1719048344
  - # 7
    frequency:    5.2322580836
  - # 8
    frequency:    7.0829555155
  - # 9
    frequency:    8.7993458691
  - # 10
    frequency:   11.2931106973
  - # 11
    frequency:   11.5054582264
  - # 12
    frequency:   13.3040045584
  - # 13
    frequency:   14.0981725642
  - # 14
    frequency:   15.6602844257
  - # 15
    frequency:   18.2289462964

- q-position: [    0.1919192,    0.0000000,    0.0000000 ]
  distance:    0.0658970
  band:
  - # 1
    frequency:    1.8646738523
  - # 2
    frequency:    2.1109937533
  - # 3
    frequency:    3.2569547098
  - # 4
    frequency:    3.7371470065
  - # 5
    frequency:    4.4960188021
  - # 6
    frequency:    5.2371384522
  - # 7
    frequency:    5.2550653715
  - # 8
    frequency:    7.1733105348
  - # 9
    frequency:    8.7766175419
  - # 10
    frequency:   11.2384135515
  - # 11
    frequency:   11.4875464828
  - # 12
    frequency:   13.2867851653
  - # 13
    frequency:   14.0661167030
  - # 14
    frequency:   15.6980568364
  - # 15
    frequency:   18.3070998376

- q-position: [    0.1969697,    0.0000000,    0.0000000 ]
  distance:    0.0676311
  band:
  - # 1
    frequency:    1.9254064311
  - # 2
    frequency:    2.1615307985
  - # 3
    frequency:    3.2837849755
  - # 4
    frequency:    3.7973780380
  - # 5
    frequency:    4.5147111975
  - # 6
    frequency:    5.2784035819
  - # 7
    frequency:    5.3015414194
  - # 8
    frequency:    7.2631486161
  - # 9
    frequency:    8.7545824007
  - # 10
    frequency:   11.1873852201
  - # 11
    frequency:   11.4703343954
  - # 12
    frequency:   13.2694094083
  - # 13
    frequency:   14.0328037931
  - # 14
    frequency:   15.7314843240
  - # 15
    frequency:   18.3838243863

- q-position: [    0.2020202,    0.0000000,    0.0000000 ]
  distance:    0.0693653
  band:
  - # 1
    frequency:    1.9855290446
  - # 2
    frequency:    2.2115415911
  - # 3
    frequency:    3.3110101976
  - # 4
    frequency:    3.8547846152
  - # 5
    frequency:    4.5341266938
  - # 6
    frequency:    5.3022482300
  - # 7
    frequency:    5.3647341140
  - # 8
    frequency:    7.3520761198
  - # 9
    frequency:    8.7334443947
  - # 10
    frequency:   11.1403296514
  - # 11
    frequency:   11.4538850380
  - # 12
    frequency:   13.2518952515
  - # 13
    frequency:   13.9983558785
  - # 14
    frequency:   15.7609079765
  - # 15
    frequency:   18.4585188479

- q-position: [    0.2070707,    0.0000000,    0.0000000 ]
  distance:    0.0710994
  band:
  - # 1
    frequency:    2.0449958574
  - # 2
    frequency:    2.2609940221
  - # 3
    frequency:    3.3386020417
  - # 4
    frequency:    3.9093080914
  - # 5
    frequency:    4.5545193064
  - # 6
    frequency:    5.3265728531
  - # 7
    frequency:    5.4263985185
  - # 8
    frequency:    7.4396554685
  - # 9
    frequency:    8.7134478146
  - # 10
    frequency:   11.0975460333
  - # 11
    frequency:   11.4382587427
  - # 12
    frequency:   13.2342606552
  - # 13
    frequency:   13.9628863463
  - # 14
    frequency:   15.7866521358
  - # 15
    frequency:   18.5306320602

- q-position: [    0.2121212,    0.0000000,    0.0000000 ]
  distance:    0.0728335
  band:
  - # 1
    frequency:    2.1037628532