nqpoint: 300    
npath: 3      
segment_nqpoint:
- 100
- 100
- 100
labels:
- [ 'G', 'M' ]
- [ 'M', 'K' ]
- [ 'K', 'G' ]
reciprocal_lattice:
- [   0.27935589,   0.16128620,   0.00000000 ] # a*
- [   0.00000000,   0.32257239,   0.00000000 ] # b*
- [   0.00000000,   0.00000000,   0.03802157 ] # c*
natom: 7      
lattice:
- [     3.579663223091207,     0.000000000000000,     0.000000000000000 ] # a
- [    -1.789831611545603,     3.100079288194772,     0.000000000000000 ] # b
- [     0.000000000000000,     0.000000000000000,    26.300862452730676 ] # c
points:
- symbol: C # 1
  coordinates: [  0.333332985432215,  0.666666983183674,  0.611958979818866 ]
  mass: 12.010700
- symbol: Cl # 2
  coordinates: [  0.666666984744048,  0.333332985985145,  0.342194101663977 ]
  mass: 35.453000
- symbol: N # 3
  coordinates: [  0.000000000000000,  0.000000000000000,  0.460673931540899 ]
  mass: 14.006700
- symbol: N # 4
  coordinates: [  0.333332985432215,  0.666666983183674,  0.564586268258956 ]
  mass: 14.006700
- symbol: O # 5
  coordinates: [  0.333332985432215,  0.666666983183674,  0.657805898336023 ]
  mass: 15.999400
- symbol: Y # 6
  coordinates: [  0.333332985432215,  0.666666983183674,  0.410348678613082 ]
  mass: 88.905850
- symbol: Y # 7
  coordinates: [  0.666666984744048,  0.333332985985145,  0.510390920250511 ]
  mass: 88.905850

phonon:
- q-position: [    0.0000000,    0.0000000,    0.0000000 ]
  distance:    0.0000000
  band:
  - # 1
    frequency:   -0.0000096813
  - # 2
    frequency:   -0.0000004719
  - # 3
    frequency:    0.0000082331
  - # 4
    frequency:    0.5606781755
  - # 5
    frequency:    0.5606781755
  - # 6
    frequency:    3.4080204553
  - # 7
    frequency:    3.4080204553
  - # 8
    frequency:    4.8319921590
  - # 9
    frequency:    5.4711094258
  - # 10
    frequency:    5.4711094258
  - # 11
    frequency:    6.3290918640
  - # 12
    frequency:    6.3290918641
  - # 13
    frequency:    7.6348688857
  - # 14
    frequency:    8.7519987984
  - # 15
    frequency:   10.4336663931
  - # 16
    frequency:   12.1915395089
  - # 17
    frequency:   12.1915395089
  - # 18
    frequency:   17.6066446884
  - # 19
    frequency:   17.6066446884
  - # 20
    frequency:   38.4887182180
  - # 21
    frequency:   68.9452223140

- q-position: [    0.0050505,    0.0000000,    0.0000000 ]
  distance:    0.0016292
  band:
  - # 1
    frequency:   -0.2334193075
  - # 2
    frequency:   -0.2241847644
  - # 3
    frequency:    0.0006990926
  - # 4
    frequency:    0.6108994420
  - # 5
    frequency:    0.6110990235
  - # 6
    frequency:    3.4077676530
  - # 7
    frequency:    3.4083353334
  - # 8
    frequency:    4.8315799647
  - # 9
    frequency:    5.4709504953
  - # 10
    frequency:    5.4711524039
  - # 11
    frequency:    6.3289208167
  - # 12
    frequency:    6.3291028708
  - # 13
    frequency:    7.6343841763
  - # 14
    frequency:    8.7512141781
  - # 15
    frequency:   10.4337450496
  - # 16
    frequency:   12.1897066781
  - # 17
    frequency:   12.1912672508
  - # 18
    frequency:   17.6066884732
  - # 19
    frequency:   17.6068466134
  - # 20
    frequency:   38.4887212420
  - # 21
    frequency:   68.9440519908

- q-position: [    0.0101010,    0.0000000,    0.0000000 ]
  distance:    0.0032583
  band:
  - # 1
    frequency:   -0.4044212775
  - # 2
    frequency:   -0.3872032894
  - # 3
    frequency:    0.0027986313
  - # 4
    frequency:    0.7045004508
  - # 5
    frequency:    0.7060921405
  - # 6
    frequency:    3.4070105611
  - # 7
    frequency:    3.4092785869
  - # 8
    frequency:    4.8303458742
  - # 9
    frequency:    5.4704756107
  - # 10
    frequency:    5.4712803380
  - # 11
    frequency:    6.3284088079
  - # 12
    frequency:    6.3291357450
  - # 13
    frequency:    7.6329308433
  - # 14
    frequency:    8.7488624529
  - # 15
    frequency:   10.4339808809
  - # 16
    frequency:   12.1842105520
  - # 17
    frequency:   12.1904492700
  - # 18
    frequency:   17.6068197336
  - # 19
    frequency:   17.6074518424
  - # 20
    frequency:   38.4887302981
  - # 21
    frequency:   68.9405436139

- q-position: [    0.0151515,    0.0000000,    0.0000000 ]
  distance:    0.0048875
  band:
  - # 1
    frequency:   -0.5330644338
  - # 2
    frequency:   -0.5075166286
  - # 3
    frequency:    0.0063099245
  - # 4
    frequency:    0.7999886077
  - # 5
    frequency:    0.8055569049
  - # 6
    frequency:    3.4057531784
  - # 7
    frequency:    3.4108460538
  - # 8
    frequency:    4.8282973638
  - # 9
    frequency:    5.4696904553
  - # 10
    frequency:    5.4714901310
  - # 11
    frequency:    6.3275592856
  - # 12
    frequency:    6.3291900485
  - # 13
    frequency:    7.6305113069
  - # 14
    frequency:    8.7449500191
  - # 15
    frequency:   10.4343734638
  - # 16
    frequency:   12.1750582432
  - # 17
    frequency:   12.1890819535
  - # 18
    frequency:   17.6070381873
  - # 19
    frequency:   17.6084587393
  - # 20
    frequency:   38.4887453380
  - # 21
    frequency:   68.9347049547

- q-position: [    0.0202020,    0.0000000,    0.0000000 ]
  distance:    0.0065166
  band:
  - # 1
    frequency:   -0.6364459290
  - # 2
    frequency:   -0.6018835505
  - # 3
    frequency:    0.0112504867
  - # 4
    frequency:    0.8906579024
  - # 5
    frequency:    0.9017445653
  - # 6
    frequency:    3.4040023457
  - # 7
    frequency:    3.4130307339
  - # 8
    frequency:    4.8254468884
  - # 9
    frequency:    5.4686043789
  - # 10
    frequency:    5.4717763092
  - # 11
    frequency:    6.3263781544
  - # 12
    frequency:    6.3292650528
  - # 13
    frequency:    7.6271297170
  - # 14
    frequency:    8.7394875005
  - # 15
    frequency:   10.4349220645
  - # 16
    frequency:   12.1622616557
  - # 17
    frequency:   12.1871593044
  - # 18
    frequency:   17.6073433630
  - # 19
    frequency:   17.6098645837
  - # 20
    frequency:   38.4887662812
  - # 21
    frequency:   68.9265489397

- q-position: [    0.0252525,    0.0000000,    0.0000000 ]
  distance:    0.0081458
  band:
  - # 1
    frequency:   -0.7230322514
  - # 2
    frequency:   -0.6788037900
  - # 3
    frequency:    0.0176437115
  - # 4
    frequency:    0.9761093970
  - # 5
    frequency:    0.9938535854
  - # 6
    frequency:    3.4017680063
  - # 7
    frequency:    3.4158226930
  - # 8
    frequency:    4.8218118651
  - # 9
    frequency:    5.4672302155
  - # 10
    frequency:    5.4721305790
  - # 11
    frequency:    6.3248740042
  - # 12
    frequency:    6.3293597409
  - # 13
    frequency:    7.6227921216
  - # 14
    frequency:    8.7324896952
  - # 15
    frequency:   10.4356255969
  - # 16
    frequency:   12.1458375589
  - # 17
    frequency:   12.1846729786
  - # 18
    frequency:   17.6077345988
  - # 19
    frequency:   17.6116655805
  - # 20
    frequency:   38.4887930137
  - # 21
    frequency:   68.9160936130

- q-position: [    0.0303030,    0.0000000,    0.0000000 ]
  distance:    0.0097749
  band:
  - # 1
    frequency:   -0.7973512822
  - # 2
    frequency:   -0.7429081823
  - # 3
    frequency:    0.0255178149
  - # 4
    frequency:    1.0569448069
  - # 5
    frequency:    1.0822195490
  - # 6
    frequency:    3.3990635642
  - # 7
    frequency:    3.4192089312
  - # 8
    frequency:    4.8174146317
  - # 9
    frequency:    5.4655840328
  - # 10
    frequency:    5.4725412523
  - # 11
    frequency:    6.3230584115
  - # 12
    frequency:    6.3294728124
  - # 13
    frequency:    7.6175066948
  - # 14
    frequency:    8.7239755041
  - # 15
    frequency:   10.4364825646
  - # 16
    frequency:   12.1258076923
  - # 17
    frequency:   12.1816123361
  - # 18
    frequency:   17.6082110405
  - # 19
    frequency:   17.6138568739
  - # 20
    frequency:   38.4888253879
  - # 21
    frequency:   68.9033620826

- q-position: [    0.0353535,    0.0000000,    0.0000000 ]
  distance:    0.0114041
  band:
  - # 1
    frequency:   -0.8620690383
  - # 2
    frequency:   -0.7969809927
  - # 3
    frequency:    0.0349045678
  - # 4
    frequency:    1.1338262573
  - # 5
    frequency:    1.1673041658
  - # 6
    frequency:    3.3959063321
  - # 7
    frequency:    3.4231732150
  - # 8
    frequency:    4.8122823681
  - # 9
    frequency:    5.4636848157
  - # 10
    frequency:    5.4729925859
  - # 11
    frequency:    6.3209462968
  - # 12
    frequency:    6.3296026910
  - # 13
    frequency:    7.6112840131
  - # 14
    frequency:    8.7139678446
  - # 15
    frequency:   10.4374909892
  - # 16
    frequency:   12.1021989019
  - # 17
    frequency:   12.1779645053
  - # 18
    frequency:   17.6087716395
  - # 19
    frequency:   17.6164325641
  - # 20
    frequency:   38.4888632214
  - # 21
    frequency:   68.8883824528

- q-position: [    0.0404040,    0.0000000,    0.0000000 ]
  distance:    0.0130332
  band:
  - # 1
    frequency:   -0.9188735286
  - # 2
    frequency:   -0.8428326650
  - # 3
    frequency:    0.0458378792
  - # 4
    frequency:    1.2073152868
  - # 5
    frequency:    1.2495033907
  - # 6
    frequency:    3.3923180592
  - # 7
    frequency:    3.4276958759
  - # 8
    frequency:    4.8064469644
  - # 9
    frequency:    5.4615540913
  - # 10
    frequency:    5.4734640857
  - # 11
    frequency:    6.3185563142
  - # 12
    frequency:    6.3297475363
  - # 13
    frequency:    7.6041373713
  - # 14
    frequency:    8.7024935512
  - # 15
    frequency:   10.4386483246
  - # 16
    frequency:   12.0750433093
  - # 17
    frequency:   12.1737144616
  - # 18
    frequency:   17.6094151499
  - # 19
    frequency:   17.6193857290
  - # 20
    frequency:   38.4889062960
  - # 21
    frequency:   68.8711877412

- q-position: [    0.0454545,    0.0000000,    0.0000000 ]
  distance:    0.0146624
  band:
  - # 1
    frequency:   -0.9688897641
  - # 2
    frequency:   -0.8817125897
  - # 3
    frequency:    0.0583522872
  - # 4
    frequency:    1.2778627014
  - # 5
    frequency:    1.3291228891
  - # 6
    frequency:    3.3883255279
  - # 7
    frequency:    3.4327535759
  - # 8
    frequency:    4.7999448234
  - # 9
    frequency:    5.4592154997
  - # 10
    frequency:    5.4739298350
  - # 11
    frequency:    6.3159112444
  - # 12
    frequency:    6.3299052606
  - # 13
    frequency:    7.5960831263
  - # 14
    frequency:    8.6895832684
  - # 15
    frequency:   10.4399513589
  - # 16
    frequency:   12.0443785154
  - # 17
    frequency:   12.1688451175
  - # 18
    frequency:   17.6101401261
  - # 19
    frequency:   17.6227084486
  - # 20
    frequency:   38.4889543563
  - # 21
    frequency:   68.8518157814

- q-position: [    0.0505051,    0.0000000,    0.0000000 ]
  distance:    0.0162915
  band:
  - # 1
    frequency:   -1.0128938433
  - # 2
    frequency:   -0.9145230418
  - # 3
    frequency:    0.0724814213
  - # 4
    frequency:    1.3458263970
  - # 5
    frequency:    1.4063885716
  - # 6
    frequency:    3.3839612039
  - # 7
    frequency:    3.4383190427
  - # 8
    frequency:    4.7928165869
  - # 9
    frequency:    5.4566943209
  - # 10
    frequency:    5.4743579083
  - # 11
    frequency:    6.3130383577
  - # 12
    frequency:    6.3300735524
  - # 13
    frequency:    7.5871410545
  - # 14
    frequency:    8.6752713388
  - # 15
    frequency:   10.4413961048
  - # 16
    frequency:   12.0102478413
  - # 17
    frequency:   12.1633374248
  - # 18
    frequency:   17.6109449199
  - # 19
    frequency:   17.6263918342
  - # 20
    frequency:   38.4890071091
  - # 21
    frequency:   68.8303091112

- q-position: [    0.0555556,    0.0000000,    0.0000000 ]
  distance:    0.0179207
  band:
  - # 1
    frequency:   -1.0514322274
  - # 2
    frequency:   -0.9419388313
  - # 3
    frequency:    0.0882564889
  - # 4
    frequency:    1.4114907602
  - # 5
    frequency:    1.4814620827
  - # 6
    frequency:    3.3792639215
  - # 7
    frequency:    3.4443607759
  - # 8
    frequency:    4.7851067799
  - # 9
    frequency:    5.4540169658
  - # 10
    frequency:    5.4747099368
  - # 11
    frequency:    6.3099697077
  - # 12
    frequency:    6.3302499060
  - # 13
    frequency:    7.5773347127
  - # 14
    frequency:    8.6595956895
  - # 15
    frequency:   10.4429776762
  - # 16
    frequency:   11.9727006102
  - # 17
    frequency:   12.1571704883
  - # 18
    frequency:   17.6118276776
  - # 19
    frequency:   17.6304260597
  - # 20
    frequency:   38.4890642221
  - # 21
    frequency:   68.8067148476

- q-position: [    0.0606061,    0.0000000,    0.0000000 ]
  distance:    0.0195498
  band:
  - # 1
    frequency:   -1.0848923946
  - # 2
    frequency:   -0.9644784743
  - # 3
    frequency:    0.1057048369
  - # 4
    frequency:    1.4750824756
  - # 5
    frequency:    1.5544544630
  - # 6
    frequency:    3.3742795832
  - # 7
    frequency:    3.4508427277
  - # 8
    frequency:    4.7768633727
  - # 9
    frequency:    5.4512104431
  - # 10
    frequency:    5.4749408902
  - # 11
    frequency:    6.3067423113
  - # 12
    frequency:    6.3304316597
  - # 13
    frequency:    7.5666917890
  - # 14
    frequency:    8.6425977201
  - # 15
    frequency:   10.4446901514
  - # 16
    frequency:   11.9317924751
  - # 17
    frequency:   12.1503216881
  - # 18
    frequency:   17.6127863379
  - # 19
    frequency:   17.6348003977
  - # 20
    frequency:   38.4891253227
  - # 21
    frequency:   68.7810845470

- q-position: [    0.0656566,    0.0000000,    0.0000000 ]
  distance:    0.0211790
  band:
  - # 1
    frequency:   -1.1135467491
  - # 2
    frequency:   -0.9825486894
  - # 3
    frequency:    0.1248486269
  - # 4
    frequency:    1.5367824645
  - # 5
    frequency:    1.6254369590
  - # 6
    frequency:    3.3690618480
  - # 7
    frequency:    3.4577239616
  - # 8
    frequency:    4.7681372624
  - # 9
    frequency:    5.4483018142
  - # 10
    frequency:    5.4749991412
  - # 11
    frequency:    6.3033981662
  - # 12
    frequency:    6.3306160405
  - # 13
    frequency:    7.5552444330
  - # 14
    frequency:    8.6243221946
  - # 15
    frequency:   10.4465264164
  - # 16
    frequency:   11.8875858001
  - # 17
    frequency:   12.1427668118
  - # 18
    frequency:   17.6138186292
  - # 19
    frequency:   17.6395032582
  - # 20
    frequency:   38.4891899980
  - # 21
    frequency:   68.7534740532

- q-position: [    0.0707071,    0.0000000,    0.0000000 ]
  distance:    0.0228081
  band:
  - # 1
    frequency:   -1.1375809064
  - # 2
    frequency:   -0.9964733568
  - # 3
    frequency:    0.1457036602
  - # 4
    frequency:    1.5967346701
  - # 5
    frequency:    1.6944493235
  - # 6
    frequency:    3.3636727773
  - # 7
    frequency:    3.4649582930
  - # 8
    frequency:    4.7589816842
  - # 9
    frequency:    5.4453176485
  - # 10
    frequency:    5.4748268754
  - # 11
    frequency:    6.2999840561
  - # 12
    frequency:    6.3308002173
  - # 13
    frequency:    7.5430295553
  - # 14
    frequency:    8.6048171396
  - # 15
    frequency:   10.4484779815
  - # 16
    frequency:   11.8401501050
  - # 17
    frequency:   12.1344801942
  - # 18
    frequency:   17.6149220685
  - # 19
    frequency:   17.6445222307
  - # 20
    frequency:   38.4892577934
  - # 21
    frequency:   68.7239433325

- q-position: [    0.0757576,    0.0000000,    0.0000000 ]
  distance:    0.0244373
  band:
  - # 1
    frequency:   -1.1571123436
  - # 2
    frequency:   -1.0065129804
  - # 3
    frequency:    0.1682783746
  - # 4
    frequency:    1.6550524415
  - # 5
    frequency:    1.7615061786
  - # 6
    frequency:    3.3581834035
  - # 7
    frequency:    3.4724939219
  - # 8
    frequency:    4.7494515613
  - # 9
    frequency:    5.4422834946
  - # 10
    frequency:    5.4743609050
  - # 11
    frequency:    6.2965510926
  - # 12
    frequency:    6.3309813600
  - # 13
    frequency:    7.5300890880
  - # 14
    frequency:    8.5841337487
  - # 15
    frequency:   10.4505347564
  - # 16
    frequency:   11.7895625890
  - # 17
    frequency:   12.1254348636
  - # 18
    frequency:   17.6160939608
  - # 19
    frequency:   17.6498441293
  - # 20
    frequency:   38.4893282130
  - # 21
    frequency:   68.6925562958

- q-position: [    0.0808081,    0.0000000,    0.0000000 ]
  distance:    0.0260665
  band:
  - # 1
    frequency:   -1.1722027828
  - # 2
    frequency:   -1.0128780878
  - # 3
    frequency:    0.1925730341
  - # 4
    frequency:    1.7118231111
  - # 5
    frequency:    1.8266019547
  - # 6
    frequency:    3.3526741759
  - # 7
    frequency:    3.4802730656
  - # 8
    frequency:    4.7396028055
  - # 9
    frequency:    5.4392233783
  - # 10
    frequency:    5.4735339374
  - # 11
    frequency:    6.2931539491
  - # 12
    frequency:    6.3311567051
  - # 13
    frequency:    7.5164701996
  - # 14
    frequency:    8.5623262939
  - # 15
    frequency:   10.4526847631
  - # 16
    frequency:   11.7359087563
  - # 17
    frequency:   12.1156026940
  - # 18
    frequency:   17.6173313987
  - # 19
    frequency:   17.6554550410
  - # 20
    frequency:   38.4894007197
  - # 21
    frequency:   68.6593806102

- q-position: [    0.0858586,    0.0000000,    0.0000000 ]
  distance:    0.0276956
  band:
  - # 1
    frequency:   -1.1828662612
  - # 2
    frequency:   -1.0157386075
  - # 3
    frequency:    0.2185791245
  - # 4
    frequency:    1.7671111957
  - # 5
    frequency:    1.8897148205
  - # 6
    frequency:    3.3472352334
  - # 7
    frequency:    3.4882316094
  - # 8
    frequency:    4.7294915831
  - # 9
    frequency:    5.4361593452
  - # 10
    frequency:    5.4722763359
  - # 11
    frequency:    6.2898497534
  - # 12
    frequency:    6.3313236254
  - # 13
    frequency:    7.5022254596
  - # 14
    frequency:    8.5394520432
  - # 15
    frequency:   10.4549137507
  - # 16
    frequency:   11.6792831776
  - # 17
    frequency:   12.1049545615
  - # 18
    frequency:   17.6186312642
  - # 19
    frequency:   17.6613403759
  - # 20
    frequency:   38.4894747357
  - # 21
    frequency:   68.6244874976

- q-position: [    0.0909091,    0.0000000,    0.0000000 ]
  distance:    0.0293248
  band:
  - # 1
    frequency:   -1.1890740215
  - # 2
    frequency:   -1.0152304671
  - # 3
    frequency:    0.2462789664
  - # 4
    frequency:    1.8209605167
  - # 5
    frequency:    1.9508099264
  - # 6
    frequency:    3.3419664395
  - # 7
    frequency:    3.4962987952
  - # 8
    frequency:    4.7191735549
  - # 9
    frequency:    5.4331110563
  - # 10
    frequency:    5.4705183866
  - # 11
    frequency:    6.2866966229
  - # 12
    frequency:    6.3314797018
  - # 13
    frequency:    7.4874129474
  - # 14
    frequency:    8.5155711833
  - # 15
    frequency:   10.4572046577
  - # 16
    frequency:   11.6197904418
  - # 17
    frequency:   12.0934605045
  - # 18
    frequency:   17.6199902313
  - # 19
    frequency:   17.6674849207
  - # 20
    frequency:   38.4895496436
  - # 21
    frequency:   68.5879515246

- q-position: [    0.0959596,    0.0000000,    0.0000000 ]
  distance:    0.0309539
  band:
  - # 1
    frequency:   -1.1907568508
  - # 2
    frequency:   -1.0114601890
  - # 3
    frequency:    0.2756455563
  - # 4
    frequency:    1.8733954378
  - # 5
    frequency:    2.0098422277
  - # 6
    frequency:    3.3369771051
  - # 7
    frequency:    3.5043969801
  - # 8
    frequency:    4.7087031012
  - # 9
    frequency:    5.4300954523
  - # 10
    frequency:    5.4681930616
  - # 11
    frequency:    6.2837518560
  - # 12
    frequency:    6.3316227962
  - # 13
    frequency:    7.4720963042
  - # 14
    frequency:    8.4907467443
  - # 15
    frequency:   10.4595368334
  - # 16
    frequency:   11.5575463817
  - # 17
    frequency:   12.0810898862
  - # 18
    frequency:   17.6214047700
  - # 19
    frequency:   17.6738728935
  - # 20
    frequency:   38.4896247879
  - # 21
    frequency:   68.5498503811

- q-position: [    0.1010101,    0.0000000,    0.0000000 ]
  distance:    0.0325831
  band:
  - # 1
    frequency:   -1.1878051451
  - # 2
    frequency:   -1.0045079669
  - # 3
    frequency:    0.3066426502
  - # 4
    frequency:    1.9244213459
  - # 5
    frequency:    2.0667591074
  - # 6
    frequency:    3.3323853115
  - # 7
    frequency:    3.5124415043
  - # 8
    frequency:    4.6981325378
  - # 9
    frequency:    5.4271264943
  - # 10
    frequency:    5.4652392300
  - # 11
    frequency:    6.2810698265
  - # 12
    frequency:    6.3317511215
  - # 13
    frequency:    7.4563447236
  - # 14
    frequency:    8.4650445250
  - # 15
    frequency:   10.4618848764
  - # 16
    frequency:   11.4926797130
  - # 17
    frequency:   12.0678115587
  - # 18
    frequency:   17.6228711521
  - # 19
    frequency:   17.6804880016
  - # 20
    frequency:   38.4896994770
  - # 21
    frequency:   68.5102646500

- q-position: [    0.1060606,    0.0000000,    0.0000000 ]
  distance:    0.0342122
  band:
  - # 1
    frequency:   -1.1800666936
  - # 2
    frequency:   -0.9944295125
  - # 3
    frequency:    0.3392251077
  - # 4
    frequency:    1.9740244453
  - # 5
    frequency:    2.1215029968
  - # 6
    frequency:    3.3283167314
  - # 7
    frequency:    3.5203407232
  - # 8
    frequency:    4.6875113269
  - # 9
    frequency:    5.4242149896
  - # 10
    frequency:    5.4616052243
  - # 11
    frequency:    6.2786996680
  - # 12
    frequency:    6.3318633077
  - # 13
    frequency:    7.4402328779
  - # 14
    frequency:    8.4385330145
  - # 15
    frequency:   10.4642168524
  - # 16
    frequency:   11.4253343164
  - # 17
    frequency:   12.0535940275
  - # 18
    frequency:   17.6243854592
  - # 19
    frequency:   17.6873134997
  - # 20
    frequency:   38.4897729862
  - # 21
    frequency:   68.4692775681

- q-position: [    0.1111111,    0.0000000,    0.0000000 ]
  distance:    0.0358414
  band:
  - # 1
    frequency:   -1.1673418924
  - # 2
    frequency:   -0.9812568222
  - # 3
    frequency:    0.3733395273
  - # 4
    frequency:    2.0221708957
  - # 5
    frequency:    2.1740141736
  - # 6
    frequency:    3.3249028419
  - # 7
    frequency:    3.5279962756
  - # 8
    frequency:    4.6768852833
  - # 9
    frequency:    5.4213685085
  - # 10
    frequency:    5.4572526316
  - # 11
    frequency:    6.2766828784
  - # 12
    frequency:    6.3319584597
  - # 13
    frequency:    7.4238407729
  - # 14
    frequency:    8.4112833063
  - # 15
    frequency:   10.4664914849
  - # 16
    frequency:   11.3556725631
  - # 17
    frequency:   12.0384056159
  - # 18
    frequency:   17.6259435916
  - # 19
    frequency:   17.6943322508
  - # 20
    frequency:   38.4898445600
  - # 21
    frequency:   68.4269747796

- q-position: [    0.1161616,    0.0000000,    0.0000000 ]
  distance:    0.0374705
  band:
  - # 1
    frequency:   -1.1493757534
  - # 2
    frequency:   -0.9649978959
  - # 3
    frequency:    0.4089252209
  - # 4
    frequency:    2.0688052917
  - # 5
    frequency:    2.2242338968
  - # 6
    frequency:    3.3222784225
  - # 7
    frequency:    3.5353036764
  - # 8
    frequency:    4.6662957745
  - # 9
    frequency:    5.4185913946
  - # 10
    frequency:    5.4521601326
  - # 11
    frequency:    6.2750510088
  - # 12
    frequency:    6.3320362057
  - # 13
    frequency:    7.4072535258
  - # 14
    frequency:    8.3833690023
  - # 15
    frequency:   10.4686535934
  - # 16
    frequency:   11.2838803962
  - # 17
    frequency:   12.0222146287
  - # 18
    frequency:   17.6275412804
  - # 19
    frequency:   17.7015267871
  - # 20
    frequency:   38.4899134165
  - # 21
    frequency:   68.3834440822

- q-position: [    0.1212121,    0.0000000,    0.0000000 ]
  distance:    0.0390997
  band:
  - # 1
    frequency:   -1.1258455647
  - # 2
    frequency:   -0.9456353281
  - # 3
    frequency:    0.4459156001
  - # 4
    frequency:    2.1138484525
  - # 5
    frequency:    2.2721080073
  - # 6
    frequency:    3.3205782528
  - # 7
    frequency:    3.5421533498
  - # 8
    frequency:    4.6557789138
  - # 9
    frequency:    5.4158848706
  - # 10
    frequency:    5.4463271884
  - # 11
    frequency:    6.2738236245
  - # 12
    frequency:    6.3320967323
  - # 13
    frequency:    7.3905610509
  - # 14
    frequency:    8.3548661001
  - # 15
    frequency:   10.4706264390
  - # 16
    frequency:   11.2101755006
  - # 17
    frequency:   12.0049895138
  - # 18
    frequency:   17.6291741012
  - # 19
    frequency:   17.7088793723
  - # 20
    frequency:   38.4899787510
  - # 21
    frequency:   68.3387751665

- q-position: [    0.1262626,    0.0000000,    0.0000000 ]
  distance:    0.0407288
  band:
  - # 1
    frequency:   -1.0963422483
  - # 2
    frequency:   -0.9231235530
  - # 3
    frequency:    0.4842400928
  - # 4
    frequency:    2.1571944744
  - # 5
    frequency:    2.3175910681
  - # 6
    frequency:    3.3199329721
  - # 7
    frequency:    3.5484322405
  - # 8
    frequency:    4.6453647429
  - # 9
    frequency:    5.4132472353
  - # 10
    frequency:    5.4397773550
  - # 11
    frequency:    6.2730067307
  - # 12
    frequency:    6.3321408033
  - # 13
    frequency:    7.3738576389
  - # 14
    frequency:    8.3258528606
  - # 15
    frequency:   10.4722983661
  - # 16
    frequency:   11.1348211548
  - # 17
    frequency:   11.9866990227
  - # 18
    frequency:   17.6308374893
  - # 19
    frequency:   17.7163720642
  - # 20
    frequency:   38.4900397410
  - # 21
    frequency:   68.2930593509

- q-position: [    0.1313131,    0.0000000,    0.0000000 ]
  distance:    0.0423580
  band:
  - # 1
    frequency:   -1.0603420197
  - # 2
    frequency:   -0.8973843424
  - # 3
    frequency:    0.5238267747
  - # 4
    frequency:    2.1987069778
  - # 5
    frequency:    2.3606510273
  - # 6
    frequency:    3.3204641485
  - # 7
    frequency:    3.5540261661
  - # 8
    frequency:    4.6350764089
  - # 9
    frequency:    5.4106741492
  - # 10
    frequency:    5.4325610158
  - # 11
    frequency:    6.2725918397
  - # 12
    frequency:    6.3321697618
  - # 13
    frequency:    7.3572414079
  - # 14
    frequency:    8.2964096492
  - # 15
    frequency:   10.4734984062
  - # 16
    frequency:   11.0581510850
  - # 17
    frequency:   11.9673123681
  - # 18
    frequency:   17.6325267581
  - # 19
    frequency:   17.7239867775
  - # 20
    frequency:   38.4900955506
  - # 21
    frequency:   68.2463893113

- q-position: [    0.1363636,    0.0000000,    0.0000000 ]
  distance:    0.0439871
  band:
  - # 1
    frequency:   -1.0171622546
  - # 2
    frequency:   -0.8682998678
  - # 3
    frequency:    0.5646060098
  - # 4
    frequency:    2.2382144796
  - # 5
    frequency:    2.4012742604
  - # 6
    frequency:    3.3222787310
  - # 7
    frequency:    3.5588230956
  - # 8
    frequency:    4.6249293429
  - # 9
    frequency:    5.4081590000
  - # 10
    frequency:    5.4247573398
  - # 11
    frequency:    6.2725558127
  - # 12
    frequency:    6.3321855113
  - # 13
    frequency:    7.3408135985
  - # 14
    frequency:    8.2666187472
  - # 15
    frequency:   10.4739493013
  - # 16
    frequency:   10.9806168464
  - # 17
    frequency:   11.9467993789
  - # 18
    frequency:   17.6342371192
  - # 19
    frequency:   17.7317053465
  - # 20
    frequency:   38.4901453361
  - # 21
    frequency:   68.1988588074

- q-position: [    0.1414141,    0.0000000,    0.0000000 ]
  distance:    0.0456163
  band:
  - # 1
    frequency:   -0.9658899837
  - # 2
    frequency:   -0.8357021628
  - # 3
    frequency:    0.6065155736
  - # 4
    frequency:    2.2755048278
  - # 5
    frequency:    2.4394706841
  - # 6
    frequency:    3.3254632208
  - # 7
    frequency:    3.5627175414
  - # 8
    frequency:    4.6149304594
  - # 9
    frequency:    5.4056933401
  - # 10
    frequency:    5.4164753123
  - # 11
    frequency:    6.2728615609
  - # 12
    frequency:    6.3321904759
  - # 13
    frequency:    7.3246776862
  - # 14
    frequency:    8.2365641250
  - # 15
    frequency:   10.4731715998
  - # 16
    frequency:   10.9028840579
  - # 17
    frequency:   11.9251306532
  - # 18
    frequency:   17.6359637038
  - # 19
    frequency:   17.7395095876
  - # 20
    frequency:   38.4901882518
  - # 21
    frequency:   68.1505624059

- q-position: [    0.1464646,    0.0000000,    0.0000000 ]
  distance:    0.0472455
  band:
  - # 1
    frequency:   -0.9052593686
  - # 2
    frequency:   -0.7993569890
  - # 3
    frequency:    0.6495080279
  - # 4
    frequency:    2.3103186764
  - # 5
    frequency:    2.4752784622
  - # 6
    frequency:    3.3300780679
  - # 7
    frequency:    3.5656162387
  - # 8
    frequency:    4.6050774117
  - # 9
    frequency:    5.4032673835
  - # 10
    frequency:    5.4078537209
  - # 11
    frequency:    6.2734596185
  - # 12
    frequency:    6.3321875377
  - # 13
    frequency:    7.3089382785
  - # 14
    frequency:    8.2063311731
  - # 15
    frequency:   10.4702765282
  - # 16
    frequency:   10.8260397660
  - # 17
    frequency:   11.9022777089
  - # 18
    frequency:   17.6377015871
  - # 19
    frequency:   17.7473813605
  - # 20
    frequency:   38.4902234556
  - # 21
    frequency:   68.1015952026

- q-position: [    0.1515152,    0.0000000,    0.0000000 ]
  distance:    0.0488746
  band:
  - # 1
    frequency:   -0.8334249925
  - # 2
    frequency:   -0.7589385383
  - # 3
    frequency:    0.6935616058
  - # 4
    frequency:    2.3423420619
  - # 5
    frequency:    2.5087676843
  - # 6
    frequency:    3.3361529408
  - # 7
    frequency:    3.5674452114
  - # 8
    frequency:    4.5953579535
  - # 9
    frequency:    5.3990600218
  - # 10
    frequency:    5.4008705497
  - # 11
    frequency:    6.2742905410
  - # 12
    frequency:    6.3321799519
  - # 13
    frequency:    7.2936997695
  - # 14
    frequency:    8.1760063837
  - # 15
    frequency:   10.4635070675
  - # 16
    frequency:   10.7520514874
  - # 17
    frequency:   11.8782131307
  - # 18
    frequency:   17.6394458136
  - # 19
    frequency:   17.7553026297
  - # 20
    frequency:   38.4902501149
  - # 21
    frequency:   68.0520525432
