nqpoint: 300    
npath: 3      
segment_nqpoint:
- 100
- 100
- 100
labels:
- [ 'G', 'M' ]
- [ 'M', 'K' ]
- [ 'K', 'G' ]
reciprocal_lattice:
- [   0.27788827,   0.16043887,   0.00000000 ] # a*
- [   0.00000000,   0.32087773,   0.00000000 ] # b*
- [   0.00000000,   0.00000000,   0.04121644 ] # c*
natom: 6      
lattice:
- [     3.598568639495229,     0.000000000000000,     0.000000000000000 ] # a
- [    -1.799284319747614,     3.116451859069020,     0.000000000000000 ] # b
- [     0.000000000000000,     0.000000000000000,    24.262164224453922 ] # c
points:
- symbol: C # 1
  coordinates: [  0.333332985432215,  0.666666983183674,  0.579690372208554 ]
  mass: 12.010700
- symbol: N # 2
  coordinates: [  0.000000000000000,  0.000000000000000,  0.470622982494445 ]
  mass: 14.006700
- symbol: N # 3
  coordinates: [  0.333332985432215,  0.666666983183674,  0.629052053364272 ]
  mass: 14.006700
- symbol: O # 4
  coordinates: [  0.666666984744047,  0.333332985985145,  0.370947946635728 ]
  mass: 15.999400
- symbol: Y # 5
  coordinates: [  0.333332985432215,  0.666666983183674,  0.398942622394604 ]
  mass: 88.905850
- symbol: Y # 6
  coordinates: [  0.666666984744047,  0.333332985985145,  0.515235551946599 ]
  mass: 88.905850

phonon:
- q-position: [    0.0000000,    0.0000000,    0.0000000 ]
  distance:    0.0000000
  band:
  - # 1
    frequency:   -2.6849010159
  - # 2
    frequency:   -2.6849010159
  - # 3
    frequency:   -0.0000120108
  - # 4
    frequency:   -0.0000000361
  - # 5
    frequency:    0.0000119991
  - # 6
    frequency:    2.5532572499
  - # 7
    frequency:    2.5532572499
  - # 8
    frequency:    4.5781504676
  - # 9
    frequency:    6.8950562897
  - # 10
    frequency:    6.8950562898
  - # 11
    frequency:    8.0036931214
  - # 12
    frequency:   10.9995886169
  - # 13
    frequency:   10.9995886169
  - # 14
    frequency:   12.2219742240
  - # 15
    frequency:   13.0485905787
  - # 16
    frequency:   13.0485905787
  - # 17
    frequency:   15.1119687446
  - # 18
    frequency:   63.2114378921

- q-position: [    0.0050505,    0.0000000,    0.0000000 ]
  distance:    0.0016206
  band:
  - # 1
    frequency:   -2.6848888661
  - # 2
    frequency:   -2.6844637964
  - # 3
    frequency:    0.0016913324
  - # 4
    frequency:    0.0513906658
  - # 5
    frequency:    0.0961701474
  - # 6
    frequency:    2.5536309822
  - # 7
    frequency:    2.5554883698
  - # 8
    frequency:    4.5780246507
  - # 9
    frequency:    6.8950353482
  - # 10
    frequency:    6.8974846515
  - # 11
    frequency:    8.0034636864
  - # 12
    frequency:   10.9990667266
  - # 13
    frequency:   11.0024165385
  - # 14
    frequency:   12.2208732717
  - # 15
    frequency:   13.0481034067
  - # 16
    frequency:   13.0482324985
  - # 17
    frequency:   15.1130532476
  - # 18
    frequency:   63.2113713634

- q-position: [    0.0101010,    0.0000000,    0.0000000 ]
  distance:    0.0032412
  band:
  - # 1
    frequency:   -2.6848523123
  - # 2
    frequency:   -2.6831568152
  - # 3
    frequency:    0.0067541880
  - # 4
    frequency:    0.1027627923
  - # 5
    frequency:    0.1923375518
  - # 6
    frequency:    2.5547528336
  - # 7
    frequency:    2.5621606508
  - # 8
    frequency:    4.5776500911
  - # 9
    frequency:    6.8949727335
  - # 10
    frequency:    6.9047213165
  - # 11
    frequency:    8.0027770328
  - # 12
    frequency:   10.9975025297
  - # 13
    frequency:   11.0108457540
  - # 14
    frequency:   12.2176294544
  - # 15
    frequency:   13.0466440363
  - # 16
    frequency:   13.0471589888
  - # 17
    frequency:   15.1163006311
  - # 18
    frequency:   63.2111719195

- q-position: [    0.0151515,    0.0000000,    0.0000000 ]
  distance:    0.0048618
  band:
  - # 1
    frequency:   -2.6847910404
  - # 2
    frequency:   -2.6809939480
  - # 3
    frequency:    0.0151509848
  - # 4
    frequency:    0.1540978727
  - # 5
    frequency:    0.2884983425
  - # 6
    frequency:    2.5566247508
  - # 7
    frequency:    2.5732119624
  - # 8
    frequency:    4.5770352979
  - # 9
    frequency:    6.8948690738
  - # 10
    frequency:    6.9166228333
  - # 11
    frequency:    8.0016381419
  - # 12
    frequency:   10.9949004460
  - # 13
    frequency:   11.0247079821
  - # 14
    frequency:   12.2124234007
  - # 15
    frequency:   13.0442190005
  - # 16
    frequency:   13.0453722392
  - # 17
    frequency:   15.1216928448
  - # 18
    frequency:   63.2108399867

- q-position: [    0.0202020,    0.0000000,    0.0000000 ]
  distance:    0.0064824
  band:
  - # 1
    frequency:   -2.6847045258
  - # 2
    frequency:   -2.6779978093
  - # 3
    frequency:    0.0268215389
  - # 4
    frequency:    0.2053774728
  - # 5
    frequency:    0.3846464280
  - # 6
    frequency:    2.5592499237
  - # 7
    frequency:    2.5885423187
  - # 8
    frequency:    4.5761939251
  - # 9
    frequency:    6.8947254109
  - # 10
    frequency:    6.9329560362
  - # 11
    frequency:    8.0000554100
  - # 12
    frequency:   10.9912678383
  - # 13
    frequency:   11.0437070588
  - # 14
    frequency:   12.2055681569
  - # 15
    frequency:   13.0408395194
  - # 16
    frequency:   13.0428758891
  - # 17
    frequency:   15.1292008660
  - # 18
    frequency:   63.2103762736

- q-position: [    0.0252525,    0.0000000,    0.0000000 ]
  distance:    0.0081030
  band:
  - # 1
    frequency:   -2.6845920307
  - # 2
    frequency:   -2.6741990204
  - # 3
    frequency:    0.0416849116
  - # 4
    frequency:    0.2565832673
  - # 5
    frequency:    0.4807724776
  - # 6
    frequency:    2.5626327032
  - # 7
    frequency:    2.6080188300
  - # 8
    frequency:    4.5751440529
  - # 9
    frequency:    6.8945431935
  - # 10
    frequency:    6.9534065529
  - # 11
    frequency:    7.9980407949
  - # 12
    frequency:   10.9866150049
  - # 13
    frequency:   11.0673946197
  - # 14
    frequency:   12.1975281343
  - # 15
    frequency:   13.0365220495
  - # 16
    frequency:   13.0396750133
  - # 17
    frequency:   15.1387862194
  - # 18
    frequency:   63.2097817696

- q-position: [    0.0303030,    0.0000000,    0.0000000 ]
  distance:    0.0097236
  band:
  - # 1
    frequency:   -2.6844526019
  - # 2
    frequency:   -2.6696352544
  - # 3
    frequency:    0.0596423044
  - # 4
    frequency:    0.3076970827
  - # 5
    frequency:    0.5768630062
  - # 6
    frequency:    2.5667784889
  - # 7
    frequency:    2.6314819127
  - # 8
    frequency:    4.5739073106
  - # 9
    frequency:    6.8943242670
  - # 10
    frequency:    6.9775899973
  - # 11
    frequency:    7.9956100304
  - # 12
    frequency:   10.9809551707
  - # 13
    frequency:   11.0951349551
  - # 14
    frequency:   12.1889470583
  - # 15
    frequency:   13.0312891646
  - # 16
    frequency:   13.0357761016
  - # 17
    frequency:   15.1504029663
  - # 18
    frequency:   63.2090577415

- q-position: [    0.0353535,    0.0000000,    0.0000000 ]
  distance:    0.0113442
  band:
  - # 1
    frequency:   -2.6842850678
  - # 2
    frequency:   -2.6643501144
  - # 3
    frequency:    0.0805802638
  - # 4
    frequency:    0.3587009430
  - # 5
    frequency:    0.6728995894
  - # 6
    frequency:    2.5716935853
  - # 7
    frequency:    2.6587521806
  - # 8
    frequency:    4.5725079415
  - # 9
    frequency:    6.8940708609
  - # 10
    frequency:    7.0050651936
  - # 11
    frequency:    7.9927829217
  - # 12
    frequency:   10.9743044739
  - # 13
    frequency:   11.1260593927
  - # 14
    frequency:   12.1806848323
  - # 15
    frequency:   13.0251709077
  - # 16
    frequency:   13.0311870332
  - # 17
    frequency:   15.1640000473
  - # 18
    frequency:   63.2082057296

- q-position: [    0.0404040,    0.0000000,    0.0000000 ]
  distance:    0.0129648
  band:
  - # 1
    frequency:   -2.6840880360
  - # 2
    frequency:   -2.6583919109
  - # 3
    frequency:    0.1043739382
  - # 4
    frequency:    0.4095771215
  - # 5
    frequency:    0.7688582269
  - # 6
    frequency:    2.5773850316
  - # 7
    frequency:    2.6896374405
  - # 8
    frequency:    4.5709719054
  - # 9
    frequency:    6.8937855751
  - # 10
    frequency:    7.0353486728
  - # 11
    frequency:    7.9895837328
  - # 12
    frequency:   10.9666819488
  - # 13
    frequency:   11.1590139016
  - # 14
    frequency:   12.1738598781
  - # 15
    frequency:   13.0182068367
  - # 16
    frequency:   13.0259170459
  - # 17
    frequency:   15.1795238501
  - # 18
    frequency:   63.2072275431

- q-position: [    0.0454545,    0.0000000,    0.0000000 ]
  distance:    0.0145854
  band:
  - # 1
    frequency:   -2.6838598912
  - # 2
    frequency:   -2.6518124027
  - # 3
    frequency:    0.1308901729
  - # 4
    frequency:    0.4603081974
  - # 5
    frequency:    0.8647088687
  - # 6
    frequency:    2.5838604036
  - # 7
    frequency:    2.7239392864
  - # 8
    frequency:    4.5693260961
  - # 9
    frequency:    6.8934713631
  - # 10
    frequency:    7.0679296317
  - # 11
    frequency:    7.9860416852
  - # 12
    frequency:   10.9581095042
  - # 13
    frequency:   11.1925113882
  - # 14
    frequency:   12.1698856310
  - # 15
    frequency:   13.0104491355
  - # 16
    frequency:   13.0199766999
  - # 17
    frequency:   15.1969208790
  - # 18
    frequency:   63.2061252545

- q-position: [    0.0505051,    0.0000000,    0.0000000 ]
  distance:    0.0162059
  band:
  - # 1
    frequency:   -2.6835987947
  - # 2
    frequency:   -2.6446655581
  - # 3
    frequency:    0.1599902886
  - # 4
    frequency:    0.5108771184
  - # 5
    frequency:    0.9604151070
  - # 6
    frequency:    2.5911275941
  - # 7
    frequency:    2.7614589034
  - # 8
    frequency:    4.5675977285
  - # 9
    frequency:    6.8931315144
  - # 10
    frequency:    7.1022845476
  - # 11
    frequency:    7.9821915839
  - # 12
    frequency:   10.9486118964
  - # 13
    frequency:   11.2247144237
  - # 14
    frequency:   12.1704753590
  - # 15
    frequency:   13.0019674058
  - # 16
    frequency:   13.0133778379
  - # 17
    frequency:   15.2161404117
  - # 18
    frequency:   63.2049011932

- q-position: [    0.0555556,    0.0000000,    0.0000000 ]
  distance:    0.0178265
  band:
  - # 1
    frequency:   -2.6833026850
  - # 2
    frequency:   -2.6370063857
  - # 3
    frequency:    0.1915324589
  - # 4
    frequency:    0.5612672688
  - # 5
    frequency:    1.0559340327
  - # 6
    frequency:    2.5991945711
  - # 7
    frequency:    2.8020018254
  - # 8
    frequency:    4.5658139225
  - # 9
    frequency:    6.8927696360
  - # 10
    frequency:    7.1378906988
  - # 11
    frequency:    7.9780745953
  - # 12
    frequency:   10.9382166959
  - # 13
    frequency:   11.2534925245
  - # 14
    frequency:   12.1775706048
  - # 15
    frequency:   12.9928562102
  - # 16
    frequency:   13.0061335402
  - # 17
    frequency:   15.2371370485
  - # 18
    frequency:   63.2035579387

- q-position: [    0.0606061,    0.0000000,    0.0000000 ]
  distance:    0.0194471
  band:
  - # 1
    frequency:   -2.6829692807
  - # 2
    frequency:   -2.6288898727
  - # 3
    frequency:    0.2253736543
  - # 4
    frequency:    0.6114625421
  - # 5
    frequency:    1.1512162490
  - # 6
    frequency:    2.6080691204
  - # 7
    frequency:    2.8453815242
  - # 8
    frequency:    4.5640014900
  - # 9
    frequency:    6.8923896331
  - # 10
    frequency:    7.1742379499
  - # 11
    frequency:    7.9737391942
  - # 12
    frequency:   10.9269542473
  - # 13
    frequency:   11.2766047597
  - # 14
    frequency:   12.1931409909
  - # 15
    frequency:   12.9832472706
  - # 16
    frequency:   12.9982580762
  - # 17
    frequency:   15.2598730757
  - # 18
    frequency:   63.2020983124

- q-position: [    0.0656566,    0.0000000,    0.0000000 ]
  distance:    0.0210677
  band:
  - # 1
    frequency:   -2.6825960851
  - # 2
    frequency:   -2.6203700547
  - # 3
    frequency:    0.2613711708
  - # 4
    frequency:    0.6614474179
  - # 5
    frequency:    1.2462060282
  - # 6
    frequency:    2.6177585740
  - # 7
    frequency:    2.8914218192
  - # 8
    frequency:    4.5621869147
  - # 9
    frequency:    6.8919956894
  - # 10
    frequency:    7.2108383122
  - # 11
    frequency:    7.9692422970
  - # 12
    frequency:   10.9148576215
  - # 13
    frequency:   11.2920208250
  - # 14
    frequency:   12.2188390291
  - # 15
    frequency:   12.9733298515
  - # 16
    frequency:   12.9897668527
  - # 17
    frequency:   15.2843205873
  - # 18
    frequency:   63.2005253692

- q-position: [    0.0707071,    0.0000000,    0.0000000 ]
  distance:    0.0226883
  band:
  - # 1
    frequency:   -2.6821803944
  - # 2
    frequency:   -2.6114992298
  - # 3
    frequency:    0.2993837858
  - # 4
    frequency:    0.7112070416
  - # 5
    frequency:    1.3408415956
  - # 6
    frequency:    2.6282695300
  - # 7
    frequency:    2.9399581777
  - # 8
    frequency:    4.5603965029
  - # 9
    frequency:    6.8915922481
  - # 10
    frequency:    7.2472329742
  - # 11
    frequency:    7.9646505858
  - # 12
    frequency:   10.9019625589
  - # 13
    frequency:   11.2982960815
  - # 14
    frequency:   12.2555878441
  - # 15
    frequency:   12.9633861114
  - # 16
    frequency:   12.9806763588
  - # 17
    frequency:   15.3104633158
  - # 18
    frequency:   63.1988423881

- q-position: [    0.0757576,    0.0000000,    0.0000000 ]
  distance:    0.0243089
  band:
  - # 1
    frequency:   -2.6817193075
  - # 2
    frequency:   -2.6023273201
  - # 3
    frequency:    0.3392726021
  - # 4
    frequency:    0.7607273048
  - # 5
    frequency:    1.4350555219
  - # 6
    frequency:    2.6396075677
  - # 7
    frequency:    2.9908380326
  - # 8
    frequency:    4.5586566827
  - # 9
    frequency:    6.8911839935
  - # 10
    frequency:    7.2829967036
  - # 11
    frequency:    7.9600419987
  - # 12
    frequency:   10.8883074036
  - # 13
    frequency:   11.2948255814
  - # 14
    frequency:   12.3032633398
  - # 15
    frequency:   12.9538549289
  - # 16
    frequency:   12.9710041084
  - # 17
    frequency:   15.3382981361
  - # 18
    frequency:   63.1970528625

- q-position: [    0.0808081,    0.0000000,    0.0000000 ]
  distance:    0.0259295
  band:
  - # 1
    frequency:   -2.6812097395
  - # 2
    frequency:   -2.5929013760
  - # 3
    frequency:    0.3809016429
  - # 4
    frequency:    0.8099949260
  - # 5
    frequency:    1.5287752026
  - # 6
    frequency:    2.6517769635
  - # 7
    frequency:    3.0439202688
  - # 8
    frequency:    4.5569944285
  - # 9
    frequency:    6.8907758328
  - # 10
    frequency:    7.3177397401
  - # 11
    frequency:    7.9555073231
  - # 12
    frequency:   10.8739330266
  - # 13
    frequency:   11.2818409970
  - # 14
    frequency:   12.3605792734
  - # 15
    frequency:   12.9454517582
  - # 16
    frequency:   12.9607685804
  - # 17
    frequency:   15.3678362006
  - # 18
    frequency:   63.1951604895

- q-position: [    0.0858586,    0.0000000,    0.0000000 ]
  distance:    0.0275501
  band:
  - # 1
    frequency:   -2.6806484378
  - # 2
    frequency:   -2.5832652089
  - # 3
    frequency:    0.4241382576
  - # 4
    frequency:    0.8589975273
  - # 5
    frequency:    1.6219234037
  - # 6
    frequency:    2.6647804110
  - # 7
    frequency:    3.0990740356
  - # 8
    frequency:    4.5554377948
  - # 9
    frequency:    6.8903728804
  - # 10
    frequency:    7.3511075215
  - # 11
    frequency:    7.9511517407
  - # 12
    frequency:   10.8588827387
  - # 13
    frequency:   11.2601799981
  - # 14
    frequency:   12.4250900353
  - # 15
    frequency:   12.9394000184
  - # 16
    frequency:   12.9499891569
  - # 17
    frequency:   15.3991036549
  - # 18
    frequency:   63.1931691586

- q-position: [    0.0909091,    0.0000000,    0.0000000 ]
  distance:    0.0291707
  band:
  - # 1
    frequency:   -2.6800320008
  - # 2
    frequency:   -2.5734591410
  - # 3
    frequency:    0.4688533918
  - # 4
    frequency:    0.9077237065
  - # 5
    frequency:    1.7144188521
  - # 6
    frequency:    2.6786187526
  - # 7
    frequency:    3.1561770331
  - # 8
    frequency:    4.5540165515
  - # 9
    frequency:    6.8899804427
  - # 10
    frequency:    7.3827788230
  - # 11
    frequency:    7.9470960589
  - # 12
    frequency:   10.8432021907
  - # 13
    frequency:   11.2309815723
  - # 14
    frequency:   12.4930600214
  - # 15
    frequency:   12.9378714179
  - # 16
    frequency:   12.9386860606
  - # 17
    frequency:   15.4321418668
  - # 18
    frequency:   63.1910829405

- q-position: [    0.0959596,    0.0000000,    0.0000000 ]
  distance:    0.0307913
  band:
  - # 1
    frequency:   -2.6793568990
  - # 2
    frequency:   -2.5635198529
  - # 3
    frequency:    0.5149217632
  - # 4
    frequency:    0.9561631012
  - # 5
    frequency:    1.8061768475
  - # 6
    frequency:    2.6932907263
  - # 7
    frequency:    3.2151134013
  - # 8
    frequency:    4.5527629211
  - # 9
    frequency:    6.8896040056
  - # 10
    frequency:    7.4124631271
  - # 11
    frequency:    7.9434771784
  - # 12
    frequency:   10.8269392621
  - # 13
    frequency:   11.1954414040
  - # 14
    frequency:   12.5589976757
  - # 15
    frequency:   12.9268802904
  - # 16
    frequency:   12.9447027956
  - # 17
    frequency:   15.4670070744
  - # 18
    frequency:   63.1889060744

- q-position: [    0.1010101,    0.0000000,    0.0000000 ]
  distance:    0.0324119
  band:
  - # 1
    frequency:   -2.6786194990
  - # 2
    frequency:   -2.5534803125
  - # 3
    frequency:    0.5622219768
  - # 4
    frequency:    1.0043064428
  - # 5
    frequency:    1.8971098721
  - # 6
    frequency:    2.7087927329
  - # 7
    frequency:    3.2757713140
  - # 8
    frequency:    4.5517124360
  - # 9
    frequency:    6.8892492228
  - # 10
    frequency:    7.4398982909
  - # 11
    frequency:    7.9404471315
  - # 12
    frequency:   10.8101439356
  - # 13
    frequency:   11.1546713650
  - # 14
    frequency:   12.6153291419
  - # 15
    frequency:   12.9145935566
  - # 16
    frequency:   12.9658702760
  - # 17
    frequency:   15.5037693325
  - # 18
    frequency:   63.1866429555

- q-position: [    0.1060606,    0.0000000,    0.0000000 ]
  distance:    0.0340325
  band:
  - # 1
    frequency:   -2.6778160886
  - # 2
    frequency:   -2.5433697715
  - # 3
    frequency:    0.6106366035
  - # 4
    frequency:    1.0521455969
  - # 5
    frequency:    1.9871281743
  - # 6
    frequency:    2.7251186290
  - # 7
    frequency:    3.3380403520
  - # 8
    frequency:    4.5509049425
  - # 9
    frequency:    6.8889219071
  - # 10
    frequency:    7.4648497723
  - # 11
    frequency:    7.9381698130
  - # 12
    frequency:   10.7928681596
  - # 13
    frequency:   11.1096438912
  - # 14
    frequency:   12.6544786017
  - # 15
    frequency:   12.9018482162
  - # 16
    frequency:   13.0074727297
  - # 17
    frequency:   15.5425106054
  - # 18
    frequency:   63.1842981223

- q-position: [    0.1111111,    0.0000000,    0.0000000 ]
  distance:    0.0356531
  band:
  - # 1
    frequency:   -2.6769429038
  - # 2
    frequency:   -2.5332138138
  - # 3
    frequency:    0.6600522377
  - # 4
    frequency:    1.0996735890
  - # 5
    frequency:    2.0761402992
  - # 6
    frequency:    2.7422595501
  - # 7
    frequency:    3.4018086945
  - # 8
    frequency:    4.5503858048
  - # 9
    frequency:    6.8886280226
  - # 10
    frequency:    7.4871127099
  - # 11
    frequency:    7.9368144537
  - # 12
    frequency:   10.7751656965
  - # 13
    frequency:   11.0611858926
  - # 14
    frequency:   12.6741210091
  - # 15
    frequency:   12.8886672070
  - # 16
    frequency:   13.0704940952
  - # 17
    frequency:   15.5833218366
  - # 18
    frequency:   63.1818762423

- q-position: [    0.1161616,    0.0000000,    0.0000000 ]
  distance:    0.0372737
  band:
  - # 1
    frequency:   -2.6759961563
  - # 2
    frequency:   -2.5230344454
  - # 3
    frequency:    0.7103595433
  - # 4
    frequency:    1.1468846127
  - # 5
    frequency:    2.1640535380
  - # 6
    frequency:    2.7602037680
  - # 7
    frequency:    3.4669601291
  - # 8
    frequency:    4.5502073861
  - # 9
    frequency:    6.8883736791
  - # 10
    frequency:    7.5065178101
  - # 11
    frequency:    7.9365451710
  - # 12
    frequency:   10.7570919569
  - # 13
    frequency:   11.0099947463
  - # 14
    frequency:   12.6782178271
  - # 15
    frequency:   12.8750739830
  - # 16
    frequency:   13.1497613694
  - # 17
    frequency:   15.6262988204
  - # 18
    frequency:   63.1793820994

- q-position: [    0.1212121,    0.0000000,    0.0000000 ]
  distance:    0.0388943
  band:
  - # 1
    frequency:   -2.6749720620
  - # 2
    frequency:   -2.5128502168
  - # 3
    frequency:    0.7614532944
  - # 4
    frequency:    1.1937740180
  - # 5
    frequency:    2.2507742704
  - # 6
    frequency:    2.7789365846
  - # 7
    frequency:    3.5333708285
  - # 8
    frequency:    4.5504309245
  - # 9
    frequency:    6.8881651274
  - # 10
    frequency:    7.5229410545
  - # 11
    frequency:    7.9375068063
  - # 12
    frequency:   10.7387038214
  - # 13
    frequency:   10.9566607560
  - # 14
    frequency:   12.6721262123
  - # 15
    frequency:   12.8610924498
  - # 16
    frequency:   13.2388234432
  - # 17
    frequency:   15.6715367313
  - # 18
    frequency:   63.1768205787

- q-position: [    0.1262626,    0.0000000,    0.0000000 ]
  distance:    0.0405149
  band:
  - # 1
    frequency:   -2.6738668692
  - # 2
    frequency:   -2.5026763717
  - # 3
    frequency:    0.8132324102
  - # 4
    frequency:    1.2403382795
  - # 5
    frequency:    2.3362081724
  - # 6
    frequency:    2.7984402675
  - # 7
    frequency:    3.6009057682
  - # 8
    frequency:    4.5511289840
  - # 9
    frequency:    6.8880087565
  - # 10
    frequency:    7.5363156741
  - # 11
    frequency:    7.9398087601
  - # 12
    frequency:   10.7200594479
  - # 13
    frequency:   10.9016888908
  - # 14
    frequency:   12.6596461877
  - # 15
    frequency:   12.8467469004
  - # 16
    frequency:   13.3328934118
  - # 17
    frequency:   15.7191232383
  - # 18
    frequency:   63.1741966530

- q-position: [    0.1313131,    0.0000000,    0.0000000 ]
  distance:    0.0421355
  band:
  - # 1
    frequency:   -2.6726768860
  - # 2
    frequency:   -2.4925250148
  - # 3
    frequency:    0.8655999838
  - # 4
    frequency:    1.2865749431
  - # 5
    frequency:    2.4202602694
  - # 6
    frequency:    2.8186940259
  - # 7
    frequency:    3.6694145547
  - # 8
    frequency:    4.5523887558
  - # 9
    frequency:    6.8879110902
  - # 10
    frequency:    7.5466430954
  - # 11
    frequency:    7.9435102225
  - # 12
    frequency:   10.7012180665
  - # 13
    frequency:   10.8455172347
  - # 14
    frequency:   12.6430115332
  - # 15
    frequency:   12.8320619524
  - # 16
    frequency:   13.4288511041
  - # 17
    frequency:   15.7691302656
  - # 18
    frequency:   63.1715153681

- q-position: [    0.1363636,    0.0000000,    0.0000000 ]
  distance:    0.0437561
  band:
  - # 1
    frequency:   -2.6713985073
  - # 2
    frequency:   -2.4824052973
  - # 3
    frequency:    0.9184633015
  - # 4
    frequency:    1.3324825511
  - # 5
    frequency:    2.5028348209
  - # 6
    frequency:    2.8396740298
  - # 7
    frequency:    3.7387262644
  - # 8
    frequency:    4.5543166365
  - # 9
    frequency:    6.8878787846
  - # 10
    frequency:    7.5539986544
  - # 11
    frequency:    7.9486110540
  - # 12
    frequency:   10.6822397627
  - # 13
    frequency:   10.7885317043
  - # 14
    frequency:   12.6235009582
  - # 15
    frequency:   12.8170624857
  - # 16
    frequency:   13.5246294610
  - # 17
    frequency:   15.8216046511
  - # 18
    frequency:   63.1687818281

- q-position: [    0.1414141,    0.0000000,    0.0000000 ]
  distance:    0.0453766
  band:
  - # 1
    frequency:   -2.6700282394
  - # 2
    frequency:   -2.4723236157
  - # 3
    frequency:    0.9717338499
  - # 4
    frequency:    1.3780605463
  - # 5
    frequency:    2.5838350335
  - # 6
    frequency:    2.8613534719
  - # 7
    frequency:    3.8086426316
  - # 8
    frequency:    4.5570447607
  - # 9
    frequency:    6.8879186252
  - # 10
    frequency:    7.5585287930
  - # 11
    frequency:    7.9550516166
  - # 12
    frequency:   10.6631852486
  - # 13
    frequency:   10.7310774220
  - # 14
    frequency:   12.6018701226
  - # 15
    frequency:   12.8017735818
  - # 16
    frequency:   13.6187833511
  - # 17
    frequency:   15.8765581963
  - # 18
    frequency:   63.1660011809

- q-position: [    0.1464646,    0.0000000,    0.0000000 ]
  distance:    0.0469972
  band:
  - # 1
    frequency:   -2.6685627244
  - # 2
    frequency:   -2.4622838228
  - # 3
    frequency:    1.0253273057
  - # 4
    frequency:    1.4233091560
  - # 5
    frequency:    2.6631626162
  - # 6
    frequency:    2.8837026703
  - # 7
    frequency:    3.8789285015
  - # 8
    frequency:    4.5607405658
  - # 9
    frequency:    6.8880375220
  - # 10
    frequency:    7.5604391864
  - # 11
    frequency:    7.9627220938
  - # 12
    frequency:   10.6441156236
  - # 13
    frequency:   10.6734673512
  - # 14
    frequency:   12.5785885179
  - # 15
    frequency:   12.7862204644
  - # 16
    frequency:   13.7102555114
  - # 17
    frequency:   15.9339578521
  - # 18
    frequency:   63.1631786034

- q-position: [    0.1515152,    0.0000000,    0.0000000 ]
  distance:    0.0486178
  band:
  - # 1
    frequency:   -2.6669987606
  - # 2
    frequency:   -2.4522874479
  - # 3
    frequency:    1.0791635068
  - # 4
    frequency:    1.4682292585
  - # 5
    frequency:    2.7407172081
  - # 6
    frequency:    2.9066892103
  - # 7
    frequency:    3.9492977998
  - # 8
    frequency:    4.5656211132
  - # 9
    frequency:    6.8882425038
  - # 10
    frequency:    7.5599764294
  - # 11
    frequency:    7.9714786372
  - # 12
    frequency:   10.6159887883
  - # 13
    frequency:   10.6250921266
  - # 14
    frequency:   12.5539640643
  - # 15
    frequency:   12.7704284411
  - # 16
    frequency:   13.7982552791
  - # 17
    frequency:   15.9937169941
  - # 18
    frequency:   63.1603192870

- q-position: [    0.1565657,    0.0000000,    0.0000000 ]
  distance:    0.0502384
  band:
  - # 1
    frequency:   -2.6653333222
  - # 2
    frequency:   -2.4423339260
  - # 3
    frequency:    1.1331664013
  - # 4
    frequency:    1.5128222337
  - # 5
    frequency:    2.8163957303
  - # 6
    frequency:    2.9302781226
  - # 7
    frequency:    4.0193922642
  - # 8
    frequency:    4.5719748731
  - # 9
    frequency:    6.8885407091
  - # 10
    frequency:    7.5574077458
  - # 11
    frequency:    7.9811618345
  - # 12
    frequency:   10.5589082066
  - # 13
    frequency:   10.6061758800
  - # 14
    frequency:   12.5282098200
  - # 15
    frequency:   12.7544228472
  - # 16
    frequency:   13.8821942469
  - # 17
    frequency:   16.0556888277
  - # 18
    frequency:   63.1574284227

- q-position: [    0.1616162,    0.0000000,    0.0000000 ]
  distance:    0.0518590
  band:
  - # 1
    frequency:   -2.6635635759
  - # 2
    frequency:   -2.4324208334
  - # 3
    frequency:    1.1872639727
  - # 4
    frequency:    1.5570898013
  - # 5
    frequency:    2.8900917379
  - # 6
    frequency:    2.9544320927
  - # 7
    frequency:    4.0887488874
  - # 8
    frequency:    4.5801949499
  - # 9
    frequency:    6.8889393744
  - # 10
    frequency:    7.5530029159
  - # 11
    frequency:    7.9916132512
  - # 12
    frequency:   10.5024748460
  - # 13
    frequency:   10.5874276276
  - # 14
    frequency:   12.5014809856
  - # 15
    frequency:   12.7382289907
  - # 16
    frequency:   13.9616493829
  - # 17
    frequency:   16.1196628770
  - # 18
    frequency:   63.1545111873

- q-position: [    0.1666667,    0.0000000,    0.0000000 ]
  distance:    0.0534796
  band:
  - # 1
    frequency:   -2.6616868952
  - # 2
    frequency:   -2.4225441293
  - # 3
    frequency:    1.2413881420
  - # 4
    frequency:    1.6010338495
  - # 5
    frequency:    2.9616948709
  - # 6
    frequency:    2.9791116991
  - # 7
    frequency:    4.1567511877
  - # 8
    frequency:    4.5908285360
  - # 9
    frequency:    6.8894458183
  - # 10
    frequency:    7.5470209003
  - # 11
    frequency:    8.0026875178
  - # 12
    frequency:   10.4469233446
  - # 13
    frequency:   10.5689074678
  - # 14
    frequency:   12.4738962475
  - # 15
    frequency:   12.7218720995
  - # 16
    frequency:   14.0363386725
  - # 17
    frequency:   16.1853652259
  - # 18
    frequency:   63.1515727280

- q-position: [    0.1717172,    0.0000000,    0.0000000 ]
  distance:    0.0551002
  band:
  - # 1
    frequency:   -2.6597008721
  - # 2
    frequency:   -2.4126984005
  - # 3
    frequency:    1.2954746462
  - # 4
    frequency:    1.6446562586
  - # 5
    frequency:    3.0042756728
  - # 6
    frequency:    3.0310905268
  - # 7
    frequency:    4.2225624186
  - # 8
    frequency:    4.6046443610
  - # 9
    frequency:    6.8900674215
  - # 10
    frequency:    7.5397017099
  - # 11
    frequency:    8.0142593632
  - # 12
    frequency:   10.3924756393
  - # 13
    frequency:   10.5506745844
  - # 14
    frequency:   12.4455505595
  - # 15
    frequency:   12.7053772703
  - # 16
    frequency:   14.1061017999
  - # 17
    frequency:   16.2524627243
  - # 18
    frequency:   63.1486181497

- q-position: [    0.1767677,    0.0000000,    0.0000000 ]
  distance:    0.0567208
  band:
  - # 1
    frequency:   -2.6576033270
  - # 2
    frequency:   -2.4028771094
  - # 3
    frequency:    1.3494628967
  - # 4
    frequency:    1.6879587226
  - # 5
    frequency:    3.0298811744
  - # 6
    frequency:    3.0981599011
  - # 7
    frequency:    4.2850562449
  - # 8
    frequency:    4.6227024624
  - # 9
    frequency:    6.8908116010
  - # 10
    frequency:    7.5312627551
  - # 11
    frequency:    8.0262263117
  - # 12
    frequency:   10.3393423033
  - # 13
    frequency:   10.5327869760
  - # 14