nqpoint: 300    
npath: 3      
segment_nqpoint:
- 100
- 100
- 100
labels:
- [ 'G', 'M' ]
- [ 'M', 'K' ]
- [ 'K', 'G' ]
reciprocal_lattice:
- [   0.29998663,   0.17319736,   0.00000000 ] # a*
- [   0.00000000,   0.34639473,   0.00000000 ] # b*
- [   0.00000000,   0.00000000,   0.03683127 ] # c*
natom: 8      
lattice:
- [     3.333481852231156,     0.000000000000000,     0.000000000000000 ] # a
- [    -1.666740926115578,     2.886879967077280,     0.000000000000000 ] # b
- [     0.000000000000000,     0.000000000000000,    27.150839591278508 ] # c
points:
- symbol: C # 1
  coordinates: [  0.333332985432215,  0.666666983183674,  0.624009667978414 ]
  mass: 12.010700
- symbol: C # 2
  coordinates: [  0.666666984744047,  0.333332985985145,  0.388523102107586 ]
  mass: 12.010700
- symbol: Hf # 3
  coordinates: [  0.333332985432215,  0.666666983183674,  0.484621284063964 ]
  mass: 178.490000
- symbol: Hf # 4
  coordinates: [  0.666666984744047,  0.333332985985145,  0.570173590163052 ]
  mass: 178.490000
- symbol: N # 5
  coordinates: [  0.000000000000000,  0.000000000000000,  0.527114257912630 ]
  mass: 14.006700
- symbol: N # 6
  coordinates: [  0.333332985432215,  0.666666983183674,  0.668518538082667 ]
  mass: 14.006700
- symbol: N # 7
  coordinates: [  0.666666984744047,  0.333332985985145,  0.435144703711683 ]
  mass: 14.006700
- symbol: S # 8
  coordinates: [  0.666666984744047,  0.333332985985145,  0.331481461917333 ]
  mass: 32.065000

phonon:
- q-position: [    0.0000000,    0.0000000,    0.0000000 ]
  distance:    0.0000000
  band:
  - # 1
    frequency:   -4.5451916171
  - # 2
    frequency:   -4.5451916170
  - # 3
    frequency:   -0.0000151805
  - # 4
    frequency:   -0.0000000607
  - # 5
    frequency:    0.0000087778
  - # 6
    frequency:    0.8133118134
  - # 7
    frequency:    0.8133118135
  - # 8
    frequency:    2.8645895494
  - # 9
    frequency:    2.8645895495
  - # 10
    frequency:    3.9510174667
  - # 11
    frequency:    5.1203208846
  - # 12
    frequency:    5.1203208846
  - # 13
    frequency:    6.0361657291
  - # 14
    frequency:    7.0197270503
  - # 15
    frequency:    7.0197270503
  - # 16
    frequency:    8.7334060006
  - # 17
    frequency:   12.9374717384
  - # 18
    frequency:   12.9374717384
  - # 19
    frequency:   14.6186576398
  - # 20
    frequency:   15.9646220092
  - # 21
    frequency:   15.9646220092
  - # 22
    frequency:   26.4932906108
  - # 23
    frequency:   54.3909614649
  - # 24
    frequency:   59.1306018909

- q-position: [    0.0050505,    0.0000000,    0.0000000 ]
  distance:    0.0017495
  band:
  - # 1
    frequency:   -4.5440220960
  - # 2
    frequency:   -4.5435849854
  - # 3
    frequency:    0.0011632958
  - # 4
    frequency:    0.0220159811
  - # 5
    frequency:    0.0779689291
  - # 6
    frequency:    0.8148061228
  - # 7
    frequency:    0.8175004870
  - # 8
    frequency:    2.8645808561
  - # 9
    frequency:    2.8651412634
  - # 10
    frequency:    3.9513664657
  - # 11
    frequency:    5.1206912099
  - # 12
    frequency:    5.1218849205
  - # 13
    frequency:    6.0361104451
  - # 14
    frequency:    7.0199797226
  - # 15
    frequency:    7.0206390773
  - # 16
    frequency:    8.7331633979
  - # 17
    frequency:   12.9373863581
  - # 18
    frequency:   12.9376781489
  - # 19
    frequency:   14.6185782895
  - # 20
    frequency:   15.9644524321
  - # 21
    frequency:   15.9645910013
  - # 22
    frequency:   26.4928813918
  - # 23
    frequency:   54.3903140197
  - # 24
    frequency:   59.1302063792

- q-position: [    0.0101010,    0.0000000,    0.0000000 ]
  distance:    0.0034989
  band:
  - # 1
    frequency:   -4.5405138880
  - # 2
    frequency:   -4.5387726766
  - # 3
    frequency:    0.0053166707
  - # 4
    frequency:    0.0444723613
  - # 5
    frequency:    0.1558181390
  - # 6
    frequency:    0.8192500574
  - # 7
    frequency:    0.8299428813
  - # 8
    frequency:    2.8645561364
  - # 9
    frequency:    2.8667973937
  - # 10
    frequency:    3.9524148784
  - # 11
    frequency:    5.1218018398
  - # 12
    frequency:    5.1265691860
  - # 13
    frequency:    6.0359462208
  - # 14
    frequency:    7.0207377372
  - # 15
    frequency:    7.0233713235
  - # 16
    frequency:    8.7324366950
  - # 17
    frequency:   12.9371306011
  - # 18
    frequency:   12.9382960078
  - # 19
    frequency:   14.6183393024
  - # 20
    frequency:   15.9639422249
  - # 21
    frequency:   15.9644985360
  - # 22
    frequency:   26.4916551577
  - # 23
    frequency:   54.3883732971
  - # 24
    frequency:   59.1290209914

- q-position: [    0.0151515,    0.0000000,    0.0000000 ]
  distance:    0.0052484
  band:
  - # 1
    frequency:   -4.5346680988
  - # 2
    frequency:   -4.5307774496
  - # 3
    frequency:    0.0117701254
  - # 4
    frequency:    0.0677691282
  - # 5
    frequency:    0.2334535137
  - # 6
    frequency:    0.8265309341
  - # 7
    frequency:    0.8502850815
  - # 8
    frequency:    2.8645194794
  - # 9
    frequency:    2.8695608499
  - # 10
    frequency:    3.9541668515
  - # 11
    frequency:    5.1236517501
  - # 12
    frequency:    5.1343503105
  - # 13
    frequency:    6.0356779148
  - # 14
    frequency:    7.0220010800
  - # 15
    frequency:    7.0279123715
  - # 16
    frequency:    8.7312292009
  - # 17
    frequency:   12.9367056154
  - # 18
    frequency:   12.9393212067
  - # 19
    frequency:   14.6179378783
  - # 20
    frequency:   15.9630869712
  - # 21
    frequency:   15.9643462796
  - # 22
    frequency:   26.4896161699
  - # 23
    frequency:   54.3851441313
  - # 24
    frequency:   59.1270491652

- q-position: [    0.0202020,    0.0000000,    0.0000000 ]
  distance:    0.0069979
  band:
  - # 1
    frequency:   -4.5264867041
  - # 2
    frequency:   -4.5196372367
  - # 3
    frequency:    0.0207189586
  - # 4
    frequency:    0.0922350603
  - # 5
    frequency:    0.3107732142
  - # 6
    frequency:    0.8364742405
  - # 7
    frequency:    0.8779883532
  - # 8
    frequency:    2.8644777265
  - # 9
    frequency:    2.8734362918
  - # 10
    frequency:    3.9566289690
  - # 11
    frequency:    5.1262392796
  - # 12
    frequency:    5.1451898475
  - # 13
    frequency:    6.0353135478
  - # 14
    frequency:    7.0237697025
  - # 15
    frequency:    7.0342434795
  - # 16
    frequency:    8.7295464081
  - # 17
    frequency:   12.9361133003
  - # 18
    frequency:   12.9407469285
  - # 19
    frequency:   14.6173693770
  - # 20
    frequency:   15.9618793480
  - # 21
    frequency:   15.9641369841
  - # 22
    frequency:   26.4867715057
  - # 23
    frequency:   54.3806345631
  - # 24
    frequency:   59.1242966166

- q-position: [    0.0252525,    0.0000000,    0.0000000 ]
  distance:    0.0087473
  band:
  - # 1
    frequency:   -4.5159727452
  - # 2
    frequency:   -4.5054051400
  - # 3
    frequency:    0.0321606579
  - # 4
    frequency:    0.1181120665
  - # 5
    frequency:    0.3876859914
  - # 6
    frequency:    0.8488603946
  - # 7
    frequency:    0.9123897492
  - # 8
    frequency:    2.8644405081
  - # 9
    frequency:    2.8784298496
  - # 10
    frequency:    3.9598097932
  - # 11
    frequency:    5.1295621959
  - # 12
    frequency:    5.1590349849
  - # 13
    frequency:    6.0348642065
  - # 14
    frequency:    7.0260434833
  - # 15
    frequency:    7.0423389960
  - # 16
    frequency:    8.7273959591
  - # 17
    frequency:   12.9353562858
  - # 18
    frequency:   12.9425636931
  - # 19
    frequency:   14.6166273589
  - # 20
    frequency:   15.9603091815
  - # 21
    frequency:   15.9638744478
  - # 22
    frequency:   26.4831310208
  - # 23
    frequency:   54.3748558147
  - # 24
    frequency:   59.1207713195

- q-position: [    0.0303030,    0.0000000,    0.0000000 ]
  distance:    0.0104968
  band:
  - # 1
    frequency:   -4.5031305957
  - # 2
    frequency:   -4.4881494176
  - # 3
    frequency:    0.0460634771
  - # 4
    frequency:    0.1455546329
  - # 5
    frequency:    0.4641126838
  - # 6
    frequency:    0.8634431106
  - # 7
    frequency:    0.9527630123
  - # 8
    frequency:    2.8644202877
  - # 9
    frequency:    2.8845487356
  - # 10
    frequency:    3.9637192795
  - # 11
    frequency:    5.1336177836
  - # 12
    frequency:    5.1758194513
  - # 13
    frequency:    6.0343439470
  - # 14
    frequency:    7.0288221768
  - # 15
    frequency:    7.0521669090
  - # 16
    frequency:    8.7247875997
  - # 17
    frequency:   12.9344379045
  - # 18
    frequency:   12.9447594189
  - # 19
    frequency:   14.6157036422
  - # 20
    frequency:   15.9583635253
  - # 21
    frequency:   15.9635634619
  - # 22
    frequency:   26.4787072973
  - # 23
    frequency:   54.3678222554
  - # 24
    frequency:   59.1164834779

- q-position: [    0.0353535,    0.0000000,    0.0000000 ]
  distance:    0.0122463
  band:
  - # 1
    frequency:   -4.4879662913
  - # 2
    frequency:   -4.4679534499
  - # 3
    frequency:    0.0623814626
  - # 4
    frequency:    0.1746402854
  - # 5
    frequency:    0.5399881088
  - # 6
    frequency:    0.8799664918
  - # 7
    frequency:    0.9983690804
  - # 8
    frequency:    2.8644324089
  - # 9
    frequency:    2.8918007540
  - # 10
    frequency:    3.9683681131
  - # 11
    frequency:    5.1384029494
  - # 12
    frequency:    5.1954645361
  - # 13
    frequency:    6.0337697322
  - # 14
    frequency:    7.0321053470
  - # 15
    frequency:    7.0636895033
  - # 16
    frequency:    8.7217331191
  - # 17
    frequency:   12.9333621565
  - # 18
    frequency:   12.9473195007
  - # 19
    frequency:   14.6145883744
  - # 20
    frequency:   15.9560267598
  - # 21
    frequency:   15.9632097414
  - # 22
    frequency:   26.4735155781
  - # 23
    frequency:   54.3595513579
  - # 24
    frequency:   59.1114454893

- q-position: [    0.0404040,    0.0000000,    0.0000000 ]
  distance:    0.0139957
  band:
  - # 1
    frequency:   -4.4704879142
  - # 2
    frequency:   -4.4449156746
  - # 3
    frequency:    0.0810581122
  - # 4
    frequency:    0.2053856581
  - # 5
    frequency:    0.6152622425
  - # 6
    frequency:    0.8981790029
  - # 7
    frequency:    1.0484916838
  - # 8
    frequency:    2.8644951406
  - # 9
    frequency:    2.9001937160
  - # 10
    frequency:    3.9737670183
  - # 11
    frequency:    5.1439143395
  - # 12
    frequency:    5.2178801313
  - # 13
    frequency:    6.0331614491
  - # 14
    frequency:    7.0358922891
  - # 15
    frequency:    7.0768640968
  - # 16
    frequency:    8.7182462789
  - # 17
    frequency:   12.9321336675
  - # 18
    frequency:   12.9502269021
  - # 19
    frequency:   14.6132701212
  - # 20
    frequency:   15.9532807127
  - # 21
    frequency:   15.9628198420
  - # 22
    frequency:   26.4675736878
  - # 23
    frequency:   54.3500636439
  - # 24
    frequency:   59.1056719011

- q-position: [    0.0454545,    0.0000000,    0.0000000 ]
  distance:    0.0157452
  band:
  - # 1
    frequency:   -4.4507060227
  - # 2
    frequency:   -4.4191494748
  - # 3
    frequency:    0.1020282667
  - # 4
    frequency:    0.2377635804
  - # 5
    frequency:    0.6899003745
  - # 6
    frequency:    0.9178436046
  - # 7
    frequency:    1.1024585932
  - # 8
    frequency:    2.8646297155
  - # 9
    frequency:    2.9097347685
  - # 10
    frequency:    3.9799260868
  - # 11
    frequency:    5.1501484626
  - # 12
    frequency:    5.2429656891
  - # 13
    frequency:    6.0325420602
  - # 14
    frequency:    7.0401819386
  - # 15
    frequency:    7.0916438252
  - # 16
    frequency:    8.7143427286
  - # 17
    frequency:   12.9307576419
  - # 18
    frequency:   12.9534622596
  - # 19
    frequency:   14.6117359692
  - # 20
    frequency:   15.9501047991
  - # 21
    frequency:   15.9624010628
  - # 22
    frequency:   26.4609019412
  - # 23
    frequency:   54.3393826219
  - # 24
    frequency:   59.0991793592

- q-position: [    0.0505051,    0.0000000,    0.0000000 ]
  distance:    0.0174947
  band:
  - # 1
    frequency:   -4.4286341132
  - # 2
    frequency:   -4.3907830041
  - # 3
    frequency:    0.1252196208
  - # 4
    frequency:    0.2717183117
  - # 5
    frequency:    0.7638821107
  - # 6
    frequency:    0.9387441913
  - # 7
    frequency:    1.1596517271
  - # 8
    frequency:    2.8648603603
  - # 9
    frequency:    2.9204296495
  - # 10
    frequency:    3.9868541626
  - # 11
    frequency:    5.1571018111
  - # 12
    frequency:    5.2706109798
  - # 13
    frequency:    6.0319379555
  - # 14
    frequency:    7.0449727703
  - # 15
    frequency:    7.1079784478
  - # 16
    frequency:    8.7100399116
  - # 17
    frequency:   12.9292398115
  - # 18
    frequency:   12.9570039984
  - # 19
    frequency:   14.6099716441
  - # 20
    frequency:   15.9464761819
  - # 21
    frequency:   15.9619613348
  - # 22
    frequency:   26.4535230401
  - # 23
    frequency:   54.3275347147
  - # 24
    frequency:   59.0919865488

- q-position: [    0.0555556,    0.0000000,    0.0000000 ]
  distance:    0.0192442
  band:
  - # 1
    frequency:   -4.4042891030
  - # 2
    frequency:   -4.3599589267
  - # 3
    frequency:    0.1505540761
  - # 4
    frequency:    0.3071776534
  - # 5
    frequency:    0.8371992804
  - # 6
    frequency:    0.9606889597
  - # 7
    frequency:    1.2195098992
  - # 8
    frequency:    2.8652143167
  - # 9
    frequency:    2.9322818821
  - # 10
    frequency:    3.9945583126
  - # 11
    frequency:    5.1647709748
  - # 12
    frequency:    5.3006965199
  - # 13
    frequency:    6.0313795947
  - # 14
    frequency:    7.0502626884
  - # 15
    frequency:    7.1258151515
  - # 16
    frequency:    8.7053569600
  - # 17
    frequency:   12.9275863803
  - # 18
    frequency:   12.9608284566
  - # 19
    frequency:   14.6079616426
  - # 20
    frequency:   15.9423699497
  - # 21
    frequency:   15.9615090977
  - # 22
    frequency:   26.4454619600
  - # 23
    frequency:   54.3145491783
  - # 24
    frequency:   59.0841141285

- q-position: [    0.0606061,    0.0000000,    0.0000000 ]
  distance:    0.0209936
  band:
  - # 1
    frequency:   -4.3776918215
  - # 2
    frequency:   -4.3268340514
  - # 3
    frequency:    0.1779489638
  - # 4
    frequency:    0.3440617651
  - # 5
    frequency:    0.9098529827
  - # 6
    frequency:    0.9835114921
  - # 7
    frequency:    1.2815273665
  - # 8
    frequency:    2.8657218562
  - # 9
    frequency:    2.9452919266
  - # 10
    frequency:    4.0030433985
  - # 11
    frequency:    5.1731527364
  - # 12
    frequency:    5.3330935134
  - # 13
    frequency:    6.0309025576
  - # 14
    frequency:    7.0560489080
  - # 15
    frequency:    7.1450993320
  - # 16
    frequency:    8.7003145807
  - # 17
    frequency:   12.9258039675
  - # 18
    frequency:   12.9649100154
  - # 19
    frequency:   14.6056893777
  - # 20
    frequency:   15.9377593125
  - # 21
    frequency:   15.9610531637
  - # 22
    frequency:   26.4367458269
  - # 23
    frequency:   54.3004580125
  - # 24
    frequency:   59.0755846571

- q-position: [    0.0656566,    0.0000000,    0.0000000 ]
  distance:    0.0227431
  band:
  - # 1
    frequency:   -4.3488674970
  - # 2
    frequency:   -4.2915788333
  - # 3
    frequency:    0.2073181419
  - # 4
    frequency:    0.3822890737
  - # 5
    frequency:    0.9818501256
  - # 6
    frequency:    1.0070702948
  - # 7
    frequency:    1.3452503430
  - # 8
    frequency:    2.8664162921
  - # 9
    frequency:    2.9594563079
  - # 10
    frequency:    4.0123117553
  - # 11
    frequency:    5.1822441451
  - # 12
    frequency:    5.3676631012
  - # 13
    frequency:    6.0305491785
  - # 14
    frequency:    7.0623278317
  - # 15
    frequency:    7.1657753396
  - # 16
    frequency:    8.6949349330
  - # 17
    frequency:   12.9238995491
  - # 18
    frequency:   12.9692212353
  - # 19
    frequency:   14.6031373365
  - # 20
    frequency:   15.9326158141
  - # 21
    frequency:   15.9606025709
  - # 22
    frequency:   26.4274037858
  - # 23
    frequency:   54.2852958628
  - # 24
    frequency:   59.0664225138

- q-position: [    0.0707071,    0.0000000,    0.0000000 ]
  distance:    0.0244926
  band:
  - # 1
    frequency:   -4.3178462267
  - # 2
    frequency:   -4.2543767179
  - # 3
    frequency:    0.2385729703
  - # 4
    frequency:    0.4217798683
  - # 5
    frequency:    1.0312473937
  - # 6
    frequency:    1.0531998481
  - # 7
    frequency:    1.4102727516
  - # 8
    frequency:    2.8673339973
  - # 9
    frequency:    2.9747667436
  - # 10
    frequency:    4.0223629718
  - # 11
    frequency:    5.1920425578
  - # 12
    frequency:    5.4042546317
  - # 13
    frequency:    6.0303710281
  - # 14
    frequency:    7.0690949219
  - # 15
    frequency:    7.1877871790
  - # 16
    frequency:    8.6892414998
  - # 17
    frequency:   12.9218803998
  - # 18
    frequency:   12.9737329925
  - # 19
    frequency:   14.6002872487
  - # 20
    frequency:   15.9269095591
  - # 21
    frequency:   15.9601664266
  - # 22
    frequency:   26.4174668627
  - # 23
    frequency:   54.2690999143
  - # 24
    frequency:   59.0566538120

- q-position: [    0.0757576,    0.0000000,    0.0000000 ]
  distance:    0.0262420
  band:
  - # 1
    frequency:   -4.2846634179
  - # 2
    frequency:   -4.2154233011
  - # 3
    frequency:    0.2716231727
  - # 4
    frequency:    0.4624581603
  - # 5
    frequency:    1.0559464300
  - # 6
    frequency:    1.1239101614
  - # 7
    frequency:    1.4762318597
  - # 8
    frequency:    2.8685144331
  - # 9
    frequency:    2.9912092962
  - # 10
    frequency:    4.0331937624
  - # 11
    frequency:    5.2025456442
  - # 12
    frequency:    5.4427025190
  - # 13
    frequency:    6.0304326572
  - # 14
    frequency:    7.0763445714
  - # 15
    frequency:    7.2110791582
  - # 16
    frequency:    8.6832589542
  - # 17
    frequency:   12.9197540363
  - # 18
    frequency:   12.9784146171
  - # 19
    frequency:   14.5971202655
  - # 20
    frequency:   15.9206094550
  - # 21
    frequency:   15.9597537417
  - # 22
    frequency:   26.4069678198
  - # 23
    frequency:   54.2519097779
  - # 24
    frequency:   59.0463063068

- q-position: [    0.0808081,    0.0000000,    0.0000000 ]
  distance:    0.0279915
  band:
  - # 1
    frequency:   -4.2493601902
  - # 2
    frequency:   -4.1749252777
  - # 3
    frequency:    0.3063775931
  - # 4
    frequency:    0.5042522990
  - # 5
    frequency:    1.0810905599
  - # 6
    frequency:    1.1939850341
  - # 7
    frequency:    1.5428040912
  - # 8
    frequency:    2.8700002014
  - # 9
    frequency:    3.0087635791
  - # 10
    frequency:    4.0447979130
  - # 11
    frequency:    5.2137513480
  - # 12
    frequency:    5.4828210149
  - # 13
    frequency:    6.0308172660
  - # 14
    frequency:    7.0840699747
  - # 15
    frequency:    7.2355964841
  - # 16
    frequency:    8.6770130220
  - # 17
    frequency:   12.9175281631
  - # 18
    frequency:   12.9832340289
  - # 19
    frequency:   14.5936171470
  - # 20
    frequency:   15.9136834657
  - # 21
    frequency:   15.9593732591
  - # 22
    frequency:   26.3959410069
  - # 23
    frequency:   54.2337673691
  - # 24
    frequency:   59.0354092970

- q-position: [    0.0858586,    0.0000000,    0.0000000 ]
  distance:    0.0297410
  band:
  - # 1
    frequency:   -4.2119837289
  - # 2
    frequency:   -4.1330991575
  - # 3
    frequency:    0.3427448553
  - # 4
    frequency:    0.5470947118
  - # 5
    frequency:    1.1066203564
  - # 6
    frequency:    1.2634220178
  - # 7
    frequency:    1.6097011376
  - # 8
    frequency:    2.8718371282
  - # 9
    frequency:    3.0274020445
  - # 10
    frequency:    4.0571662842
  - # 11
    frequency:    5.2256578030
  - # 12
    frequency:    5.5243958047
  - # 13
    frequency:    6.0316353805
  - # 14
    frequency:    7.0922630015
  - # 15
    frequency:    7.2612858040
  - # 16
    frequency:    8.6705303440
  - # 17
    frequency:   12.9152106216
  - # 18
    frequency:   12.9881578685
  - # 19
    frequency:   14.5897584558
  - # 20
    frequency:   15.9060988785
  - # 21
    frequency:   15.9590332754
  - # 22
    frequency:   26.3844222094
  - # 23
    frequency:   54.2147167797
  - # 24
    frequency:   59.0239935215

- q-position: [    0.0909091,    0.0000000,    0.0000000 ]
  distance:    0.0314904
  band:
  - # 1
    frequency:   -4.1725875827
  - # 2
    frequency:   -4.0901697278
  - # 3
    frequency:    0.3806339350
  - # 4
    frequency:    0.5909210392
  - # 5
    frequency:    1.1324918350
  - # 6
    frequency:    1.3322104046
  - # 7
    frequency:    1.6766664327
  - # 8
    frequency:    2.8740743902
  - # 9
    frequency:    3.0470893865
  - # 10
    frequency:    4.0702868507
  - # 11
    frequency:    5.2382631986
  - # 12
    frequency:    5.5671706587
  - # 13
    frequency:    6.0330383034
  - # 14
    frequency:    7.1009140767
  - # 15
    frequency:    7.2880956940
  - # 16
    frequency:    8.6638383394
  - # 17
    frequency:   12.9128093443
  - # 18
    frequency:   12.9931516244
  - # 19
    frequency:   14.5855247570
  - # 20
    frequency:   15.8978225801
  - # 21
    frequency:   15.9587414599
  - # 22
    frequency:   26.3724484932
  - # 23
    frequency:   54.1948041432
  - # 24
    frequency:   59.0120910504

- q-position: [    0.0959596,    0.0000000,    0.0000000 ]
  distance:    0.0332399
  band:
  - # 1
    frequency:   -4.1312318995
  - # 2
    frequency:   -4.0463682524
  - # 3
    frequency:    0.4199546508
  - # 4
    frequency:    0.6356688488
  - # 5
    frequency:    1.1586746792
  - # 6
    frequency:    1.4003298359
  - # 7
    frequency:    1.7434720247
  - # 8
    frequency:    2.8767646957
  - # 9
    frequency:    3.0677820875
  - # 10
    frequency:    4.0841447618
  - # 11
    frequency:    5.2515655971
  - # 12
    frequency:    5.6108262858
  - # 13
    frequency:    6.0352391945
  - # 14
    frequency:    7.1100120677
  - # 15
    frequency:    7.3159770960
  - # 16
    frequency:    8.6569650737
  - # 17
    frequency:   12.9103323145
  - # 18
    frequency:   12.9981797517
  - # 19
    frequency:   14.5808968203
  - # 20
    frequency:   15.8888213423
  - # 21
    frequency:   15.9585046716
  - # 22
    frequency:   26.3600580503
  - # 23
    frequency:   54.1740774935
  - # 24
    frequency:   58.9997351724

- q-position: [    0.1010101,    0.0000000,    0.0000000 ]
  distance:    0.0349894
  band:
  - # 1
    frequency:   -4.0879835969
  - # 2
    frequency:   -4.0019304030
  - # 3
    frequency:    0.4606180851
  - # 4
    frequency:    0.6812760533
  - # 5
    frequency:    1.1851507154
  - # 6
    frequency:    1.4677492567
  - # 7
    frequency:    1.8099158682
  - # 8
    frequency:    2.8799645334
  - # 9
    frequency:    3.0894281400
  - # 10
    frequency:    4.0987224054
  - # 11
    frequency:    5.2655627025
  - # 12
    frequency:    5.6549470080
  - # 13
    frequency:    6.0385461711
  - # 14
    frequency:    7.1195441835
  - # 15
    frequency:    7.3448837027
  - # 16
    frequency:    8.6499391346
  - # 17
    frequency:   12.9077875320
  - # 18
    frequency:   13.0032057829
  - # 19
    frequency:   14.5758558246
  - # 20
    frequency:   15.8790621162
  - # 21
    frequency:   15.9583287777
  - # 22
    frequency:   26.3472900427
  - # 23
    frequency:   54.1525866181
  - # 24
    frequency:   58.9869602768

- q-position: [    0.1060606,    0.0000000,    0.0000000 ]
  distance:    0.0367388
  band:
  - # 1
    frequency:   -4.0429164673
  - # 2
    frequency:   -3.9570939344
  - # 3
    frequency:    0.5025369437
  - # 4
    frequency:    0.7276791162
  - # 5
    frequency:    1.2119126742
  - # 6
    frequency:    1.5344261154
  - # 7
    frequency:    1.8758195254
  - # 8
    frequency:    2.8837345070
  - # 9
    frequency:    3.1119669675
  - # 10
    frequency:    4.1139994644
  - # 11
    frequency:    5.2802515864
  - # 12
    frequency:    5.6989694608
  - # 13
    frequency:    6.0434132358
  - # 14
    frequency:    7.1294958867
  - # 15
    frequency:    7.3747722889
  - # 16
    frequency:    8.6427895187
  - # 17
    frequency:   12.9051829863
  - # 18
    frequency:   13.0081924293
  - # 19
    frequency:   14.5703835619
  - # 20
    frequency:   15.8685123325
  - # 21
    frequency:   15.9582184739
  - # 22
    frequency:   26.3341844482
  - # 23
    frequency:   54.1303829058
  - # 24
    frequency:   58.9738017324

- q-position: [    0.1111111,    0.0000000,    0.0000000 ]
  distance:    0.0384883
  band:
  - # 1
    frequency:   -3.9961112182
  - # 2
    frequency:   -3.9120961276
  - # 3
    frequency:    0.5456258629
  - # 4
    frequency:    0.7748110964
  - # 5
    frequency:    1.2389632716
  - # 6
    frequency:    1.6003057399
  - # 7
    frequency:    1.9410262255
  - # 8
    frequency:    2.8881397809
  - # 9
    frequency:    3.1353295675
  - # 10
    frequency:    4.1299529560
  - # 11
    frequency:    5.2956283769
  - # 12
    frequency:    5.7421092708
  - # 13
    frequency:    6.0505130981
  - # 14
    frequency:    7.1398508237
  - # 15
    frequency:    7.4056029863
  - # 16
    frequency:    8.6355455364
  - # 17
    frequency:   12.9025266368
  - # 18
    frequency:   13.0131016714
  - # 19
    frequency:   14.5644626390
  - # 20
    frequency:   15.8571402075
  - # 21
    frequency:   15.9581771109
  - # 22
    frequency:   26.3207819086
  - # 23
    frequency:   54.1075191896
  - # 24
    frequency:   58.9602957634

- q-position: [    0.1161616,    0.0000000,    0.0000000 ]
  distance:    0.0402378
  band:
  - # 1
    frequency:   -3.9476554529
  - # 2
    frequency:   -3.8671710401
  - # 3
    frequency:    0.5898016749
  - # 4
    frequency:    0.8225995660
  - # 5
    frequency:    1.2663146482
  - # 6
    frequency:    1.6653208696
  - # 7
    frequency:    2.0053991723
  - # 8
    frequency:    2.8932506741
  - # 9
    frequency:    3.1594388904
  - # 10
    frequency:    4.1465572480
  - # 11
    frequency:    5.3116879201
  - # 12
    frequency:    5.7832770086
  - # 13
    frequency:    6.0608206174
  - # 14
    frequency:    7.1505907734
  - # 15
    frequency:    7.4373394947
  - # 16
    frequency:    8.6282367374
  - # 17
    frequency:   12.8998264007
  - # 18
    frequency:   13.0178948394
  - # 19
    frequency:   14.5580766754
  - # 20
    frequency:   15.8449150537
  - # 21
    frequency:   15.9582065292
  - # 22
    frequency:   26.3071235797
  - # 23
    frequency:   54.0840495850
  - # 24
    frequency:   58.9464793213

- q-position: [    0.1212121,    0.0000000,    0.0000000 ]
  distance:    0.0419872
  band:
  - # 1
    frequency:   -3.8976435968
  - # 2
    frequency:   -3.8225466242
  - # 3
    frequency:    0.6349836417
  - # 4
    frequency:    0.8709644128
  - # 5
    frequency:    1.2939882109
  - # 6
    frequency:    1.7293913809
  - # 7
    frequency:    2.0688199134
  - # 8
    frequency:    2.8991434640
  - # 9
    frequency:    3.1842104593
  - # 10
    frequency:    4.1637840488
  - # 11
    frequency:    5.3284234261
  - # 12
    frequency:    5.8210466562
  - # 13
    frequency:    6.0756436565
  - # 14
    frequency:    7.1616956196
  - # 15
    frequency:    7.4699492188
  - # 16
    frequency:    8.6208928669
  - # 17
    frequency:   12.8970901490
  - # 18
    frequency:   13.0225326814
  - # 19
    frequency:   14.5512104948
  - # 20
    frequency:   15.8318075937
  - # 21
    frequency:   15.9583069039
  - # 22
    frequency:   26.2932509849
  - # 23
    frequency:   54.0600293243
  - # 24
    frequency:   58.9323899559

- q-position: [    0.1262626,    0.0000000,    0.0000000 ]
  distance:    0.0437367
  band:
  - # 1
    frequency:   -3.8461767791
  - # 2
    frequency:   -3.7784417869
  - # 3
    frequency:    0.6810936631
  - # 4
    frequency:    0.9198155321
  - # 5
    frequency:    1.3220149243
  - # 6
    frequency:    1.7924243115
  - # 7
    frequency:    2.1311864907
  - # 8
    frequency:    2.9059014893
  - # 9
    frequency:    3.2095532282
  - # 10
    frequency:    4.1816023726
  - # 11
    frequency:    5.3458261121
  - # 12
    frequency:    5.8538334221
  - # 13
    frequency:    6.0964445495
  - # 14
    frequency:    7.1731433485
  - # 15
    frequency:    7.5034033153
  - # 16
    frequency:    8.6135438599
  - # 17
    frequency:   12.8943257094
  - # 18
    frequency:   13.0269754210
  - # 19
    frequency:   14.5438503103
  - # 20
    frequency:   15.8177902757
  - # 21
    frequency:   15.9584766033
  - # 22
    frequency:   26.2792058729
  - # 23
    frequency:   54.0355145873
  - # 24
    frequency:   58.9180656833

- q-position: [    0.1313131,    0.0000000,    0.0000000 ]
  distance:    0.0454862
  band:
  - # 1
    frequency:   -3.7933626796
  - # 2
    frequency:   -3.7350634826
  - # 3
    frequency:    0.7280564702
  - # 4
    frequency:    0.9690503954
  - # 5
    frequency:    1.3504361050
  - # 6
    frequency:    1.8543143577
  - # 7
    frequency:    2.1924109777
  - # 8
    frequency:    2.9136166925
  - # 9
    frequency:    3.2353706600
  - # 10
    frequency:    4.1999784821
  - # 11
    frequency:    5.3638848595
  - # 12
    frequency:    5.8804215216
  - # 13
    frequency:    6.1243116063
  - # 14
    frequency:    7.1849100745
  - # 15
    frequency:    7.5376766297
  - # 16
    frequency:    8.6062198852
  - # 17
    frequency:   12.8915408773
  - # 18
    frequency:   13.0311828039
  - # 19
    frequency:   14.5359838991
  - # 20
    frequency:   15.8028375906
  - # 21
    frequency:   15.9587120634
  - # 22
    frequency:   26.2650300795
  - # 23
    frequency:   54.0105623294
  - # 24
    frequency:   58.9035448530

- q-position: [    0.1363636,    0.0000000,    0.0000000 ]
  distance:    0.0472356
  band:
  - # 1
    frequency:   -3.7393153508
  - # 2
    frequency:   -3.6926039406
  - # 3
    frequency:    0.7757998064
  - # 4
    frequency:    1.0185514886
  - # 5
    frequency:    1.3793047567
  - # 6
    frequency:    1.9149450888
  - # 7