nqpoint: 300    
npath: 3      
segment_nqpoint:
- 100
- 100
- 100
labels:
- [ 'G', 'M' ]
- [ 'M', 'K' ]
- [ 'K', 'G' ]
reciprocal_lattice:
- [   0.31410754,   0.18135007,   0.00000000 ] # a*
- [   0.00000000,   0.36270014,   0.00000000 ] # b*
- [   0.00000000,   0.00000000,   0.03783111 ] # c*
natom: 8      
lattice:
- [     3.183623062306566,     0.000000000000000,     0.000000000000000 ] # a
- [    -1.591811531153283,     2.757098448029982,     0.000000000000000 ] # b
- [     0.000000000000000,     0.000000000000000,    26.433273790645643 ] # c
points:
- symbol: C # 1
  coordinates: [  0.000000000000000,  0.000000000000000,  0.523901646871220 ]
  mass: 12.010700
- symbol: C # 2
  coordinates: [  0.666666984744047,  0.333332985985145,  0.386029504309313 ]
  mass: 12.010700
- symbol: N # 3
  coordinates: [  0.333332985432215,  0.666666983183674,  0.609898548384903 ]
  mass: 14.006700
- symbol: N # 4
  coordinates: [  0.666666984744047,  0.333332985985145,  0.433187449453776 ]
  mass: 14.006700
- symbol: O # 5
  coordinates: [  0.333332985432215,  0.666666983183674,  0.659520040110016 ]
  mass: 15.999400
- symbol: O # 6
  coordinates: [  0.666666984744047,  0.333332985985145,  0.340479959889984 ]
  mass: 15.999400
- symbol: Ti # 7
  coordinates: [  0.333332985432215,  0.666666983183674,  0.484228469588388 ]
  mass: 47.867000
- symbol: Ti # 8
  coordinates: [  0.666666984744047,  0.333332985985145,  0.574092674845597 ]
  mass: 47.867000

phonon:
- q-position: [    0.0000000,    0.0000000,    0.0000000 ]
  distance:    0.0000000
  band:
  - # 1
    frequency:   -4.1069616040
  - # 2
    frequency:   -4.1069616040
  - # 3
    frequency:   -1.0784601216
  - # 4
    frequency:   -1.0784601216
  - # 5
    frequency:   -0.0000005147
  - # 6
    frequency:    0.0000007554
  - # 7
    frequency:    0.0000020044
  - # 8
    frequency:    4.8168001573
  - # 9
    frequency:    4.8168001573
  - # 10
    frequency:    6.1420632831
  - # 11
    frequency:    6.8138238122
  - # 12
    frequency:    6.8138238122
  - # 13
    frequency:   10.3220347342
  - # 14
    frequency:   10.9693291451
  - # 15
    frequency:   10.9693291451
  - # 16
    frequency:   11.2709320431
  - # 17
    frequency:   16.2774616950
  - # 18
    frequency:   16.2774616950
  - # 19
    frequency:   17.1817142516
  - # 20
    frequency:   17.1817142516
  - # 21
    frequency:   17.7880073797
  - # 22
    frequency:   38.5972335087
  - # 23
    frequency:   41.5089781901
  - # 24
    frequency:   69.3753809301

- q-position: [    0.0050505,    0.0000000,    0.0000000 ]
  distance:    0.0018318
  band:
  - # 1
    frequency:   -4.1071886034
  - # 2
    frequency:   -4.1054237196
  - # 3
    frequency:   -1.0774455595
  - # 4
    frequency:   -1.0749948442
  - # 5
    frequency:   -0.0894526275
  - # 6
    frequency:    0.0821562931
  - # 7
    frequency:    0.1631208027
  - # 8
    frequency:    4.8173647488
  - # 9
    frequency:    4.8183906776
  - # 10
    frequency:    6.1413340921
  - # 11
    frequency:    6.8139962949
  - # 12
    frequency:    6.8158597872
  - # 13
    frequency:   10.3202883118
  - # 14
    frequency:   10.9672671478
  - # 15
    frequency:   10.9692880913
  - # 16
    frequency:   11.2735343503
  - # 17
    frequency:   16.2772995301
  - # 18
    frequency:   16.2778592783
  - # 19
    frequency:   17.1817761858
  - # 20
    frequency:   17.1820575022
  - # 21
    frequency:   17.7880429678
  - # 22
    frequency:   38.5971974956
  - # 23
    frequency:   41.5081731760
  - # 24
    frequency:   69.3737530884

- q-position: [    0.0101010,    0.0000000,    0.0000000 ]
  distance:    0.0036636
  band:
  - # 1
    frequency:   -4.1078695335
  - # 2
    frequency:   -4.1008168690
  - # 3
    frequency:   -1.0744166770
  - # 4
    frequency:   -1.0646799457
  - # 5
    frequency:   -0.1092397217
  - # 6
    frequency:    0.1644606310
  - # 7
    frequency:    0.2945855791
  - # 8
    frequency:    4.8190572626
  - # 9
    frequency:    4.8231492151
  - # 10
    frequency:    6.1391823872
  - # 11
    frequency:    6.8145131906
  - # 12
    frequency:    6.8219271029
  - # 13
    frequency:   10.3150649085
  - # 14
    frequency:   10.9613378404
  - # 15
    frequency:   10.9691654058
  - # 16
    frequency:   11.2810741994
  - # 17
    frequency:   16.2768127561
  - # 18
    frequency:   16.2790533244
  - # 19
    frequency:   17.1819618343
  - # 20
    frequency:   17.1830864132
  - # 21
    frequency:   17.7881477161
  - # 22
    frequency:   38.5970895753
  - # 23
    frequency:   41.5057598134
  - # 24
    frequency:   69.3688744850

- q-position: [    0.0151515,    0.0000000,    0.0000000 ]
  distance:    0.0054955
  band:
  - # 1
    frequency:   -4.1090041811
  - # 2
    frequency:   -4.0931612756
  - # 3
    frequency:   -1.0694161099
  - # 4
    frequency:   -1.0477280134
  - # 5
    frequency:   -0.1261972772
  - # 6
    frequency:    0.2470506426
  - # 7
    frequency:    0.4310751835
  - # 8
    frequency:    4.8218739224
  - # 9
    frequency:    4.8310370533
  - # 10
    frequency:    6.1357113754
  - # 11
    frequency:    6.8153728494
  - # 12
    frequency:    6.8319084185
  - # 13
    frequency:   10.3064128527
  - # 14
    frequency:   10.9522048002
  - # 15
    frequency:   10.9689625168
  - # 16
    frequency:   11.2928561317
  - # 17
    frequency:   16.2760005377
  - # 18
    frequency:   16.2810476474
  - # 19
    frequency:   17.1822707355
  - # 20
    frequency:   17.1847984661
  - # 21
    frequency:   17.7883156234
  - # 22
    frequency:   38.5969101050
  - # 23
    frequency:   41.5017431336
  - # 24
    frequency:   69.3607598608

- q-position: [    0.0202020,    0.0000000,    0.0000000 ]
  distance:    0.0073273
  band:
  - # 1
    frequency:   -4.1105921603
  - # 2
    frequency:   -4.0824900347
  - # 3
    frequency:   -1.0625092470
  - # 4
    frequency:   -1.0244035957
  - # 5
    frequency:   -0.1422965811
  - # 6
    frequency:    0.3300444058
  - # 7
    frequency:    0.5707265402
  - # 8
    frequency:    4.8258084521
  - # 9
    frequency:    4.8419908228
  - # 10
    frequency:    6.1310796052
  - # 11
    frequency:    6.8165725463
  - # 12
    frequency:    6.8456219283
  - # 13
    frequency:   10.2944148043
  - # 14
    frequency:   10.9407062110
  - # 15
    frequency:   10.9686818088
  - # 16
    frequency:   11.3079867812
  - # 17
    frequency:   16.2748614900
  - # 18
    frequency:   16.2838483623
  - # 19
    frequency:   17.1827021254
  - # 20
    frequency:   17.1871894770
  - # 21
    frequency:   17.7885368415
  - # 22
    frequency:   38.5966596783
  - # 23
    frequency:   41.4961314971
  - # 24
    frequency:   69.3494337007

- q-position: [    0.0252525,    0.0000000,    0.0000000 ]
  distance:    0.0091591
  band:
  - # 1
    frequency:   -4.1126328681
  - # 2
    frequency:   -4.0688481997
  - # 3
    frequency:   -1.0537765686
  - # 4
    frequency:   -0.9949228426
  - # 5
    frequency:   -0.1558893588
  - # 6
    frequency:    0.4135336838
  - # 7
    frequency:    0.7126556206
  - # 8
    frequency:    4.8308521029
  - # 9
    frequency:    4.8559241606
  - # 10
    frequency:    6.1254844057
  - # 11
    frequency:    6.8181085176
  - # 12
    frequency:    6.8628383686
  - # 13
    frequency:   10.2791898463
  - # 14
    frequency:   10.9276489479
  - # 15
    frequency:   10.9683266282
  - # 16
    frequency:   11.3255787928
  - # 17
    frequency:   16.2733936898
  - # 18
    frequency:   16.2874635314
  - # 19
    frequency:   17.1832549432
  - # 20
    frequency:   17.1902536162
  - # 21
    frequency:   17.7887979020
  - # 22
    frequency:   38.5963391227
  - # 23
    frequency:   41.4889365568
  - # 24
    frequency:   69.3349301110

- q-position: [    0.0303030,    0.0000000,    0.0000000 ]
  distance:    0.0109909
  band:
  - # 1
    frequency:   -4.1151254252
  - # 2
    frequency:   -4.0522915120
  - # 3
    frequency:   -1.0433044912
  - # 4
    frequency:   -0.9593666931
  - # 5
    frequency:   -0.1646795745
  - # 6
    frequency:    0.4975802509
  - # 7
    frequency:    0.8563613541
  - # 8
    frequency:    4.8369936908
  - # 9
    frequency:    4.8727298902
  - # 10
    frequency:    6.1191443663
  - # 11
    frequency:    6.8199760109
  - # 12
    frequency:    6.8832991513
  - # 13
    frequency:   10.2608946540
  - # 14
    frequency:   10.9136993127
  - # 15
    frequency:   10.9679012898
  - # 16
    frequency:   11.3448590369
  - # 17
    frequency:   16.2715946917
  - # 18
    frequency:   16.2919026901
  - # 19
    frequency:   17.1839278420
  - # 20
    frequency:   17.1939834323
  - # 21
    frequency:   17.7890820235
  - # 22
    frequency:   38.5959494969
  - # 23
    frequency:   41.4801732060
  - # 24
    frequency:   69.3172926476

- q-position: [    0.0353535,    0.0000000,    0.0000000 ]
  distance:    0.0128227
  band:
  - # 1
    frequency:   -4.1180686048
  - # 2
    frequency:   -4.0328847859
  - # 3
    frequency:   -1.0311759954
  - # 4
    frequency:   -0.9176314420
  - # 5
    frequency:   -0.1656549936
  - # 6
    frequency:    0.5822155029
  - # 7
    frequency:    1.0014521948
  - # 8
    frequency:    4.8442196445
  - # 9
    frequency:    4.8922825974
  - # 10
    frequency:    6.1122838058
  - # 11
    frequency:    6.8221693475
  - # 12
    frequency:    6.9067326733
  - # 13
    frequency:   10.2397227666
  - # 14
    frequency:   10.8993547931
  - # 15
    frequency:   10.9674110850
  - # 16
    frequency:   11.3651977183
  - # 17
    frequency:   16.2694615492
  - # 18
    frequency:   16.2971762701
  - # 19
    frequency:   17.1847191992
  - # 20
    frequency:   17.1983698793
  - # 21
    frequency:   17.7893694940
  - # 22
    frequency:   38.5954920862
  - # 23
    frequency:   41.4698595128
  - # 24
    frequency:   69.2965740965

- q-position: [    0.0404040,    0.0000000,    0.0000000 ]
  distance:    0.0146546
  band:
  - # 1
    frequency:   -4.1214607514
  - # 2
    frequency:   -4.0106999685
  - # 3
    frequency:   -1.0174622326
  - # 4
    frequency:   -0.8694237939
  - # 5
    frequency:   -0.1538986537
  - # 6
    frequency:    0.6674429868
  - # 7
    frequency:    1.1475823596
  - # 8
    frequency:    4.8525140638
  - # 9
    frequency:    4.9144414681
  - # 10
    frequency:    6.1051208889
  - # 11
    frequency:    6.8246819957
  - # 12
    frequency:    6.9328671269
  - # 13
    frequency:   10.2159014871
  - # 14
    frequency:   10.8849580474
  - # 15
    frequency:   10.9668622897
  - # 16
    frequency:   11.3860976322
  - # 17
    frequency:   16.2669908412
  - # 18
    frequency:   16.3032949425
  - # 19
    frequency:   17.1856271309
  - # 20
    frequency:   17.2034023435
  - # 21
    frequency:   17.7896381156
  - # 22
    frequency:   38.5949683974
  - # 23
    frequency:   41.4580166402
  - # 24
    frequency:   69.2728362098

- q-position: [    0.0454545,    0.0000000,    0.0000000 ]
  distance:    0.0164864
  band:
  - # 1
    frequency:   -4.1252996958
  - # 2
    frequency:   -3.9858139073
  - # 3
    frequency:   -1.0022159667
  - # 4
    frequency:   -0.8143009053
  - # 5
    frequency:   -0.1176748089
  - # 6
    frequency:    0.7532430230
  - # 7
    frequency:    1.2944446350
  - # 8
    frequency:    4.8618587880
  - # 9
    frequency:    4.9390532572
  - # 10
    frequency:    6.0978598024
  - # 11
    frequency:    6.8275066530
  - # 12
    frequency:    6.9614393924
  - # 13
    frequency:   10.1896865763
  - # 14
    frequency:   10.8707255422
  - # 15
    frequency:   10.9662621708
  - # 16
    frequency:   11.4071709661
  - # 17
    frequency:   16.2641787041
  - # 18
    frequency:   16.3102689066
  - # 19
    frequency:   17.1866495069
  - # 20
    frequency:   17.2090686665
  - # 21
    frequency:   17.7898637022
  - # 22
    frequency:   38.5943801529
  - # 23
    frequency:   41.4446687541
  - # 24
    frequency:   69.2461493956

- q-position: [    0.0505051,    0.0000000,    0.0000000 ]
  distance:    0.0183182
  band:
  - # 1
    frequency:   -4.1295826662
  - # 2
    frequency:   -3.9583058676
  - # 3
    frequency:   -0.9854672039
  - # 4
    frequency:   -0.7517680603
  - # 5
    frequency:    0.0683340030
  - # 6
    frequency:    0.8395783748
  - # 7
    frequency:    1.4417700051
  - # 8
    frequency:    4.8722334736
  - # 9
    frequency:    4.9659552720
  - # 10
    frequency:    6.0906865498
  - # 11
    frequency:    6.8306353367
  - # 12
    frequency:    6.9922004359
  - # 13
    frequency:   10.1613554289
  - # 14
    frequency:   10.8567775264
  - # 15
    frequency:   10.9656189912
  - # 16
    frequency:   11.4281162541
  - # 17
    frequency:   16.2610208700
  - # 18
    frequency:   16.3181071511
  - # 19
    frequency:   17.1877839674
  - # 20
    frequency:   17.2153551619
  - # 21
    frequency:   17.7900206196
  - # 22
    frequency:   38.5937292838
  - # 23
    frequency:   41.4298429175
  - # 24
    frequency:   69.2165923669

- q-position: [    0.0555556,    0.0000000,    0.0000000 ]
  distance:    0.0201500
  band:
  - # 1
    frequency:   -4.1343062032
  - # 2
    frequency:   -3.9282548565
  - # 3
    frequency:   -0.9672208537
  - # 4
    frequency:   -0.6814628467
  - # 5
    frequency:    0.1879448178
  - # 6
    frequency:    0.9263999630
  - # 7
    frequency:    1.5893228256
  - # 8
    frequency:    4.8836156822
  - # 9
    frequency:    4.9949782754
  - # 10
    frequency:    6.0837675373
  - # 11
    frequency:    6.8340594793
  - # 12
    frequency:    7.0249180243
  - # 13
    frequency:   10.1311996802
  - # 14
    frequency:   10.8431643689
  - # 15
    frequency:   10.9649420112
  - # 16
    frequency:   11.4486994965
  - # 17
    frequency:   16.2575127113
  - # 18
    frequency:   16.3268167156
  - # 19
    frequency:   17.1890279408
  - # 20
    frequency:   17.2222466211
  - # 21
    frequency:   17.7900823550
  - # 22
    frequency:   38.5930179220
  - # 23
    frequency:   41.4135689738
  - # 24
    frequency:   69.1842517492

- q-position: [    0.0606061,    0.0000000,    0.0000000 ]
  distance:    0.0219818
  band:
  - # 1
    frequency:   -4.1394660786
  - # 2
    frequency:   -3.8957368211
  - # 3
    frequency:   -0.9474558797
  - # 4
    frequency:   -0.6033826907
  - # 5
    frequency:    0.2874134090
  - # 6
    frequency:    1.0136518804
  - # 7
    frequency:    1.7368921904
  - # 8
    frequency:    4.8959809764
  - # 9
    frequency:    5.0259492429
  - # 10
    frequency:    6.0772500706
  - # 11
    frequency:    6.8377700280
  - # 12
    frequency:    7.0593776179
  - # 13
    frequency:   10.0995181471
  - # 14
    frequency:   10.8298879598
  - # 15
    frequency:   10.9642414855
  - # 16
    frequency:   11.4687398178
  - # 17
    frequency:   16.2536492922
  - # 18
    frequency:   16.3364019779
  - # 19
    frequency:   17.1903786618
  - # 20
    frequency:   17.2297263050
  - # 21
    frequency:   17.7900221062
  - # 22
    frequency:   38.5922483914
  - # 23
    frequency:   41.3958794186
  - # 24
    frequency:   69.1492216508

- q-position: [    0.0656566,    0.0000000,    0.0000000 ]
  distance:    0.0238136
  band:
  - # 1
    frequency:   -4.1450572238
  - # 2
    frequency:   -3.8608217961
  - # 3
    frequency:   -0.9261252089
  - # 4
    frequency:   -0.5176651105
  - # 5
    frequency:    0.3892511311
  - # 6
    frequency:    1.1012753014
  - # 7
    frequency:    1.8842822218
  - # 8
    frequency:    4.9093030255
  - # 9
    frequency:    5.0586939386
  - # 10
    frequency:    6.0712640080
  - # 11
    frequency:    6.8417575451
  - # 12
    frequency:    7.0953821708
  - # 13
    frequency:   10.0666107601
  - # 14
    frequency:   10.8169182714
  - # 15
    frequency:   10.9635286554
  - # 16
    frequency:   11.4880988972
  - # 17
    frequency:   16.2494254263
  - # 18
    frequency:   16.3468639939
  - # 19
    frequency:   17.1918331903
  - # 20
    frequency:   17.2377759183
  - # 21
    frequency:   17.7898133817
  - # 22
    frequency:   38.5914231987
  - # 23
    frequency:   41.3768092614
  - # 24
    frequency:   69.1116031973

- q-position: [    0.0707071,    0.0000000,    0.0000000 ]
  distance:    0.0256455
  band:
  - # 1
    frequency:   -4.1510736684
  - # 2
    frequency:   -3.8235710791
  - # 3
    frequency:   -0.9031556325
  - # 4
    frequency:   -0.4224346092
  - # 5
    frequency:    0.4955452723
  - # 6
    frequency:    1.1892111898
  - # 7
    frequency:    2.0313032060
  - # 8
    frequency:    4.9235537176
  - # 9
    frequency:    5.0930393021
  - # 10
    frequency:    6.0659239976
  - # 11
    frequency:    6.8460123083
  - # 12
    frequency:    7.1327513855
  - # 13
    frequency:   10.0327738168
  - # 14
    frequency:   10.8042056605
  - # 15
    frequency:   10.9628157333
  - # 16
    frequency:   11.5066732383
  - # 17
    frequency:   16.2448357424
  - # 18
    frequency:   16.3581999113
  - # 19
    frequency:   17.1933884301
  - # 20
    frequency:   17.2463755621
  - # 21
    frequency:   17.7894306023
  - # 22
    frequency:   38.5905450225
  - # 23
    frequency:   41.3563958783
  - # 24
    frequency:   69.0715040339

- q-position: [    0.0757576,    0.0000000,    0.0000000 ]
  distance:    0.0274773
  band:
  - # 1
    frequency:   -4.1575084928
  - # 2
    frequency:   -3.7840345111
  - # 3
    frequency:   -0.8784469905
  - # 4
    frequency:   -0.3069762077
  - # 5
    frequency:    0.6038218520
  - # 6
    frequency:    1.2774019303
  - # 7
    frequency:    2.1777643846
  - # 8
    frequency:    4.9387032809
  - # 9
    frequency:    5.1288156693
  - # 10
    frequency:    6.0613318992
  - # 11
    frequency:    6.8505244084
  - # 12
    frequency:    7.1713207838
  - # 13
    frequency:    9.9982966012
  - # 14
    frequency:   10.7916896451
  - # 15
    frequency:   10.9621158809
  - # 16
    frequency:   11.5243884882
  - # 17
    frequency:   16.2398747567
  - # 18
    frequency:   16.3704024761
  - # 19
    frequency:   17.1950411469
  - # 20
    frequency:   17.2555036612
  - # 21
    frequency:   17.7888496994
  - # 22
    frequency:   38.5896167028
  - # 23
    frequency:   41.3346788560
  - # 24
    frequency:   69.0290377987

- q-position: [    0.0808081,    0.0000000,    0.0000000 ]
  distance:    0.0293091
  band:
  - # 1
    frequency:   -4.1643537950
  - # 2
    frequency:   -3.7422479280
  - # 3
    frequency:   -0.8518699780
  - # 4
    frequency:   -0.1050563153
  - # 5
    frequency:    0.7108831246
  - # 6
    frequency:    1.3657921085
  - # 7
    frequency:    2.3234684968
  - # 8
    frequency:    4.9547204103
  - # 9
    frequency:    5.1658588711
  - # 10
    frequency:    6.0575791285
  - # 11
    frequency:    6.8552838418
  - # 12
    frequency:    7.2109408174
  - # 13
    frequency:    9.9634592119
  - # 14
    frequency:   10.7793048949
  - # 15
    frequency:   10.9614431776
  - # 16
    frequency:   11.5411952087
  - # 17
    frequency:   16.2345369515
  - # 18
    frequency:   16.3834596476
  - # 19
    frequency:   17.1967879866
  - # 20
    frequency:   17.2651368621
  - # 21
    frequency:   17.7880487058
  - # 22
    frequency:   38.5886412284
  - # 23
    frequency:   41.3116998292
  - # 24
    frequency:   68.9843235687

- q-position: [    0.0858586,    0.0000000,    0.0000000 ]
  distance:    0.0311409
  band:
  - # 1
    frequency:   -4.1716006723
  - # 2
    frequency:   -3.6982308382
  - # 3
    frequency:   -0.8232618765
  - # 4
    frequency:    0.2756636678
  - # 5
    frequency:    0.8148018586
  - # 6
    frequency:    1.4543286973
  - # 7
    frequency:    2.4682078225
  - # 8
    frequency:    4.9715724011
  - # 9
    frequency:    5.2040122754
  - # 10
    frequency:    6.0547487514
  - # 11
    frequency:    6.8602805977
  - # 12
    frequency:    7.2514761368
  - # 13
    frequency:    9.9285313455
  - # 14
    frequency:   10.7669851091
  - # 15
    frequency:   10.9608125807
  - # 16
    frequency:   11.5570656672
  - # 17
    frequency:   16.2288168623
  - # 18
    frequency:   16.3973543317
  - # 19
    frequency:   17.1986254921
  - # 20
    frequency:   17.2752498961
  - # 21
    frequency:   17.7870083377
  - # 22
    frequency:   38.5876217246
  - # 23
    frequency:   41.2875023111
  - # 24
    frequency:   68.9374852845

- q-position: [    0.0909091,    0.0000000,    0.0000000 ]
  distance:    0.0329727
  band:
  - # 1
    frequency:   -4.1792392187
  - # 2
    frequency:   -3.6519843573
  - # 3
    frequency:   -0.7924193168
  - # 4
    frequency:    0.4132374709
  - # 5
    frequency:    0.9149537945
  - # 6
    frequency:    1.5429608714
  - # 7
    frequency:    2.6117613779
  - # 8
    frequency:    4.9892252880
  - # 9
    frequency:    5.2431288491
  - # 10
    frequency:    6.0529172193
  - # 11
    frequency:    6.8655047366
  - # 12
    frequency:    7.2928050664
  - # 13
    frequency:    9.8937717579
  - # 14
    frequency:   10.7546653578
  - # 15
    frequency:   10.9602398756
  - # 16
    frequency:   11.5719913430
  - # 17
    frequency:   16.2227091694
  - # 18
    frequency:   16.4120642384
  - # 19
    frequency:   17.2005501197
  - # 20
    frequency:   17.2858154030
  - # 21
    frequency:   17.7857125703
  - # 22
    frequency:   38.5865614396
  - # 23
    frequency:   41.2621315194
  - # 24
    frequency:   68.8886511547

- q-position: [    0.0959596,    0.0000000,    0.0000000 ]
  distance:    0.0348046
  band:
  - # 1
    frequency:   -4.1872585366
  - # 2
    frequency:   -3.6034894131
  - # 3
    frequency:   -0.7590867102
  - # 4
    frequency:    0.5254536515
  - # 5
    frequency:    1.0114127880
  - # 6
    frequency:    1.6316396252
  - # 7
    frequency:    2.7538929288
  - # 8
    frequency:    5.0076439886
  - # 9
    frequency:    5.2830733288
  - # 10
    frequency:    6.0521556657
  - # 11
    frequency:    6.8709464600
  - # 12
    frequency:    7.3348192877
  - # 13
    frequency:    9.8594281526
  - # 14
    frequency:   10.7422833477
  - # 15
    frequency:   10.9597416151
  - # 16
    frequency:   11.5859809343
  - # 17
    frequency:   16.2162087968
  - # 18
    frequency:   16.4275618655
  - # 19
    frequency:   17.2025582546
  - # 20
    frequency:   17.2968037079
  - # 21
    frequency:   17.7841492109
  - # 22
    frequency:   38.5854637308
  - # 23
    frequency:   41.2356341983
  - # 24
    frequency:   68.8379530460

- q-position: [    0.1010101,    0.0000000,    0.0000000 ]
  distance:    0.0366364
  band:
  - # 1
    frequency:   -4.1956467625
  - # 2
    frequency:   -3.5527052065
  - # 3
    frequency:   -0.7229380402
  - # 4
    frequency:    0.6276793553
  - # 5
    frequency:    1.1045114538
  - # 6
    frequency:    1.7203173163
  - # 7
    frequency:    2.8943495535
  - # 8
    frequency:    5.0267924514
  - # 9
    frequency:    5.3237245802
  - # 10
    frequency:    6.0525307060
  - # 11
    frequency:    6.8765961691
  - # 12
    frequency:    7.3774237046
  - # 13
    frequency:    9.8257372918
  - # 14
    frequency:   10.7297799700
  - # 15
    frequency:   10.9593350493
  - # 16
    frequency:   11.5990587132
  - # 17
    frequency:   16.2093110157
  - # 18
    frequency:   16.4438146043
  - # 19
    frequency:   17.2046462246
  - # 20
    frequency:   17.3081825436
  - # 21
    frequency:   17.7823104785
  - # 22
    frequency:   38.5843320498
  - # 23
    frequency:   41.2080584372
  - # 24
    frequency:   68.7855258603

- q-position: [    0.1060606,    0.0000000,    0.0000000 ]
  distance:    0.0384682
  band:
  - # 1
    frequency:   -4.2043911041
  - # 2
    frequency:   -3.4995678899
  - # 3
    frequency:   -0.6835478376
  - # 4
    frequency:    0.7251347373
  - # 5
    frequency:    1.1946335734
  - # 6
    frequency:    1.8089472122
  - # 7
    frequency:    3.0328605694
  - # 8
    frequency:    5.0466338063
  - # 9
    frequency:    5.3649782135
  - # 10
    frequency:    6.0541046884
  - # 11
    frequency:    6.8824445132
  - # 12
    frequency:    7.4205364433
  - # 13
    frequency:    9.7929251821
  - # 14
    frequency:   10.7170993940
  - # 15
    frequency:   10.9590380448
  - # 16
    frequency:   11.6112631222
  - # 17
    frequency:   16.2020115530
  - # 18
    frequency:   16.4607849603
  - # 19
    frequency:   17.2068103140
  - # 20
    frequency:   17.3199167069
  - # 21
    frequency:   17.7801936023
  - # 22
    frequency:   38.5831699275
  - # 23
    frequency:   41.1794534890
  - # 24
    frequency:   68.7315069054

- q-position: [    0.1111111,    0.0000000,    0.0000000 ]
  distance:    0.0403000
  band:
  - # 1
    frequency:   -4.2134778878
  - # 2
    frequency:   -3.4439894025
  - # 3
    frequency:   -0.6403432951
  - # 4
    frequency:    0.8201493863
  - # 5
    frequency:    1.2821354618
  - # 6
    frequency:    1.8974830815
  - # 7
    frequency:    3.1691367327
  - # 8
    frequency:    5.0671305184
  - # 9
    frequency:    5.4067494840
  - # 10
    frequency:    6.0569353640
  - # 11
    frequency:    6.8884824251
  - # 12
    frequency:    7.4640889250
  - # 13
    frequency:    9.7612072357
  - # 14
    frequency:   10.7041888945
  - # 15
    frequency:   10.9588689932
  - # 16
    frequency:   11.6226455355
  - # 17
    frequency:   16.1943067027
  - # 18
    frequency:   16.4784308772
  - # 19
    frequency:   17.2090467757
  - # 20
    frequency:   17.3319676381
  - # 21
    frequency:   17.7778014537
  - # 22
    frequency:   38.5819809584
  - # 23
    frequency:   41.1498695865
  - # 24
    frequency:   68.6760352612

- q-position: [    0.1161616,    0.0000000,    0.0000000 ]
  distance:    0.0421318
  band:
  - # 1
    frequency:   -4.2228926148
  - # 2
    frequency:   -3.3858563744
  - # 3
    frequency:   -0.5925208619
  - # 4
    frequency:    0.9138925294
  - # 5
    frequency:    1.3673234348
  - # 6
    frequency:    1.9858788513
  - # 7
    frequency:    3.3028697141
  - # 8
    frequency:    5.0882445431
  - # 9
    frequency:    5.4489764380
  - # 10
    frequency:    6.0610749612
  - # 11
    frequency:    6.8947011444
  - # 12
    frequency:    7.5080259382
  - # 13
    frequency:    9.7307883492
  - # 14
    frequency:   10.6909985469
  - # 15
    frequency:   10.9588467106
  - # 16
    frequency:   11.6332691326
  - # 17
    frequency:   16.1861934398
  - # 18
    frequency:   16.4967061504
  - # 19
    frequency:   17.2113518425
  - # 20
    frequency:   17.3442929062
  - # 21
    frequency:   17.7751432350
  - # 22
    frequency:   38.5807687848
  - # 23
    frequency:   41.1193577604
  - # 24
    frequency:   68.6192511460

- q-position: [    0.1212121,    0.0000000,    0.0000000 ]
  distance:    0.0439637
  band:
  - # 1
    frequency:   -4.2326200226
  - # 2
    frequency:   -3.3250289907
  - # 3
    frequency:   -0.5388893582
  - # 4
    frequency:    1.0069809600
  - # 5
    frequency:    1.4504527629
  - # 6
    frequency:    2.0740883352
  - # 7
    frequency:    3.4337319619
  - # 8
    frequency:    5.1099374820
  - # 9
    frequency:    5.4916231572
  - # 10
    frequency:    6.0665687027
  - # 11
    frequency:    6.9010922292
  - # 12
    frequency:    7.5523056260
  - # 13
    frequency:    9.7018628806
  - # 14
    frequency:   10.6774808790
  - # 15
    frequency:   10.9589903280
  - # 16
    frequency:   11.6432078427
  - # 17
    frequency:   16.1776695365
  - # 18
    frequency:   16.5155609112
  - # 19
    frequency:   17.2137217383
  - # 20
    frequency:   17.3568455819
  - # 21
    frequency:   17.7722352478
  - # 22
    frequency:   38.5795370805
  - # 23
    frequency:   41.0879696590
  - # 24
    frequency:   68.5612952874

- q-position: [    0.1262626,    0.0000000,    0.0000000 ]
  distance:    0.0457955
  band:
  - # 1
    frequency:   -4.2426441514
  - # 2
    frequency:   -3.2613396760
  - # 3
    frequency:   -0.4775411309
  - # 4
    frequency:    1.0997398023
  - # 5
    frequency:    1.5317337165
  - # 6
    frequency:    2.1620650272
  - # 7
    frequency:    3.5613771766
  - # 8
    frequency:    5.1321707394
  - # 9
    frequency:    5.5346827961
  - # 10
    frequency:    6.0734528747
  - # 11
    frequency:    6.9076475546
  - # 12
    frequency:    7.5968992929
  - # 13
    frequency:    9.6746145275
  - # 14
    frequency:   10.6635905400
  - # 15
    frequency:   10.9593191728
  - # 16
    frequency:   11.6525453371
  - # 17
    frequency:   16.1687336772
  - # 18
    frequency:   16.5349421637
  - # 19
    frequency:   17.2161526879
  - # 20
    frequency:   17.3695734759
  - # 21
    frequency:   17.7691017718
  - # 22
    frequency:   38.5782895342
  - # 23
    frequency:   41.0557573706
  - # 24
    frequency:   68.5023083010

- q-position: [    0.1313131,    0.0000000,    0.0000000 ]
  distance:    0.0476273
  band:
  - # 1
    frequency:   -4.2529484125
  - # 2
    frequency:   -3.1945914298
  - # 3
    frequency:   -0.4050430075
  - # 4
    frequency:    1.1923293813
  - # 5
    frequency:    1.6113391406
  - # 6
    frequency:    2.2497619561
  - # 7
    frequency:    3.6854417501
  - # 8
    frequency:    5.1549056777
  - # 9
    frequency:    5.5781798916
  - # 10
    frequency:    6.0817526735
  - # 11
    frequency:    6.9143592998
  - # 12
    frequency:    7.6417909283
  - # 13
    frequency:    9.6492161362
  - # 14
    frequency:   10.6492840254
  - # 15
    frequency:   10.9598526436
  - # 16
    frequency:   11.6613740488
  - # 17
    frequency:   16.1593855725
  - # 18
    frequency:   16.5547943521
  - # 19
    frequency:   17.2186409268
  - # 20
    frequency:   17.3824182191
  - # 21
    frequency:   17.7657760858
  - # 22
    frequency:   38.5770298330
  - # 23
    frequency:   41.0227732499
  - # 24
    frequency:   68.4424300807

- q-position: [    0.1363636,    0.0000000,    0.0000000 ]
  distance:    0.0494591
  band:
  - # 1
    frequency:   -4.2635156579
  - # 2
    frequency:   -3.1245555980
  - # 3
    frequency:   -0.3138403684
  - # 4
    frequency:    1.2848126486
  - # 5
    frequency:    1.6894115962
  - # 6
    frequency:    2.3371315881
  - # 7