nqpoint: 300    
npath: 3      
segment_nqpoint:
- 100
- 100
- 100
labels:
- [ 'G', 'M' ]
- [ 'M', 'K' ]
- [ 'K', 'G' ]
reciprocal_lattice:
- [   0.29790674,   0.17199654,   0.00000000 ] # a*
- [   0.00000000,   0.34399307,   0.00000000 ] # b*
- [   0.00000000,   0.00000000,   0.04045941 ] # c*
natom: 6      
lattice:
- [     3.356755221337925,     0.000000000000000,     0.000000000000000 ] # a
- [    -1.678377610668962,     2.907035295959254,     0.000000000000000 ] # b
- [     0.000000000000000,     0.000000000000000,    24.716130387626674 ] # c
points:
- symbol: C # 1
  coordinates: [  0.333332985432215,  0.666666983183674,  0.586965636177458 ]
  mass: 12.010700
- symbol: Cl # 2
  coordinates: [  0.666666984744047,  0.333332985985145,  0.364134670713080 ]
  mass: 35.453000
- symbol: Hf # 3
  coordinates: [  0.333332985432215,  0.666666983183674,  0.436359683330381 ]
  mass: 178.490000
- symbol: Hf # 4
  coordinates: [  0.666666984744047,  0.333332985985145,  0.528336953139092 ]
  mass: 178.490000
- symbol: N # 5
  coordinates: [  0.000000000000000,  0.000000000000000,  0.481674563164359 ]
  mass: 14.006700
- symbol: N # 6
  coordinates: [  0.333332985432215,  0.666666983183674,  0.635865329286920 ]
  mass: 14.006700

phonon:
- q-position: [    0.0000000,    0.0000000,    0.0000000 ]
  distance:    0.0000000
  band:
  - # 1
    frequency:   -2.3846910548
  - # 2
    frequency:   -2.3846910548
  - # 3
    frequency:   -0.0000112546
  - # 4
    frequency:   -0.0000000429
  - # 5
    frequency:    0.0000086270
  - # 6
    frequency:    3.2332620922
  - # 7
    frequency:    3.2332620922
  - # 8
    frequency:    4.7714075157
  - # 9
    frequency:    5.3979803338
  - # 10
    frequency:    5.3979803338
  - # 11
    frequency:    7.9141493150
  - # 12
    frequency:    7.9141493150
  - # 13
    frequency:    8.3209338631
  - # 14
    frequency:    8.9239190901
  - # 15
    frequency:   14.1027830555
  - # 16
    frequency:   16.6516891233
  - # 17
    frequency:   16.6516891233
  - # 18
    frequency:   59.1192619913

- q-position: [    0.0050505,    0.0000000,    0.0000000 ]
  distance:    0.0017373
  band:
  - # 1
    frequency:   -2.3857264722
  - # 2
    frequency:   -2.3856844061
  - # 3
    frequency:    0.0012797288
  - # 4
    frequency:    0.0218077188
  - # 5
    frequency:    0.0739483837
  - # 6
    frequency:    3.2327530479
  - # 7
    frequency:    3.2334559986
  - # 8
    frequency:    4.7714106584
  - # 9
    frequency:    5.3980116910
  - # 10
    frequency:    5.3986412163
  - # 11
    frequency:    7.9142124248
  - # 12
    frequency:    7.9143257452
  - # 13
    frequency:    8.3206024411
  - # 14
    frequency:    8.9237244903
  - # 15
    frequency:   14.1024715652
  - # 16
    frequency:   16.6514760780
  - # 17
    frequency:   16.6518450553
  - # 18
    frequency:   59.1190740064

- q-position: [    0.0101010,    0.0000000,    0.0000000 ]
  distance:    0.0034747
  band:
  - # 1
    frequency:   -2.3888290595
  - # 2
    frequency:   -2.3886507220
  - # 3
    frequency:    0.0051114904
  - # 4
    frequency:    0.0437973309
  - # 5
    frequency:    0.1477766999
  - # 6
    frequency:    3.2312323735
  - # 7
    frequency:    3.2340377063
  - # 8
    frequency:    4.7714182777
  - # 9
    frequency:    5.3981061500
  - # 10
    frequency:    5.4006221160
  - # 11
    frequency:    7.9143989340
  - # 12
    frequency:    7.9148553700
  - # 13
    frequency:    8.3196072736
  - # 14
    frequency:    8.9231412559
  - # 15
    frequency:   14.1015383454
  - # 16
    frequency:   16.6508346454
  - # 17
    frequency:   16.6523114862
  - # 18
    frequency:   59.1185104152

- q-position: [    0.0151515,    0.0000000,    0.0000000 ]
  distance:    0.0052120
  band:
  - # 1
    frequency:   -2.3939877921
  - # 2
    frequency:   -2.3935494391
  - # 3
    frequency:    0.0114732593
  - # 4
    frequency:    0.0661443477
  - # 5
    frequency:    0.2213686877
  - # 6
    frequency:    3.2287194080
  - # 7
    frequency:    3.2350071660
  - # 8
    frequency:    4.7714250466
  - # 9
    frequency:    5.3982648699
  - # 10
    frequency:    5.4039177381
  - # 11
    frequency:    7.9147004218
  - # 12
    frequency:    7.9157392059
  - # 13
    frequency:    8.3179457309
  - # 14
    frequency:    8.9221710513
  - # 15
    frequency:   14.0999871195
  - # 16
    frequency:   16.6497579678
  - # 17
    frequency:   16.6530843202
  - # 18
    frequency:   59.1175723078

- q-position: [    0.0202020,    0.0000000,    0.0000000 ]
  distance:    0.0069494
  band:
  - # 1
    frequency:   -2.4011842003
  - # 2
    frequency:   -2.4003150512
  - # 3
    frequency:    0.0203289845
  - # 4
    frequency:    0.0890120331
  - # 5
    frequency:    0.2946153449
  - # 6
    frequency:    3.2252462624
  - # 7
    frequency:    3.2363642491
  - # 8
    frequency:    4.7714224108
  - # 9
    frequency:    5.3984897703
  - # 10
    frequency:    5.4085190920
  - # 11
    frequency:    7.9151029875
  - # 12
    frequency:    7.9169789927
  - # 13
    frequency:    8.3156136834
  - # 14
    frequency:    8.9208165513
  - # 15
    frequency:   14.0978239917
  - # 16
    frequency:   16.6482347221
  - # 17
    frequency:   16.6541567273
  - # 18
    frequency:   59.1162614958

- q-position: [    0.0252525,    0.0000000,    0.0000000 ]
  distance:    0.0086867
  band:
  - # 1
    frequency:   -2.4103922471
  - # 2
    frequency:   -2.4088600192
  - # 3
    frequency:    0.0316295654
  - # 4
    frequency:    0.1125465064
  - # 5
    frequency:    0.3674177141
  - # 6
    frequency:    3.2208576250
  - # 7
    frequency:    3.2381086801
  - # 8
    frequency:    4.7713990539
  - # 9
    frequency:    5.3987835140
  - # 10
    frequency:    5.4144132606
  - # 11
    frequency:    7.9155874474
  - # 12
    frequency:    7.9185772512
  - # 13
    frequency:    8.3126058761
  - # 14
    frequency:    8.9190812980
  - # 15
    frequency:   14.0950572982
  - # 16
    frequency:   16.6462492774
  - # 17
    frequency:   16.6555191400
  - # 18
    frequency:   59.1145805058

- q-position: [    0.0303030,    0.0000000,    0.0000000 ]
  distance:    0.0104240
  band:
  - # 1
    frequency:   -2.4215781959
  - # 2
    frequency:   -2.4190784141
  - # 3
    frequency:    0.0453141560
  - # 4
    frequency:    0.1368731072
  - # 5
    frequency:    0.4396888050
  - # 6
    frequency:    3.2156104666
  - # 7
    frequency:    3.2402399466
  - # 8
    frequency:    4.7713415070
  - # 9
    frequency:    5.3991494817
  - # 10
    frequency:    5.4215831110
  - # 11
    frequency:    7.9161296065
  - # 12
    frequency:    7.9205373415
  - # 13
    frequency:    8.3089164514
  - # 14
    frequency:    8.9169695122
  - # 15
    frequency:   14.0916974028
  - # 16
    frequency:   16.6437819129
  - # 17
    frequency:   16.6571592472
  - # 18
    frequency:   59.1125325689

- q-position: [    0.0353535,    0.0000000,    0.0000000 ]
  distance:    0.0121614
  band:
  - # 1
    frequency:   -2.4347005007
  - # 2
    frequency:   -2.4308499580
  - # 3
    frequency:    0.0613117533
  - # 4
    frequency:    0.1620941617
  - # 5
    frequency:    0.5113545676
  - # 6
    frequency:    3.2095736244
  - # 7
    frequency:    3.2427571924
  - # 8
    frequency:    4.7712348662
  - # 9
    frequency:    5.3995917398
  - # 10
    frequency:    5.4300069777
  - # 11
    frequency:    7.9167005983
  - # 12
    frequency:    7.9228635003
  - # 13
    frequency:    8.3045396130
  - # 14
    frequency:    8.9144858708
  - # 15
    frequency:   14.0877564430
  - # 16
    frequency:   16.6408090914
  - # 17
    frequency:   16.6590619899
  - # 18
    frequency:   59.1101216089

- q-position: [    0.0404040,    0.0000000,    0.0000000 ]
  distance:    0.0138987
  band:
  - # 1
    frequency:   -2.4497097544
  - # 2
    frequency:   -2.4440441357
  - # 3
    frequency:    0.0795430068
  - # 4
    frequency:    0.1882881239
  - # 5
    frequency:    0.5823539439
  - # 6
    frequency:    3.2028272426
  - # 7
    frequency:    3.2456590966
  - # 8
    frequency:    4.7710635761
  - # 9
    frequency:    5.4001150010
  - # 10
    frequency:    5.4396583499
  - # 11
    frequency:    7.9172672864
  - # 12
    frequency:    7.9255608269
  - # 13
    frequency:    8.2994704319
  - # 14
    frequency:    8.9116352636
  - # 15
    frequency:   14.0832480305
  - # 16
    frequency:   16.6373037854
  - # 17
    frequency:   16.6612095558
  - # 18
    frequency:   59.1073522265

- q-position: [    0.0454545,    0.0000000,    0.0000000 ]
  distance:    0.0156360
  band:
  - # 1
    frequency:   -2.4665487290
  - # 2
    frequency:   -2.4585241005
  - # 3
    frequency:    0.0999221861
  - # 4
    frequency:    0.2155099411
  - # 5
    frequency:    0.6526381196
  - # 6
    frequency:    3.1954620466
  - # 7
    frequency:    3.2489437465
  - # 8
    frequency:    4.7708122349
  - # 9
    frequency:    5.4007245773
  - # 10
    frequency:    5.4505055994
  - # 11
    frequency:    7.9177927226
  - # 12
    frequency:    7.9286351780
  - # 13
    frequency:    8.2937057987
  - # 14
    frequency:    8.9084225450
  - # 15
    frequency:   14.0781869151
  - # 16
    frequency:   16.6332358506
  - # 17
    frequency:   16.6635813774
  - # 18
    frequency:   59.1042296824

- q-position: [    0.0505051,    0.0000000,    0.0000000 ]
  distance:    0.0173734
  band:
  - # 1
    frequency:   -2.4851525352
  - # 2
    frequency:   -2.4741501694
  - # 3
    frequency:    0.1223592321
  - # 4
    frequency:    0.2437924138
  - # 5
    frequency:    0.7221691501
  - # 6
    frequency:    3.1875784317
  - # 7
    frequency:    3.2526085077
  - # 8
    frequency:    4.7704663796
  - # 9
    frequency:    5.4014263259
  - # 10
    frequency:    5.4625117760
  - # 11
    frequency:    7.9182366507
  - # 12
    frequency:    7.9320929205
  - # 13
    frequency:    8.2872455329
  - # 14
    frequency:    8.9048522970
  - # 15
    frequency:   14.0725886175
  - # 16
    frequency:   16.6285724419
  - # 17
    frequency:   16.6661541321
  - # 18
    frequency:   59.1007598770

- q-position: [    0.0555556,    0.0000000,    0.0000000 ]
  distance:    0.0191107
  band:
  - # 1
    frequency:   -2.5054489202
  - # 2
    frequency:   -2.4907827806
  - # 3
    frequency:    0.1467618234
  - # 4
    frequency:    0.2731482812
  - # 5
    frequency:    0.7909181609
  - # 6
    frequency:    3.1792853490
  - # 7
    frequency:    3.2566498976
  - # 8
    frequency:    4.7700132140
  - # 9
    frequency:    5.4022265877
  - # 10
    frequency:    5.4756345007
  - # 11
    frequency:    7.9185560501
  - # 12
    frequency:    7.9359404732
  - # 13
    frequency:    8.2800936800
  - # 14
    frequency:    8.9009286204
  - # 15
    frequency:   14.0664690394
  - # 16
    frequency:   16.6232784653
  - # 17
    frequency:   16.6689017478
  - # 18
    frequency:   59.0969493289

- q-position: [    0.0606061,    0.0000000,    0.0000000 ]
  distance:    0.0208481
  band:
  - # 1
    frequency:   -2.5273587129
  - # 2
    frequency:   -2.5082848572
  - # 3
    frequency:    0.1730373857
  - # 4
    frequency:    0.3035727697
  - # 5
    frequency:    0.8588633155
  - # 6
    frequency:    3.1706989806
  - # 7
    frequency:    3.2610634669
  - # 8
    frequency:    4.7694422482
  - # 9
    frequency:    5.4031321186
  - # 10
    frequency:    5.4898259712
  - # 11
    frequency:    7.9187057097
  - # 12
    frequency:    7.9401835427
  - # 13
    frequency:    8.2722600507
  - # 14
    frequency:    8.8966549692
  - # 15
    frequency:   14.0598440596
  - # 16
    frequency:   16.6173170614
  - # 17
    frequency:   16.6717954136
  - # 18
    frequency:   59.0928051507

- q-position: [    0.0656566,    0.0000000,    0.0000000 ]
  distance:    0.0225854
  band:
  - # 1
    frequency:   -2.5507964120
  - # 2
    frequency:   -2.5265235779
  - # 3
    frequency:    0.2010949768
  - # 4
    frequency:    0.3350463659
  - # 5
    frequency:    0.9259877205
  - # 6
    frequency:    3.1619412004
  - # 7
    frequency:    3.2658436920
  - # 8
    frequency:    4.7687458285
  - # 9
    frequency:    5.4041500138
  - # 10
    frequency:    5.5050330942
  - # 11
    frequency:    7.9186388231
  - # 12
    frequency:    7.9448259180
  - # 13
    frequency:    8.2637621002
  - # 14
    frequency:    8.8920340411
  - # 15
    frequency:   14.0527291244
  - # 16
    frequency:   16.6106501129
  - # 17
    frequency:   16.6748035981
  - # 18
    frequency:   59.0883350237

- q-position: [    0.0707071,    0.0000000,    0.0000000 ]
  distance:    0.0243227
  band:
  - # 1
    frequency:   -2.5756709049
  - # 2
    frequency:   -2.5453715958
  - # 3
    frequency:    0.2308469845
  - # 4
    frequency:    0.3675376201
  - # 5
    frequency:    0.9922774056
  - # 6
    frequency:    3.1531378282
  - # 7
    frequency:    3.2709838817
  - # 8
    frequency:    4.7679195438
  - # 9
    frequency:    5.4052876256
  - # 10
    frequency:    5.5211977463
  - # 11
    frequency:    7.9183075972
  - # 12
    frequency:    7.9498676225
  - # 13
    frequency:    8.2546273155
  - # 14
    frequency:    8.8870677343
  - # 15
    frequency:   14.0451388394
  - # 16
    frequency:   16.6032387712
  - # 17
    frequency:   16.6778920770
  - # 18
    frequency:   59.0835471707

- q-position: [    0.0757576,    0.0000000,    0.0000000 ]
  distance:    0.0260601
  band:
  - # 1
    frequency:   -2.6018862931
  - # 2
    frequency:   -2.5647077709
  - # 3
    frequency:    0.2622105797
  - # 4
    frequency:    0.4010058308
  - # 5
    frequency:    1.0577194804
  - # 6
    frequency:    3.1444166935
  - # 7
    frequency:    3.2764760996
  - # 8
    frequency:    4.7669625025
  - # 9
    frequency:    5.4065524742
  - # 10
    frequency:    5.5382571625
  - # 11
    frequency:    7.9176638670
  - # 12
    frequency:    7.9553021177
  - # 13
    frequency:    8.2448963885
  - # 14
    frequency:    8.8817571770
  - # 15
    frequency:   14.0370865722
  - # 16
    frequency:   16.5950439954
  - # 17
    frequency:   16.6810239705
  - # 18
    frequency:   59.0784503272

- q-position: [    0.0808081,    0.0000000,    0.0000000 ]
  distance:    0.0277974
  band:
  - # 1
    frequency:   -2.6293427964
  - # 2
    frequency:   -2.5844174924
  - # 3
    frequency:    0.2951088767
  - # 4
    frequency:    0.4354035052
  - # 5
    frequency:    1.1223005365
  - # 6
    frequency:    3.1359055354
  - # 7
    frequency:    3.2823111045
  - # 8
    frequency:    4.7658774832
  - # 9
    frequency:    5.4079521536
  - # 10
    frequency:    5.5561444424
  - # 11
    frequency:    7.9166597066
  - # 12
    frequency:    7.9611120785
  - # 13
    frequency:    8.2346276333
  - # 14
    frequency:    8.8761028303
  - # 15
    frequency:   14.0285840730
  - # 16
    frequency:   16.5860270987
  - # 17
    frequency:   16.6841597924
  - # 18
    frequency:   59.0730537125

- q-position: [    0.0858586,    0.0000000,    0.0000000 ]
  distance:    0.0295348
  band:
  - # 1
    frequency:   -2.6579377019
  - # 2
    frequency:   -2.6043926739
  - # 3
    frequency:    0.3294717593
  - # 4
    frequency:    0.4706785324
  - # 5
    frequency:    1.1860053385
  - # 6
    frequency:    3.1277297755
  - # 7
    frequency:    3.2884783064
  - # 8
    frequency:    4.7646709647
  - # 9
    frequency:    5.4094942315
  - # 10
    frequency:    5.5747891653
  - # 11
    frequency:    7.9152480332
  - # 12
    frequency:    7.9672629786
  - # 13
    frequency:    8.2239033949
  - # 14
    frequency:    8.8701046617
  - # 15
    frequency:   14.0196411194
  - # 16
    frequency:   16.5761502958
  - # 17
    frequency:   16.6872575121
  - # 18
    frequency:   59.0673669985

- q-position: [    0.0909091,    0.0000000,    0.0000000 ]
  distance:    0.0312721
  band:
  - # 1
    frequency:   -2.6875663259
  - # 2
    frequency:   -2.6245314964
  - # 3
    frequency:    0.3652363468
  - # 4
    frequency:    0.5067760361
  - # 5
    frequency:    1.2488158247
  - # 6
    frequency:    3.1200102112
  - # 7
    frequency:    3.2949657407
  - # 8
    frequency:    4.7633530474
  - # 9
    frequency:    5.4111861453
  - # 10
    frequency:    5.5941180987
  - # 11
    frequency:    7.9133831944
  - # 12
    frequency:    7.9736932777
  - # 13
    frequency:    8.2128396512
  - # 14
    frequency:    8.8637623831
  - # 15
    frequency:   14.0102651923
  - # 16
    frequency:   16.5653772461
  - # 17
    frequency:   16.6902726308
  - # 18
    frequency:   59.0614002790

- q-position: [    0.0959596,    0.0000000,    0.0000000 ]
  distance:    0.0330094
  band:
  - # 1
    frequency:   -2.7181229584
  - # 2
    frequency:   -2.6447379747
  - # 3
    frequency:    0.4023470846
  - # 4
    frequency:    0.5436399004
  - # 5
    frequency:    1.3107104214
  - # 6
    frequency:    3.1128606828
  - # 7
    frequency:    3.3017600566
  - # 8
    frequency:    4.7619372775
  - # 9
    frequency:    5.4130350945
  - # 10
    frequency:    5.6140559880
  - # 11
    frequency:    7.9110215360
  - # 12
    frequency:    7.9802993351
  - # 13
    frequency:    8.2016006836
  - # 14
    frequency:    8.8570757400
  - # 15
    frequency:   14.0004611881
  - # 16
    frequency:   16.5536735876
  - # 17
    frequency:   16.6931582723
  - # 18
    frequency:   59.0551640378

- q-position: [    0.1010101,    0.0000000,    0.0000000 ]
  distance:    0.0347468
  band:
  - # 1
    frequency:   -2.7495017612
  - # 2
    frequency:   -2.6649214096
  - # 3
    frequency:    0.4407554621
  - # 4
    frequency:    0.5812139812
  - # 5
    frequency:    1.3716636635
  - # 6
    frequency:    3.1063857790
  - # 7
    frequency:    3.3088465203
  - # 8
    frequency:    4.7604403892
  - # 9
    frequency:    5.4150479307
  - # 10
    frequency:    5.6345264122
  - # 11
    frequency:    7.9081219441
  - # 12
    frequency:    7.9869123769
  - # 13
    frequency:    8.1904214960
  - # 14
    frequency:    8.8500448419
  - # 15
    frequency:   13.9902311719
  - # 16
    frequency:   16.5410074564
  - # 17
    frequency:   16.6958652897
  - # 18
    frequency:   59.0486691163

- q-position: [    0.1060606,    0.0000000,    0.0000000 ]
  distance:    0.0364841
  band:
  - # 1
    frequency:   -2.7815976007
  - # 2
    frequency:   -2.6849957838
  - # 3
    frequency:    0.4804193776
  - # 4
    frequency:    0.6194430273
  - # 5
    frequency:    1.4316461062
  - # 6
    frequency:    3.1006786448
  - # 7
    frequency:    3.3162090307
  - # 8
    frequency:    4.7588819756
  - # 9
    frequency:    5.4172310463
  - # 10
    frequency:    5.6554526931
  - # 11
    frequency:    7.9046463588
  - # 12
    frequency:    7.9932645667
  - # 13
    frequency:    8.1796409461
  - # 14
    frequency:    8.8426705175
  - # 15
    frequency:   13.9795741754
  - # 16
    frequency:   16.5273499873
  - # 17
    frequency:   16.6983423888
  - # 18
    frequency:   59.0419266823

- q-position: [    0.1111111,    0.0000000,    0.0000000 ]
  distance:    0.0382215
  band:
  - # 1
    frequency:   -2.8143067984
  - # 2
    frequency:   -2.7048791506
  - # 3
    frequency:    0.5213021863
  - # 4
    frequency:    0.6582733434
  - # 5
    frequency:    1.4906245018
  - # 6
    frequency:    3.0958189613
  - # 7
    frequency:    3.3238301455
  - # 8
    frequency:    4.7572841027
  - # 9
    frequency:    5.4195902636
  - # 10
    frequency:    5.6767588442
  - # 11
    frequency:    7.9005602544
  - # 12
    frequency:    7.9989440459
  - # 13
    frequency:    8.1697457400
  - # 14
    frequency:    8.8349546806
  - # 15
    frequency:   13.9684860415
  - # 16
    frequency:   16.5126757897
  - # 17
    frequency:   16.7005362671
  - # 18
    frequency:   59.0349481968

- q-position: [    0.1161616,    0.0000000,    0.0000000 ]
  distance:    0.0399588
  band:
  - # 1
    frequency:   -2.8475277909
  - # 2
    frequency:   -2.7244930553
  - # 3
    frequency:    0.5633714862
  - # 4
    frequency:    0.6976532318
  - # 5
    frequency:    1.5485622125
  - # 6
    frequency:    3.0918711643
  - # 7
    frequency:    3.3316911175
  - # 8
    frequency:    4.7556708755
  - # 9
    frequency:    5.4221307252
  - # 10
    frequency:    5.6983705468
  - # 11
    frequency:    7.8958330862
  - # 12
    frequency:    8.0033516878
  - # 13
    frequency:    8.1614125675
  - # 14
    frequency:    8.8269006956
  - # 15
    frequency:   13.9569593201
  - # 16
    frequency:   16.4969633952
  - # 17
    frequency:   16.7023917709
  - # 18
    frequency:   59.0277453828

- q-position: [    0.1212121,    0.0000000,    0.0000000 ]
  distance:    0.0416961
  band:
  - # 1
    frequency:   -2.8811616940
  - # 2
    frequency:   -2.7437620249
  - # 3
    frequency:    0.6065977104
  - # 4
    frequency:    0.7375332480
  - # 5
    frequency:    1.6054198236
  - # 6
    frequency:    3.0888829621
  - # 7
    frequency:    3.3397719386
  - # 8
    frequency:    4.7540679668
  - # 9
    frequency:    5.4248567879
  - # 10
    frequency:    5.7202161377
  - # 11
    frequency:    7.8904386991
  - # 12
    frequency:    8.0057053273
  - # 13
    frequency:    8.1555026395
  - # 14
    frequency:    8.8185137311
  - # 15
    frequency:   13.9449832133
  - # 16
    frequency:   16.4801956722
  - # 17
    frequency:   16.7038520681
  - # 18
    frequency:   59.0203301935

- q-position: [    0.1262626,    0.0000000,    0.0000000 ]
  distance:    0.0434335
  band:
  - # 1
    frequency:   -2.9151127733
  - # 2
    frequency:   -2.7626131492
  - # 3
    frequency:    0.6509526023
  - # 4
    frequency:    0.7778663060
  - # 5
    frequency:    1.6611559142
  - # 6
    frequency:    3.0868842078
  - # 7
    frequency:    3.3480513906
  - # 8
    frequency:    4.7525021162
  - # 9
    frequency:    5.4277719211
  - # 10
    frequency:    5.7422275955
  - # 11
    frequency:    7.8843556985
  - # 12
    frequency:    8.0051752787
  - # 13
    frequency:    8.1529248411
  - # 14
    frequency:    8.8098010959
  - # 15
    frequency:   13.9325435734
  - # 16
    frequency:   16.4623602025
  - # 17
    frequency:   16.7048588381
  - # 18
    frequency:   59.0127147812

- q-position: [    0.1313131,    0.0000000,    0.0000000 ]
  distance:    0.0451708
  band:
  - # 1
    frequency:   -2.9492888244
  - # 2
    frequency:   -2.7809757746
  - # 3
    frequency:    0.6964076594
  - # 4
    frequency:    0.8186076654
  - # 5
    frequency:    1.7157279386
  - # 6
    frequency:    3.0858861703
  - # 7
    frequency:    3.3565071032
  - # 8
    frequency:    4.7510006084
  - # 9
    frequency:    5.4308786110
  - # 10
    frequency:    5.7643415067
  - # 11
    frequency:    7.8775677806
  - # 12
    frequency:    8.0011790339
  - # 13
    frequency:    8.1543396307
  - # 14
    frequency:    8.8007725580
  - # 15
    frequency:   13.9196229527
  - # 16
    frequency:   16.4434496152
  - # 17
    frequency:   16.7053524771
  - # 18
    frequency:   59.0049114668

- q-position: [    0.1363636,    0.0000000,    0.0000000 ]
  distance:    0.0469081
  band:
  - # 1
    frequency:   -2.9836014710
  - # 2
    frequency:   -2.7987813214
  - # 3
    frequency:    0.7429326269
  - # 4
    frequency:    0.8597148289
  - # 5
    frequency:    1.7690931668
  - # 6
    frequency:    3.0858812359
  - # 7
    frequency:    3.3651156177
  - # 8
    frequency:    4.7495907369
  - # 9
    frequency:    5.4341782742
  - # 10
    frequency:    5.7864999934
  - # 11
    frequency:    7.8700640231
  - # 12
    frequency:    7.9936448782
  - # 13
    frequency:    8.1598939714
  - # 14
    frequency:    8.7914406498
  - # 15
    frequency:   13.9062007053
  - # 16
    frequency:   16.4234618742
  - # 17
    frequency:   16.7052723188
  - # 18
    frequency:   58.9969327099

- q-position: [    0.1414141,    0.0000000,    0.0000000 ]
  distance:    0.0486455
  band:
  - # 1
    frequency:   -3.0179663882
  - # 2
    frequency:   -2.8159632308
  - # 3
    frequency:    0.7904941162
  - # 4
    frequency:    0.9011473736
  - # 5
    frequency:    1.8212096248
  - # 6
    frequency:    3.0868430630
  - # 7
    frequency:    3.3738524571
  - # 8
    frequency:    4.7482992619
  - # 9
    frequency:    5.4376711796
  - # 10
    frequency:    5.8086515802
  - # 11
    frequency:    7.8618391329
  - # 12
    frequency:    7.9829817086
  - # 13
    frequency:    8.1692500248
  - # 14
    frequency:    8.7818209762
  - # 15
    frequency:   13.8922531413
  - # 16
    frequency:   16.4024005135
  - # 17
    frequency:   16.7045568691
  - # 18
    frequency:   58.9887910799

- q-position: [    0.1464646,    0.0000000,    0.0000000 ]
  distance:    0.0503828
  band:
  - # 1
    frequency:   -3.0523034624
  - # 2
    frequency:   -2.8324570404
  - # 3
    frequency:    0.8390544126
  - # 4
    frequency:    0.9428667377
  - # 5
    frequency:    1.8720369767
  - # 6
    frequency:    3.0887271992
  - # 7
    frequency:    3.3826922026
  - # 8
    frequency:    4.7471518705
  - # 9
    frequency:    5.4413563827
  - # 10
    frequency:    5.8307519793
  - # 11
    frequency:    7.8528936534
  - # 12
    frequency:    7.9698126429
  - # 13
    frequency:    8.1818500295
  - # 14
    frequency:    8.7719325466
  - # 15
    frequency:   13.8777537306
  - # 16
    frequency:   16.3802748169
  - # 17
    frequency:   16.7031440544
  - # 18
    frequency:   58.9804992272

- q-position: [    0.1515152,    0.0000000,    0.0000000 ]
  distance:    0.0521202
  band:
  - # 1
    frequency:   -3.0865368959
  - # 2
    frequency:   -2.8482005832
  - # 3
    frequency:    0.8885705194
  - # 4
    frequency:    0.9848359785
  - # 5
    frequency:    1.9215372831
  - # 6
    frequency:    3.0914721603
  - # 7
    frequency:    3.3916085774
  - # 8
    frequency:    4.7461726480
  - # 9
    frequency:    5.4452316729
  - # 10
    frequency:    5.8527647673
  - # 11
    frequency:    7.8432341276
  - # 12
    frequency:    7.9547392262
  - # 13
    frequency:    8.1971505473
  - # 14
    frequency:    8.7617981746
  - # 15
    frequency:   13.8626733596
  - # 16
    frequency:   16.3570999362
  - # 17
    frequency:   16.7009714816
  - # 18
    frequency:   58.9720698563

- q-position: [    0.1565657,    0.0000000,    0.0000000 ]
  distance:    0.0538575
  band:
  - # 1
    frequency:   -3.1205952669
  - # 2
    frequency:   -2.8631342984
  - # 3
    frequency:    0.9389934658
  - # 4
    frequency:    1.0270195139
  - # 5
    frequency:    1.9696755754
  - # 6
    frequency:    3.0950009624
  - # 7
    frequency:    3.4005745387
  - # 8
    frequency:    4.7453835708
  - # 9
    frequency:    5.4492935349
  - # 10
    frequency:    5.8746619326
  - # 11
    frequency:    7.8328732188
  - # 12
    frequency:    7.9382455336
  - # 13
    frequency:    8.2147167523
  - # 14
    frequency:    8.7514450052
  - # 15
    frequency:   13.8469806356
  - # 16
    frequency:   16.3328969442
  - # 17
    frequency:   16.6979767081
  - # 18
    frequency:   58.9635156988

- q-position: [    0.1616162,    0.0000000,    0.0000000 ]
  distance:    0.0555948
  band:
  - # 1
    frequency:   -3.1544115523
  - # 2
    frequency:   -2.8772016415
  - # 3
    frequency:    0.9902678907
  - # 4
    frequency:    1.0693828592
  - # 5
    frequency:    2.0164201844
  - # 6
    frequency:    3.0992230932
  - # 7
    frequency:    3.4095623778
  - # 8
    frequency:    4.7448040322
  - # 9
    frequency:    5.4535371278
  - # 10
    frequency:    5.8964242678
  - # 11
    frequency:    7.8218297864
  - # 12
    frequency:    7.9206940035
  - # 13
    frequency:    8.2342248536
  - # 14
    frequency:    8.7409052711
  - # 15
    frequency:   13.8306422424
  - # 16
    frequency:   16.3076928191
  - # 17
    frequency:   16.6940975220
  - # 18
    frequency:   58.9548494878

- q-position: [    0.1666667,    0.0000000,    0.0000000 ]
  distance:    0.0573322
  band:
  - # 1
    frequency:   -3.1879231225
  - # 2
    frequency:   -2.8903495735
  - # 3
    frequency:    1.0423318921
  - # 4
    frequency:    1.1118923653
  - # 5
    frequency:    2.0617427703
  - # 6
    frequency:    3.1040368977
  - # 7
    frequency:    3.4185438319
  - # 8
    frequency:    4.7444504132
  - # 9
    frequency:    5.4579562810
  - # 10
    frequency:    5.9180415892
  - # 11
    frequency:    7.8101289171
  - # 12
    frequency:    7.9023515670
  - # 13
    frequency:    8.2554339529
  - # 14
    frequency:    8.7302174419
  - # 15
    frequency:   13.8136233431
  - # 16
    frequency:   16.2815203544
  - # 17
    frequency:   16.6892722291
  - # 18
    frequency:   58.9460839330

- q-position: [    0.1717172,    0.0000000,    0.0000000 ]
  distance:    0.0590695
  band:
  - # 1
    frequency:   -3.2210717120
  - # 2
    frequency:   -2.9025291125
  - # 3
    frequency:    1.0951171195
  - # 4
    frequency:    1.1545149630
  - # 5
    frequency:    2.1056180063
  - # 6
    frequency:    3.1093323582
  - # 7
    frequency:    3.4274902054
  - # 8
    frequency:    4.7443357124
  - # 9
    frequency:    5.4625435099
  - # 10
    frequency:    5.9395127659
  - # 11
    frequency:    7.7978019096
  - # 12
    frequency:    7.8834171273
  - # 13
    frequency:    8.2781560267
  - # 14
    frequency:    8.7194280399
  - # 15
    frequency:   13.7958880307
  - # 16
    frequency:   16.2544179937
  - # 17
    frequency:   16.6834399458
  - # 18
    frequency:   58.9372316967

- q-position: [    0.1767677,    0.0000000,    0.0000000 ]
  distance:    0.0608069
  band:
  - # 1
    frequency:   -3.2538033736
  - # 2
    frequency:   -2.9136959248
  - # 3
    frequency:    1.1485490731
  - # 4
    frequency:    1.1972179200
  - # 5
    frequency:    2.1480228826
  - # 6
    frequency:    3.1149942369
  - # 7
    frequency:    3.4363725043
  - # 8
    frequency:    4.7444692464
  - # 9
    frequency:    5.4672900532
  - # 10
    frequency:    5.9608455483
  - # 11
    frequency:    7.7848862118
  - # 12
    frequency:    7.8640425918
  - # 13
    frequency:    8.3022313663
  - # 14