nqpoint: 300    
npath: 3      
segment_nqpoint:
- 100
- 100
- 100
labels:
- [ 'G', 'M' ]
- [ 'M', 'K' ]
- [ 'K', 'G' ]
reciprocal_lattice:
- [   0.24683993,   0.14251310,  -0.00000000 ] # a*
- [  -0.00000000,   0.28502620,  -0.00000000 ] # b*
- [  -0.00000000,  -0.00000000,   0.04708478 ] # c*
natom: 5      
lattice:
- [     4.051208457776724,     0.000000000000000,     0.000000000000000 ] # a
- [    -2.025604228888363,     3.508449440445728,     0.000000000000000 ] # b
- [     0.000000000000004,     0.000000000000006,    21.238285128243238 ] # c
points:
- symbol: C # 1
  coordinates: [  0.000000000000000,  0.000000000000000,  0.500000026799995 ]
  mass: 12.010700
- symbol: Br # 2
  coordinates: [  0.333332985432215,  0.666666983183674,  0.662425757357540 ]
  mass: 79.904000
- symbol: Br # 3
  coordinates: [  0.666666984744048,  0.333332985985145,  0.337574242642461 ]
  mass: 79.904000
- symbol: La # 4
  coordinates: [  0.333332985432215,  0.666666983183674,  0.431336384160890 ]
  mass: 138.905470
- symbol: La # 5
  coordinates: [  0.666666984744048,  0.333332985985145,  0.568663615439096 ]
  mass: 138.905470

phonon:
- q-position: [    0.0000000,    0.0000000,    0.0000000 ]
  distance:    0.0000000
  band:
  - # 1
    frequency:   -0.7962465694
    eigenvector:
    - # atom 1
      - [  0.37871142377008,  0.00000000000000 ]
      - [ -0.66115887652651,  0.00000000000000 ]
      - [ -0.00000000000000,  0.00000000000000 ]
    - # atom 2
      - [  0.15107122789002,  0.00000000000000 ]
      - [ -0.26374193393179,  0.00000000000000 ]
      - [ -0.00000000000001,  0.00000000000000 ]
    - # atom 3
      - [  0.15107122789002,  0.00000000000000 ]
      - [ -0.26374193393179,  0.00000000000000 ]
      - [ -0.00000000000001,  0.00000000000000 ]
    - # atom 4
      - [ -0.17025981802909,  0.00000000000000 ]
      - [  0.29724160123129,  0.00000000000000 ]
      - [ -0.00000000000002,  0.00000000000000 ]
    - # atom 5
      - [ -0.17025981802909,  0.00000000000000 ]
      - [  0.29724160123129,  0.00000000000000 ]
      - [ -0.00000000000002,  0.00000000000000 ]
  - # 2
    frequency:   -0.7962465690
    eigenvector:
    - # atom 1
      - [  0.66115887648726,  0.00000000000000 ]
      - [  0.37871142374724,  0.00000000000000 ]
      - [ -0.00000000000000,  0.00000000000000 ]
    - # atom 2
      - [  0.26374193389428,  0.00000000000000 ]
      - [  0.15107122786819,  0.00000000000000 ]
      - [ -0.00000000000001,  0.00000000000000 ]
    - # atom 3
      - [  0.26374193389427,  0.00000000000000 ]
      - [  0.15107122786819,  0.00000000000000 ]
      - [ -0.00000000000001,  0.00000000000000 ]
    - # atom 4
      - [ -0.29724160130823,  0.00000000000000 ]
      - [ -0.17025981807386,  0.00000000000000 ]
      - [ -0.00000000000001,  0.00000000000000 ]
    - # atom 5
      - [ -0.29724160130823,  0.00000000000000 ]
      - [ -0.17025981807386,  0.00000000000000 ]
      - [ -0.00000000000001,  0.00000000000000 ]
  - # 3
    frequency:   -0.0000092503
    eigenvector:
    - # atom 1
      - [ -0.08170334440653, -0.00000000000000 ]
      - [  0.14155208429028,  0.00000000000000 ]
      - [  0.00001727456872,  0.00000000000000 ]
    - # atom 2
      - [ -0.21073658346141,  0.00000000000000 ]
      - [  0.36510381358127,  0.00000000000000 ]
      - [  0.00004455611479,  0.00000000000000 ]
    - # atom 3
      - [ -0.21073658346141,  0.00000000000000 ]
      - [  0.36510381358127,  0.00000000000000 ]
      - [  0.00004455611479,  0.00000000000000 ]
    - # atom 4
      - [ -0.27785316533211,  0.00000000000000 ]
      - [  0.48138414608468,  0.00000000000000 ]
      - [  0.00005874659883,  0.00000000000000 ]
    - # atom 5
      - [ -0.27785316533211,  0.00000000000000 ]
      - [  0.48138414608467,  0.00000000000000 ]
      - [  0.00005874659883,  0.00000000000000 ]
  - # 4
    frequency:   -0.0000001227
    eigenvector:
    - # atom 1
      - [  0.00000252653494,  0.00000000000000 ]
      - [ -0.00001848731766,  0.00000000000000 ]
      - [  0.16343937413995,  0.00000000000000 ]
    - # atom 2
      - [  0.00000651666516,  0.00000000000000 ]
      - [ -0.00004768414545,  0.00000000000000 ]
      - [  0.42155747174848,  0.00000000000000 ]
    - # atom 3
      - [  0.00000651666516,  0.00000000000000 ]
      - [ -0.00004768414545,  0.00000000000000 ]
      - [  0.42155747174848,  0.00000000000000 ]
    - # atom 4
      - [  0.00000859212961,  0.00000000000000 ]
      - [ -0.00006287086242,  0.00000000000000 ]
      - [  0.55581748531915,  0.00000000000000 ]
    - # atom 5
      - [  0.00000859212961,  0.00000000000000 ]
      - [ -0.00006287086242,  0.00000000000000 ]
      - [  0.55581748531915,  0.00000000000000 ]
  - # 5
    frequency:    0.0000105178
    eigenvector:
    - # atom 1
      - [ -0.14155208541066,  0.00000000000000 ]
      - [ -0.08170334419244,  0.00000000000000 ]
      - [ -0.00000705362093,  0.00000000000000 ]
    - # atom 2
      - [ -0.36510381628367,  0.00000000000000 ]
      - [ -0.21073658280098,  0.00000000000000 ]
      - [ -0.00001819333083,  0.00000000000000 ]
    - # atom 3
      - [ -0.36510381628367,  0.00000000000000 ]
      - [ -0.21073658280098,  0.00000000000000 ]
      - [ -0.00001819333083,  0.00000000000000 ]
    - # atom 4
      - [ -0.48138414954784,  0.00000000000000 ]
      - [ -0.27785316440364,  0.00000000000000 ]
      - [ -0.00002398764598,  0.00000000000000 ]
    - # atom 5
      - [ -0.48138414954784,  0.00000000000000 ]
      - [ -0.27785316440364,  0.00000000000000 ]
      - [ -0.00002398764598,  0.00000000000000 ]
  - # 6
    frequency:    1.7237092921
    eigenvector:
    - # atom 1
      - [ -0.00000000000000,  0.00000000000000 ]
      - [ -0.00000000000000,  0.00000000000000 ]
      - [  0.00000000000000,  0.00000000000000 ]
    - # atom 2
      - [  0.32727597700862,  0.00000000000000 ]
      - [ -0.44411817732322,  0.00000000000000 ]
      - [ -0.00000000000000,  0.00000000000000 ]
    - # atom 3
      - [ -0.32727597700862,  0.00000000000000 ]
      - [  0.44411817732322,  0.00000000000000 ]
      - [  0.00000000000000,  0.00000000000000 ]
    - # atom 4
      - [ -0.26240158374970,  0.00000000000000 ]
      - [  0.35608269866676,  0.00000000000000 ]
      - [  0.00000000000000,  0.00000000000000 ]
    - # atom 5
      - [  0.26240158374970,  0.00000000000000 ]
      - [ -0.35608269866676,  0.00000000000000 ]
      - [ -0.00000000000000,  0.00000000000000 ]
  - # 7
    frequency:    1.7237092921
    eigenvector:
    - # atom 1
      - [ -0.00000000000000,  0.00000000000000 ]
      - [ -0.00000000000000,  0.00000000000000 ]
      - [  0.00000000000000,  0.00000000000000 ]
    - # atom 2
      - [  0.44411817732605,  0.00000000000000 ]
      - [  0.32727597700985,  0.00000000000000 ]
      - [  0.00000000000000,  0.00000000000000 ]
    - # atom 3
      - [ -0.44411817732605,  0.00000000000000 ]
      - [ -0.32727597700986,  0.00000000000000 ]
      - [ -0.00000000000000,  0.00000000000000 ]
    - # atom 4
      - [ -0.35608269866323,  0.00000000000000 ]
      - [ -0.26240158374816,  0.00000000000000 ]
      - [ -0.00000000000000,  0.00000000000000 ]
    - # atom 5
      - [  0.35608269866323,  0.00000000000000 ]
      - [  0.26240158374816,  0.00000000000000 ]
      - [  0.00000000000000,  0.00000000000000 ]
  - # 8
    frequency:    2.7936289046
    eigenvector:
    - # atom 1
      - [  0.00000000000000,  0.00000000000000 ]
      - [  0.00000000000000,  0.00000000000000 ]
      - [  0.00000000000000,  0.00000000000000 ]
    - # atom 2
      - [  0.42691420741034,  0.00000000000000 ]
      - [ -0.11573132226717,  0.00000000000000 ]
      - [  0.00000000000000,  0.00000000000000 ]
    - # atom 3
      - [ -0.42691420741034,  0.00000000000000 ]
      - [  0.11573132226717,  0.00000000000000 ]
      - [ -0.00000000000000,  0.00000000000000 ]
    - # atom 4
      - [  0.53246158934502,  0.00000000000000 ]
      - [ -0.14434395182918,  0.00000000000000 ]
      - [ -0.00000000000000,  0.00000000000000 ]
    - # atom 5
      - [ -0.53246158934502,  0.00000000000000 ]
      - [  0.14434395182918,  0.00000000000000 ]
      - [  0.00000000000000,  0.00000000000000 ]
  - # 9
    frequency:    2.7936289046
    eigenvector:
    - # atom 1
      - [  0.00000000000000, -0.00000000000000 ]
      - [  0.00000000000000,  0.00000000000000 ]
      - [  0.00000000000000,  0.00000000000000 ]
    - # atom 2
      - [ -0.11573132226344,  0.00000000000000 ]
      - [ -0.42691420741132,  0.00000000000000 ]
      - [ -0.00000000000000,  0.00000000000000 ]
    - # atom 3
      - [  0.11573132226344,  0.00000000000000 ]
      - [  0.42691420741132,  0.00000000000000 ]
      - [  0.00000000000000,  0.00000000000000 ]
    - # atom 4
      - [ -0.14434395183217,  0.00000000000000 ]
      - [ -0.53246158934423,  0.00000000000000 ]
      - [  0.00000000000000,  0.00000000000000 ]
    - # atom 5
      - [  0.14434395183217,  0.00000000000000 ]
      - [  0.53246158934423,  0.00000000000000 ]
      - [ -0.00000000000000,  0.00000000000000 ]
  - # 10
    frequency:    2.9346917877
    eigenvector:
    - # atom 1
      - [  0.00000000000000,  0.00000000000000 ]
      - [  0.00000000000000,  0.00000000000000 ]
      - [  0.00000000000000,  0.00000000000000 ]
    - # atom 2
      - [ -0.00000000000000,  0.00000000000000 ]
      - [ -0.00000000000000,  0.00000000000000 ]
      - [  0.61876529584570,  0.00000000000000 ]
    - # atom 3
      - [  0.00000000000000,  0.00000000000000 ]
      - [  0.00000000000000,  0.00000000000000 ]
      - [ -0.61876529584570,  0.00000000000000 ]
    - # atom 4
      - [ -0.00000000000000,  0.00000000000000 ]
      - [ -0.00000000000000,  0.00000000000000 ]
      - [ -0.34224188618138,  0.00000000000000 ]
    - # atom 5
      - [  0.00000000000000,  0.00000000000000 ]
      - [  0.00000000000000,  0.00000000000000 ]
      - [  0.34224188618138,  0.00000000000000 ]
  - # 11
    frequency:    3.4135078770
    eigenvector:
    - # atom 1
      - [  0.39765382076893, -0.00000000000000 ]
      - [ -0.48436102957662,  0.00000000000000 ]
      - [  0.00000000000000,  0.00000000000000 ]
    - # atom 2
      - [ -0.30425091086785,  0.00000000000000 ]
      - [  0.37059189864270,  0.00000000000000 ]
      - [  0.00000000000000,  0.00000000000000 ]
    - # atom 3
      - [ -0.30425091086785,  0.00000000000000 ]
      - [  0.37059189864270,  0.00000000000000 ]
      - [  0.00000000000000,  0.00000000000000 ]
    - # atom 4
      - [  0.17229234685169,  0.00000000000000 ]
      - [ -0.20986017020982,  0.00000000000000 ]
      - [  0.00000000000000,  0.00000000000000 ]
    - # atom 5
      - [  0.17229234685169,  0.00000000000000 ]
      - [ -0.20986017020982,  0.00000000000000 ]
      - [  0.00000000000000,  0.00000000000000 ]
  - # 12
    frequency:    3.4135078770
    eigenvector:
    - # atom 1
      - [ -0.48436102960325,  0.00000000000000 ]
      - [ -0.39765382077894,  0.00000000000000 ]
      - [ -0.00000000000000,  0.00000000000000 ]
    - # atom 2
      - [  0.37059189862872,  0.00000000000000 ]
      - [  0.30425091086259,  0.00000000000000 ]
      - [ -0.00000000000000,  0.00000000000000 ]
    - # atom 3
      - [  0.37059189862871,  0.00000000000000 ]
      - [  0.30425091086259,  0.00000000000000 ]
      - [ -0.00000000000000,  0.00000000000000 ]
    - # atom 4
      - [ -0.20986017020378,  0.00000000000000 ]
      - [ -0.17229234684942,  0.00000000000000 ]
      - [ -0.00000000000000,  0.00000000000000 ]
    - # atom 5
      - [ -0.20986017020378,  0.00000000000000 ]
      - [ -0.17229234684942,  0.00000000000000 ]
      - [ -0.00000000000000,  0.00000000000000 ]
  - # 13
    frequency:    4.7411902734
    eigenvector:
    - # atom 1
      - [  0.00000000000000,  0.00000000000000 ]
      - [ -0.00000000000000,  0.00000000000000 ]
      - [  0.12446757522818,  0.00000000000000 ]
    - # atom 2
      - [  0.00000000000000,  0.00000000000000 ]
      - [ -0.00000000000000,  0.00000000000000 ]
      - [ -0.56770243636253,  0.00000000000000 ]
    - # atom 3
      - [  0.00000000000000,  0.00000000000000 ]
      - [ -0.00000000000000,  0.00000000000000 ]
      - [ -0.56770243636253,  0.00000000000000 ]
    - # atom 4
      - [ -0.00000000000000,  0.00000000000000 ]
      - [ -0.00000000000000,  0.00000000000000 ]
      - [  0.41227157930963,  0.00000000000000 ]
    - # atom 5
      - [ -0.00000000000000,  0.00000000000000 ]
      - [ -0.00000000000000,  0.00000000000000 ]
      - [  0.41227157930963,  0.00000000000000 ]
  - # 14
    frequency:    5.8763173856
    eigenvector:
    - # atom 1
      - [ -0.00000000000000,  0.00000000000000 ]
      - [  0.00000000000000,  0.00000000000000 ]
      - [ -0.00000000000000,  0.00000000000000 ]
    - # atom 2
      - [ -0.00000000000000,  0.00000000000000 ]
      - [  0.00000000000000,  0.00000000000000 ]
      - [  0.34224188618138,  0.00000000000000 ]
    - # atom 3
      - [  0.00000000000000,  0.00000000000000 ]
      - [  0.00000000000000,  0.00000000000000 ]
      - [ -0.34224188618138,  0.00000000000000 ]
    - # atom 4
      - [ -0.00000000000000,  0.00000000000000 ]
      - [ -0.00000000000000,  0.00000000000000 ]
      - [  0.61876529584570,  0.00000000000000 ]
    - # atom 5
      - [  0.00000000000000,  0.00000000000000 ]
      - [  0.00000000000000,  0.00000000000000 ]
      - [ -0.61876529584570,  0.00000000000000 ]
  - # 15
    frequency:   13.1952069113
    eigenvector:
    - # atom 1
      - [  0.00000000000000,  0.00000000000000 ]
      - [ -0.00000000000000,  0.00000000000000 ]
      - [ -0.97867021685009,  0.00000000000000 ]
    - # atom 2
      - [  0.00000000000000,  0.00000000000000 ]
      - [ -0.00000000000000,  0.00000000000000 ]
      - [ -0.00179984578077,  0.00000000000000 ]
    - # atom 3
      - [ -0.00000000000000,  0.00000000000000 ]
      - [ -0.00000000000000,  0.00000000000000 ]
      - [ -0.00179984578077,  0.00000000000000 ]
    - # atom 4
      - [ -0.00000000000000,  0.00000000000000 ]
      - [ -0.00000000000000,  0.00000000000000 ]
      - [  0.14525516817129,  0.00000000000000 ]
    - # atom 5
      - [  0.00000000000000,  0.00000000000000 ]
      - [ -0.00000000000000,  0.00000000000000 ]
      - [  0.14525516817129,  0.00000000000000 ]

- q-position: [    0.0050505,    0.0000000,    0.0000000 ]
  distance:    0.0014395
  band:
  - # 1
    frequency:   -0.7998521753
    eigenvector:
    - # atom 1
      - [ -0.38083656169026,  0.00000000000000 ]
      - [  0.65962827426802, -0.00000000000000 ]
      - [ -0.00000000000000, -0.00000000000000 ]
    - # atom 2
      - [ -0.15140018518263,  0.00364056700835 ]
      - [  0.26223281302793, -0.00630564702619 ]
      - [ -0.00000000000001, -0.00000000000001 ]
    - # atom 3
      - [ -0.15140018517919, -0.00364056715164 ]
      - [  0.26223281302196,  0.00630564727437 ]
      - [ -0.00000000000001,  0.00000000000001 ]
    - # atom 4
      - [  0.17181793612454, -0.00500835829526 ]
      - [ -0.29759739503781,  0.00867473102925 ]
      - [ -0.00000000000002, -0.00000000000015 ]
    - # atom 5
      - [  0.17181793611980,  0.00500835845787 ]
      - [ -0.29759739502960, -0.00867473131089 ]
      - [ -0.00000000000002,  0.00000000000015 ]
  - # 2
    frequency:   -0.7425041579
    eigenvector:
    - # atom 1
      - [ -0.65741356971958,  0.00000000000000 ]
      - [ -0.37955790142299,  0.00000000000000 ]
      - [  0.00028643069836,  0.00000000000000 ]
    - # atom 2
      - [ -0.26288604886429, -0.00653762698122 ]
      - [ -0.15177733106866, -0.00377450069779 ]
      - [  0.00080192729115,  0.00043900710895 ]
    - # atom 3
      - [ -0.26288604887048,  0.00653762673242 ]
      - [ -0.15177733107223,  0.00377450055415 ]
      - [  0.00080192729157, -0.00043900710819 ]
    - # atom 4
      - [  0.29941021205952,  0.00887952331381 ]
      - [  0.17286456652003,  0.00512659517581 ]
      - [  0.00117432953891,  0.00575858752450 ]
    - # atom 5
      - [  0.29941021206792, -0.00887952303044 ]
      - [  0.17286456652488, -0.00512659501221 ]
      - [  0.00117432954436, -0.00575858752339 ]
  - # 3
    frequency:   -0.0139617500
    eigenvector:
    - # atom 1
      - [ -0.00213670681079,  0.00000000000000 ]
      - [ -0.00123362825329, -0.00000000000012 ]
      - [ -0.16340659023569, -0.00000000000670 ]
    - # atom 2
      - [ -0.00195960299834,  0.01213916796868 ]
      - [ -0.00113137732093,  0.00700855189407 ]
      - [ -0.42138285357455,  0.00002137678851 ]
    - # atom 3
      - [ -0.00195960298586, -0.01213916797025 ]
      - [ -0.00113137731373, -0.00700855189558 ]
      - [ -0.42138285357453, -0.00002137722188 ]
    - # atom 4
      - [ -0.00106022209311, -0.00679107549926 ]
      - [ -0.00061211951394, -0.00392082926798 ]
      - [ -0.55571395523344,  0.00000668553136 ]
    - # atom 5
      - [ -0.00106022210009,  0.00679107549875 ]
      - [ -0.00061211951797,  0.00392082926689 ]
      - [ -0.55571395523343, -0.00000668610288 ]
  - # 4
    frequency:    0.0329394414
    eigenvector:
    - # atom 1
      - [ -0.08256148807052,  0.00000000000000 ]
      - [  0.14300069208615, -0.00000000000002 ]
      - [ -0.00000000000078,  0.00000000000010 ]
    - # atom 2
      - [ -0.21113033901452, -0.00214839991367 ]
      - [  0.36568847419140,  0.00372113780567 ]
      - [ -0.00000000000202,  0.00000000000029 ]
    - # atom 3
      - [ -0.21113033901657,  0.00214839971385 ]
      - [  0.36568847419492, -0.00372113745969 ]
      - [ -0.00000000000202,  0.00000000000023 ]
    - # atom 4
      - [ -0.27750845430410, -0.00047165607864 ]
      - [  0.48065874238338,  0.00081693229166 ]
      - [ -0.00000000000266,  0.00000000000033 ]
    - # atom 5
      - [ -0.27750845430454,  0.00047165581600 ]
      - [  0.48065874238416, -0.00081693183690 ]
      - [ -0.00000000000266,  0.00000000000037 ]
  - # 5
    frequency:    0.0662430574
    eigenvector:
    - # atom 1
      - [  0.14432003766286,  0.00000000000000 ]
      - [  0.08332321259430, -0.00000000000001 ]
      - [ -0.00059883099423, -0.00000000000004 ]
    - # atom 2
      - [  0.36628344064000, -0.00365354313460 ]
      - [  0.21147384305375, -0.00210937411218 ]
      - [ -0.00160580618140, -0.00562516095270 ]
    - # atom 3
      - [  0.36628344063655,  0.00365354348126 ]
      - [  0.21147384305175,  0.00210937431225 ]
      - [ -0.00160580618672,  0.00562516095097 ]
    - # atom 4
      - [  0.47997483605486, -0.00087026981927 ]
      - [  0.27711360080125, -0.00050245051451 ]
      - [ -0.00209980036074,  0.00208113798858 ]
    - # atom 5
      - [  0.47997483605403,  0.00087027027352 ]
      - [  0.27711360080077,  0.00050245077668 ]
      - [ -0.00209980035877, -0.00208113799084 ]
  - # 6
    frequency:    1.7241332474
    eigenvector:
    - # atom 1
      - [ -0.00647181885839,  0.00000000000000 ]
      - [  0.01120951922531,  0.00000000000003 ]
      - [ -0.00000000001798, -0.00000000000000 ]
    - # atom 2
      - [ -0.00145827456244, -0.27581974576904 ]
      - [  0.00252580566849,  0.47773380734848 ]
      - [ -0.00000000006958,  0.00000000000032 ]
    - # atom 3
      - [ -0.00145827482537,  0.27581974576766 ]
      - [  0.00252580612174, -0.47773380734608 ]
      - [ -0.00000000006958, -0.00000000000035 ]
    - # atom 4
      - [  0.00383172076552,  0.22110115185291 ]
      - [ -0.00663673513321, -0.38295842376558 ]
      - [ -0.00000000005541, -0.00000000000079 ]
    - # atom 5
      - [  0.00383172097629, -0.22110115184929 ]
      - [ -0.00663673549654,  0.38295842375927 ]
      - [ -0.00000000005541,  0.00000000000077 ]
  - # 7
    frequency:    1.7247250214
    eigenvector:
    - # atom 1
      - [  0.01145578073201,  0.00000000000000 ]
      - [  0.00661399800744,  0.00000000000001 ]
      - [ -0.00327255717561, -0.00000000000000 ]
    - # atom 2
      - [  0.00269389187246, -0.47750553835741 ]
      - [  0.00155531917880, -0.27568795460727 ]
      - [ -0.01266755368162,  0.00006086804222 ]
    - # atom 3
      - [  0.00269389141949,  0.47750553835996 ]
      - [  0.00155531891852,  0.27568795460875 ]
      - [ -0.01266755368156, -0.00006086805422 ]
    - # atom 4
      - [ -0.00678383467467,  0.38297373766906 ]
      - [ -0.00391664872651,  0.22110999333910 ]
      - [ -0.01008599759015, -0.00014240011067 ]
    - # atom 5
      - [ -0.00678383431137, -0.38297373767548 ]
      - [ -0.00391664851776, -0.22110999334282 ]
      - [ -0.01008599759028,  0.00014240010111 ]
  - # 8
    frequency:    2.7937558045
    eigenvector:
    - # atom 1
      - [ -0.00083198749066,  0.00000000000000 ]
      - [  0.00144104480651, -0.00000000000001 ]
      - [ -0.00000000010900,  0.00000000000000 ]
    - # atom 2
      - [ -0.00273444993917,  0.22114258759888 ]
      - [  0.00473620689520, -0.38303014369526 ]
      - [ -0.00000000015333,  0.00000000001331 ]
    - # atom 3
      - [ -0.00273444973297, -0.22114258760147 ]
      - [  0.00473620653449,  0.38303014369970 ]
      - [ -0.00000000015333, -0.00000000001330 ]
    - # atom 4
      - [  0.00002329953402,  0.27584082074104 ]
      - [ -0.00004035598206, -0.47777024931803 ]
      - [  0.00000000033578, -0.00000000000701 ]
    - # atom 5
      - [  0.00002329979123, -0.27584082074102 ]
      - [ -0.00004035643198,  0.47777024931799 ]
      - [  0.00000000033578,  0.00000000000699 ]
  - # 9
    frequency:    2.7938426384
    eigenvector:
    - # atom 1
      - [ -0.00143454809840,  0.00000000000000 ]
      - [ -0.00082823661410,  0.00000000000000 ]
      - [  0.00179455381560, -0.00000000000000 ]
    - # atom 2
      - [ -0.00476186073020, -0.38311751383932 ]
      - [ -0.00274926118973, -0.22119303076800 ]
      - [  0.00252463149537, -0.00021929763557 ]
    - # atom 3
      - [ -0.00476186109099,  0.38311751383482 ]
      - [ -0.00274926140008,  0.22119303076542 ]
      - [  0.00252463149517,  0.00021929763795 ]
    - # atom 4
      - [  0.00005396677558, -0.47766964131298 ]
      - [  0.00003115773037, -0.27578273469039 ]
      - [ -0.00552772762118,  0.00011538579324 ]
    - # atom 5
      - [  0.00005396632575,  0.47766964131303 ]
      - [  0.00003115746811,  0.27578273469042 ]
      - [ -0.00552772762107, -0.00011538579846 ]
  - # 10
    frequency:    2.9342609005
    eigenvector:
    - # atom 1
      - [ -0.01882329303143,  0.00000000000000 ]
      - [ -0.01086763329834, -0.00000000000000 ]
      - [ -0.00000050716322, -0.00000000000000 ]
    - # atom 2
      - [  0.01571202178537, -0.00017531070163 ]
      - [  0.00907134000698, -0.00010121568079 ]
      - [  0.00000377406666,  0.61848721650901 ]
    - # atom 3
      - [  0.01571202178521,  0.00017531071650 ]
      - [  0.00907134000688,  0.00010121568937 ]
      - [  0.00000377465200, -0.61848721650900 ]
    - # atom 4
      - [ -0.00261399669570, -0.00026291690826 ]
      - [ -0.00150919169578, -0.00015179514778 ]
      - [ -0.00000290482938, -0.34190488657399 ]
    - # atom 5
      - [ -0.00261399669595,  0.00026291690578 ]
      - [ -0.00150919169592,  0.00015179514635 ]
      - [ -0.00000290515296,  0.34190488657399 ]
  - # 11
    frequency:    3.4129160234
    eigenvector:
    - # atom 1
      - [  0.31321643941478,  0.00000000000000 ]
      - [ -0.54250678458708, -0.00000000000000 ]
      - [  0.00000000000008, -0.00000000000000 ]
    - # atom 2
      - [ -0.23977564606124, -0.00125147210868 ]
      - [  0.41530359968822,  0.00216761328560 ]
      - [ -0.00000000000015,  0.00000000003182 ]
    - # atom 3
      - [ -0.23977564606242,  0.00125147188176 ]
      - [  0.41530359969027, -0.00216761289256 ]
      - [ -0.00000000000015, -0.00000000003182 ]
    - # atom 4
      - [  0.13584171708171, -0.00091273582074 ]
      - [ -0.23528475480648,  0.00158090482202 ]
      - [  0.00000000000009, -0.00000000002849 ]
    - # atom 5
      - [  0.13584171708085,  0.00091273594930 ]
      - [ -0.23528475480498, -0.00158090504469 ]
      - [  0.00000000000009,  0.00000000002849 ]
  - # 12
    frequency:    3.4165179014
    eigenvector:
    - # atom 1
      - [ -0.54442854727523,  0.00000000000000 ]
      - [ -0.31432596961552, -0.00000000000000 ]
      - [ -0.00004240025188, -0.00000000000000 ]
    - # atom 2
      - [  0.41406063761160, -0.00215400980275 ]
      - [  0.23905802157469, -0.00124361813425 ]
      - [  0.00008374811041, -0.01762484890293 ]
    - # atom 3
      - [  0.41406063760956,  0.00215401019462 ]
      - [  0.23905802157351,  0.00124361836050 ]
      - [  0.00008374809373,  0.01762484890301 ]
    - # atom 4
      - [ -0.23435800451777, -0.00159942404050 ]
      - [ -0.13530665755527, -0.00092342789665 ]
      - [ -0.00004952016858,  0.01586230832166 ]
    - # atom 5
      - [ -0.23435800451928,  0.00159942381871 ]
      - [ -0.13530665755614,  0.00092342776860 ]
      - [ -0.00004952015356, -0.01586230832171 ]
  - # 13
    frequency:    4.7410278394
    eigenvector:
    - # atom 1
      - [ -0.00009346800404,  0.00000000000000 ]
      - [ -0.00005396377730, -0.00000000000000 ]
      - [  0.12446862862876, -0.00000000000001 ]
    - # atom 2
      - [  0.00002703475570, -0.00005488115707 ]
      - [  0.00001560852348, -0.00003168565082 ]
      - [ -0.56768231127658,  0.00000013268781 ]
    - # atom 3
      - [  0.00002703475565,  0.00005488115710 ]
      - [  0.00001560852345,  0.00003168565084 ]
      - [ -0.56768231127658, -0.00000013322501 ]
    - # atom 4
      - [ -0.00003073533714, -0.00560903046527 ]
      - [ -0.00001774505517, -0.00323837524902 ]
      - [  0.41224824236578,  0.00000156777145 ]
    - # atom 5
      - [ -0.00003073534245,  0.00560903046524 ]
      - [ -0.00001774505824,  0.00323837524901 ]
      - [  0.41224824236579, -0.00000156738133 ]
  - # 14
    frequency:    5.8760998921
    eigenvector:
    - # atom 1
      - [  0.00919215691656, -0.00000000000000 ]
      - [  0.00530709427023, -0.00000000000000 ]
      - [  0.00000065369835, -0.00000000000000 ]
    - # atom 2
      - [ -0.00071668910592, -0.00000709933864 ]
      - [ -0.00041378064824, -0.00000409880508 ]
      - [  0.00000048168946,  0.34224412383523 ]
    - # atom 3
      - [ -0.00071668910592,  0.00000709933796 ]
      - [ -0.00041378064824,  0.00000409880469 ]
      - [  0.00000048201336, -0.34224412383523 ]
    - # atom 4
      - [  0.00016111024119, -0.00000668840931 ]
      - [  0.00009301704114, -0.00000386155492 ]
      - [ -0.00000055301123,  0.61871795642853 ]
    - # atom 5
      - [  0.00016111024119,  0.00000668840947 ]
      - [  0.00009301704113,  0.00000386155501 ]
      - [ -0.00000055242568, -0.61871795642853 ]
  - # 15
    frequency:   13.1937897159
    eigenvector:
    - # atom 1
      - [  0.00004682566757,  0.00000000000000 ]
      - [  0.00002703481178,  0.00000000000000 ]
      - [ -0.97866821459644, -0.00000000000000 ]
    - # atom 2
      - [ -0.00000612008316, -0.00113920648348 ]
      - [ -0.00000353343166, -0.00065772116990 ]
      - [ -0.00179297727001,  0.00000008407679 ]
    - # atom 3
      - [ -0.00000612008424,  0.00113920648348 ]
      - [ -0.00000353343228,  0.00065772116990 ]
      - [ -0.00179297727001, -0.00000008407849 ]
    - # atom 4
      - [ -0.00000000637345, -0.00173278003764 ]
      - [ -0.00000000367971, -0.00100042102118 ]
      - [  0.14524225567194,  0.00000008606616 ]
    - # atom 5
      - [ -0.00000000637509,  0.00173278003764 ]
      - [ -0.00000000368066,  0.00100042102118 ]
      - [  0.14524225567194, -0.00000008592870 ]

- q-position: [    0.0101010,    0.0000000,    0.0000000 ]
  distance:    0.0028791
  band:
  - # 1
    frequency:   -0.8105804731
    eigenvector:
    - # atom 1
      - [ -0.38045089154426,  0.00000000000000 ]
      - [  0.65896027394907,  0.00000000000000 ]
      - [ -0.00000000000001, -0.00000000000000 ]
    - # atom 2
      - [ -0.14974203743299,  0.00724293790411 ]
      - [  0.25936081686672, -0.01254513644530 ]
      - [ -0.00000000000002, -0.00000000000001 ]
    - # atom 3
      - [ -0.14974203741928, -0.00724293818754 ]
      - [  0.25936081684298,  0.01254513693623 ]
      - [ -0.00000000000002,  0.00000000000001 ]
    - # atom 4
      - [  0.17336135618647, -0.00996302243190 ]
      - [ -0.30027067698844,  0.01725646104852 ]
      - [ -0.00000000000003, -0.00000000000007 ]
    - # atom 5
      - [  0.17336135616761,  0.00996302276004 ]
      - [ -0.30027067695578, -0.01725646161688 ]
      - [ -0.00000000000003,  0.00000000000006 ]
  - # 2
    frequency:   -0.5529125023
    eigenvector:
    - # atom 1
      - [  0.64778037077781,  0.00000000000000 ]
      - [  0.37399617143887,  0.00000000000000 ]
      - [ -0.00240857662371, -0.00000000000000 ]
    - # atom 2
      - [  0.25727338466294,  0.01476868116707 ]
      - [  0.14853685788847,  0.00852670204768 ]
      - [ -0.00642868846220, -0.00035792782489 ]
    - # atom 3
      - [  0.25727338469090, -0.01476868068010 ]
      - [  0.14853685790461, -0.00852670176653 ]
      - [ -0.00642868846288,  0.00035792781272 ]
    - # atom 4
      - [ -0.31340435715942, -0.01904985098406 ]
      - [ -0.18094408996835, -0.01099843659380 ]
      - [ -0.00899310267396, -0.01174591071083 ]
    - # atom 5
      - [ -0.31340435719548,  0.01904985039084 ]
      - [ -0.18094408998917,  0.01099843625130 ]
      - [ -0.00899310269619,  0.01174591069380 ]
  - # 3
    frequency:   -0.0262053664
    eigenvector:
    - # atom 1
      - [ -0.01070275708926,  0.00000000000000 ]
      - [ -0.00617923968636,  0.00000000000002 ]
      - [ -0.16329561592986,  0.00000000000027 ]
    - # atom 2
      - [ -0.00278452877553,  0.02391410847376 ]
      - [ -0.00160764843770,  0.01380681696470 ]
      - [ -0.42082658750952, -0.00004614470544 ]
    - # atom 3
      - [ -0.00278452873034, -0.02391410847911 ]
      - [ -0.00160764841161, -0.01380681696768 ]
      - [ -0.42082658750960,  0.00004614391029 ]
    - # atom 4
      - [  0.00747614403005, -0.01325476086136 ]
      - [  0.00431635376877, -0.00765263975126 ]
      - [ -0.55535052787181,  0.00022600496553 ]
    - # atom 5
      - [  0.00747614400501,  0.01325476087537 ]
      - [  0.00431635375431,  0.00765263975948 ]