nqpoint: 300    
npath: 3      
segment_nqpoint:
- 100
- 100
- 100
labels:
- [ 'G', 'M' ]
- [ 'M', 'K' ]
- [ 'K', 'G' ]
reciprocal_lattice:
- [   0.29189149,   0.16852363,   0.00000000 ] # a*
- [   0.00000000,   0.33704726,   0.00000000 ] # b*
- [   0.00000000,   0.00000000,   0.03820611 ] # c*
natom: 7      
lattice:
- [     3.425930679281558,     0.000000000000000,     0.000000000000000 ] # a
- [    -1.712965339640779,     2.966942999845832,     0.000000000000000 ] # b
- [     0.000000000000000,     0.000000000000000,    26.173822148109632 ] # c
points:
- symbol: C # 1
  coordinates: [  0.000000000000000,  0.000000000000000,  0.434450511792262 ]
  mass: 12.010700
- symbol: C # 2
  coordinates: [  0.333332985432215,  0.666666983183674,  0.610671674475794 ]
  mass: 12.010700
- symbol: F # 3
  coordinates: [  0.666666984744047,  0.333332985985145,  0.343855014719354 ]
  mass: 18.998403
- symbol: Hf # 4
  coordinates: [  0.333332985432215,  0.666666983183674,  0.393004562710361 ]
  mass: 178.490000
- symbol: Hf # 5
  coordinates: [  0.666666984744047,  0.333332985985145,  0.482866600963768 ]
  mass: 178.490000
- symbol: N # 6
  coordinates: [  0.333332985432215,  0.666666983183674,  0.656144985280646 ]
  mass: 14.006700
- symbol: S # 7
  coordinates: [  0.333332985432215,  0.666666983183674,  0.546071512466290 ]
  mass: 32.065000

phonon:
- q-position: [    0.0000000,    0.0000000,    0.0000000 ]
  distance:    0.0000000
  band:
  - # 1
    frequency:   -3.0808652786
  - # 2
    frequency:   -3.0808652786
  - # 3
    frequency:   -0.0000190265
  - # 4
    frequency:    0.0000003635
  - # 5
    frequency:    0.0000157398
  - # 6
    frequency:    2.8637689036
  - # 7
    frequency:    3.0784447512
  - # 8
    frequency:    3.0784447513
  - # 9
    frequency:    4.3581992605
  - # 10
    frequency:    4.3581992605
  - # 11
    frequency:    6.5278186312
  - # 12
    frequency:    6.5278186312
  - # 13
    frequency:    6.6436237098
  - # 14
    frequency:   10.8253365666
  - # 15
    frequency:   10.8253365666
  - # 16
    frequency:   10.9343742091
  - # 17
    frequency:   14.8164998188
  - # 18
    frequency:   17.2926318272
  - # 19
    frequency:   17.2926318273
  - # 20
    frequency:   19.3488909716
  - # 21
    frequency:   64.8013517734

- q-position: [    0.0050505,    0.0000000,    0.0000000 ]
  distance:    0.0017023
  band:
  - # 1
    frequency:   -3.0797260976
  - # 2
    frequency:   -3.0792652821
  - # 3
    frequency:    0.0014576196
  - # 4
    frequency:    0.0402091986
  - # 5
    frequency:    0.0692273662
  - # 6
    frequency:    2.8659096873
  - # 7
    frequency:    3.0785711689
  - # 8
    frequency:    3.0803846387
  - # 9
    frequency:    4.3584828326
  - # 10
    frequency:    4.3593174494
  - # 11
    frequency:    6.5279409100
  - # 12
    frequency:    6.5283651490
  - # 13
    frequency:    6.6437575953
  - # 14
    frequency:   10.8252355565
  - # 15
    frequency:   10.8253496296
  - # 16
    frequency:   10.9337889615
  - # 17
    frequency:   14.8166287674
  - # 18
    frequency:   17.2926259352
  - # 19
    frequency:   17.2932846244
  - # 20
    frequency:   19.3487653782
  - # 21
    frequency:   64.8013162168

- q-position: [    0.0101010,    0.0000000,    0.0000000 ]
  distance:    0.0034045
  band:
  - # 1
    frequency:   -3.0763065271
  - # 2
    frequency:   -3.0744658593
  - # 3
    frequency:    0.0058287905
  - # 4
    frequency:    0.0804484094
  - # 5
    frequency:    0.1384785828
  - # 6
    frequency:    2.8722302841
  - # 7
    frequency:    3.0789492823
  - # 8
    frequency:    3.0862541841
  - # 9
    frequency:    4.3593327096
  - # 10
    frequency:    4.3626657183
  - # 11
    frequency:    6.5283072157
  - # 12
    frequency:    6.5299987947
  - # 13
    frequency:    6.6441630243
  - # 14
    frequency:   10.8249330256
  - # 15
    frequency:   10.8253869119
  - # 16
    frequency:   10.9320363990
  - # 17
    frequency:   14.8170180149
  - # 18
    frequency:   17.2926090608
  - # 19
    frequency:   17.2952397058
  - # 20
    frequency:   19.3483892965
  - # 21
    frequency:   64.8012095519

- q-position: [    0.0151515,    0.0000000,    0.0000000 ]
  distance:    0.0051068
  band:
  - # 1
    frequency:   -3.0706004882
  - # 2
    frequency:   -3.0664686982
  - # 3
    frequency:    0.0131052264
  - # 4
    frequency:    0.1207475486
  - # 5
    frequency:    0.2077764105
  - # 6
    frequency:    2.8824309804
  - # 7
    frequency:    3.0795756954
  - # 8
    frequency:    3.0961993895
  - # 9
    frequency:    4.3607463711
  - # 10
    frequency:    4.3682252212
  - # 11
    frequency:    6.5289159591
  - # 12
    frequency:    6.5327015797
  - # 13
    frequency:    6.6448515755
  - # 14
    frequency:   10.8244304693
  - # 15
    frequency:   10.8254423426
  - # 16
    frequency:   10.9291264134
  - # 17
    frequency:   14.8176747240
  - # 18
    frequency:   17.2925836047
  - # 19
    frequency:   17.2984871633
  - # 20
    frequency:   19.3477648168
  - # 21
    frequency:   64.8010317933

- q-position: [    0.0202020,    0.0000000,    0.0000000 ]
  distance:    0.0068090
  band:
  - # 1
    frequency:   -3.0625978602
  - # 2
    frequency:   -3.0552765728
  - # 3
    frequency:    0.0232727678
  - # 4
    frequency:    0.1611363324
  - # 5
    frequency:    0.2771415011
  - # 6
    frequency:    2.8960336902
  - # 7
    frequency:    3.0804448218
  - # 8
    frequency:    3.1104483465
  - # 9
    frequency:    4.3627196067
  - # 10
    frequency:    4.3759647075
  - # 11
    frequency:    6.5297645037
  - # 12
    frequency:    6.5364426059
  - # 13
    frequency:    6.6458434524
  - # 14
    frequency:   10.8237303723
  - # 15
    frequency:   10.8255045272
  - # 16
    frequency:   10.9250767676
  - # 17
    frequency:   14.8186106893
  - # 18
    frequency:   17.2925535493
  - # 19
    frequency:   17.3030105587
  - # 20
    frequency:   19.3468954059
  - # 21
    frequency:   64.8007829656

- q-position: [    0.0252525,    0.0000000,    0.0000000 ]
  distance:    0.0085113
  band:
  - # 1
    frequency:   -3.0522844939
  - # 2
    frequency:   -3.0408932823
  - # 3
    frequency:    0.0363100319
  - # 4
    frequency:    0.2016441888
  - # 5
    frequency:    0.3465914706
  - # 6
    frequency:    2.9124228675
  - # 7
    frequency:    3.0815489933
  - # 8
    frequency:    3.1292791018
  - # 9
    frequency:    4.3652465026
  - # 10
    frequency:    4.3858407633
  - # 11
    frequency:    6.5308491834
  - # 12
    frequency:    6.5411765755
  - # 13
    frequency:    6.6471689556
  - # 14
    frequency:   10.8228361963
  - # 15
    frequency:   10.8255544068
  - # 16
    frequency:   10.9199154384
  - # 17
    frequency:   14.8198421256
  - # 18
    frequency:   17.2925244316
  - # 19
    frequency:   17.3087870346
  - # 20
    frequency:   19.3457858820
  - # 21
    frequency:   64.8004631041

- q-position: [    0.0303030,    0.0000000,    0.0000000 ]
  distance:    0.0102136
  band:
  - # 1
    frequency:   -3.0396422222
  - # 2
    frequency:   -3.0233235663
  - # 3
    frequency:    0.0521872937
  - # 4
    frequency:    0.2423001730
  - # 5
    frequency:    0.4161401170
  - # 6
    frequency:    2.9309137301
  - # 7
    frequency:    3.0828786064
  - # 8
    frequency:    3.1529627762
  - # 9
    frequency:    4.3683194257
  - # 10
    frequency:    4.3977981529
  - # 11
    frequency:    6.5321653272
  - # 12
    frequency:    6.5468414819
  - # 13
    frequency:    6.6488707711
  - # 14
    frequency:   10.8217523633
  - # 15
    frequency:   10.8255609116
  - # 16
    frequency:   10.9136849641
  - # 17
    frequency:   14.8213893742
  - # 18
    frequency:   17.2925033048
  - # 19
    frequency:   17.3157874679
  - # 20
    frequency:   19.3444423791
  - # 21
    frequency:   64.8000722551

- q-position: [    0.0353535,    0.0000000,    0.0000000 ]
  distance:    0.0119158
  band:
  - # 1
    frequency:   -3.0246488647
  - # 2
    frequency:   -3.0025729932
  - # 3
    frequency:    0.0708655425
  - # 4
    frequency:    0.2831328950
  - # 5
    frequency:    0.4857967970
  - # 6
    frequency:    2.9508425218
  - # 7
    frequency:    3.0844223029
  - # 8
    frequency:    3.1816864159
  - # 9
    frequency:    4.3719290071
  - # 10
    frequency:    4.4117702638
  - # 11
    frequency:    6.5337072913
  - # 12
    frequency:    6.5533552934
  - # 13
    frequency:    6.6510072622
  - # 14
    frequency:   10.8204842343
  - # 15
    frequency:   10.8254729022
  - # 16
    frequency:   10.9064505056
  - # 17
    frequency:   14.8232765319
  - # 18
    frequency:   17.2924986893
  - # 19
    frequency:   17.3239766622
  - # 20
    frequency:   19.3428723022
  - # 21
    frequency:   64.7996104769

- q-position: [    0.0404040,    0.0000000,    0.0000000 ]
  distance:    0.0136181
  band:
  - # 1
    frequency:   -3.0072782159
  - # 2
    frequency:   -2.9786478207
  - # 3
    frequency:    0.0922959024
  - # 4
    frequency:    0.3241704582
  - # 5
    frequency:    0.5555659639
  - # 6
    frequency:    2.9716554098
  - # 7
    frequency:    3.0861671787
  - # 8
    frequency:    3.2154781433
  - # 9
    frequency:    4.3760641280
  - # 10
    frequency:    4.4276796565
  - # 11
    frequency:    6.5354684981
  - # 12
    frequency:    6.5606115115
  - # 13
    frequency:    6.6536568892
  - # 14
    frequency:   10.8190380832
  - # 15
    frequency:   10.8252038525
  - # 16
    frequency:   10.8983151665
  - # 17
    frequency:   14.8255310073
  - # 18
    frequency:   17.2925205138
  - # 19
    frequency:   17.3333135768
  - # 20
    frequency:   19.3410842733
  - # 21
    frequency:   64.7990778408

- q-position: [    0.0454545,    0.0000000,    0.0000000 ]
  distance:    0.0153203
  band:
  - # 1
    frequency:   -2.9875000121
  - # 2
    frequency:   -2.9515548272
  - # 3
    frequency:    0.1164195246
  - # 4
    frequency:    0.3654404126
  - # 5
    frequency:    0.6254468582
  - # 6
    frequency:    2.9929636752
  - # 7
    frequency:    3.0880990147
  - # 8
    frequency:    3.2541661559
  - # 9
    frequency:    4.3807119111
  - # 10
    frequency:    4.4454387184
  - # 11
    frequency:    6.5374414819
  - # 12
    frequency:    6.5684738199
  - # 13
    frequency:    6.6569235409
  - # 14
    frequency:   10.8174210665
  - # 15
    frequency:   10.8246019879
  - # 16
    frequency:   10.8894498585
  - # 17
    frequency:   14.8281830102
  - # 18
    frequency:   17.2925800455
  - # 19
    frequency:   17.3437515886
  - # 20
    frequency:   19.3390880680
  - # 21
    frequency:   64.7984744321

- q-position: [    0.0505051,    0.0000000,    0.0000000 ]
  distance:    0.0170226
  band:
  - # 1
    frequency:   -2.9652798649
  - # 2
    frequency:   -2.9213011095
  - # 3
    frequency:    0.1431679667
  - # 4
    frequency:    0.4069697224
  - # 5
    frequency:    0.6954333313
  - # 6
    frequency:    3.0145475710
  - # 7
    frequency:    3.0902025224
  - # 8
    frequency:    3.2973885213
  - # 9
    frequency:    4.3858577201
  - # 10
    frequency:    4.4649504210
  - # 11
    frequency:    6.5396179424
  - # 12
    frequency:    6.5767709666
  - # 13
    frequency:    6.6609416437
  - # 14
    frequency:   10.8156411885
  - # 15
    frequency:   10.8233923792
  - # 16
    frequency:   10.8801512111
  - # 17
    frequency:   14.8312649811
  - # 18
    frequency:   17.2926898116
  - # 19
    frequency:   17.3552387835
  - # 20
    frequency:   19.3368945434
  - # 21
    frequency:   64.7978003517

- q-position: [    0.0555556,    0.0000000,    0.0000000 ]
  distance:    0.0187248
  band:
  - # 1
    frequency:   -2.9405791551
  - # 2
    frequency:   -2.8878938454
  - # 3
    frequency:    0.1724639990
  - # 4
    frequency:    0.4487847487
  - # 5
    frequency:    0.7655137791
  - # 6
    frequency:    3.0363193674
  - # 7
    frequency:    3.0924615990
  - # 8
    frequency:    3.3446427244
  - # 9
    frequency:    4.3914851715
  - # 10
    frequency:    4.4861091734
  - # 11
    frequency:    6.5419888037
  - # 12
    frequency:    6.5852949142
  - # 13
    frequency:    6.6658780160
  - # 14
    frequency:   10.8137072617
  - # 15
    frequency:   10.8210772183
  - # 16
    frequency:   10.8709412988
  - # 17
    frequency:   14.8348109680
  - # 18
    frequency:   17.2928635108
  - # 19
    frequency:   17.3677182731
  - # 20
    frequency:   19.3345155588
  - # 21
    frequency:   64.7970557175

- q-position: [    0.0606061,    0.0000000,    0.0000000 ]
  distance:    0.0204271
  band:
  - # 1
    frequency:   -2.9133548743
  - # 2
    frequency:   -2.8513400144
  - # 3
    frequency:    0.2042227309
  - # 4
    frequency:    0.4909112477
  - # 5
    frequency:    0.8356711647
  - # 6
    frequency:    3.0582721108
  - # 7
    frequency:    3.0948595831
  - # 8
    frequency:    3.3953480839
  - # 9
    frequency:    4.3975761599
  - # 10
    frequency:    4.5088017635
  - # 11
    frequency:    6.5445442818
  - # 12
    frequency:    6.5938079965
  - # 13
    frequency:    6.6719247355
  - # 14
    frequency:   10.8116288645
  - # 15
    frequency:   10.8168422424
  - # 16
    frequency:   10.8626612209
  - # 17
    frequency:   14.8388559606
  - # 18
    frequency:   17.2931159163
  - # 19
    frequency:   17.3811285337
  - # 20
    frequency:   19.3319638874
  - # 21
    frequency:   64.7962406659

- q-position: [    0.0656566,    0.0000000,    0.0000000 ]
  distance:    0.0221294
  band:
  - # 1
    frequency:   -2.8835594028
  - # 2
    frequency:   -2.8116460722
  - # 3
    frequency:    0.2383529286
  - # 4
    frequency:    0.5333743820
  - # 5
    frequency:    0.9058831076
  - # 6
    frequency:    3.0804357322
  - # 7
    frequency:    3.0973795074
  - # 8
    frequency:    3.4488992085
  - # 9
    frequency:    4.4041109006
  - # 10
    frequency:    4.5329083756
  - # 11
    frequency:    6.5472739579
  - # 12
    frequency:    6.6020659343
  - # 13
    frequency:    6.6792761745
  - # 14
    frequency:   10.8094162938
  - # 15
    frequency:   10.8097403080
  - # 16
    frequency:   10.8562875269
  - # 17
    frequency:   14.8434351912
  - # 18
    frequency:   17.2934627704
  - # 19
    frequency:   17.3954037629
  - # 20
    frequency:   19.3292531214
  - # 21
    frequency:   64.7953553541

- q-position: [    0.0707071,    0.0000000,    0.0000000 ]
  distance:    0.0238316
  band:
  - # 1
    frequency:   -2.8511402108
  - # 2
    frequency:   -2.7688175690
  - # 3
    frequency:    0.2747583983
  - # 4
    frequency:    0.5761987449
  - # 5
    frequency:    0.9761220243
  - # 6
    frequency:    3.1000043400
  - # 7
    frequency:    3.1028486180
  - # 8
    frequency:    3.5047023211
  - # 9
    frequency:    4.4110679903
  - # 10
    frequency:    4.5583036687
  - # 11
    frequency:    6.5501668585
  - # 12
    frequency:    6.6098576989
  - # 13
    frequency:    6.6880892194
  - # 14
    frequency:   10.7993523859
  - # 15
    frequency:   10.8070805149
  - # 16
    frequency:   10.8522712194
  - # 17
    frequency:   14.8485834128
  - # 18
    frequency:   17.2939206723
  - # 19
    frequency:   17.4104742508
  - # 20
    frequency:   19.3263975707
  - # 21
    frequency:   64.7943999617

- q-position: [    0.0757576,    0.0000000,    0.0000000 ]
  distance:    0.0255339
  band:
  - # 1
    frequency:   -2.8160394645
  - # 2
    frequency:   -2.7228587021
  - # 3
    frequency:    0.3133393299
  - # 4
    frequency:    0.6194083937
  - # 5
    frequency:    1.0463553073
  - # 6
    frequency:    3.1027172112
  - # 7
    frequency:    3.1255431059
  - # 8
    frequency:    3.5621960353
  - # 9
    frequency:    4.4184244871
  - # 10
    frequency:    4.5848578998
  - # 11
    frequency:    6.5532115427
  - # 12
    frequency:    6.6170482337
  - # 13
    frequency:    6.6984406710
  - # 14
    frequency:   10.7860766623
  - # 15
    frequency:   10.8046331073
  - # 16
    frequency:   10.8502486469
  - # 17
    frequency:   14.8543341672
  - # 18
    frequency:   17.2945069574
  - # 19
    frequency:   17.4262667627
  - # 20
    frequency:   19.3234121543
  - # 21
    frequency:   64.7933746930

- q-position: [    0.0808081,    0.0000000,    0.0000000 ]
  distance:    0.0272361
  band:
  - # 1
    frequency:   -2.7781935157
  - # 2
    frequency:   -2.6737717873
  - # 3
    frequency:    0.3539935216
  - # 4
    frequency:    0.6630268885
  - # 5
    frequency:    1.1165455323
  - # 6
    frequency:    3.1055016220
  - # 7
    frequency:    3.1485401661
  - # 8
    frequency:    3.6208614415
  - # 9
    frequency:    4.4261560101
  - # 10
    frequency:    4.6124380735
  - # 11
    frequency:    6.5563961956
  - # 12
    frequency:    6.6235991047
  - # 13
    frequency:    6.7103067624
  - # 14
    frequency:   10.7705838624
  - # 15
    frequency:   10.8020862086
  - # 16
    frequency:   10.8495861649
  - # 17
    frequency:   14.8607190548
  - # 18
    frequency:   17.2952395723
  - # 19
    frequency:   17.4427049307
  - # 20
    frequency:   19.3203122868
  - # 21
    frequency:   64.7922797794

- q-position: [    0.0858586,    0.0000000,    0.0000000 ]
  distance:    0.0289384
  band:
  - # 1
    frequency:   -2.7375322480
  - # 2
    frequency:   -2.6215566285
  - # 3
    frequency:    0.3966174365
  - # 4
    frequency:    0.7070773302
  - # 5
    frequency:    1.1866506901
  - # 6
    frequency:    3.1083416303
  - # 7
    frequency:    3.1718490126
  - # 8
    frequency:    3.6802259180
  - # 9
    frequency:    4.4342368588
  - # 10
    frequency:    4.6409090995
  - # 11
    frequency:    6.5597087285
  - # 12
    frequency:    6.6295540872
  - # 13
    frequency:    6.7235777915
  - # 14
    frequency:   10.7533914569
  - # 15
    frequency:   10.7994524551
  - # 16
    frequency:   10.8498059084
  - # 17
    frequency:   14.8677670199
  - # 18
    frequency:   17.2961369429
  - # 19
    frequency:   17.4597096503
  - # 20
    frequency:   19.3171137589
  - # 21
    frequency:   64.7911154820

- q-position: [    0.0909091,    0.0000000,    0.0000000 ]
  distance:    0.0306407
  band:
  - # 1
    frequency:   -2.6939782405
  - # 2
    frequency:   -2.5662097598
  - # 3
    frequency:    0.4411070627
  - # 4
    frequency:    0.7515823907
  - # 5
    frequency:    1.2566244363
  - # 6
    frequency:    3.1112220137
  - # 7
    frequency:    3.1954688650
  - # 8
    frequency:    3.7398636272
  - # 9
    frequency:    4.4426401496
  - # 10
    frequency:    4.6701349402
  - # 11
    frequency:    6.5631368846
  - # 12
    frequency:    6.6350024947
  - # 13
    frequency:    6.7380950674
  - # 14
    frequency:   10.7348254358
  - # 15
    frequency:   10.7967449201
  - # 16
    frequency:   10.8506239836
  - # 17
    frequency:   14.8755036641
  - # 18
    frequency:   17.2972178388
  - # 19
    frequency:   17.4771994811
  - # 20
    frequency:   19.3138326135
  - # 21
    frequency:   64.7898820937

- q-position: [    0.0959596,    0.0000000,    0.0000000 ]
  distance:    0.0323429
  band:
  - # 1
    frequency:   -2.6474457041
  - # 2
    frequency:   -2.5077235202
  - # 3
    frequency:    0.4873585746
  - # 4
    frequency:    0.7965643241
  - # 5
    frequency:    1.3264163585
  - # 6
    frequency:    3.1141284076
  - # 7
    frequency:    3.2193913431
  - # 8
    frequency:    3.7993943900
  - # 9
    frequency:    4.4513379693
  - # 10
    frequency:    4.6999797316
  - # 11
    frequency:    6.5666683505
  - # 12
    frequency:    6.6400432619
  - # 13
    frequency:    6.7536871642
  - # 14
    frequency:   10.7150894632
  - # 15
    frequency:   10.7939770512
  - # 16
    frequency:   10.8518812668
  - # 17
    frequency:   14.8839506027
  - # 18
    frequency:   17.2985012342
  - # 19
    frequency:   17.4950910494
  - # 20
    frequency:   19.3104850171
  - # 21
    frequency:   64.7885799425

- q-position: [    0.1010101,    0.0000000,    0.0000000 ]
  distance:    0.0340452
  band:
  - # 1
    frequency:   -2.5978391216
  - # 2
    frequency:   -2.4460849080
  - # 3
    frequency:    0.5352688008
  - # 4
    frequency:    0.8420449463
  - # 5
    frequency:    1.3959722589
  - # 6
    frequency:    3.1170474196
  - # 7
    frequency:    3.2436027846
  - # 8
    frequency:    3.8584818186
  - # 9
    frequency:    4.4603015417
  - # 10
    frequency:    4.7303088610
  - # 11
    frequency:    6.5702908740
  - # 12
    frequency:    6.6447624144
  - # 13
    frequency:    6.7701928475
  - # 14
    frequency:   10.6943196532
  - # 15
    frequency:   10.7911626053
  - # 16
    frequency:   10.8534885646
  - # 17
    frequency:   14.8931248765
  - # 18
    frequency:   17.3000061657
  - # 19
    frequency:   17.5132994509
  - # 20
    frequency:   19.3070871275
  - # 21
    frequency:   64.7872093943

- q-position: [    0.1060606,    0.0000000,    0.0000000 ]
  distance:    0.0357474
  band:
  - # 1
    frequency:   -2.5450515080
  - # 2
    frequency:   -2.3812741411
  - # 3
    frequency:    0.5847355181
  - # 4
    frequency:    0.8880455628
  - # 5
    frequency:    1.4652344519
  - # 6
    frequency:    3.1199667202
  - # 7
    frequency:    3.2680862131
  - # 8
    frequency:    3.9168311301
  - # 9
    frequency:    4.4695014043
  - # 10
    frequency:    4.7609899893
  - # 11
    frequency:    6.5739923843
  - # 12
    frequency:    6.6492237545
  - # 13
    frequency:    6.7874708496
  - # 14
    frequency:   10.6726155976
  - # 15
    frequency:   10.7883155839
  - # 16
    frequency:   10.8553955056
  - # 17
    frequency:   14.9030384317
  - # 18
    frequency:   17.3017515888
  - # 19
    frequency:   17.5317386518
  - # 20
    frequency:   19.3036549580
  - # 21
    frequency:   64.7857708555

- q-position: [    0.1111111,    0.0000000,    0.0000000 ]
  distance:    0.0374497
  band:
  - # 1
    frequency:   -2.4889621708
  - # 2
    frequency:   -2.3132628133
  - # 3
    frequency:    0.6356575918
  - # 4
    frequency:    0.9345868236
  - # 5
    frequency:    1.5341420768
  - # 6
    frequency:    3.1228751109
  - # 7
    frequency:    3.2928228961
  - # 8
    frequency:    3.9741868312
  - # 9
    frequency:    4.4789075939
  - # 10
    frequency:    4.7918940040
  - # 11
    frequency:    6.5777611181
  - # 12
    frequency:    6.6534676300
  - # 13
    frequency:    6.8054016187
  - # 14
    frequency:   10.6500568629
  - # 15
    frequency:   10.7854501672
  - # 16
    frequency:   10.8575739404
  - # 17
    frequency:   14.9136976804
  - # 18
    frequency:   17.3037562342
  - # 19
    frequency:   17.5503218881
  - # 20
    frequency:   19.3002042390
  - # 21
    frequency:   64.7842647763

- q-position: [    0.1161616,    0.0000000,    0.0000000 ]
  distance:    0.0391520
  band:
  - # 1
    frequency:   -2.4294338075
  - # 2
    frequency:   -2.2420114935
  - # 3
    frequency:    0.6879349871
  - # 4
    frequency:    0.9816884732
  - # 5
    frequency:    1.6026314260
  - # 6
    frequency:    3.1257625741
  - # 7
    frequency:    3.3177935233
  - # 8
    frequency:    4.0303303527
  - # 9
    frequency:    4.4884898339
  - # 10
    frequency:    4.8228958957
  - # 11
    frequency:    6.5815857472
  - # 12
    frequency:    6.6575132990
  - # 13
    frequency:    6.8238855279
  - # 14
    frequency:   10.6267118249
  - # 15
    frequency:   10.7825806488
  - # 16
    frequency:   10.8600089826
  - # 17
    frequency:   14.9251031514
  - # 18
    frequency:   17.3060384644
  - # 19
    frequency:   17.5689620619
  - # 20
    frequency:   19.2967502773
  - # 21
    frequency:   64.7826916540

- q-position: [    0.1212121,    0.0000000,    0.0000000 ]
  distance:    0.0408542
  band:
  - # 1
    frequency:   -2.3663087132
  - # 2
    frequency:   -2.1674665394
  - # 3
    frequency:    0.7414686730
  - # 4
    frequency:    1.0293689590
  - # 5
    frequency:    1.6706362903
  - # 6
    frequency:    3.1286203048
  - # 7
    frequency:    3.3429790678
  - # 8
    frequency:    4.0850776650
  - # 9
    frequency:    4.4982177233
  - # 10
    frequency:    4.8538755477
  - # 11
    frequency:    6.5854555079
  - # 12
    frequency:    6.6613623546
  - # 13
    frequency:    6.8428400716
  - # 14
    frequency:   10.6026425256
  - # 15
    frequency:   10.7797213709
  - # 16
    frequency:   10.8626940028
  - # 17
    frequency:   14.9372492404
  - # 18
    frequency:   17.3086161320
  - # 19
    frequency:   17.5875721334
  - # 20
    frequency:   19.2933078147
  - # 21
    frequency:   64.7810520362

- q-position: [    0.1262626,    0.0000000,    0.0000000 ]
  distance:    0.0425565
  band:
  - # 1
    frequency:   -2.2994037748
  - # 2
    frequency:   -2.0895557916
  - # 3
    frequency:    0.7961604387
  - # 4
    frequency:    1.0776448523
  - # 5
    frequency:    1.7380883228
  - # 6
    frequency:    3.1314407287
  - # 7
    frequency:    3.3683613902
  - # 8
    frequency:    4.1382768858
  - # 9
    frequency:    4.5080609226
  - # 10
    frequency:    4.8847184349
  - # 11
    frequency:    6.5893603307
  - # 12
    frequency:    6.6650021233
  - # 13
    frequency:    6.8621971241
  - # 14
    frequency:   10.5779074176
  - # 15
    frequency:   10.7768866609
  - # 16
    frequency:   10.8656277111
  - # 17
    frequency:   14.9501240644
  - # 18
    frequency:   17.3115064408
  - # 19
    frequency:   17.6060655086
  - # 20
    frequency:   19.2898908853
  - # 21
    frequency:   64.7793465239

- q-position: [    0.1313131,    0.0000000,    0.0000000 ]
  distance:    0.0442587
  band:
  - # 1
    frequency:   -2.2285037845
  - # 2
    frequency:   -2.0081826440
  - # 3
    frequency:    0.8519126420
  - # 4
    frequency:    1.1265300283
  - # 5
    frequency:    1.8049174237
  - # 6
    frequency:    3.1342175094
  - # 7
    frequency:    3.3939236422
  - # 8
    frequency:    4.1898058867
  - # 9
    frequency:    4.5179893322
  - # 10
    frequency:    4.9153162281
  - # 11
    frequency:    6.5932909687
  - # 12
    frequency:    6.6684087016
  - # 13
    frequency:    6.8819005859
  - # 14
    frequency:   10.5525629423
  - # 15
    frequency:   10.7740907700
  - # 16
    frequency:   10.8688123791
  - # 17
    frequency:   14.9637094271
  - # 18
    frequency:   17.3147258114
  - # 19
    frequency:   17.6243564213
  - # 20
    frequency:   19.2865126746
  - # 21
    frequency:   64.7775757749

- q-position: [    0.1363636,    0.0000000,    0.0000000 ]
  distance:    0.0459610
  band:
  - # 1
    frequency:   -2.1533523807
  - # 2
    frequency:   -1.9232177238
  - # 3
    frequency:    0.9086279013
  - # 4
    frequency:    1.1760345461
  - # 5
    frequency:    1.8710521498
  - # 6
    frequency:    3.1369455477
  - # 7
    frequency:    3.4196505099
  - # 8
    frequency:    4.2395699048
  - # 9
    frequency:    4.5279732627
  - # 10
    frequency:    4.9455673021
  - # 11
    frequency:    6.5972391223
  - # 12
    frequency:    6.6715496053
  - # 13
    frequency:    6.9019044275
  - # 14
    frequency:   10.5266644415
  - # 15
    frequency:   10.7713478130
  - # 16
    frequency:   10.8722527058
  - # 17
    frequency:   14.9779808925
  - # 18
    frequency:   17.3182897514
  - # 19
    frequency:   17.6423603096
  - # 20
    frequency:   19.2831853794
  - # 21
    frequency:   64.7757405075

- q-position: [    0.1414141,    0.0000000,    0.0000000 ]
  distance:    0.0476632
  band:
  - # 1
    frequency:   -2.0736395644
  - # 2
    frequency:   -1.8344869875
  - # 3
    frequency:    0.9662087459
  - # 4
    frequency:    1.2261631698
  - # 5
    frequency:    1.9364201507
  - # 6
    frequency:    3.1396209761
  - # 7
    frequency:    3.4455283291
  - # 8
    frequency:    4.2874991675
  - # 9
    frequency:    4.5379835931
  - # 10
    frequency:    4.9753771498
  - # 11
    frequency:    6.6011975598
  - # 12
    frequency:    6.6743861005
  - # 13
    frequency:    6.9221710460
  - # 14
    frequency:   10.5002666694
  - # 15
    frequency:   10.7686717120
  - # 16
    frequency:   10.8759550575
  - # 17
    frequency:   14.9929079691
  - # 18
    frequency:   17.3222127317
  - # 19
    frequency:   17.6599941854
  - # 20
    frequency:   19.2799200720
  - # 21
    frequency:   64.7738415035

- q-position: [    0.1464646,    0.0000000,    0.0000000 ]
  distance:    0.0493655
  band:
  - # 1
    frequency:   -1.9889841484
  - # 2
    frequency:   -1.7417543246
  - # 3
    frequency:    1.0245572332
  - # 4
    frequency:    1.2769134798
  - # 5
    frequency:    2.0009486367
  - # 6
    frequency:    3.1422411530
  - # 7
    frequency:    3.4715450921
  - # 8
    frequency:    4.3335465403
  - # 9
    frequency:    4.5479919152
  - # 10
    frequency:    5.0046587048
  - # 11
    frequency:    6.6051602299
  - # 12
    frequency:    6.6768752912
  - # 13
    frequency:    6.9426698435
  - # 14
    frequency:   10.4734240585
  - # 15
    frequency:   10.7660761420
  - # 16
    frequency:   10.8799269338
  - # 17
    frequency:   15.0084543969
  - # 18
    frequency:   17.3265080705
  - # 19
    frequency:   17.6771769955
  - # 20
    frequency:   19.2767265692
  - # 21
    frequency:   64.7718796119

- q-position: [    0.1515152,    0.0000000,    0.0000000 ]
  distance:    0.0510678
  band:
  - # 1
    frequency:   -1.8989084762
  - # 2
    frequency:   -1.6446955276
  - # 3
    frequency:    1.0835745425
  - # 4
    frequency:    1.3282735489
  - # 5
    frequency:    2.0645648808
  - # 6
    frequency:    3.1448046583
  - # 7
    frequency:    3.4976903605
  - # 8
    frequency:    4.3776852093
  - # 9
    frequency:    4.5579706632
  - # 10
    frequency:    5.0333325800
  - # 11
    frequency:    6.6091223651
  - # 12
    frequency:    6.6789720157
  - # 13
    frequency:    6.9633759576
  - # 14
    frequency:   10.4461908274
  - # 15
    frequency:   10.7635744800
  - # 16
    frequency:   10.8841765715
  - # 17
    frequency:   15.0245785319
  - # 18
    frequency:   17.3311878254
  - # 19
    frequency:   17.6938299741
  - # 20
    frequency:   19.2736133078
  - # 21