nqpoint: 300    
npath: 3      
segment_nqpoint:
- 100
- 100
- 100
labels:
- [ 'G', 'M' ]
- [ 'M', 'K' ]
- [ 'K', 'G' ]
reciprocal_lattice:
- [   0.29403190,   0.16975940,   0.00000000 ] # a*
- [   0.00000000,   0.33951879,   0.00000000 ] # b*
- [   0.00000000,   0.00000000,   0.03898882 ] # c*
natom: 6      
lattice:
- [     3.400991533233515,     0.000000000000000,     0.000000000000000 ] # a
- [    -1.700495766616758,     2.945345065829406,     0.000000000000000 ] # b
- [     0.000000000000000,     0.000000000000000,    25.648376868578378 ] # c
points:
- symbol: C # 1
  coordinates: [  0.000000000000000,  0.000000000000000,  0.465384738117013 ]
  mass: 12.010700
- symbol: Cl # 2
  coordinates: [  0.666666984744047,  0.333332985985145,  0.350899397888442 ]
  mass: 35.453000
- symbol: O # 3
  coordinates: [  0.333332985432215,  0.666666983183674,  0.649100602111558 ]
  mass: 15.999400
- symbol: P # 4
  coordinates: [  0.333332985432215,  0.666666983183674,  0.590810605054814 ]
  mass: 30.973762
- symbol: Sc # 5
  coordinates: [  0.333332985432215,  0.666666983183674,  0.416541152652528 ]
  mass: 44.955912
- symbol: Sc # 6
  coordinates: [  0.666666984744047,  0.333332985985145,  0.511957212544458 ]
  mass: 44.955912

phonon:
- q-position: [    0.0000000,    0.0000000,    0.0000000 ]
  distance:    0.0000000
  band:
  - # 1
    frequency:   -0.0000018994
  - # 2
    frequency:   -0.0000000986
  - # 3
    frequency:    0.0000018075
  - # 4
    frequency:    2.2998903751
  - # 5
    frequency:    2.2998903751
  - # 6
    frequency:    4.6099313836
  - # 7
    frequency:    4.6099313836
  - # 8
    frequency:    4.8854027089
  - # 9
    frequency:    4.9955447227
  - # 10
    frequency:    4.9955447227
  - # 11
    frequency:    6.4314114806
  - # 12
    frequency:    6.4314114806
  - # 13
    frequency:    7.8080113203
  - # 14
    frequency:   11.4143249617
  - # 15
    frequency:   12.1881436629
  - # 16
    frequency:   12.1881436629
  - # 17
    frequency:   16.8218459594
  - # 18
    frequency:   34.0705895877

- q-position: [    0.0050505,    0.0000000,    0.0000000 ]
  distance:    0.0017147
  band:
  - # 1
    frequency:   -0.0320458693
  - # 2
    frequency:    0.0730518220
  - # 3
    frequency:    0.1124458645
  - # 4
    frequency:    2.3002795736
  - # 5
    frequency:    2.3004112201
  - # 6
    frequency:    4.6094265596
  - # 7
    frequency:    4.6102244034
  - # 8
    frequency:    4.8862658414
  - # 9
    frequency:    4.9954256563
  - # 10
    frequency:    4.9954721988
  - # 11
    frequency:    6.4310922462
  - # 12
    frequency:    6.4314254543
  - # 13
    frequency:    7.8089009638
  - # 14
    frequency:   11.4134309405
  - # 15
    frequency:   12.1881719550
  - # 16
    frequency:   12.1901218106
  - # 17
    frequency:   16.8208892170
  - # 18
    frequency:   34.0703485661

- q-position: [    0.0101010,    0.0000000,    0.0000000 ]
  distance:    0.0034295
  band:
  - # 1
    frequency:   -0.0464024884
  - # 2
    frequency:    0.1460498450
  - # 3
    frequency:    0.2202762069
  - # 4
    frequency:    2.3014604530
  - # 5
    frequency:    2.3019699262
  - # 6
    frequency:    4.6079558258
  - # 7
    frequency:    4.6111031698
  - # 8
    frequency:    4.8886351036
  - # 9
    frequency:    4.9950682719
  - # 10
    frequency:    4.9954370504
  - # 11
    frequency:    6.4301413715
  - # 12
    frequency:    6.4314691157
  - # 13
    frequency:    7.8115615585
  - # 14
    frequency:   11.4107561586
  - # 15
    frequency:   12.1882570637
  - # 16
    frequency:   12.1960453957
  - # 17
    frequency:   16.8180212901
  - # 18
    frequency:   34.0696260209

- q-position: [    0.0151515,    0.0000000,    0.0000000 ]
  distance:    0.0051442
  band:
  - # 1
    frequency:   -0.0620972897
  - # 2
    frequency:    0.2189395521
  - # 3
    frequency:    0.3283318434
  - # 4
    frequency:    2.3034747123
  - # 5
    frequency:    2.3045551050
  - # 6
    frequency:    4.6056408121
  - # 7
    frequency:    4.6125667752
  - # 8
    frequency:    4.8918354772
  - # 9
    frequency:    4.9944720408
  - # 10
    frequency:    4.9960106263
  - # 11
    frequency:    6.4285791016
  - # 12
    frequency:    6.4315476590
  - # 13
    frequency:    7.8159683460
  - # 14
    frequency:   11.4063217259
  - # 15
    frequency:   12.1883996894
  - # 16
    frequency:   12.2058825814
  - # 17
    frequency:   16.8132490727
  - # 18
    frequency:   34.0684235083

- q-position: [    0.0202020,    0.0000000,    0.0000000 ]
  distance:    0.0068590
  band:
  - # 1
    frequency:   -0.0771308804
  - # 2
    frequency:    0.2916649756
  - # 3
    frequency:    0.4356128992
  - # 4
    frequency:    2.3063980315
  - # 5
    frequency:    2.3081481045
  - # 6
    frequency:    4.6026564116
  - # 7
    frequency:    4.6146136118
  - # 8
    frequency:    4.8947368591
  - # 9
    frequency:    4.9936361694
  - # 10
    frequency:    4.9981776713
  - # 11
    frequency:    6.4264383945
  - # 12
    frequency:    6.4316696524
  - # 13
    frequency:    7.8220808775
  - # 14
    frequency:   11.4001605325
  - # 15
    frequency:   12.1886010081
  - # 16
    frequency:   12.2195826081
  - # 17
    frequency:   16.8065840320
  - # 18
    frequency:   34.0667436131

- q-position: [    0.0252525,    0.0000000,    0.0000000 ]
  distance:    0.0085737
  band:
  - # 1
    frequency:   -0.0903301049
  - # 2
    frequency:    0.3641679341
  - # 3
    frequency:    0.5415790337
  - # 4
    frequency:    2.3103494102
  - # 5
    frequency:    2.3127235019
  - # 6
    frequency:    4.5992005131
  - # 7
    frequency:    4.6172412255
  - # 8
    frequency:    4.8959203508
  - # 9
    frequency:    4.9925597360
  - # 10
    frequency:    5.0031997205
  - # 11
    frequency:    6.4237638079
  - # 12
    frequency:    6.4318469072
  - # 13
    frequency:    7.8298441756
  - # 14
    frequency:   11.3923143012
  - # 15
    frequency:   12.1888626847
  - # 16
    frequency:   12.2370787534
  - # 17
    frequency:   16.7980421754
  - # 18
    frequency:   34.0645899353

- q-position: [    0.0303030,    0.0000000,    0.0000000 ]
  distance:    0.0102884
  band:
  - # 1
    frequency:   -0.1007382569
  - # 2
    frequency:    0.4363872221
  - # 3
    frequency:    0.6457324132
  - # 4
    frequency:    2.3155042942
  - # 5
    frequency:    2.3182497944
  - # 6
    frequency:    4.5954668515
  - # 7
    frequency:    4.6204461026
  - # 8
    frequency:    4.8941548315
  - # 9
    frequency:    4.9912418933
  - # 10
    frequency:    5.0121648755
  - # 11
    frequency:    6.4206100571
  - # 12
    frequency:    6.4320942971
  - # 13
    frequency:    7.8391902471
  - # 14
    frequency:   11.3828302822
  - # 15
    frequency:   12.1891868886
  - # 16
    frequency:   12.2582916556
  - # 17
    frequency:   16.7876440052
  - # 18
    frequency:   34.0619670718

- q-position: [    0.0353535,    0.0000000,    0.0000000 ]
  distance:    0.0120032
  band:
  - # 1
    frequency:   -0.1073366282
  - # 2
    frequency:    0.5082577313
  - # 3
    frequency:    0.7475340439
  - # 4
    frequency:    2.3221113057
  - # 5
    frequency:    2.3246902899
  - # 6
    frequency:    4.5916253486
  - # 7
    frequency:    4.6242233797
  - # 8
    frequency:    4.8889095085
  - # 9
    frequency:    4.9896821471
  - # 10
    frequency:    5.0254939192
  - # 11
    frequency:    6.4170403423
  - # 12
    frequency:    6.4324295311
  - # 13
    frequency:    7.8500398531
  - # 14
    frequency:   11.3717581051
  - # 15
    frequency:   12.1895763102
  - # 16
    frequency:   12.2831324873
  - # 17
    frequency:   16.7754144644
  - # 18
    frequency:   34.0588805929

- q-position: [    0.0404040,    0.0000000,    0.0000000 ]
  distance:    0.0137179
  band:
  - # 1
    frequency:   -0.1088125452
  - # 2
    frequency:    0.5797094817
  - # 3
    frequency:    0.8463674615
  - # 4
    frequency:    2.3305118602
  - # 5
    frequency:    2.3320042018
  - # 6
    frequency:    4.5878099777
  - # 7
    frequency:    4.6285664652
  - # 8
    frequency:    4.8803734298
  - # 9
    frequency:    4.9878807289
  - # 10
    frequency:    5.0429317784
  - # 11
    frequency:    6.4131245501
  - # 12
    frequency:    6.4328728847
  - # 13
    frequency:    7.8623044329
  - # 14
    frequency:   11.3591471635
  - # 15
    frequency:   12.1900341766
  - # 16
    frequency:   12.3115056015
  - # 17
    frequency:   16.7613828736
  - # 18
    frequency:   34.0553370138

- q-position: [    0.0454545,    0.0000000,    0.0000000 ]
  distance:    0.0154327
  band:
  - # 1
    frequency:   -0.1031219801
  - # 2
    frequency:    0.6506665326
  - # 3
    frequency:    0.9415136463
  - # 4
    frequency:    2.3401479558
  - # 5
    frequency:    2.3411608228
  - # 6
    frequency:    4.5841118081
  - # 7
    frequency:    4.6334665512
  - # 8
    frequency:    4.8690802354
  - # 9
    frequency:    4.9858390833
  - # 10
    frequency:    5.0639284242
  - # 11
    frequency:    6.4089374318
  - # 12
    frequency:    6.4334468919
  - # 13
    frequency:    7.8758880837
  - # 14
    frequency:   11.3450447260
  - # 15
    frequency:   12.1905642629
  - # 16
    frequency:   12.3433104596
  - # 17
    frequency:   16.7455828640
  - # 18
    frequency:   34.0513437618

- q-position: [    0.0505051,    0.0000000,    0.0000000 ]
  distance:    0.0171474
  band:
  - # 1
    frequency:   -0.0860849035
  - # 2
    frequency:    0.7210457426
  - # 3
    frequency:    1.0321328818
  - # 4
    frequency:    2.3490767210
  - # 5
    frequency:    2.3546442665
  - # 6
    frequency:    4.5805743265
  - # 7
    frequency:    4.6389119914
  - # 8
    frequency:    4.8556073651
  - # 9
    frequency:    4.9835605001
  - # 10
    frequency:    5.0879429323
  - # 11
    frequency:    6.4045568450
  - # 12
    frequency:    6.4341760055
  - # 13
    frequency:    7.8906895119
  - # 14
    frequency:   11.3294948002
  - # 15
    frequency:   12.1911708973
  - # 16
    frequency:   12.3784428129
  - # 17
    frequency:   16.7280523079
  - # 18
    frequency:   34.0469091389

- q-position: [    0.0555556,    0.0000000,    0.0000000 ]
  distance:    0.0188622
  band:
  - # 1
    frequency:   -0.0408328504
  - # 2
    frequency:    0.7907553381
  - # 3
    frequency:    1.1172583471
  - # 4
    frequency:    2.3587461814
  - # 5
    frequency:    2.3716871049
  - # 6
    frequency:    4.5771884545
  - # 7
    frequency:    4.6448875084
  - # 8
    frequency:    4.8404781751
  - # 9
    frequency:    4.9810509316
  - # 10
    frequency:    5.1145448616
  - # 11
    frequency:    6.4000621328
  - # 12
    frequency:    6.4350862282
  - # 13
    frequency:    7.9066038850
  - # 14
    frequency:   11.3125376587
  - # 15
    frequency:   12.1918589553
  - # 16
    frequency:   12.4167952285
  - # 17
    frequency:   16.7088332518
  - # 18
    frequency:   34.0420422805

- q-position: [    0.0606061,    0.0000000,    0.0000000 ]
  distance:    0.0205769
  band:
  - # 1
    frequency:    0.0842392794
  - # 2
    frequency:    0.8596932483
  - # 3
    frequency:    1.1958118029
  - # 4
    frequency:    2.3691145728
  - # 5
    frequency:    2.3931393451
  - # 6
    frequency:    4.5738852545
  - # 7
    frequency:    4.6513731814
  - # 8
    frequency:    4.8241700726
  - # 9
    frequency:    4.9783200473
  - # 10
    frequency:    5.1434118870
  - # 11
    frequency:    6.3955326920
  - # 12
    frequency:    6.4362047230
  - # 13
    frequency:    7.9235245349
  - # 14
    frequency:   11.2942098795
  - # 15
    frequency:   12.1926338425
  - # 16
    frequency:   12.4582571070
  - # 17
    frequency:   16.6879718564
  - # 18
    frequency:   34.0367531104

- q-position: [    0.0656566,    0.0000000,    0.0000000 ]
  distance:    0.0222916
  band:
  - # 1
    frequency:    0.1391667267
  - # 2
    frequency:    0.9277451574
  - # 3
    frequency:    1.2666548282
  - # 4
    frequency:    2.3801450108
  - # 5
    frequency:    2.4199271394
  - # 6
    frequency:    4.5705250059
  - # 7
    frequency:    4.6583431478
  - # 8
    frequency:    4.8071515763
  - # 9
    frequency:    4.9753825965
  - # 10
    frequency:    5.1743021274
  - # 11
    frequency:    6.3910467630
  - # 12
    frequency:    6.4375594058
  - # 13
    frequency:    7.9413444809
  - # 14
    frequency:   11.2745447376
  - # 15
    frequency:   12.1935014612
  - # 16
    frequency:   12.5027143514
  - # 17
    frequency:   16.6655183486
  - # 18
    frequency:   34.0310522915

- q-position: [    0.0707071,    0.0000000,    0.0000000 ]
  distance:    0.0240064
  band:
  - # 1
    frequency:    0.1887011524
  - # 2
    frequency:    0.9947822239
  - # 3
    frequency:    1.3286856185
  - # 4
    frequency:    2.3918081410
  - # 5
    frequency:    2.4529585118
  - # 6
    frequency:    4.5668826067
  - # 7
    frequency:    4.6657639286
  - # 8
    frequency:    4.7899209647
  - # 9
    frequency:    4.9722601734
  - # 10
    frequency:    5.2070285903
  - # 11
    frequency:    6.3866804584
  - # 12
    frequency:    6.4391785294
  - # 13
    frequency:    7.9599577579
  - # 14
    frequency:   11.2535728033
  - # 15
    frequency:   12.1944681598
  - # 16
    frequency:   12.5500488299
  - # 17
    frequency:   16.6415269915
  - # 18
    frequency:   34.0249511752

- q-position: [    0.0757576,    0.0000000,    0.0000000 ]
  distance:    0.0257211
  band:
  - # 1
    frequency:    0.2371552860
  - # 2
    frequency:    1.0606584223
  - # 3
    frequency:    1.3809761581
  - # 4
    frequency:    2.4040851380
  - # 5
    frequency:    2.4929890037
  - # 6
    frequency:    4.5626322815
  - # 7
    frequency:    4.6735922606
  - # 8
    frequency:    4.7730386009
  - # 9
    frequency:    4.9689835032
  - # 10
    frequency:    5.2414406913
  - # 11
    frequency:    6.3825070339
  - # 12
    frequency:    6.4410902616
  - # 13
    frequency:    7.9792605475
  - # 14
    frequency:   11.2313226343
  - # 15
    frequency:   12.1955406626
  - # 16
    frequency:   12.6001377423
  - # 17
    frequency:   16.6160560802
  - # 18
    frequency:   34.0184617462

- q-position: [    0.0808081,    0.0000000,    0.0000000 ]
  distance:    0.0274359
  band:
  - # 1
    frequency:    0.2857315821
  - # 2
    frequency:    1.1252074740
  - # 3
    frequency:    1.4229189992
  - # 4
    frequency:    2.4169710673
  - # 5
    frequency:    2.5404782354
  - # 6
    frequency:    4.5573410484
  - # 7
    frequency:    4.6817722869
  - # 8
    frequency:    4.7571445697
  - # 9
    frequency:    4.9655954020
  - # 10
    frequency:    5.2774117917
  - # 11
    frequency:    6.3785963952
  - # 12
    frequency:    6.4433222661
  - # 13
    frequency:    7.9991521208
  - # 14
    frequency:   11.2078214785
  - # 15
    frequency:   12.1967259785
  - # 16
    frequency:   12.6528529641
  - # 17
    frequency:   16.5891679702
  - # 18
    frequency:   34.0115965666

- q-position: [    0.0858586,    0.0000000,    0.0000000 ]
  distance:    0.0291506
  band:
  - # 1
    frequency:    0.3348273142
  - # 2
    frequency:    1.1882393667
  - # 3
    frequency:    1.4543327704
  - # 4
    frequency:    2.4304785937
  - # 5
    frequency:    2.5954887084
  - # 6
    frequency:    4.5504903192
  - # 7
    frequency:    4.6902319317
  - # 8
    frequency:    4.7429441058
  - # 9
    frequency:    4.9621545845
  - # 10
    frequency:    5.3148309273
  - # 11
    frequency:    6.3750148307
  - # 12
    frequency:    6.4459012907
  - # 13
    frequency:    8.0195356065
  - # 14
    frequency:   11.1830959370
  - # 15
    frequency:   12.1980312885
  - # 16
    frequency:   12.7080604149
  - # 17
    frequency:   16.5609291495
  - # 18
    frequency:   34.0043687172

- q-position: [    0.0909091,    0.0000000,    0.0000000 ]
  distance:    0.0308653
  band:
  - # 1
    frequency:    0.3845144670
  - # 2
    frequency:    1.2495365179
  - # 3
    frequency:    1.4754836180
  - # 4
    frequency:    2.4446419634
  - # 5
    frequency:    2.6576704296
  - # 6
    frequency:    4.5415500014
  - # 7
    frequency:    4.6988782893
  - # 8
    frequency:    4.7311379037
  - # 9
    frequency:    4.9587404910
  - # 10
    frequency:    5.3535972925
  - # 11
    frequency:    6.3718249571
  - # 12
    frequency:    6.4488527682
  - # 13
    frequency:    8.0403186030
  - # 14
    frequency:   11.1571725575
  - # 15
    frequency:   12.1994638114
  - # 16
    frequency:   12.7656194696
  - # 17
    frequency:   16.5314103632
  - # 18
    frequency:   33.9967917379

- q-position: [    0.0959596,    0.0000000,    0.0000000 ]
  distance:    0.0325801
  band:
  - # 1
    frequency:    0.4346864254
  - # 2
    frequency:    1.3088497339
  - # 3
    frequency:    1.4870191977
  - # 4
    frequency:    2.4595210921
  - # 5
    frequency:    2.7263360696
  - # 6
    frequency:    4.5301081566
  - # 7
    frequency:    4.7075919363
  - # 8
    frequency:    4.7222952476
  - # 9
    frequency:    4.9554592235
  - # 10
    frequency:    5.3936165035
  - # 11
    frequency:    6.3690858687
  - # 12
    frequency:    6.4522004368
  - # 13
    frequency:    8.0614136538
  - # 14
    frequency:   11.1300783455
  - # 15
    frequency:   12.2010306487
  - # 16
    frequency:   12.8253824129
  - # 17
    frequency:   16.5006868049
  - # 18
    frequency:   33.9888795669

- q-position: [    0.1010101,    0.0000000,    0.0000000 ]
  distance:    0.0342948
  band:
  - # 1
    frequency:    0.4851032517
  - # 2
    frequency:    1.3658942630
  - # 3
    frequency:    1.4898544811
  - # 4
    frequency:    2.4752054423
  - # 5
    frequency:    2.8005896252
  - # 6
    frequency:    4.5160033180
  - # 7
    frequency:    4.7162203308
  - # 8
    frequency:    4.7167235130
  - # 9
    frequency:    4.9524504251
  - # 10
    frequency:    5.4347980001
  - # 11
    frequency:    6.3668534855
  - # 12
    frequency:    6.4559659843
  - # 13
    frequency:    8.0827386053
  - # 14
    frequency:   11.1018411912
  - # 15
    frequency:   12.2027386104
  - # 16
    frequency:   12.8871939265
  - # 17
    frequency:   16.4688383888
  - # 18
    frequency:   33.9806464797

- q-position: [    0.1060606,    0.0000000,    0.0000000 ]
  distance:    0.0360096
  band:
  - # 1
    frequency:    0.5353912063
  - # 2
    frequency:    1.4203464502
  - # 3
    frequency:    1.4850638261
  - # 4
    frequency:    2.4918171656
  - # 5
    frequency:    2.8794579133
  - # 6
    frequency:    4.4993717159
  - # 7
    frequency:    4.7144222215
  - # 8
    frequency:    4.7245710623
  - # 9
    frequency:    4.9498943346
  - # 10
    frequency:    5.4770531553
  - # 11
    frequency:    6.3651811036
  - # 12
    frequency:    6.4601687212
  - # 13
    frequency:    8.1042168642
  - # 14
    frequency:   11.0724902174
  - # 15
    frequency:   12.2045940236
  - # 16
    frequency:   12.9508905855
  - # 17
    frequency:   16.4359501190
  - # 18
    frequency:   33.9721070276

- q-position: [    0.1111111,    0.0000000,    0.0000000 ]
  distance:    0.0377243
  band:
  - # 1
    frequency:    0.5850093386
  - # 2
    frequency:    1.4718417571
  - # 3
    frequency:    1.4738202784
  - # 4
    frequency:    2.5095127242
  - # 5
    frequency:    2.9619902634
  - # 6
    frequency:    4.4805779085
  - # 7
    frequency:    4.7151534501
  - # 8
    frequency:    4.7324068681
  - # 9
    frequency:    4.9480170959
  - # 10
    frequency:    5.5202937940
  - # 11
    frequency:    6.3641201641
  - # 12
    frequency:    6.4648252867
  - # 13
    frequency:    8.1257775715
  - # 14
    frequency:   11.0420560549
  - # 15
    frequency:   12.2066025276
  - # 16
    frequency:   13.0163003363
  - # 17
    frequency:   16.4021125776
  - # 18
    frequency:   33.9632759771

- q-position: [    0.1161616,    0.0000000,    0.0000000 ]
  distance:    0.0394391
  band:
  - # 1
    frequency:    0.6331795919
  - # 2
    frequency:    1.4574021944
  - # 3
    frequency:    1.5199751800
  - # 4
    frequency:    2.5284819363
  - # 5
    frequency:    3.0473166491
  - # 6
    frequency:    4.4600895596
  - # 7
    frequency:    4.7185680581
  - # 8
    frequency:    4.7394461076
  - # 9
    frequency:    4.9470906221
  - # 10
    frequency:    5.5644308907
  - # 11
    frequency:    6.3637212712
  - # 12
    frequency:    6.4699493925
  - # 13
    frequency:    8.1473557062
  - # 14
    frequency:   11.0105710557
  - # 15
    frequency:   12.2087688586
  - # 16
    frequency:   13.0832419224
  - # 17
    frequency:   16.3674225542
  - # 18
    frequency:   33.9541682496

- q-position: [    0.1212121,    0.0000000,    0.0000000 ]
  distance:    0.0411538
  band:
  - # 1
    frequency:    0.6787668484
  - # 2
    frequency:    1.4372758094
  - # 3
    frequency:    1.5643052663
  - # 4
    frequency:    2.5489432172
  - # 5
    frequency:    3.1346711090
  - # 6
    frequency:    4.4383738166
  - # 7
    frequency:    4.7243104365
  - # 8
    frequency:    4.7453741888
  - # 9
    frequency:    4.9474215129
  - # 10
    frequency:    5.6093732563
  - # 11
    frequency:    6.3640355146
  - # 12
    frequency:    6.4755516068
  - # 13
    frequency:    8.1688921300
  - # 14
    frequency:   10.9780694529
  - # 15
    frequency:   12.2110966286
  - # 16
    frequency:   13.1515242186
  - # 17
    frequency:   16.3319838457
  - # 18
    frequency:   33.9447988627

- q-position: [    0.1262626,    0.0000000,    0.0000000 ]
  distance:    0.0428685
  band:
  - # 1
    frequency:    0.7200904463
  - # 2
    frequency:    1.4152592647
  - # 3
    frequency:    1.6043628251
  - # 4
    frequency:    2.5711338833
  - # 5
    frequency:    3.2233925801
  - # 6
    frequency:    4.4158438426
  - # 7
    frequency:    4.7320733494
  - # 8
    frequency:    4.7498712230
  - # 9
    frequency:    4.9493237376
  - # 10
    frequency:    5.6550260312
  - # 11
    frequency:    6.3651161766
  - # 12
    frequency:    6.4816391807
  - # 13
    frequency:    8.1903335831
  - # 14
    frequency:   10.9445874763
  - # 15
    frequency:   12.2135881036
  - # 16
    frequency:   13.2209454301
  - # 17
    frequency:   16.2959082578
  - # 18
    frequency:   33.9351828729

- q-position: [    0.1313131,    0.0000000,    0.0000000 ]
  distance:    0.0445833
  band:
  - # 1
    frequency:    0.7546644998
  - # 2
    frequency:    1.3937567689
  - # 3
    frequency:    1.6396648418
  - # 4
    frequency:    2.5952949655
  - # 5
    frequency:    3.3129137630
  - # 6
    frequency:    4.3928443193
  - # 7
    frequency:    4.7416141651
  - # 8
    frequency:    4.7526558377
  - # 9
    frequency:    4.9530751426
  - # 10
    frequency:    5.7012887909
  - # 11
    frequency:    6.3670209488
  - # 12
    frequency:    6.4882159201
  - # 13
    frequency:    8.2116326382
  - # 14
    frequency:   10.9101634324
  - # 15
    frequency:   12.2162439862
  - # 16
    frequency:   13.2912921096
  - # 17
    frequency:   16.2593168491
  - # 18
    frequency:   33.9253353206

- q-position: [    0.1363636,    0.0000000,    0.0000000 ]
  distance:    0.0462980
  band:
  - # 1
    frequency:    0.7789478953
  - # 2
    frequency:    1.3759678107
  - # 3
    frequency:    1.6697329036
  - # 4
    frequency:    2.6216511634
  - # 5
    frequency:    3.4027450736
  - # 6
    frequency:    4.3696565499
  - # 7
    frequency:    4.7527519711
  - # 8
    frequency:    4.7535340769
  - # 9
    frequency:    4.9588688412
  - # 10
    frequency:    5.7480530308
  - # 11
    frequency:    6.3698148369
  - # 12
    frequency:    6.4952821022
  - # 13
    frequency:    8.2327476197
  - # 14
    frequency:   10.8748377555
  - # 15
    frequency:   12.2190632076
  - # 16
    frequency:   13.3623379383
  - # 17
    frequency:   16.2223414592
  - # 18
    frequency:   33.9152711773

- q-position: [    0.1414141,    0.0000000,    0.0000000 ]
  distance:    0.0480128
  band:
  - # 1
    frequency:    0.7883893021
  - # 2
    frequency:    1.3657678981
  - # 3
    frequency:    1.6941137746
  - # 4
    frequency:    2.6503882214
  - # 5
    frequency:    3.4924575264
  - # 6
    frequency:    4.3465102329
  - # 7
    frequency:    4.7524330872
  - # 8
    frequency:    4.7653586740
  - # 9
    frequency:    4.9667797746
  - # 10
    frequency:    5.7951987392
  - # 11
    frequency:    6.3735740063
  - # 12
    frequency:    6.5028344373
  - # 13
    frequency:    8.2536424906
  - # 14
    frequency:   10.8386530362
  - # 15
    frequency:   12.2220427356
  - # 16
    frequency:   13.4338422122
  - # 17
    frequency:   16.1851265724
  - # 18
    frequency:   33.9050052953

- q-position: [    0.1464646,    0.0000000,    0.0000000 ]
  distance:    0.0497275
  band:
  - # 1
    frequency:    0.7781854499
  - # 2
    frequency:    1.3668108216
  - # 3
    frequency:    1.7123981742
  - # 4
    frequency:    2.6816315603
  - # 5
    frequency:    3.5816661386
  - # 6
    frequency:    4.3235960998
  - # 7
    frequency:    4.7494034054
  - # 8
    frequency:    4.7793501823
  - # 9
    frequency:    4.9767626133
  - # 10
    frequency:    5.8425896773
  - # 11
    frequency:    6.3783909207
  - # 12
    frequency:    6.5108660745
  - # 13
    frequency:    8.2742867128
  - # 14
    frequency:   10.8016540346
  - # 15
    frequency:   12.2251774031
  - # 16
    frequency:   13.5055479739
  - # 17
    frequency:   16.1478315701
  - # 18
    frequency:   33.8945523611

- q-position: [    0.1515152,    0.0000000,    0.0000000 ]
  distance:    0.0514422
  band:
  - # 1
    frequency:    0.7445181652
  - # 2
    frequency:    1.3810174027
  - # 3
    frequency:    1.7242331525
  - # 4
    frequency:    2.7154306173
  - # 5
    frequency:    3.6700139066
  - # 6
    frequency:    4.3010779686
  - # 7
    frequency:    4.7445912197
  - # 8
    frequency:    4.7946797300
  - # 9
    frequency:    4.9886796164
  - # 10
    frequency:    5.8900668829
  - # 11
    frequency:    6.3843812358
  - # 12
    frequency:    6.5193666499
  - # 13
    frequency:    8.2946550815
  - # 14
    frequency:   10.7638876830
  - # 15
    frequency:   12.2284597632
  - # 16
    frequency:   13.5771797290
  - # 17
    frequency:   16.1106334249
  - # 18
    frequency:   33.8839268514

- q-position: [    0.1565657,    0.0000000,    0.0000000 ]
  distance:    0.0531570
  band:
  - # 1
    frequency:    0.6847296897
  - # 2
    frequency:    1.4078096618
  - # 3
    frequency:    1.7293243280
  - # 4
    frequency:    2.7517524075
  - # 5
    frequency:    3.7571549091
  - # 6
    frequency:    4.2791054167
  - # 7
    frequency:    4.7381972802
  - # 8
    frequency:    4.8113336245
  - # 9
    frequency:    5.0023417579
  - # 10
    frequency:    5.9374398316
  - # 11
    frequency:    6.3916929988
  - # 12
    frequency:    6.5283223732
  - # 13
    frequency:    8.3147275354
  - # 14
    frequency:   10.7254030821
  - # 15
    frequency:   12.2318799752
  - # 16
    frequency:   13.6484406945
  - # 17
    frequency:   16.0737298830
  - # 18
    frequency:   33.8731429930

- q-position: [    0.1616162,    0.0000000,    0.0000000 ]
  distance:    0.0548717
  band:
  - # 1
    frequency:    0.5950242286
  - # 2
    frequency:    1.4449205096
  - # 3
    frequency:    1.7274265050
  - # 4
    frequency:    2.7904854742
  - # 5
    frequency:    3.8427320243
  - # 6
    frequency:    4.2578317129
  - # 7
    frequency:    4.7304400182
  - # 8
    frequency:    4.8293290658
  - # 9
    frequency:    5.0175455535
  - # 10
    frequency:    5.9844747421
  - # 11
    frequency:    6.4005186529
  - # 12
    frequency:    6.5377161501
  - # 13
    frequency:    8.3344889432
  - # 14
    frequency:   10.6862514978
  - # 15
    frequency:   12.2354257256
  - # 16
    frequency:   13.7190095495
  - # 17
    frequency:   16.0373431590
  - # 18
    frequency:   33.8622147270

- q-position: [    0.1666667,    0.0000000,    0.0000000 ]
  distance:    0.0565865
  band:
  - # 1
    frequency:    0.4641595631
  - # 2
    frequency:    1.4897309407
  - # 3
    frequency:    1.7183238041
  - # 4
    frequency:    2.8314526354
  - # 5
    frequency:    3.9263339534
  - # 6
    frequency:    4.2374525761
  - # 7
    frequency:    4.7215312845
  - # 8
    frequency:    4.8487134686
  - # 9
    frequency:    5.0340971679
  - # 10
    frequency:    6.0308800057
  - # 11
    frequency:    6.4111098578
  - # 12
    frequency:    6.5475277351
  - # 13
    frequency:    8.3539288659
  - # 14
    frequency:   10.6464863625
  - # 15
    frequency:   12.2390821892
  - # 16
    frequency:   13.7885367063
  - # 17
    frequency:   16.0017241193
  - # 18
    frequency:   33.8511556760

- q-position: [    0.1717172,    0.0000000,    0.0000000 ]
  distance:    0.0583012
  band:
  - # 1
    frequency:    0.2398257402
  - # 2
    frequency:    1.5400315842
  - # 3
    frequency:    1.7018021583
  - # 4
    frequency:    2.8744289864
  - # 5
    frequency:    4.0073625271
  - # 6
    frequency:    4.2183351752
  - # 7
    frequency:    4.7116644389
  - # 8
    frequency:    4.8695645842
  - # 9
    frequency:    5.0518240666
  - # 10
    frequency:    6.0762903047
  - # 11
    frequency:    6.4237935518
  - # 12
    frequency:    6.5577339123
  - # 13
    frequency:    8.3730412937
  - # 14
    frequency:   10.6061632852
  - # 15
    frequency:   12.2428320307
  - # 16
    frequency:   13.8566402049
  - # 17
    frequency:   15.9671568466
  - # 18
    frequency:   33.8399791160

- q-position: [    0.1767677,    0.0000000,    0.0000000 ]
  distance:    0.0600159
  band:
  - # 1
    frequency:   -0.3415741845
  - # 2
    frequency:    1.5941810438
  - # 3
    frequency:    1.6776171411
  - # 4
    frequency:    2.9191611486
  - # 5
    frequency:    4.0843214621
  - # 6
    frequency:    4.2017268472
  - # 7
    frequency:    4.7010108306
  - # 8
    frequency:    4.8919905064
  - # 9
    frequency:    5.0705781740
  - # 10
    frequency:    6.1202547966
  - # 11
    frequency:    6.4389838688
  - # 12
    frequency:    6.5683086958
  - # 13
    frequency:    8.3918243556
  - # 14