nqpoint: 300    
npath: 3      
segment_nqpoint:
- 100
- 100
- 100
labels:
- [ 'G', 'M' ]
- [ 'M', 'K' ]
- [ 'K', 'G' ]
reciprocal_lattice:
- [   0.30212556,   0.17443228,   0.00000000 ] # a*
- [   0.00000000,   0.34886455,   0.00000000 ] # b*
- [   0.00000000,   0.00000000,   0.03900552 ] # c*
natom: 7      
lattice:
- [     3.309882109845101,     0.000000000000000,     0.000000000000000 ] # a
- [    -1.654941054922551,     2.866441990651852,     0.000000000000000 ] # b
- [     0.000000000000000,     0.000000000000000,    25.637398581362731 ] # c
points:
- symbol: C # 1
  coordinates: [  0.333332985432215,  0.666666983183674,  0.602490677112236 ]
  mass: 12.010700
- symbol: F # 2
  coordinates: [  0.666666984744047,  0.333332985985144,  0.351049657844092 ]
  mass: 18.998403
- symbol: N # 3
  coordinates: [  0.000000000000000,  0.000000000000000,  0.434207529985167 ]
  mass: 14.006700
- symbol: N # 4
  coordinates: [  0.333332985432215,  0.666666983183674,  0.648950342155908 ]
  mass: 14.006700
- symbol: S # 5
  coordinates: [  0.333332985432215,  0.666666983183674,  0.537001581354980 ]
  mass: 32.065000
- symbol: Ti # 6
  coordinates: [  0.333332985432215,  0.666666983183674,  0.397151296338078 ]
  mass: 47.867000
- symbol: Ti # 7
  coordinates: [  0.666666984744047,  0.333332985985144,  0.476628125023096 ]
  mass: 47.867000

phonon:
- q-position: [    0.0000000,    0.0000000,    0.0000000 ]
  distance:    0.0000000
  band:
  - # 1
    frequency:   -0.0000165246
  - # 2
    frequency:   -0.0000001742
  - # 3
    frequency:    0.0000138041
  - # 4
    frequency:    1.0929419904
  - # 5
    frequency:    1.0929419905
  - # 6
    frequency:    4.4318702370
  - # 7
    frequency:    4.4318702371
  - # 8
    frequency:    6.1809633019
  - # 9
    frequency:    6.1869269887
  - # 10
    frequency:    6.1869269887
  - # 11
    frequency:    8.3854395081
  - # 12
    frequency:    8.3854395081
  - # 13
    frequency:   10.0325853446
  - # 14
    frequency:   11.1883114576
  - # 15
    frequency:   11.1883114576
  - # 16
    frequency:   12.5007813911
  - # 17
    frequency:   14.7936160200
  - # 18
    frequency:   15.5146704368
  - # 19
    frequency:   15.5146704368
  - # 20
    frequency:   20.2757753746
  - # 21
    frequency:   64.7294302297

- q-position: [    0.0050505,    0.0000000,    0.0000000 ]
  distance:    0.0017619
  band:
  - # 1
    frequency:    0.0021347085
  - # 2
    frequency:    0.0631729056
  - # 3
    frequency:    0.1152476055
  - # 4
    frequency:    1.0934985358
  - # 5
    frequency:    1.0960689568
  - # 6
    frequency:    4.4321231472
  - # 7
    frequency:    4.4330971293
  - # 8
    frequency:    6.1770277015
  - # 9
    frequency:    6.1866910822
  - # 10
    frequency:    6.1912372405
  - # 11
    frequency:    8.3852191161
  - # 12
    frequency:    8.3855803826
  - # 13
    frequency:   10.0322280127
  - # 14
    frequency:   11.1879704978
  - # 15
    frequency:   11.1883196671
  - # 16
    frequency:   12.5000203957
  - # 17
    frequency:   14.7930091707
  - # 18
    frequency:   15.5145786319
  - # 19
    frequency:   15.5147461562
  - # 20
    frequency:   20.2756635994
  - # 21
    frequency:   64.7293403832

- q-position: [    0.0101010,    0.0000000,    0.0000000 ]
  distance:    0.0035239
  band:
  - # 1
    frequency:    0.0085146613
  - # 2
    frequency:    0.1262133543
  - # 3
    frequency:    0.2301576415
  - # 4
    frequency:    1.0951760807
  - # 5
    frequency:    1.1054411460
  - # 6
    frequency:    4.4328800253
  - # 7
    frequency:    4.4367668184
  - # 8
    frequency:    6.1713235062
  - # 9
    frequency:    6.1859841729
  - # 10
    frequency:    6.1980681546
  - # 11
    frequency:    8.3845581345
  - # 12
    frequency:    8.3860014655
  - # 13
    frequency:   10.0311566774
  - # 14
    frequency:   11.1869493636
  - # 15
    frequency:   11.1883452951
  - # 16
    frequency:   12.4977375431
  - # 17
    frequency:   14.7911895827
  - # 18
    frequency:   15.5143044978
  - # 19
    frequency:   15.5149731887
  - # 20
    frequency:   20.2753285219
  - # 21
    frequency:   64.7290709956

- q-position: [    0.0151515,    0.0000000,    0.0000000 ]
  distance:    0.0052858
  band:
  - # 1
    frequency:    0.0190650789
  - # 2
    frequency:    0.1889855385
  - # 3
    frequency:    0.3443641148
  - # 4
    frequency:    1.0979987593
  - # 5
    frequency:    1.1210424136
  - # 6
    frequency:    4.4341353225
  - # 7
    frequency:    4.4428465376
  - # 8
    frequency:    6.1655251999
  - # 9
    frequency:    6.1848087015
  - # 10
    frequency:    6.2057535430
  - # 11
    frequency:    8.3834571494
  - # 12
    frequency:    8.3866981429
  - # 13
    frequency:   10.0293733224
  - # 14
    frequency:   11.1852532798
  - # 15
    frequency:   11.1883913240
  - # 16
    frequency:   12.4939332611
  - # 17
    frequency:   14.7881601704
  - # 18
    frequency:   15.5138518224
  - # 19
    frequency:   15.5153511537
  - # 20
    frequency:   20.2747708847
  - # 21
    frequency:   64.7286225225

- q-position: [    0.0202020,    0.0000000,    0.0000000 ]
  distance:    0.0070478
  band:
  - # 1
    frequency:    0.0336710595
  - # 2
    frequency:    0.2513467553
  - # 3
    frequency:    0.4574398188
  - # 4
    frequency:    1.1020081659
  - # 5
    frequency:    1.1428788216
  - # 6
    frequency:    4.4358798158
  - # 7
    frequency:    4.4512823220
  - # 8
    frequency:    6.1596705402
  - # 9
    frequency:    6.1831687699
  - # 10
    frequency:    6.2142694823
  - # 11
    frequency:    8.3819171452
  - # 12
    frequency:    8.3876627540
  - # 13
    frequency:   10.0268812631
  - # 14
    frequency:   11.1828909210
  - # 15
    frequency:   11.1884626694
  - # 16
    frequency:   12.4886083498
  - # 17
    frequency:   14.7839259069
  - # 18
    frequency:   15.5132267406
  - # 19
    frequency:   15.5158794068
  - # 20
    frequency:   20.2739919226
  - # 21
    frequency:   64.7279957214

- q-position: [    0.0252525,    0.0000000,    0.0000000 ]
  distance:    0.0088097
  band:
  - # 1
    frequency:    0.0521879206
  - # 2
    frequency:    0.3131434924
  - # 3
    frequency:    0.5688549940
  - # 4
    frequency:    1.1072654629
  - # 5
    frequency:    1.1710269715
  - # 6
    frequency:    4.4381006469
  - # 7
    frequency:    4.4619999394
  - # 8
    frequency:    6.1537004403
  - # 9
    frequency:    6.1810701910
  - # 10
    frequency:    6.2236944452
  - # 11
    frequency:    8.3799395178
  - # 12
    frequency:    8.3888846334
  - # 13
    frequency:   10.0236851612
  - # 14
    frequency:   11.1798743605
  - # 15
    frequency:   11.1885660986
  - # 16
    frequency:   12.4817641103
  - # 17
    frequency:   14.7784939892
  - # 18
    frequency:   15.5124374770
  - # 19
    frequency:   15.5165570246
  - # 20
    frequency:   20.2729933565
  - # 21
    frequency:   64.7271916504

- q-position: [    0.0303030,    0.0000000,    0.0000000 ]
  distance:    0.0105717
  band:
  - # 1
    frequency:    0.0744525828
  - # 2
    frequency:    0.3742069846
  - # 3
    frequency:    0.6779252356
  - # 4
    frequency:    1.1138544043
  - # 5
    frequency:    1.2056983096
  - # 6
    frequency:    4.4407813762
  - # 7
    frequency:    4.4749061238
  - # 8
    frequency:    6.1475565668
  - # 9
    frequency:    6.1785205561
  - # 10
    frequency:    6.2341117229
  - # 11
    frequency:    8.3775260907
  - # 12
    frequency:    8.3903501709
  - # 13
    frequency:   10.0197910420
  - # 14
    frequency:   11.1762189997
  - # 15
    frequency:   11.1887101205
  - # 16
    frequency:   12.4734025189
  - # 17
    frequency:   14.7718740560
  - # 18
    frequency:   15.5114940022
  - # 19
    frequency:   15.5173827839
  - # 20
    frequency:   20.2717773867
  - # 21
    frequency:   64.7262116650

- q-position: [    0.0353535,    0.0000000,    0.0000000 ]
  distance:    0.0123336
  band:
  - # 1
    frequency:    0.1002935159
  - # 2
    frequency:    0.4343481570
  - # 3
    frequency:    0.7837548674
  - # 4
    frequency:    1.1218852759
  - # 5
    frequency:    1.2473091996
  - # 6
    frequency:    4.4439020539
  - # 7
    frequency:    4.4898900468
  - # 8
    frequency:    6.1411973243
  - # 9
    frequency:    6.1755293188
  - # 10
    frequency:    6.2455934721
  - # 11
    frequency:    8.3746791369
  - # 12
    frequency:    8.3920428881
  - # 13
    frequency:   10.0152063181
  - # 14
    frequency:   11.1719434778
  - # 15
    frequency:   11.1889048479
  - # 16
    frequency:   12.4635264417
  - # 17
    frequency:   14.7640784436
  - # 18
    frequency:   15.5104076206
  - # 19
    frequency:   15.5183551361
  - # 20
    frequency:   20.2703466836
  - # 21
    frequency:   64.7250574148

- q-position: [    0.0404040,    0.0000000,    0.0000000 ]
  distance:    0.0140955
  band:
  - # 1
    frequency:    0.1295381861
  - # 2
    frequency:    0.4933520390
  - # 3
    frequency:    0.8852067965
  - # 4
    frequency:    1.1314995988
  - # 5
    frequency:    1.2965231310
  - # 6
    frequency:    4.4474393073
  - # 7
    frequency:    4.5068249549
  - # 8
    frequency:    6.1346013334
  - # 9
    frequency:    6.1721078902
  - # 10
    frequency:    6.2581972802
  - # 11
    frequency:    8.3714014049
  - # 12
    frequency:    8.3939435319
  - # 13
    frequency:   10.0099398137
  - # 14
    frequency:   11.1670695625
  - # 15
    frequency:   11.1891618358
  - # 16
    frequency:   12.4521398829
  - # 17
    frequency:   14.7551224653
  - # 18
    frequency:   15.5091905083
  - # 19
    frequency:   15.5194721757
  - # 20
    frequency:   20.2687043766
  - # 21
    frequency:   64.7237308390

- q-position: [    0.0454545,    0.0000000,    0.0000000 ]
  distance:    0.0158575
  band:
  - # 1
    frequency:    0.1620178273
  - # 2
    frequency:    0.5509720899
  - # 3
    frequency:    0.9809787143
  - # 4
    frequency:    1.1428751078
  - # 5
    frequency:    1.3541839106
  - # 6
    frequency:    4.4513664473
  - # 7
    frequency:    4.5255698987
  - # 8
    frequency:    6.1277675528
  - # 9
    frequency:    6.1682697452
  - # 10
    frequency:    6.2719661031
  - # 11
    frequency:    8.3676961490
  - # 12
    frequency:    8.3960301842
  - # 13
    frequency:   10.0040017925
  - # 14
    frequency:   11.1616220214
  - # 15
    frequency:   11.1894939010
  - # 16
    frequency:   12.4392482606
  - # 17
    frequency:   14.7450246960
  - # 18
    frequency:   15.5078552228
  - # 19
    frequency:   15.5207316061
  - # 20
    frequency:   20.2668540417
  - # 21
    frequency:   64.7222341615

- q-position: [    0.0505051,    0.0000000,    0.0000000 ]
  distance:    0.0176194
  band:
  - # 1
    frequency:    0.1975699439
  - # 2
    frequency:    0.6069255410
  - # 3
    frequency:    1.0698987629
  - # 4
    frequency:    1.1562298587
  - # 5
    frequency:    1.4210264285
  - # 6
    frequency:    4.4556535938
  - # 7
    frequency:    4.5459714805
  - # 8
    frequency:    6.1207142699
  - # 9
    frequency:    6.1640305326
  - # 10
    frequency:    6.2869293526
  - # 11
    frequency:    8.3635671634
  - # 12
    frequency:    8.3982783883
  - # 13
    frequency:    9.9974039845
  - # 14
    frequency:   11.1556284757
  - # 15
    frequency:   11.1899149252
  - # 16
    frequency:   12.4248587007
  - # 17
    frequency:   14.7338072455
  - # 18
    frequency:   15.5064142065
  - # 19
    frequency:   15.5221307003
  - # 20
    frequency:   20.2647996868
  - # 21
    frequency:   64.7205698849

- q-position: [    0.0555556,    0.0000000,    0.0000000 ]
  distance:    0.0193814
  band:
  - # 1
    frequency:    0.2360391976
  - # 2
    frequency:    0.6608919628
  - # 3
    frequency:    1.1514264946
  - # 4
    frequency:    1.1718232256
  - # 5
    frequency:    1.4971794698
  - # 6
    frequency:    4.4602678212
  - # 7
    frequency:    4.5678655560
  - # 8
    frequency:    6.1134777626
  - # 9
    frequency:    6.1594081869
  - # 10
    frequency:    6.3031043309
  - # 11
    frequency:    8.3590188198
  - # 12
    frequency:    8.4006612910
  - # 13
    frequency:    9.9901596133
  - # 14
    frequency:   11.1491192365
  - # 15
    frequency:   11.1904396467
  - # 16
    frequency:   12.4089803420
  - # 17
    frequency:   14.7214960033
  - # 18
    frequency:   15.5048793054
  - # 19
    frequency:   15.5236662601
  - # 20
    frequency:   20.2625457359
  - # 21
    frequency:   64.7187407844

- q-position: [    0.0606061,    0.0000000,    0.0000000 ]
  distance:    0.0211433
  band:
  - # 1
    frequency:    0.2772773161
  - # 2
    frequency:    0.7125187646
  - # 3
    frequency:    1.1899500597
  - # 4
    frequency:    1.2260152299
  - # 5
    frequency:    1.5818050138
  - # 6
    frequency:    4.4651733282
  - # 7
    frequency:    4.5910788353
  - # 8
    frequency:    6.1061109832
  - # 9
    frequency:    6.1544230344
  - # 10
    frequency:    6.3204976632
  - # 11
    frequency:    8.3540561091
  - # 12
    frequency:    8.4031498014
  - # 13
    frequency:    9.9822834191
  - # 14
    frequency:   11.1421271249
  - # 15
    frequency:   11.1910834458
  - # 16
    frequency:   12.3916246437
  - # 17
    frequency:   14.7081208398
  - # 18
    frequency:   15.5032613227
  - # 19
    frequency:   15.5253345722
  - # 20
    frequency:   20.2600970126
  - # 21
    frequency:   64.7167499003

- q-position: [    0.0656566,    0.0000000,    0.0000000 ]
  distance:    0.0229052
  band:
  - # 1
    frequency:    0.3211425265
  - # 2
    frequency:    0.7614386533
  - # 3
    frequency:    1.2109229634
  - # 4
    frequency:    1.2949441681
  - # 5
    frequency:    1.6732662516
  - # 6
    frequency:    4.4703316309
  - # 7
    frequency:    4.6154303427
  - # 8
    frequency:    6.0986824120
  - # 9
    frequency:    6.1490978894
  - # 10
    frequency:    6.3391065742
  - # 11
    frequency:    8.3486846848
  - # 12
    frequency:    8.4057127647
  - # 13
    frequency:    9.9737916787
  - # 14
    frequency:   11.1346872764
  - # 15
    frequency:   11.1918621263
  - # 16
    frequency:   12.3728056880
  - # 17
    frequency:   14.6937157523
  - # 18
    frequency:   15.5015696242
  - # 19
    frequency:   15.5271313638
  - # 20
    frequency:   20.2574587213
  - # 21
    frequency:   64.7146005300

- q-position: [    0.0707071,    0.0000000,    0.0000000 ]
  distance:    0.0246672
  band:
  - # 1
    frequency:    0.3674988436
  - # 2
    frequency:    0.8073036275
  - # 3
    frequency:    1.2350380907
  - # 4
    frequency:    1.3597670700
  - # 5
    frequency:    1.7696780105
  - # 6
    frequency:    4.4757017834
  - # 7
    frequency:    4.6407327128
  - # 8
    frequency:    6.0912751267
  - # 9
    frequency:    6.1434581328
  - # 10
    frequency:    6.3589199543
  - # 11
    frequency:    8.3429109098
  - # 12
    frequency:    8.4083171526
  - # 13
    frequency:    9.9647022193
  - # 14
    frequency:   11.1268369313
  - # 15
    frequency:   11.1927916991
  - # 16
    frequency:   12.3525404700
  - # 17
    frequency:   14.6783189452
  - # 18
    frequency:   15.4998118093
  - # 19
    frequency:   15.5290517574
  - # 20
    frequency:   20.2546364278
  - # 21
    frequency:   64.7122962200

- q-position: [    0.0757576,    0.0000000,    0.0000000 ]
  distance:    0.0264291
  band:
  - # 1
    frequency:    0.4162154005
  - # 2
    frequency:    0.8498354410
  - # 3
    frequency:    1.2625245288
  - # 4
    frequency:    1.4218547528
  - # 5
    frequency:    1.8693627449
  - # 6
    frequency:    4.4812406292
  - # 7
    frequency:    4.6667933168
  - # 8
    frequency:    6.0839860708
  - # 9
    frequency:    6.1375317662
  - # 10
    frequency:    6.3799192144
  - # 11
    frequency:    8.3367419042
  - # 12
    frequency:    8.4109282681
  - # 13
    frequency:    9.9550344242
  - # 14
    frequency:   11.1186152126
  - # 15
    frequency:   11.1938881696
  - # 16
    frequency:   12.3308491700
  - # 17
    frequency:   14.6619728398
  - # 18
    frequency:   15.4979934556
  - # 19
    frequency:   15.5310902264
  - # 20
    frequency:   20.2516360399
  - # 21
    frequency:   64.7098407565

- q-position: [    0.0808081,    0.0000000,    0.0000000 ]
  distance:    0.0281911
  band:
  - # 1
    frequency:    0.4671658998
  - # 2
    frequency:    0.8888826351
  - # 3
    frequency:    1.2934871527
  - # 4
    frequency:    1.4822269255
  - # 5
    frequency:    1.9710168581
  - # 6
    frequency:    4.4869030841
  - # 7
    frequency:    4.6934152346
  - # 8
    frequency:    6.0769254710
  - # 9
    frequency:    6.1313494353
  - # 10
    frequency:    6.4020789521
  - # 11
    frequency:    8.3301855950
  - # 12
    frequency:    8.4135099661
  - # 13
    frequency:    9.9448092304
  - # 14
    frequency:   11.1100628927
  - # 15
    frequency:   11.1951673331
  - # 16
    frequency:   12.3077554003
  - # 17
    frequency:   14.6447240114
  - # 18
    frequency:   15.4961179448
  - # 19
    frequency:   15.5332405521
  - # 20
    frequency:   20.2484637858
  - # 21
    frequency:   64.7072381557

- q-position: [    0.0858586,    0.0000000,    0.0000000 ]
  distance:    0.0299530
  band:
  - # 1
    frequency:    0.5202282043
  - # 2
    frequency:    0.9244638482
  - # 3
    frequency:    1.3278632391
  - # 4
    frequency:    1.5415738491
  - # 5
    frequency:    2.0736870735
  - # 6
    frequency:    4.4926424551
  - # 7
    frequency:    4.7203981116
  - # 8
    frequency:    6.0702163307
  - # 9
    frequency:    6.1249444139
  - # 10
    frequency:    6.4253674603
  - # 11
    frequency:    8.3232507658
  - # 12
    frequency:    8.4160248897
  - # 13
    frequency:    9.9340491146
  - # 14
    frequency:   11.1012221504
  - # 15
    frequency:   11.1966445801
  - # 16
    frequency:   12.2832864255
  - # 17
    frequency:   14.6266230546
  - # 18
    frequency:   15.4941863679
  - # 19
    frequency:   15.5354957828
  - # 20
    frequency:   20.2451261932
  - # 21
    frequency:   64.7044926538

- q-position: [    0.0909091,    0.0000000,    0.0000000 ]
  distance:    0.0317150
  band:
  - # 1
    frequency:    0.5752840465
  - # 2
    frequency:    0.9567763875
  - # 3
    frequency:    1.3654138472
  - # 4
    frequency:    1.6003377657
  - # 5
    frequency:    2.1766870437
  - # 6
    frequency:    4.4984107987
  - # 7
    frequency:    4.7475389598
  - # 8
    frequency:    6.0639939057
  - # 9
    frequency:    6.1183525410
  - # 10
    frequency:    6.4497471123
  - # 11
    frequency:    8.3159471067
  - # 12
    frequency:    8.4184347206
  - # 13
    frequency:    9.9227780682
  - # 14
    frequency:   11.0921363206
  - # 15
    frequency:   11.1983347133
  - # 16
    frequency:   12.2574733508
  - # 17
    frequency:   14.6077243817
  - # 18
    frequency:   15.4921975104
  - # 19
    frequency:   15.5378481967
  - # 20
    frequency:   20.2416300671
  - # 21
    frequency:   64.7016086961

- q-position: [    0.0959596,    0.0000000,    0.0000000 ]
  distance:    0.0334769
  band:
  - # 1
    frequency:    0.6322188281
  - # 2
    frequency:    0.9861636794
  - # 3
    frequency:    1.4057563477
  - # 4
    frequency:    1.6587908881
  - # 5
    frequency:    2.2795174900
  - # 6
    frequency:    4.5041593186
  - # 7
    frequency:    4.7746329936
  - # 8
    frequency:    6.0584050520
  - # 9
    frequency:    6.1116121047
  - # 10
    frequency:    6.4751746558
  - # 11
    frequency:    8.3082852632
  - # 12
    frequency:    8.4207004452
  - # 13
    frequency:    9.9110215584
  - # 14
    frequency:   11.0828496382
  - # 15
    frequency:   11.2002517762
  - # 16
    frequency:   12.2303512782
  - # 17
    frequency:   14.5880859599
  - # 18
    frequency:   15.4901479093
  - # 19
    frequency:   15.5402892684
  - # 20
    frequency:   20.2379824677
  - # 21
    frequency:   64.6985909258

- q-position: [    0.1010101,    0.0000000,    0.0000000 ]
  distance:    0.0352388
  band:
  - # 1
    frequency:    0.6909214757
  - # 2
    frequency:    1.0130557092
  - # 3
    frequency:    1.4484239841
  - # 4
    frequency:    1.7170935157
  - # 5
    frequency:    2.3818063552
  - # 6
    frequency:    4.5098388081
  - # 7
    frequency:    4.8014746099
  - # 8
    frequency:    6.0536073158
  - # 9
    frequency:    6.1047636653
  - # 10
    frequency:    6.5016014413
  - # 11
    frequency:    8.3002768828
  - # 12
    frequency:    8.4227826354
  - # 13
    frequency:    9.8988064762
  - # 14
    frequency:   11.0734069783
  - # 15
    frequency:   11.2024088939
  - # 16
    frequency:   12.2019594300
  - # 17
    frequency:   14.5677689971
  - # 18
    frequency:   15.4880319768
  - # 19
    frequency:   15.5428096403
  - # 20
    frequency:   20.2341906881
  - # 21
    frequency:   64.6954441725

- q-position: [    0.1060606,    0.0000000,    0.0000000 ]
  distance:    0.0370008
  band:
  - # 1
    frequency:    0.7512843273
  - # 2
    frequency:    1.0379063820
  - # 3
    frequency:    1.4929285320
  - # 4
    frequency:    1.7753334950
  - # 5
    frequency:    2.4832677768
  - # 6
    frequency:    4.5154001357
  - # 7
    frequency:    4.8278586511
  - # 8
    frequency:    6.0497676225
  - # 9
    frequency:    6.0978498120
  - # 10
    frequency:    6.5289736092
  - # 11
    frequency:    8.2919346599
  - # 12
    frequency:    8.4246417442
  - # 13
    frequency:    9.8861610689
  - # 14
    frequency:   11.0638535957
  - # 15
    frequency:   11.2048181243
  - # 16
    frequency:   12.1723412410
  - # 17
    frequency:   14.5468375843
  - # 18
    frequency:   15.4858421792
  - # 19
    frequency:   15.5453991006
  - # 20
    frequency:   20.2302622316
  - # 21
    frequency:   64.6921734399

- q-position: [    0.1111111,    0.0000000,    0.0000000 ]
  distance:    0.0387627
  band:
  - # 1
    frequency:    0.8132030261
  - # 2
    frequency:    1.0611458981
  - # 3
    frequency:    1.5388079607
  - # 4
    frequency:    1.8335520575
  - # 5
    frequency:    2.5836748572
  - # 6
    frequency:    4.5207947746
  - # 7
    frequency:    4.8535820975
  - # 8
    frequency:    6.0470604098
  - # 9
    frequency:    6.0909148500
  - # 10
    frequency:    6.5572322538
  - # 11
    frequency:    8.2832723760
  - # 12
    frequency:    8.4262384160
  - # 13
    frequency:    9.8731148576
  - # 14
    frequency:   11.0542348642
  - # 15
    frequency:   11.2074903159
  - # 16
    frequency:   12.1415444231
  - # 17
    frequency:   14.5253583055
  - # 18
    frequency:   15.4835692616
  - # 19
    frequency:   15.5480465664
  - # 20
    frequency:   20.2262047892
  - # 21
    frequency:   64.6887838938

- q-position: [    0.1161616,    0.0000000,    0.0000000 ]
  distance:    0.0405247
  band:
  - # 1
    frequency:    0.8765764103
  - # 2
    frequency:    1.0831538214
  - # 3
    frequency:    1.5856534150
  - # 4
    frequency:    1.8917605439
  - # 5
    frequency:    2.6828417220
  - # 6
    frequency:    4.5259753740
  - # 7
    frequency:    4.8784463394
  - # 8
    frequency:    6.0456650599
  - # 9
    frequency:    6.0840044137
  - # 10
    frequency:    6.5863135781
  - # 11
    frequency:    8.2743049359
  - # 12
    frequency:    8.4275338116
  - # 13
    frequency:    9.8596985400
  - # 14
    frequency:   11.0445960201
  - # 15
    frequency:   11.2104349694
  - # 16
    frequency:   12.1096210066
  - # 17
    frequency:   14.5033998244
  - # 18
    frequency:   15.4812025082
  - # 19
    frequency:   15.5507400748
  - # 20
    frequency:   20.2220262171
  - # 21
    frequency:   64.6852808492

- q-position: [    0.1212121,    0.0000000,    0.0000000 ]
  distance:    0.0422866
  band:
  - # 1
    frequency:    0.9413063878
  - # 2
    frequency:    1.1042494562
  - # 3
    frequency:    1.6331189003
  - # 4
    frequency:    1.9499512281
  - # 5
    frequency:    2.7806116465
  - # 6
    frequency:    4.5308963687
  - # 7
    frequency:    4.9022601485
  - # 8
    frequency:    6.0457625125
  - # 9
    frequency:    6.0771650081
  - # 10
    frequency:    6.6161490521
  - # 11
    frequency:    8.2650483982
  - # 12
    frequency:    8.4284899469
  - # 13
    frequency:    9.8459438771
  - # 14
    frequency:   11.0349819103
  - # 15
    frequency:   11.2136600940
  - # 16
    frequency:   12.0766273657
  - # 17
    frequency:   14.4810324568
  - # 18
    frequency:   15.4787300274
  - # 19
    frequency:   15.5534667819
  - # 20
    frequency:   20.2177345142
  - # 21
    frequency:   64.6816697573

- q-position: [    0.1262626,    0.0000000,    0.0000000 ]
  distance:    0.0440486
  band:
  - # 1
    frequency:    1.0072977945
  - # 2
    frequency:    1.1246931358
  - # 3
    frequency:    1.6809200652
  - # 4
    frequency:    2.0081043535
  - # 5
    frequency:    2.8768491264
  - # 6
    frequency:    4.5355146191
  - # 7
    frequency:    4.9248434110
  - # 8
    frequency:    6.0475310066
  - # 9
    frequency:    6.0704434799
  - # 10
    frequency:    6.6466655808
  - # 11
    frequency:    8.2555199993
  - # 12
    frequency:    8.4290700461
  - # 13
    frequency:    9.8318835659
  - # 14
    frequency:   11.0254367481
  - # 15
    frequency:   11.2171720504
  - # 16
    frequency:   12.0426242396
  - # 17
    frequency:   14.4583277382
  - # 18
    frequency:   15.4761390528
  - # 19
    frequency:   15.5562129689
  - # 20
    frequency:   20.2133378002
  - # 21
    frequency:   64.6779561922

- q-position: [    0.1313131,    0.0000000,    0.0000000 ]
  distance:    0.0458105
  band:
  - # 1
    frequency:    1.0744582333
  - # 2
    frequency:    1.1446928374
  - # 3
    frequency:    1.7288276646
  - # 4
    frequency:    2.0661927361
  - # 5
    frequency:    2.9714345250
  - # 6
    frequency:    4.5397900727
  - # 7
    frequency:    4.9460315807
  - # 8
    frequency:    6.0511410026
  - # 9
    frequency:    6.0638864258
  - # 10
    frequency:    6.6777856891
  - # 11
    frequency:    8.2457381694
  - # 12
    frequency:    8.4292389076
  - # 13
    frequency:    9.8175510979
  - # 14
    frequency:   11.0160038785
  - # 15
    frequency:   11.2209753646
  - # 16
    frequency:   12.0076767632
  - # 17
    frequency:   14.4353579928
  - # 18
    frequency:   15.4734162496
  - # 19
    frequency:   15.5589640581
  - # 20
    frequency:   20.2088442929
  - # 21
    frequency:   64.6741458378

- q-position: [    0.1363636,    0.0000000,    0.0000000 ]
  distance:    0.0475724
  band:
  - # 1
    frequency:    1.1426978967
  - # 2
    frequency:    1.1644124993
  - # 3
    frequency:    1.7766593250
  - # 4
    frequency:    2.1241847901
  - # 5
    frequency:    3.0642604255
  - # 6
    frequency:    4.5436864342
  - # 7
    frequency:    4.9656806785
  - # 8
    frequency:    6.0567494734
  - # 9
    frequency:    6.0575395463
  - # 10
    frequency:    6.7094277251
  - # 11
    frequency:    8.2357225405
  - # 12
    frequency:    8.4289632817
  - # 13
    frequency:    9.8029806054
  - # 14
    frequency:   11.0067255555
  - # 15
    frequency:   11.2250724934
  - # 16
    frequency:   11.9718545284
  - # 17
    frequency:   14.4121959110
  - # 18
    frequency:   15.4705480208
  - # 19
    frequency:   15.5617046368
  - # 20
    frequency:   20.2042622874
  - # 21
    frequency:   64.6702444741

- q-position: [    0.1414141,    0.0000000,    0.0000000 ]
  distance:    0.0493344
  band:
  - # 1
    frequency:    1.1839801225
  - # 2
    frequency:    1.2119293738
  - # 3
    frequency:    1.8242715269
  - # 4
    frequency:    2.1820465247
  - # 5
    frequency:    3.1552291215
  - # 6
    frequency:    4.5471718289
  - # 7
    frequency:    4.9836725058
  - # 8
    frequency:    6.0514469606
  - # 9
    frequency:    6.0644939135
  - # 10
    frequency:    6.7415060850
  - # 11
    frequency:    8.2254939447
  - # 12
    frequency:    8.4282122597
  - # 13
    frequency:    9.7882066964
  - # 14
    frequency:   10.9976427317
  - # 15
    frequency:   11.2294635094
  - # 16
    frequency:   11.9352317089
  - # 17
    frequency:   14.3889141393
  - # 18
    frequency:   15.4675208048
  - # 19
    frequency:   15.5644184907
  - # 20
    frequency:   20.1996001338
  - # 21
    frequency:   64.6662579636

- q-position: [    0.1464646,    0.0000000,    0.0000000 ]
  distance:    0.0510963
  band:
  - # 1
    frequency:    1.2034948507
  - # 2
    frequency:    1.2820674472
  - # 3
    frequency:    1.8715526089
  - # 4
    frequency:    2.2397428618
  - # 5
    frequency:    3.2442508759
  - # 6
    frequency:    4.5502194392
  - # 7
    frequency:    4.9999196060
  - # 8
    frequency:    6.0456504978
  - # 9
    frequency:    6.0744865536
  - # 10
    frequency:    6.7739314581
  - # 11
    frequency:    8.2150744013
  - # 12
    frequency:    8.4269576715
  - # 13
    frequency:    9.7732642804
  - # 14
    frequency:   10.9887948635
  - # 15
    frequency:   11.2341456605
  - # 16
    frequency:   11.8978872938
  - # 17
    frequency:   14.3655848885
  - # 18
    frequency:   15.4643213604
  - # 19
    frequency:   15.5670886468
  - # 20
    frequency:   20.1948662165
  - # 21
    frequency:   64.6621922375

- q-position: [    0.1515152,    0.0000000,    0.0000000 ]
  distance:    0.0528583
  band:
  - # 1
    frequency:    1.2230328166
  - # 2
    frequency:    1.3530288793
  - # 3
    frequency:    1.9184170006
  - # 4
    frequency:    2.2972385029
  - # 5
    frequency:    3.3312426956
  - # 6
    frequency:    4.5528080952
  - # 7
    frequency:    5.0143694228
  - # 8
    frequency:    6.0401889858
  - # 9
    frequency:    6.0868093552
  - # 10
    frequency:    6.8066110935
  - # 11
    frequency:    8.2044870938
  - # 12
    frequency:    8.4251744902
  - # 13
    frequency:    9.7581883879
  - # 14
    frequency:   10.9802197323
  - # 15
    frequency:   11.2391127281
  - # 16
    frequency:   11.8599055052
  - # 17
    frequency:   14.3422795614
  - # 18
    frequency:   15.4609370331
  - # 19
    frequency:   15.5696974253
  - # 20
    frequency:   20.1900689332
  - # 21
    frequency:   64.6580532825