nqpoint: 300    
npath: 3      
segment_nqpoint:
- 100
- 100
- 100
labels:
- [ 'G', 'M' ]
- [ 'M', 'K' ]
- [ 'K', 'G' ]
reciprocal_lattice:
- [   0.31100450,   0.17955853,   0.00000000 ] # a*
- [   0.00000000,   0.35911707,   0.00000000 ] # b*
- [   0.00000000,   0.00000000,   0.03743075 ] # c*
natom: 8      
lattice:
- [     3.215387513761065,     0.000000000000000,     0.000000000000000 ] # a
- [    -1.607693756880532,     2.784607269927547,     0.000000000000000 ] # b
- [     0.000000000000000,     0.000000000000000,    26.716002891908374 ] # c
points:
- symbol: C # 1
  coordinates: [  0.000000000000000,  0.000000000000000,  0.529801930022393 ]
  mass: 12.010700
- symbol: C # 2
  coordinates: [  0.666666984744047,  0.333332985985145,  0.394926228079072 ]
  mass: 12.010700
- symbol: N # 3
  coordinates: [  0.333332985432215,  0.666666983183674,  0.614023070014063 ]
  mass: 14.006700
- symbol: N # 4
  coordinates: [  0.666666984744047,  0.333332985985145,  0.441778883452332 ]
  mass: 14.006700
- symbol: O # 5
  coordinates: [  0.333332985432215,  0.666666983183674,  0.663123258504891 ]
  mass: 15.999400
- symbol: S # 6
  coordinates: [  0.666666984744047,  0.333332985985145,  0.336876741495109 ]
  mass: 32.065000
- symbol: Ti # 7
  coordinates: [  0.333332985432215,  0.666666983183674,  0.490239514084886 ]
  mass: 47.867000
- symbol: Ti # 8
  coordinates: [  0.666666984744047,  0.333332985985145,  0.578956805433070 ]
  mass: 47.867000

phonon:
- q-position: [    0.0000000,    0.0000000,    0.0000000 ]
  distance:    0.0000000
  band:
  - # 1
    frequency:   -4.0379641158
  - # 2
    frequency:   -4.0379641158
  - # 3
    frequency:   -0.0000005765
  - # 4
    frequency:   -0.0000002969
  - # 5
    frequency:    0.0000017473
  - # 6
    frequency:    0.9252186967
  - # 7
    frequency:    0.9252186967
  - # 8
    frequency:    4.8578901484
  - # 9
    frequency:    4.8578901484
  - # 10
    frequency:    5.5686001046
  - # 11
    frequency:    7.0361947345
  - # 12
    frequency:    7.0361947345
  - # 13
    frequency:    9.4004301511
  - # 14
    frequency:   10.8232135375
  - # 15
    frequency:   10.8232135375
  - # 16
    frequency:   10.9619566206
  - # 17
    frequency:   13.7022817500
  - # 18
    frequency:   13.7022817500
  - # 19
    frequency:   15.7122071753
  - # 20
    frequency:   15.7122071753
  - # 21
    frequency:   17.3861421513
  - # 22
    frequency:   27.3876287540
  - # 23
    frequency:   41.5418033414
  - # 24
    frequency:   57.7184777179

- q-position: [    0.0050505,    0.0000000,    0.0000000 ]
  distance:    0.0018137
  band:
  - # 1
    frequency:   -4.0379650410
  - # 2
    frequency:   -4.0362093381
  - # 3
    frequency:   -0.0589360798
  - # 4
    frequency:    0.0816444162
  - # 5
    frequency:    0.1439107474
  - # 6
    frequency:    0.9272927708
  - # 7
    frequency:    0.9328320163
  - # 8
    frequency:    4.8583965288
  - # 9
    frequency:    4.8591819446
  - # 10
    frequency:    5.5683088245
  - # 11
    frequency:    7.0362527030
  - # 12
    frequency:    7.0375536796
  - # 13
    frequency:    9.4000415891
  - # 14
    frequency:   10.8140792552
  - # 15
    frequency:   10.8234200701
  - # 16
    frequency:   10.9708478712
  - # 17
    frequency:   13.7024065414
  - # 18
    frequency:   13.7027748091
  - # 19
    frequency:   15.7121214257
  - # 20
    frequency:   15.7127138722
  - # 21
    frequency:   17.3860687638
  - # 22
    frequency:   27.3874818303
  - # 23
    frequency:   41.5409717904
  - # 24
    frequency:   57.7174408304

- q-position: [    0.0101010,    0.0000000,    0.0000000 ]
  distance:    0.0036274
  band:
  - # 1
    frequency:   -4.0379684292
  - # 2
    frequency:   -4.0309502927
  - # 3
    frequency:   -0.0833633704
  - # 4
    frequency:    0.1631740670
  - # 5
    frequency:    0.2759047229
  - # 6
    frequency:    0.9335061539
  - # 7
    frequency:    0.9552151540
  - # 8
    frequency:    4.8599145826
  - # 9
    frequency:    4.8630483910
  - # 10
    frequency:    5.5674396694
  - # 11
    frequency:    7.0364262251
  - # 12
    frequency:    7.0416206375
  - # 13
    frequency:    9.3988743399
  - # 14
    frequency:   10.7914862456
  - # 15
    frequency:   10.8240389070
  - # 16
    frequency:   10.9927170671
  - # 17
    frequency:   13.7027805951
  - # 18
    frequency:   13.7042534320
  - # 19
    frequency:   15.7118636814
  - # 20
    frequency:   15.7142332988
  - # 21
    frequency:   17.3858487340
  - # 22
    frequency:   27.3870412979
  - # 23
    frequency:   41.5384789593
  - # 24
    frequency:   57.7143323885

- q-position: [    0.0151515,    0.0000000,    0.0000000 ]
  distance:    0.0054412
  band:
  - # 1
    frequency:   -4.0379761071
  - # 2
    frequency:   -4.0222027194
  - # 3
    frequency:   -0.1071890070
  - # 4
    frequency:    0.2444651098
  - # 5
    frequency:    0.4096690749
  - # 6
    frequency:    0.9438351013
  - # 7
    frequency:    0.9911749140
  - # 8
    frequency:    4.8624410528
  - # 9
    frequency:    4.8694628573
  - # 10
    frequency:    5.5660065643
  - # 11
    frequency:    7.0367141572
  - # 12
    frequency:    7.0483662073
  - # 13
    frequency:    9.3969238248
  - # 14
    frequency:   10.7622647589
  - # 15
    frequency:   10.8250677731
  - # 16
    frequency:   11.0207497005
  - # 17
    frequency:   13.7034029522
  - # 18
    frequency:   13.7067159462
  - # 19
    frequency:   15.7114324612
  - # 20
    frequency:   15.7167634595
  - # 21
    frequency:   17.3854824586
  - # 22
    frequency:   27.3863078723
  - # 23
    frequency:   41.5343303062
  - # 24
    frequency:   57.7091590443

- q-position: [    0.0202020,    0.0000000,    0.0000000 ]
  distance:    0.0072549
  band:
  - # 1
    frequency:   -4.0379910821
  - # 2
    frequency:   -4.0099924367
  - # 3
    frequency:   -0.1267812799
  - # 4
    frequency:    0.3253746527
  - # 5
    frequency:    0.5433932358
  - # 6
    frequency:    0.9582492191
  - # 7
    frequency:    1.0391882638
  - # 8
    frequency:    4.8659705270
  - # 9
    frequency:    4.8783816015
  - # 10
    frequency:    5.5640322975
  - # 11
    frequency:    7.0371146165
  - # 12
    frequency:    7.0577421470
  - # 13
    frequency:    9.3941827846
  - # 14
    frequency:   10.7300469225
  - # 15
    frequency:   10.8265029031
  - # 16
    frequency:   11.0513395422
  - # 17
    frequency:   13.7042720188
  - # 18
    frequency:   13.7101595313
  - # 19
    frequency:   15.7108253130
  - # 20
    frequency:   15.7203010153
  - # 21
    frequency:   17.3849705921
  - # 22
    frequency:   27.3852827454
  - # 23
    frequency:   41.5285349005
  - # 24
    frequency:   57.7019318524

- q-position: [    0.0252525,    0.0000000,    0.0000000 ]
  distance:    0.0090686
  band:
  - # 1
    frequency:   -4.0380174878
  - # 2
    frequency:   -3.9943547189
  - # 3
    frequency:   -0.1398893254
  - # 4
    frequency:    0.4057289914
  - # 5
    frequency:    0.6762729501
  - # 6
    frequency:    0.9767250161
  - # 7
    frequency:    1.0978077091
  - # 8
    frequency:    4.8704954617
  - # 9
    frequency:    4.8897446939
  - # 10
    frequency:    5.5615479414
  - # 11
    frequency:    7.0376250165
  - # 12
    frequency:    7.0696824607
  - # 13
    frequency:    9.3906418441
  - # 14
    frequency:   10.6964735100
  - # 15
    frequency:   10.8283390805
  - # 16
    frequency:   11.0828813558
  - # 17
    frequency:   13.7053855737
  - # 18
    frequency:   13.7145801713
  - # 19
    frequency:   15.7100388384
  - # 20
    frequency:   15.7248412651
  - # 21
    frequency:   17.3843140378
  - # 22
    frequency:   27.3839675841
  - # 23
    frequency:   41.5211053835
  - # 24
    frequency:   57.6926662209

- q-position: [    0.0303030,    0.0000000,    0.0000000 ]
  distance:    0.0108823
  band:
  - # 1
    frequency:   -4.0380605096
  - # 2
    frequency:   -3.9753334185
  - # 3
    frequency:   -0.1447083886
  - # 4
    frequency:    0.4853092705
  - # 5
    frequency:    0.8075736961
  - # 6
    frequency:    0.9992643995
  - # 7
    frequency:    1.1659406907
  - # 8
    frequency:    4.8760062162
  - # 9
    frequency:    4.9034772365
  - # 10
    frequency:    5.5585921370
  - # 11
    frequency:    7.0382421139
  - # 12
    frequency:    7.0841048284
  - # 13
    frequency:    9.3862903128
  - # 14
    frequency:   10.6623602076
  - # 15
    frequency:   10.8305696920
  - # 16
    frequency:   11.1146038934
  - # 17
    frequency:   13.7067407784
  - # 18
    frequency:   13.7199725889
  - # 19
    frequency:   15.7090687268
  - # 20
    frequency:   15.7303781202
  - # 21
    frequency:   17.3835139346
  - # 22
    frequency:   27.3823645290
  - # 23
    frequency:   41.5120579115
  - # 24
    frequency:   57.6813818447

- q-position: [    0.0353535,    0.0000000,    0.0000000 ]
  distance:    0.0126961
  band:
  - # 1
    frequency:   -4.0381262926
  - # 2
    frequency:   -3.9529798352
  - # 3
    frequency:   -0.1388473484
  - # 4
    frequency:    0.5638343272
  - # 5
    frequency:    0.9363800776
  - # 6
    frequency:    1.0259172765
  - # 7
    frequency:    1.2430024463
  - # 8
    frequency:    4.8824910959
  - # 9
    frequency:    4.9194908101
  - # 10
    frequency:    5.5552103233
  - # 11
    frequency:    7.0389620685
  - # 12
    frequency:    7.1009122974
  - # 13
    frequency:    9.3811172282
  - # 14
    frequency:   10.6281779272
  - # 15
    frequency:   10.8331867953
  - # 16
    frequency:   11.1460886158
  - # 17
    frequency:   13.7083341900
  - # 18
    frequency:   13.7263301653
  - # 19
    frequency:   15.7079097992
  - # 20
    frequency:   15.7369040723
  - # 21
    frequency:   17.3825716415
  - # 22
    frequency:   27.3804761919
  - # 23
    frequency:   41.5014120850
  - # 24
    frequency:   57.6681026189

- q-position: [    0.0404040,    0.0000000,    0.0000000 ]
  distance:    0.0145098
  band:
  - # 1
    frequency:   -4.0382218343
  - # 2
    frequency:   -3.9273513318
  - # 3
    frequency:   -0.1173512283
  - # 4
    frequency:    0.6409421500
  - # 5
    frequency:    1.0568059065
  - # 6
    frequency:    1.0615089441
  - # 7
    frequency:    1.3289500860
  - # 8
    frequency:    4.8899364057
  - # 9
    frequency:    4.9376850693
  - # 10
    frequency:    5.5514540003
  - # 11
    frequency:    7.0397805134
  - # 12
    frequency:    7.1199951529
  - # 13
    frequency:    9.3751126439
  - # 14
    frequency:   10.5942395792
  - # 15
    frequency:   10.8361812009
  - # 16
    frequency:   11.1770817169
  - # 17
    frequency:   13.7101617770
  - # 18
    frequency:   13.7336448472
  - # 19
    frequency:   15.7065560607
  - # 20
    frequency:   15.7444101574
  - # 21
    frequency:   17.3814887199
  - # 22
    frequency:   27.3783056533
  - # 23
    frequency:   41.4891908618
  - # 24
    frequency:   57.6528565356

- q-position: [    0.0454545,    0.0000000,    0.0000000 ]
  distance:    0.0163235
  band:
  - # 1
    frequency:   -4.0383548643
  - # 2
    frequency:   -3.8985097052
  - # 3
    frequency:   -0.0605367962
  - # 4
    frequency:    0.7161754717
  - # 5
    frequency:    1.0921447959
  - # 6
    frequency:    1.1816341052
  - # 7
    frequency:    1.4241044475
  - # 8
    frequency:    4.8983265124
  - # 9
    frequency:    4.9579493982
  - # 10
    frequency:    5.5473801166
  - # 11
    frequency:    7.0406926347
  - # 12
    frequency:    7.1412328852
  - # 13
    frequency:    9.3682691533
  - # 14
    frequency:   10.5607774325
  - # 15
    frequency:   10.8395425650
  - # 16
    frequency:   11.2074153289
  - # 17
    frequency:   13.7122189386
  - # 18
    frequency:   13.7419070446
  - # 19
    frequency:   15.7050007617
  - # 20
    frequency:   15.7528859147
  - # 21
    frequency:   17.3802669139
  - # 22
    frequency:   27.3758564593
  - # 23
    frequency:   41.4754204566
  - # 24
    frequency:   57.6356755627

- q-position: [    0.0505051,    0.0000000,    0.0000000 ]
  distance:    0.0181372
  band:
  - # 1
    frequency:   -4.0385337147
  - # 2
    frequency:   -3.8665193258
  - # 3
    frequency:    0.1084821561
  - # 4
    frequency:    0.7889847704
  - # 5
    frequency:    1.1322424183
  - # 6
    frequency:    1.2957682921
  - # 7
    frequency:    1.5286187385
  - # 8
    frequency:    4.9076439169
  - # 9
    frequency:    4.9801645338
  - # 10
    frequency:    5.5430506676
  - # 11
    frequency:    7.0416932586
  - # 12
    frequency:    7.1644961861
  - # 13
    frequency:    9.3605836277
  - # 14
    frequency:   10.5279774205
  - # 15
    frequency:   10.8432594936
  - # 16
    frequency:   11.2369715652
  - # 17
    frequency:   13.7145005259
  - # 18
    frequency:   13.7511055231
  - # 19
    frequency:   15.7032364672
  - # 20
    frequency:   15.7623193434
  - # 21
    frequency:   17.3789081298
  - # 22
    frequency:   27.3731326179
  - # 23
    frequency:   41.4601302261
  - # 24
    frequency:   57.6165955069

- q-position: [    0.0555556,    0.0000000,    0.0000000 ]
  distance:    0.0199509
  band:
  - # 1
    frequency:   -4.0387671836
  - # 2
    frequency:   -3.8314450688
  - # 3
    frequency:    0.1823361302
  - # 4
    frequency:    0.8587715078
  - # 5
    frequency:    1.1774617183
  - # 6
    frequency:    1.4038937577
  - # 7
    frequency:    1.6418066782
  - # 8
    frequency:    4.9178693355
  - # 9
    frequency:    5.0042040587
  - # 10
    frequency:    5.5385325907
  - # 11
    frequency:    7.0427769445
  - # 12
    frequency:    7.1896489139
  - # 13
    frequency:    9.3520591282
  - # 14
    frequency:   10.4959950135
  - # 15
    frequency:   10.8473196556
  - # 16
    frequency:   11.2656648152
  - # 17
    frequency:   13.7170008668
  - # 18
    frequency:   13.7612272954
  - # 19
    frequency:   15.7012551337
  - # 20
    frequency:   15.7726968587
  - # 21
    frequency:   17.3774144156
  - # 22
    frequency:   27.3701385940
  - # 23
    frequency:   41.4433525414
  - # 24
    frequency:   57.5956558605

- q-position: [    0.0606061,    0.0000000,    0.0000000 ]
  distance:    0.0217647
  band:
  - # 1
    frequency:   -4.0390643957
  - # 2
    frequency:   -3.7933500666
  - # 3
    frequency:    0.2479648664
  - # 4
    frequency:    0.9249936388
  - # 5
    frequency:    1.2281173232
  - # 6
    frequency:    1.5070477379
  - # 7
    frequency:    1.7620243707
  - # 8
    frequency:    4.9289817905
  - # 9
    frequency:    5.0299356528
  - # 10
    frequency:    5.5338980489
  - # 11
    frequency:    7.0439380826
  - # 12
    frequency:    7.2165499881
  - # 13
    frequency:    9.3427069255
  - # 14
    frequency:   10.4649625494
  - # 15
    frequency:   10.8517099039
  - # 16
    frequency:   11.2934324573
  - # 17
    frequency:   13.7197137936
  - # 18
    frequency:   13.7722575163
  - # 19
    frequency:   15.6990481936
  - # 20
    frequency:   15.7840032479
  - # 21
    frequency:   17.3757879417
  - # 22
    frequency:   27.3668793049
  - # 23
    frequency:   41.4251226477
  - # 24
    frequency:   57.5728996348

- q-position: [    0.0656566,    0.0000000,    0.0000000 ]
  distance:    0.0235784
  band:
  - # 1
    frequency:   -4.0394346617
  - # 2
    frequency:   -3.7522933225
  - # 3
    frequency:    0.3117747152
  - # 4
    frequency:    0.9873218240
  - # 5
    frequency:    1.2843211090
  - # 6
    frequency:    1.6067051805
  - # 7
    frequency:    1.8872623005
  - # 8
    frequency:    4.9409587090
  - # 9
    frequency:    5.0572219744
  - # 10
    frequency:    5.5292252101
  - # 11
    frequency:    7.0451709927
  - # 12
    frequency:    7.2450551841
  - # 13
    frequency:    9.3325485415
  - # 14
    frequency:   10.4349923625
  - # 15
    frequency:   10.8564164018
  - # 16
    frequency:   11.3202297276
  - # 17
    frequency:   13.7226326732
  - # 18
    frequency:   13.7841793862
  - # 19
    frequency:   15.6966066450
  - # 20
    frequency:   15.7962216290
  - # 21
    frequency:   17.3740309827
  - # 22
    frequency:   27.3633601143
  - # 23
    frequency:   41.4054785134
  - # 24
    frequency:   57.5483731791

- q-position: [    0.0707071,    0.0000000,    0.0000000 ]
  distance:    0.0253921
  band:
  - # 1
    frequency:   -4.0398873405
  - # 2
    frequency:   -3.7083272272
  - # 3
    frequency:    0.3756382247
  - # 4
    frequency:    1.0457708872
  - # 5
    frequency:    1.3458517242
  - # 6
    frequency:    1.7041577707
  - # 7
    frequency:    2.0157468753
  - # 8
    frequency:    4.9537760299
  - # 9
    frequency:    5.0859209961
  - # 10
    frequency:    5.5245996779
  - # 11
    frequency:    7.0464700246
  - # 12
    frequency:    7.2750188127
  - # 13
    frequency:    9.3216177025
  - # 14
    frequency:   10.4061777982
  - # 15
    frequency:   10.8614247545
  - # 16
    frequency:   11.3460267614
  - # 17
    frequency:   13.7257504407
  - # 18
    frequency:   13.7969740695
  - # 19
    frequency:   15.6939211489
  - # 20
    frequency:   15.8093334135
  - # 21
    frequency:   17.3721459028
  - # 22
    frequency:   27.3595868254
  - # 23
    frequency:   41.3844606674
  - # 24
    frequency:   57.5221259888

- q-position: [    0.0757576,    0.0000000,    0.0000000 ]
  distance:    0.0272058
  band:
  - # 1
    frequency:   -4.0404317060
  - # 2
    frequency:   -3.6614950247
  - # 3
    frequency:    0.4403172561
  - # 4
    frequency:    1.1007093334
  - # 5
    frequency:    1.4121454204
  - # 6
    frequency:    1.8002996023
  - # 7
    frequency:    2.1461397912
  - # 8
    frequency:    4.9674083192
  - # 9
    frequency:    5.1158855333
  - # 10
    frequency:    5.5201168174
  - # 11
    frequency:    7.0478296553
  - # 12
    frequency:    7.3062952769
  - # 13
    frequency:    9.3099620790
  - # 14
    frequency:   10.3785932135
  - # 15
    frequency:   10.8667201426
  - # 16
    frequency:   11.3708068223
  - # 17
    frequency:   13.7290596348
  - # 18
    frequency:   13.8106206303
  - # 19
    frequency:   15.6909821294
  - # 20
    frequency:   15.8233182756
  - # 21
    frequency:   17.3701351446
  - # 22
    frequency:   27.3555656738
  - # 23
    frequency:   41.3621120283
  - # 24
    frequency:   57.4942105013

- q-position: [    0.0808081,    0.0000000,    0.0000000 ]
  distance:    0.0290196
  band:
  - # 1
    frequency:   -4.0410768203
  - # 2
    frequency:   -3.6118282692
  - # 3
    frequency:    0.5061568758
  - # 4
    frequency:    1.1527332304
  - # 5
    frequency:    1.4824220515
  - # 6
    frequency:    1.8956756002
  - # 7
    frequency:    2.2774780209
  - # 8
    frequency:    4.9818288914
  - # 9
    frequency:    5.1469615373
  - # 10
    frequency:    5.5158853949
  - # 11
    frequency:    7.0492445837
  - # 12
    frequency:    7.3387405043
  - # 13
    frequency:    9.2976446856
  - # 14
    frequency:   10.3522936043
  - # 15
    frequency:   10.8722874569
  - # 16
    frequency:   11.3945651981
  - # 17
    frequency:   13.7325524366
  - # 18
    frequency:   13.8250959925
  - # 19
    frequency:   15.6877798802
  - # 20
    frequency:   15.8381541282
  - # 21
    frequency:   17.3680012231
  - # 22
    frequency:   27.3513033186
  - # 23
    frequency:   41.3384777245
  - # 24
    frequency:   57.4646818838

- q-position: [    0.0858586,    0.0000000,    0.0000000 ]
  distance:    0.0308333
  band:
  - # 1
    frequency:   -4.0418314161
  - # 2
    frequency:   -3.5593443055
  - # 3
    frequency:    0.5733077362
  - # 4
    frequency:    1.2024943930
  - # 5
    frequency:    1.5558564464
  - # 6
    frequency:    1.9905911501
  - # 7
    frequency:    2.4090551289
  - # 8
    frequency:    4.9970099381
  - # 9
    frequency:    5.1789843938
  - # 10
    frequency:    5.5120332837
  - # 11
    frequency:    7.0507098196
  - # 12
    frequency:    7.3722132546
  - # 13
    frequency:    9.2847448232
  - # 14
    frequency:   10.3273142554
  - # 15
    frequency:   10.8781114324
  - # 16
    frequency:   11.4173084798
  - # 17
    frequency:   13.7362207104
  - # 18
    frequency:   13.8403749265
  - # 19
    frequency:   15.6843046732
  - # 20
    frequency:   15.8538171094
  - # 21
    frequency:   17.3657467254
  - # 22
    frequency:   27.3468068334
  - # 23
    frequency:   41.3136049071
  - # 24
    frequency:   57.4335978117

- q-position: [    0.0909091,    0.0000000,    0.0000000 ]
  distance:    0.0326470
  band:
  - # 1
    frequency:   -4.0427037883
  - # 2
    frequency:   -3.5040437936
  - # 3
    frequency:    0.6418163393
  - # 4
    frequency:    1.2505758337
  - # 5
    frequency:    1.6317023128
  - # 6
    frequency:    2.0852024923
  - # 7
    frequency:    2.5403237213
  - # 8
    frequency:    5.0129226613
  - # 9
    frequency:    5.2117718250
  - # 10
    frequency:    5.5087166433
  - # 11
    frequency:    7.0522207656
  - # 12
    frequency:    7.4065763042
  - # 13
    frequency:    9.2713584726
  - # 14
    frequency:   10.3036706689
  - # 15
    frequency:   10.8841767797
  - # 16
    frequency:   11.4390540526
  - # 17
    frequency:   13.7400560470
  - # 18
    frequency:   13.8564300664
  - # 19
    frequency:   15.6805468705
  - # 20
    frequency:   15.8702815800
  - # 21
    frequency:   17.3633743182
  - # 22
    frequency:   27.3420836955
  - # 23
    frequency:   41.2875425566
  - # 24
    frequency:   57.4010182409

- q-position: [    0.0959596,    0.0000000,    0.0000000 ]
  distance:    0.0344607
  band:
  - # 1
    frequency:   -4.0437016964
  - # 2
    frequency:   -3.4459082747
  - # 3
    frequency:    0.7116678422
  - # 4
    frequency:    1.2974397456
  - # 5
    frequency:    1.7093434942
  - # 6
    frequency:    2.1795765545
  - # 7
    frequency:    2.6708298624
  - # 8
    frequency:    5.0295374119
  - # 9
    frequency:    5.2451106902
  - # 10
    frequency:    5.5061352809
  - # 11
    frequency:    7.0537732901
  - # 12
    frequency:    7.4416975024
  - # 13
    frequency:    9.2575980886
  - # 14
    frequency:   10.2813589165
  - # 15
    frequency:   10.8904683125
  - # 16
    frequency:   11.4598297015
  - # 17
    frequency:   13.7440498087
  - # 18
    frequency:   13.8732319586
  - # 19
    frequency:   15.6764970380
  - # 20
    frequency:   15.8875201321
  - # 21
    frequency:   17.3608867629
  - # 22
    frequency:   27.3371417742
  - # 23
    frequency:   41.2603412853
  - # 24
    frequency:   57.3670051751

- q-position: [    0.1010101,    0.0000000,    0.0000000 ]
  distance:    0.0362745
  band:
  - # 1
    frequency:   -4.0448322775
  - # 2
    frequency:   -3.3848977539
  - # 3
    frequency:    0.7828088484
  - # 4
    frequency:    1.3434257830
  - # 5
    frequency:    1.7882948881
  - # 6
    frequency:    2.2737276457
  - # 7
    frequency:    2.8001716615
  - # 8
    frequency:    5.0468238310
  - # 9
    frequency:    5.2787323554
  - # 10
    frequency:    5.5045595354
  - # 11
    frequency:    7.0553637916
  - # 12
    frequency:    7.4774506956
  - # 13
    frequency:    9.2435917917
  - # 14
    frequency:   10.2603564838
  - # 15
    frequency:   10.8969710700
  - # 16
    frequency:   11.4796732659
  - # 17
    frequency:   13.7481931765
  - # 18
    frequency:   13.8907491439
  - # 19
    frequency:   15.6721460604
  - # 20
    frequency:   15.9055036122
  - # 21
    frequency:   17.3582869409
  - # 22
    frequency:   27.3319893182
  - # 23
    frequency:   41.2320531355
  - # 24
    frequency:   57.3316224284

- q-position: [    0.1060606,    0.0000000,    0.0000000 ]
  distance:    0.0380882
  band:
  - # 1
    frequency:   -4.0461019705
  - # 2
    frequency:   -3.3209482422
  - # 3
    frequency:    0.8551607070
  - # 4
    frequency:    1.3887711858
  - # 5
    frequency:    1.8681815235
  - # 6
    frequency:    2.3676393966
  - # 7
    frequency:    2.9279733601
  - # 8
    frequency:    5.0647509947
  - # 9
    frequency:    5.3122661847
  - # 10
    frequency:    5.5043791302
  - # 11
    frequency:    7.0569892503
  - # 12
    frequency:    7.5137165053
  - # 13
    frequency:    9.2294820033
  - # 14
    frequency:   10.2406236017
  - # 15
    frequency:   10.9036704320
  - # 16
    frequency:   11.4986323026
  - # 17
    frequency:   13.7524771982
  - # 18
    frequency:   13.9089482716
  - # 19
    frequency:   15.6674852560
  - # 20
    frequency:   15.9242011571
  - # 21
    frequency:   17.3555778886
  - # 22
    frequency:   27.3266349409
  - # 23
    frequency:   41.2027313755
  - # 24
    frequency:   57.2949353862

- q-position: [    0.1111111,    0.0000000,    0.0000000 ]
  distance:    0.0399019
  band:
  - # 1
    frequency:   -4.0475164511
  - # 2
    frequency:   -3.2539691658
  - # 3
    frequency:    0.9286278800
  - # 4
    frequency:    1.4336352106
  - # 5
    frequency:    1.9487133667
  - # 6
    frequency:    2.4612778129
  - # 7
    frequency:    3.0538688558
  - # 8
    frequency:    5.0832875594
  - # 9
    frequency:    5.3451526230
  - # 10
    frequency:    5.5061925126
  - # 11
    frequency:    7.0586472695
  - # 12
    frequency:    7.5503829442
  - # 13
    frequency:    9.2154236154
  - # 14
    frequency:   10.2221050063
  - # 15
    frequency:   10.9105522271
  - # 16
    frequency:   11.5167637290
  - # 17
    frequency:   13.7568928383
  - # 18
    frequency:   13.9277942435
  - # 19
    frequency:   15.6625064909
  - # 20
    frequency:   15.9435802428
  - # 21
    frequency:   17.3527628453
  - # 22
    frequency:   27.3210876055
  - # 23
    frequency:   41.1724302946
  - # 24
    frequency:   57.2570107651

- q-position: [    0.1161616,    0.0000000,    0.0000000 ]
  distance:    0.0417156
  band:
  - # 1
    frequency:   -4.0490805763
  - # 2
    frequency:   -3.1838405072
  - # 3
    frequency:    1.0031035432
  - # 4
    frequency:    1.4781205403
  - # 5
    frequency:    2.0296632053
  - # 6
    frequency:    2.5545990541
  - # 7
    frequency:    3.1774909389
  - # 8
    frequency:    5.1024019083
  - # 9
    frequency:    5.3764968329
  - # 10
    frequency:    5.5109556680
  - # 11
    frequency:    7.0603361031
  - # 12
    frequency:    7.5873458459
  - # 13
    frequency:    9.2015818151
  - # 14
    frequency:   10.2047320320
  - # 15
    frequency:   10.9176028307
  - # 16
    frequency:   11.5341334308
  - # 17
    frequency:   13.7614310280
  - # 18
    frequency:   13.9472503861
  - # 19
    frequency:   15.6572022918
  - # 20
    frequency:   15.9636067466
  - # 21
    frequency:   17.3498453138
  - # 22
    frequency:   27.3153566073
  - # 23
    frequency:   41.1412049983
  - # 24
    frequency:   57.2179163729

- q-position: [    0.1212121,    0.0000000,    0.0000000 ]
  distance:    0.0435293
  band:
  - # 1
    frequency:   -4.0507983395
  - # 2
    frequency:   -3.1104094919
  - # 3
    frequency:    1.0784735330
  - # 4
    frequency:    1.5222898545
  - # 5
    frequency:    2.1108494348
  - # 6
    frequency:    2.6475540782
  - # 7
    frequency:    3.2984640955
  - # 8
    frequency:    5.1220622964
  - # 9
    frequency:    5.4049211720
  - # 10
    frequency:    5.5201320176
  - # 11
    frequency:    7.0620546706
  - # 12
    frequency:    7.6245090798
  - # 13
    frequency:    9.1881297007
  - # 14
    frequency:   10.1884249212
  - # 15
    frequency:   10.9248092540
  - # 16
    frequency:   11.5508158198
  - # 17
    frequency:   13.7660827158
  - # 18
    frequency:   13.9672786465
  - # 19
    frequency:   15.6515659564
  - # 20
    frequency:   15.9842450197
  - # 21
    frequency:   17.3468291359
  - # 22
    frequency:   27.3094515558
  - # 23
    frequency:   41.1091112048
  - # 24
    frequency:   57.1777208712

- q-position: [    0.1262626,    0.0000000,    0.0000000 ]
  distance:    0.0453431
  band:
  - # 1
    frequency:   -4.0526728338
  - # 2
    frequency:   -3.0334865648
  - # 3
    frequency:    1.1546192477
  - # 4
    frequency:    1.5661779378
  - # 5
    frequency:    2.1921233773
  - # 6
    frequency:    2.7400914035
  - # 7
    frequency:    3.4163997424
  - # 8
    frequency:    5.1422369945
  - # 9
    frequency:    5.4288052803
  - # 10
    frequency:    5.5354544403
  - # 11
    frequency:    7.0638025588
  - # 12
    frequency:    7.6617845194
  - # 13
    frequency:    9.1752458234
  - # 14
    frequency:   10.1730952371
  - # 15
    frequency:   10.9321592224
  - # 16
    frequency:   11.5668933360
  - # 17
    frequency:   13.7708389178
  - # 18
    frequency:   13.9878398064
  - # 19
    frequency:   15.6455916600
  - # 20
    frequency:   16.0054579687
  - # 21
    frequency:   17.3437185839
  - # 22
    frequency:   27.3033823547
  - # 23
    frequency:   41.0762050445
  - # 24
    frequency:   57.1364935404

- q-position: [    0.1313131,    0.0000000,    0.0000000 ]
  distance:    0.0471568
  band:
  - # 1
    frequency:   -4.0547062233
  - # 2
    frequency:   -2.9528403082
  - # 3
    frequency:    1.2314198549
  - # 4
    frequency:    1.6098002855
  - # 5
    frequency:    2.2733601711
  - # 6
    frequency:    2.8321587289
  - # 7
    frequency:    3.5308934371
  - # 8
    frequency:    5.1628944296
  - # 9
    frequency:    5.4474598745
  - # 10
    frequency:    5.5577529953
  - # 11
    frequency:    7.0655800103
  - # 12
    frequency:    7.6990917277
  - # 13
    frequency:    9.1631117757
  - # 14
    frequency:   10.1586482729
  - # 15
    frequency:   10.9396412421
  - # 16
    frequency:   11.5824558903
  - # 17
    frequency:   13.7756907677
  - # 18
    frequency:   14.0088937115
  - # 19
    frequency:   15.6392745584
  - # 20
    frequency:   16.0272071430
  - # 21
    frequency:   17.3405184698
  - # 22
    frequency:   27.2971591799
  - # 23
    frequency:   41.0425428630
  - # 24
    frequency:   57.0943040501

- q-position: [    0.1363636,    0.0000000,    0.0000000 ]
  distance:    0.0489705
  band:
  - # 1
    frequency:   -4.0568997226
  - # 2
    frequency:   -2.8681908204
  - # 3
    frequency:    1.3087540182
  - # 4
    frequency:    1.6531591466
  - # 5
    frequency:    2.3544522898
  - # 6
    frequency:    2.9237038483
  - # 7