nqpoint: 300    
npath: 3      
segment_nqpoint:
- 100
- 100
- 100
labels:
- [ 'G', 'M' ]
- [ 'M', 'K' ]
- [ 'K', 'G' ]
reciprocal_lattice:
- [   0.27906327,   0.16111725,   0.00000000 ] # a*
- [   0.00000000,   0.32223451,   0.00000000 ] # b*
- [   0.00000000,   0.00000000,   0.04076415 ] # c*
natom: 6      
lattice:
- [     3.583416780817295,     0.000000000000000,     0.000000000000000 ] # a
- [    -1.791708390408647,     3.103329964537837,     0.000000000000000 ] # b
- [     0.000000000000000,     0.000000000000000,    24.531356466130564 ] # c
points:
- symbol: Cl # 1
  coordinates: [  0.333332985432215,  0.666666983183674,  0.633122611363708 ]
  mass: 35.453000
- symbol: N # 2
  coordinates: [  0.000000000000000,  0.000000000000000,  0.466019179942256 ]
  mass: 14.006700
- symbol: O # 3
  coordinates: [  0.333332985432215,  0.666666983183674,  0.562971350264838 ]
  mass: 15.999400
- symbol: O # 4
  coordinates: [  0.666666984744047,  0.333332985985144,  0.366877388636292 ]
  mass: 15.999400
- symbol: Y # 5
  coordinates: [  0.333332985432215,  0.666666983183674,  0.395490432559160 ]
  mass: 88.905850
- symbol: Y # 6
  coordinates: [  0.666666984744047,  0.333332985985144,  0.511460932119802 ]
  mass: 88.905850

phonon:
- q-position: [    0.0000000,    0.0000000,    0.0000000 ]
  distance:    0.0000000
  band:
  - # 1
    frequency:   -1.3084469464
  - # 2
    frequency:   -1.3084469463
  - # 3
    frequency:   -0.0000091929
  - # 4
    frequency:   -0.0000002294
  - # 5
    frequency:    0.0000090937
  - # 6
    frequency:    2.5117995703
  - # 7
    frequency:    2.5117995703
  - # 8
    frequency:    4.2863650169
  - # 9
    frequency:    6.6102074505
  - # 10
    frequency:    6.6102074505
  - # 11
    frequency:    7.1553302962
  - # 12
    frequency:   10.5715537909
  - # 13
    frequency:   10.5715537909
  - # 14
    frequency:   12.3577008547
  - # 15
    frequency:   13.0190669168
  - # 16
    frequency:   13.0190669168
  - # 17
    frequency:   15.0608881727
  - # 18
    frequency:   20.5319637742

- q-position: [    0.0050505,    0.0000000,    0.0000000 ]
  distance:    0.0016274
  band:
  - # 1
    frequency:   -1.3079207063
  - # 2
    frequency:   -1.3060653204
  - # 3
    frequency:    0.0018841222
  - # 4
    frequency:    0.0520538797
  - # 5
    frequency:    0.0966822655
  - # 6
    frequency:    2.5121227005
  - # 7
    frequency:    2.5138459382
  - # 8
    frequency:    4.2862928862
  - # 9
    frequency:    6.6101824598
  - # 10
    frequency:    6.6113294128
  - # 11
    frequency:    7.1547887261
  - # 12
    frequency:   10.5711226780
  - # 13
    frequency:   10.5754988838
  - # 14
    frequency:   12.3562727647
  - # 15
    frequency:   13.0187255928
  - # 16
    frequency:   13.0189264841
  - # 17
    frequency:   15.0619456259
  - # 18
    frequency:   20.5318873691

- q-position: [    0.0101010,    0.0000000,    0.0000000 ]
  distance:    0.0032549
  band:
  - # 1
    frequency:   -1.3063405303
  - # 2
    frequency:   -1.2989088021
  - # 3
    frequency:    0.0075329372
  - # 4
    frequency:    0.1040844923
  - # 5
    frequency:    0.1934071920
  - # 6
    frequency:    2.5130928234
  - # 7
    frequency:    2.5199689391
  - # 8
    frequency:    4.2860780928
  - # 9
    frequency:    6.6101075015
  - # 10
    frequency:    6.6146776059
  - # 11
    frequency:    7.1531658050
  - # 12
    frequency:   10.5698308109
  - # 13
    frequency:   10.5872727745
  - # 14
    frequency:   12.3520421544
  - # 15
    frequency:   13.0177022644
  - # 16
    frequency:   13.0184951517
  - # 17
    frequency:   15.0651133720
  - # 18
    frequency:   20.5316583000

- q-position: [    0.0151515,    0.0000000,    0.0000000 ]
  distance:    0.0048823
  band:
  - # 1
    frequency:   -1.3037020602
  - # 2
    frequency:   -1.2869417295
  - # 3
    frequency:    0.0169347846
  - # 4
    frequency:    0.1560688093
  - # 5
    frequency:    0.2902145981
  - # 6
    frequency:    2.5147121210
  - # 7
    frequency:    2.5301209821
  - # 8
    frequency:    4.2857254088
  - # 9
    frequency:    6.6099826172
  - # 10
    frequency:    6.6201997438
  - # 11
    frequency:    7.1504668766
  - # 12
    frequency:   10.5676826022
  - # 13
    frequency:   10.6066892018
  - # 14
    frequency:   12.3451707029
  - # 15
    frequency:   13.0159988595
  - # 16
    frequency:   13.0177440230
  - # 17
    frequency:   15.0703778230
  - # 18
    frequency:   20.5312770057

- q-position: [    0.0202020,    0.0000000,    0.0000000 ]
  distance:    0.0065098
  band:
  - # 1
    frequency:   -1.2999980643
  - # 2
    frequency:   -1.2701021807
  - # 3
    frequency:    0.0300742294
  - # 4
    frequency:    0.2079842737
  - # 5
    frequency:    0.3871387169
  - # 6
    frequency:    2.5169841816
  - # 7
    frequency:    2.5442250732
  - # 8
    frequency:    4.2852427105
  - # 9
    frequency:    6.6098078745
  - # 10
    frequency:    6.6278112636
  - # 11
    frequency:    7.1467007777
  - # 12
    frequency:   10.5646853985
  - # 13
    frequency:   10.6334305907
  - # 14
    frequency:   12.3359306018
  - # 15
    frequency:   13.0136185842
  - # 16
    frequency:   13.0166287497
  - # 17
    frequency:   15.0777171574
  - # 18
    frequency:   20.5307442177

- q-position: [    0.0252525,    0.0000000,    0.0000000 ]
  distance:    0.0081372
  band:
  - # 1
    frequency:   -1.2952184794
  - # 2
    frequency:   -1.2482981871
  - # 3
    frequency:    0.0469375010
  - # 4
    frequency:    0.2598090121
  - # 5
    frequency:    0.4842056585
  - # 6
    frequency:    2.5199139273
  - # 7
    frequency:    2.5621780675
  - # 8
    frequency:    4.2846408748
  - # 9
    frequency:    6.6095833660
  - # 10
    frequency:    6.6373989576
  - # 11
    frequency:    7.1418797524
  - # 12
    frequency:   10.5608494689
  - # 13
    frequency:   10.6670368435
  - # 14
    frequency:   12.3247099465
  - # 15
    frequency:   13.0105659123
  - # 16
    frequency:   13.0150945845
  - # 17
    frequency:   15.0871025081
  - # 18
    frequency:   20.5300609597

- q-position: [    0.0303030,    0.0000000,    0.0000000 ]
  distance:    0.0097647
  band:
  - # 1
    frequency:   -1.2893504594
  - # 2
    frequency:   -1.2214023506
  - # 3
    frequency:    0.0675208365
  - # 4
    frequency:    0.3115220221
  - # 5
    frequency:    0.5814311845
  - # 6
    frequency:    2.5235075146
  - # 7
    frequency:    2.5838547952
  - # 8
    frequency:    4.2839336548
  - # 9
    frequency:    6.6093092064
  - # 10
    frequency:    6.6488256084
  - # 11
    frequency:    7.1360193752
  - # 12
    frequency:   10.5561879875
  - # 13
    frequency:   10.7068886933
  - # 14
    frequency:   12.3120225936
  - # 15
    frequency:   13.0068465701
  - # 16
    frequency:   13.0130823438
  - # 17
    frequency:   15.0984995284
  - # 18
    frequency:   20.5292285478

- q-position: [    0.0353535,    0.0000000,    0.0000000 ]
  distance:    0.0113921
  band:
  - # 1
    frequency:   -1.2823784213
  - # 2
    frequency:   -1.1892448901
  - # 3
    frequency:    0.0918421613
  - # 4
    frequency:    0.3631033302
  - # 5
    frequency:    0.6788188994
  - # 6
    frequency:    2.5277722076
  - # 7
    frequency:    2.6091127091
  - # 8
    frequency:    4.2831375545
  - # 9
    frequency:    6.6089855300
  - # 10
    frequency:    6.6619352372
  - # 11
    frequency:    7.1291385215
  - # 12
    frequency:   10.5507170122
  - # 13
    frequency:   10.7521848673
  - # 14
    frequency:   12.2985241275
  - # 15
    frequency:   13.0024675179
  - # 16
    frequency:   13.0105345897
  - # 17
    frequency:   15.1118702550
  - # 18
    frequency:   20.5282485898

- q-position: [    0.0404040,    0.0000000,    0.0000000 ]
  distance:    0.0130196
  band:
  - # 1
    frequency:   -1.2742840775
  - # 2
    frequency:   -1.1516053523
  - # 3
    frequency:    0.1199572607
  - # 4
    frequency:    0.4145341148
  - # 5
    frequency:    0.7763589495
  - # 6
    frequency:    2.5327162271
  - # 7
    frequency:    2.6377966990
  - # 8
    frequency:    4.2822717219
  - # 9
    frequency:    6.6086124881
  - # 10
    frequency:    6.6765585318
  - # 11
    frequency:    7.1212594479
  - # 12
    frequency:   10.5444554555
  - # 13
    frequency:   10.8019126623
  - # 14
    frequency:   12.2850350105
  - # 15
    frequency:   12.9974369270
  - # 16
    frequency:   13.0074015603
  - # 17
    frequency:   15.1271751710
  - # 18
    frequency:   20.5271229847

- q-position: [    0.0454545,    0.0000000,    0.0000000 ]
  distance:    0.0146470
  band:
  - # 1
    frequency:   -1.2650464405
  - # 2
    frequency:   -1.1082037579
  - # 3
    frequency:    0.1519823507
  - # 4
    frequency:    0.4657967939
  - # 5
    frequency:    0.8740272877
  - # 6
    frequency:    2.5383485761
  - # 7
    frequency:    2.6697437445
  - # 8
    frequency:    4.2813578791
  - # 9
    frequency:    6.6081902462
  - # 10
    frequency:    6.6925180134
  - # 11
    frequency:    7.1124080658
  - # 12
    frequency:   10.5374250507
  - # 13
    frequency:   10.8548129271
  - # 14
    frequency:   12.2725702499
  - # 15
    frequency:   12.9917641541
  - # 16
    frequency:   13.0036466914
  - # 17
    frequency:   15.1443753764
  - # 18
    frequency:   20.5258539220

- q-position: [    0.0505051,    0.0000000,    0.0000000 ]
  distance:    0.0162745
  band:
  - # 1
    frequency:   -1.2546417885
  - # 2
    frequency:   -1.0586931755
  - # 3
    frequency:    0.1881260044
  - # 4
    frequency:    0.5168750778
  - # 5
    frequency:    0.9717855202
  - # 6
    frequency:    2.5446788444
  - # 7
    frequency:    2.7047871440
  - # 8
    frequency:    4.2804203076
  - # 9
    frequency:    6.6077189822
  - # 10
    frequency:    6.7096324996
  - # 11
    frequency:    7.1026145397
  - # 12
    frequency:   10.5296503100
  - # 13
    frequency:   10.9093439714
  - # 14
    frequency:   12.2623709880
  - # 15
    frequency:   12.9854597109
  - # 16
    frequency:   12.9992519358
  - # 17
    frequency:   15.1634347722
  - # 18
    frequency:   20.5244438797

- q-position: [    0.0555556,    0.0000000,    0.0000000 ]
  distance:    0.0179019
  band:
  - # 1
    frequency:   -1.2430435756
  - # 2
    frequency:   -1.0026584719
  - # 3
    frequency:    0.2287344602
  - # 4
    frequency:    0.5677539898
  - # 5
    frequency:    1.0695812961
  - # 6
    frequency:    2.5517169957
  - # 7
    frequency:    2.7427601254
  - # 8
    frequency:    4.2794859043
  - # 9
    frequency:    6.6071988847
  - # 10
    frequency:    6.7277204090
  - # 11
    frequency:    7.0919144273
  - # 12
    frequency:   10.5211584757
  - # 13
    frequency:   10.9636561270
  - # 14
    frequency:   12.2559257628
  - # 15
    frequency:   12.9785352317
  - # 16
    frequency:   12.9942234741
  - # 17
    frequency:   15.1843221758
  - # 18
    frequency:   20.5228956227

- q-position: [    0.0606061,    0.0000000,    0.0000000 ]
  distance:    0.0195294
  band:
  - # 1
    frequency:   -1.2302222726
  - # 2
    frequency:   -0.9396318317
  - # 3
    frequency:    0.2743541529
  - # 4
    frequency:    0.6184198562
  - # 5
    frequency:    1.1673491506
  - # 6
    frequency:    2.5594731379
  - # 7
    frequency:    2.7834987242
  - # 8
    frequency:    4.2785843227
  - # 9
    frequency:    6.6066301531
  - # 10
    frequency:    6.7466013633
  - # 11
    frequency:    7.0803507515
  - # 12
    frequency:   10.5119794620
  - # 13
    frequency:   11.0156005556
  - # 14
    frequency:   12.2549567834
  - # 15
    frequency:   12.9710034378
  - # 16
    frequency:   12.9885988891
  - # 17
    frequency:   15.2070132924
  - # 18
    frequency:   20.5212122000

- q-position: [    0.0656566,    0.0000000,    0.0000000 ]
  distance:    0.0211568
  band:
  - # 1
    frequency:   -1.2161451203
  - # 2
    frequency:   -0.8691467433
  - # 3
    frequency:    0.3258091323
  - # 4
    frequency:    0.6688602725
  - # 5
    frequency:    1.2650116779
  - # 6
    frequency:    2.5679572820
  - # 7
    frequency:    2.8268438768
  - # 8
    frequency:    4.2777482111
  - # 9
    frequency:    6.6060129988
  - # 10
    frequency:    6.7660952672
  - # 11
    frequency:    7.0679777489
  - # 12
    frequency:   10.5021457890
  - # 13
    frequency:   11.0628093787
  - # 14
    frequency:   12.2613323009
  - # 15
    frequency:   12.9628780987
  - # 16
    frequency:   12.9824575981
  - # 17
    frequency:   15.2314924800
  - # 18
    frequency:   20.5193969408

- q-position: [    0.0707071,    0.0000000,    0.0000000 ]
  distance:    0.0227843
  band:
  - # 1
    frequency:   -1.2007757781
  - # 2
    frequency:   -0.7908668448
  - # 3
    frequency:    0.3842648245
  - # 4
    frequency:    0.7190640489
  - # 5
    frequency:    1.3624808883
  - # 6
    frequency:    2.5771790916
  - # 7
    frequency:    2.8726427291
  - # 8
    frequency:    4.2770135627
  - # 9
    frequency:    6.6053476487
  - # 10
    frequency:    6.7860173409
  - # 11
    frequency:    7.0548678251
  - # 12
    frequency:   10.4916925059
  - # 13
    frequency:   11.1028861995
  - # 14
    frequency:   12.2768628363
  - # 15
    frequency:   12.9541739919
  - # 16
    frequency:   12.9759376312
  - # 17
    frequency:   15.2577542467
  - # 18
    frequency:   20.5174534503

- q-position: [    0.0757576,    0.0000000,    0.0000000 ]
  distance:    0.0244117
  band:
  - # 1
    frequency:   -1.1840738447
  - # 2
    frequency:   -0.7048165876
  - # 3
    frequency:    0.4511740209
  - # 4
    frequency:    0.7690211402
  - # 5
    frequency:    1.4596596127
  - # 6
    frequency:    2.5871476271
  - # 7
    frequency:    2.9207491963
  - # 8
    frequency:    4.2764201938
  - # 9
    frequency:    6.6046343498
  - # 10
    frequency:    6.8061658091
  - # 11
    frequency:    7.0411250704
  - # 12
    frequency:   10.4806571045
  - # 13
    frequency:   11.1337128349
  - # 14
    frequency:   12.3029697466
  - # 15
    frequency:   12.9449068602
  - # 16
    frequency:   12.9692643514
  - # 17
    frequency:   15.2858044274
  - # 18
    frequency:   20.5153856039

- q-position: [    0.0808081,    0.0000000,    0.0000000 ]
  distance:    0.0260392
  band:
  - # 1
    frequency:   -1.1659942231
  - # 2
    frequency:   -0.6115914712
  - # 3
    frequency:    0.5278698200
  - # 4
    frequency:    0.8187225647
  - # 5
    frequency:    1.5564428399
  - # 6
    frequency:    2.5978710878
  - # 7
    frequency:    2.9710238243
  - # 8
    frequency:    4.2760123705
  - # 9
    frequency:    6.6038733780
  - # 10
    frequency:    6.8262944278
  - # 11
    frequency:    7.0269132575
  - # 12
    frequency:   10.4690794208
  - # 13
    frequency:   11.1537995332
  - # 14
    frequency:   12.3402880521
  - # 15
    frequency:   12.9350933668
  - # 16
    frequency:   12.9628018153
  - # 17
    frequency:   15.3156609770
  - # 18
    frequency:   20.5131975396

- q-position: [    0.0858586,    0.0000000,    0.0000000 ]
  distance:    0.0276666
  band:
  - # 1
    frequency:   -1.1464862964
  - # 2
    frequency:   -0.5119336065
  - # 3
    frequency:    0.6146084096
  - # 4
    frequency:    0.8681603167
  - # 5
    frequency:    1.6527189055
  - # 6
    frequency:    2.6093565567
  - # 7
    frequency:    3.0233330086
  - # 8
    frequency:    4.2758396135
  - # 9
    frequency:    6.6030650477
  - # 10
    frequency:    6.8460497658
  - # 11
    frequency:    7.0125185257
  - # 12
    frequency:   10.4570015250
  - # 13
    frequency:   11.1625308947
  - # 14
    frequency:   12.3883300777
  - # 15
    frequency:   12.9247510501
  - # 16
    frequency:   12.9571479259
  - # 17
    frequency:   15.3473543140
  - # 18
    frequency:   20.5108936506

- q-position: [    0.0909091,    0.0000000,    0.0000000 ]
  distance:    0.0292940
  band:
  - # 1
    frequency:   -1.1254928670
  - # 2
    frequency:   -0.4043833484
  - # 3
    frequency:    0.7096060487
  - # 4
    frequency:    0.9173272756
  - # 5
    frequency:    1.7483704893
  - # 6
    frequency:    2.6216097515
  - # 7
    frequency:    3.0775476164
  - # 8
    frequency:    4.2759577223
  - # 9
    frequency:    6.6022097261
  - # 10
    frequency:    6.8648185536
  - # 11
    frequency:    6.9985015697
  - # 12
    frequency:   10.4444675996
  - # 13
    frequency:   11.1601810009
  - # 14
    frequency:   12.4452946356
  - # 15
    frequency:   12.9138982758
  - # 16
    frequency:   12.9533150948
  - # 17
    frequency:   15.3809271311
  - # 18
    frequency:   20.5084785743

- q-position: [    0.0959596,    0.0000000,    0.0000000 ]
  distance:    0.0309215
  band:
  - # 1
    frequency:   -1.1029487978
  - # 2
    frequency:   -0.2783460692
  - # 3
    frequency:    0.8093995379
  - # 4
    frequency:    0.9662171142
  - # 5
    frequency:    1.8432754100
  - # 6
    frequency:    2.6346347848
  - # 7
    frequency:    3.1335410398
  - # 8
    frequency:    4.2764300731
  - # 9
    frequency:    6.6013078495
  - # 10
    frequency:    6.8813419529
  - # 11
    frequency:    6.9860826031
  - # 12
    frequency:   10.4315238042
  - # 13
    frequency:   11.1477028693
  - # 14
    frequency:   12.5079426937
  - # 15
    frequency:   12.9025541893
  - # 16
    frequency:   12.9530703537
  - # 17
    frequency:   15.4164335745
  - # 18
    frequency:   20.5059571808

- q-position: [    0.1010101,    0.0000000,    0.0000000 ]
  distance:    0.0325489
  band:
  - # 1
    frequency:   -1.0787792681
  - # 2
    frequency:   -0.0204148351
  - # 3
    frequency:    0.9104804746
  - # 4
    frequency:    1.0148242091
  - # 5
    frequency:    1.9373072273
  - # 6
    frequency:    2.6484339394
  - # 7
    frequency:    3.1911866759
  - # 8
    frequency:    4.2773292708
  - # 9
    frequency:    6.6003599432
  - # 10
    frequency:    6.8929152387
  - # 11
    frequency:    6.9779407152
  - # 12
    frequency:   10.4182181273
  - # 13
    frequency:   11.1264191931
  - # 14
    frequency:   12.5713419444
  - # 15
    frequency:   12.8907386668
  - # 16
    frequency:   12.9595055815
  - # 17
    frequency:   15.4539376762
  - # 18
    frequency:   20.5033345599

- q-position: [    0.1060606,    0.0000000,    0.0000000 ]
  distance:    0.0341764
  band:
  - # 1
    frequency:   -1.0528975228
  - # 2
    frequency:    0.2676896070
  - # 3
    frequency:    1.0104613527
  - # 4
    frequency:    1.0631435540
  - # 5
    frequency:    2.0303356783
  - # 6
    frequency:    2.6630074609
  - # 7
    frequency:    3.2503547971
  - # 8
    frequency:    4.2787392646
  - # 9
    frequency:    6.5993666444
  - # 10
    frequency:    6.8954368700
  - # 11
    frequency:    6.9781637384
  - # 12
    frequency:   10.4046002247
  - # 13
    frequency:   11.0977496563
  - # 14
    frequency:   12.6286083596
  - # 15
    frequency:   12.8784722656
  - # 16
    frequency:   12.9775745573
  - # 17
    frequency:   15.4935109138
  - # 18
    frequency:   20.5006160045

- q-position: [    0.1111111,    0.0000000,    0.0000000 ]
  distance:    0.0358038
  band:
  - # 1
    frequency:   -1.0252019408
  - # 2
    frequency:    0.3768588830
  - # 3
    frequency:    1.1081288822
  - # 4
    frequency:    1.1111706774
  - # 5
    frequency:    2.1222269722
  - # 6
    frequency:    2.6783533706
  - # 7
    frequency:    3.3109087218
  - # 8
    frequency:    4.2807580791
  - # 9
    frequency:    6.5983287286
  - # 10
    frequency:    6.8878523575
  - # 11
    frequency:    6.9878032900
  - # 12
    frequency:   10.3907212444
  - # 13
    frequency:   11.0630373241
  - # 14
    frequency:   12.6721061594
  - # 15
    frequency:   12.8657761749
  - # 16
    frequency:   13.0130730152
  - # 17
    frequency:   15.5352287753
  - # 18
    frequency:   20.4978069940

- q-position: [    0.1161616,    0.0000000,    0.0000000 ]
  distance:    0.0374313
  band:
  - # 1
    frequency:   -0.9955721644
  - # 2
    frequency:    0.4615362692
  - # 3
    frequency:    1.1589015643
  - # 4
    frequency:    1.2030313277
  - # 5
    frequency:    2.2128439704
  - # 6
    frequency:    2.6944673046
  - # 7
    frequency:    3.3727001324
  - # 8
    frequency:    4.2835013744
  - # 9
    frequency:    6.5972471386
  - # 10
    frequency:    6.8736538331
  - # 11
    frequency:    7.0033741397
  - # 12
    frequency:   10.3766336387
  - # 13
    frequency:   11.0234688122
  - # 14
    frequency:   12.6976955464
  - # 15
    frequency:   12.8526721657
  - # 16
    frequency:   13.0684777523
  - # 17
    frequency:   15.5791662272
  - # 18
    frequency:   20.4949131735

- q-position: [    0.1212121,    0.0000000,    0.0000000 ]
  distance:    0.0390587
  band:
  - # 1
    frequency:   -0.9638639055
  - # 2
    frequency:    0.5350022928
  - # 3
    frequency:    1.2063325821
  - # 4
    frequency:    1.2951101649
  - # 5
    frequency:    2.3020462647
  - # 6
    frequency:    2.7113423778
  - # 7
    frequency:    3.4355633042
  - # 8
    frequency:    4.2871071266
  - # 9
    frequency:    6.5961230157
  - # 10
    frequency:    6.8559539241
  - # 11
    frequency:    7.0217793355
  - # 12
    frequency:   10.3623909621
  - # 13
    frequency:   10.9800560288
  - # 14
    frequency:   12.7073967955
  - # 15
    frequency:   12.8391825413
  - # 16
    frequency:   13.1403084698
  - # 17
    frequency:   15.6253920428
  - # 18
    frequency:   20.4919403325

- q-position: [    0.1262626,    0.0000000,    0.0000000 ]
  distance:    0.0406862
  band:
  - # 1
    frequency:   -0.9299018363
  - # 2
    frequency:    0.6022721680
  - # 3
    frequency:    1.2534604111
  - # 4
    frequency:    1.3844808323
  - # 5
    frequency:    2.3896901612
  - # 6
    frequency:    2.7289690793
  - # 7
    frequency:    3.4993078995
  - # 8
    frequency:    4.2917418243
  - # 9
    frequency:    6.5949577341
  - # 10
    frequency:    6.8362686988
  - # 11
    frequency:    7.0415263481
  - # 12
    frequency:   10.3480476584
  - # 13
    frequency:   10.9336491164
  - # 14
    frequency:   12.7060079003
  - # 15
    frequency:   12.8253300872
  - # 16
    frequency:   13.2225055014
  - # 17
    frequency:   15.6739620398
  - # 18
    frequency:   20.4888943802

- q-position: [    0.1313131,    0.0000000,    0.0000000 ]
  distance:    0.0423136
  band:
  - # 1
    frequency:   -0.8934696227
  - # 2
    frequency:    0.6657776264
  - # 3
    frequency:    1.3002819776
  - # 4
    frequency:    1.4713215711
  - # 5
    frequency:    2.4756285707
  - # 6
    frequency:    2.7473351982
  - # 7
    frequency:    3.5637098562
  - # 8
    frequency:    4.2976086954
  - # 9
    frequency:    6.5937529358
  - # 10
    frequency:    6.8152930083
  - # 11
    frequency:    7.0619509221
  - # 12
    frequency:   10.3336588340
  - # 13
    frequency:   10.8849609695
  - # 14
    frequency:   12.6975010483
  - # 15
    frequency:   12.8111380220
  - # 16
    frequency:   13.3100176362
  - # 17
    frequency:   15.7249114120
  - # 18
    frequency:   20.4857813184

- q-position: [    0.1363636,    0.0000000,    0.0000000 ]
  distance:    0.0439411
  band:
  - # 1
    frequency:   -0.8542955528
  - # 2
    frequency:    0.7268526449
  - # 3
    frequency:    1.3467943890
  - # 4
    frequency:    1.5558217897
  - # 5
    frequency:    2.5597108085
  - # 6
    frequency:    2.7664257814
  - # 7
    frequency:    3.6284997919
  - # 8
    frequency:    4.3049585719
  - # 9
    frequency:    6.5925105673
  - # 10
    frequency:    6.7933793864
  - # 11
    frequency:    7.0827374780
  - # 12
    frequency:   10.3192800221
  - # 13
    frequency:   10.8345931650
  - # 14
    frequency:   12.6843573687
  - # 15
    frequency:   12.7966299483
  - # 16
    frequency:   13.3994504392
  - # 17
    frequency:   15.7782465125
  - # 18
    frequency:   20.4826072129

- q-position: [    0.1414141,    0.0000000,    0.0000000 ]
  distance:    0.0455685
  band:
  - # 1
    frequency:   -0.8120311093
  - # 2
    frequency:    0.7862852115
  - # 3
    frequency:    1.3929948716
  - # 4
    frequency:    1.6381599976
  - # 5
    frequency:    2.6417823177
  - # 6
    frequency:    2.7862231259
  - # 7
    frequency:    3.6933483666
  - # 8
    frequency:    4.3141039546
  - # 9
    frequency:    6.5912329157
  - # 10
    frequency:    6.7707325985
  - # 11
    frequency:    7.1037239765
  - # 12
    frequency:   10.3049669361
  - # 13
    frequency:   10.7830590348
  - # 14
    frequency:   12.6680265130
  - # 15
    frequency:   12.7818298040
  - # 16
    frequency:   13.4885922862
  - # 17
    frequency:   15.8339366244
  - # 18
    frequency:   20.4793781619

- q-position: [    0.1464646,    0.0000000,    0.0000000 ]
  distance:    0.0471960
  band:
  - # 1
    frequency:   -0.7662176986
  - # 2
    frequency:    0.8445638047
  - # 3
    frequency:    1.4388807079
  - # 4
    frequency:    1.7184957192
  - # 5
    frequency:    2.7216843579
  - # 6
    frequency:    2.8067068030
  - # 7
    frequency:    3.7578485046
  - # 8
    frequency:    4.3254363508
  - # 9
    frequency:    6.5899226457
  - # 10
    frequency:    6.7474888227
  - # 11
    frequency:    7.1248222597
  - # 12
    frequency:   10.2907752143
  - # 13
    frequency:   10.7308026380
  - # 14
    frequency:   12.6493683532
  - # 15
    frequency:   12.7667618140
  - # 16
    frequency:   13.5759614123
  - # 17
    frequency:   15.8919064193
  - # 18
    frequency:   20.4761002620

- q-position: [    0.1515152,    0.0000000,    0.0000000 ]
  distance:    0.0488234
  band:
  - # 1
    frequency:   -0.7162323676
  - # 2
    frequency:    0.9020010789
  - # 3
    frequency:    1.4844491748
  - # 4
    frequency:    1.7969677694
  - # 5
    frequency:    2.7992537455
  - # 6
    frequency:    2.8278537155
  - # 7
    frequency:    3.8214959434
  - # 8
    frequency:    4.3394453326
  - # 9
    frequency:    6.5885828328
  - # 10
    frequency:    6.7237505020
  - # 11
    frequency:    7.1459828305
  - # 12
    frequency:   10.2767601588
  - # 13
    frequency:   10.6782137334
  - # 14
    frequency:   12.6289156297
  - # 15
    frequency:   12.7514504425
  - # 16
    frequency:   13.6605342929
  - # 17
    frequency:   15.9520298894
  - # 18
    frequency:   20.4727795733

- q-position: [    0.1565657,    0.0000000,    0.0000000 ]
  distance:    0.0504509
  band:
  - # 1
    frequency:   -0.6611935194
  - # 2
    frequency:    0.9588011741
  - # 3
    frequency:    1.5296974803
  - # 4
    frequency:    1.8736952553
  - # 5
    frequency:    2.8496381864
  - # 6
    frequency:    2.8743227903
  - # 7
    frequency:    3.8836735560
  - # 8
    frequency:    4.3567337260
  - # 9
    frequency:    6.5872169963
  - # 10
    frequency:    6.6996031004
  - # 11
    frequency:    7.1671778334
  - # 12
    frequency:   10.2629764685
  - # 13
    frequency:   10.6256393245
  - # 14
    frequency:   12.6070159408
  - # 15
    frequency:   12.7359203461
  - # 16
    frequency:   13.7415956615
  - # 17
    frequency:   16.0141265176
  - # 18
    frequency:   20.4694220808

- q-position: [    0.1616162,    0.0000000,    0.0000000 ]
  distance:    0.0520783
  band:
  - # 1
    frequency:   -0.5997832571
  - # 2
    frequency:    1.0150986224
  - # 3
    frequency:    1.5746226997
  - # 4
    frequency:    1.9487796051
  - # 5
    frequency:    2.8720320763
  - # 6
    frequency:    2.9467196527
  - # 7
    frequency:    3.9436528720
  - # 8
    frequency:    4.3780152715
  - # 9
    frequency:    6.5858291268
  - # 10
    frequency:    6.6751238944
  - # 11
    frequency:    7.1883921102
  - # 12
    frequency:   10.2494779684
  - # 13
    frequency:   10.5733924392
  - # 14
    frequency:   12.5839083654
  - # 15
    frequency:   12.7201963268
  - # 16
    frequency:   13.8186536379
  - # 17
    frequency:   16.0779602877
  - # 18
    frequency:   20.4660336565

- q-position: [    0.1666667,    0.0000000,    0.0000000 ]
  distance:    0.0537058
  band:
  - # 1
    frequency:   -0.5298732032
  - # 2
    frequency:    1.0709819175
  - # 3
    frequency:    1.6192217101
  - # 4
    frequency:    2.0223068435
  - # 5
    frequency:    2.8950049289
  - # 6
    frequency:    3.0162694198
  - # 7
    frequency:    4.0006375671
  - # 8
    frequency:    4.4040696768
  - # 9
    frequency:    6.5844237104
  - # 10
    frequency:    6.6503870136
  - # 11
    frequency:    7.2096181177
  - # 12
    frequency:   10.2363173394
  - # 13
    frequency:   10.5217587406
  - # 14
    frequency:   12.5597659636
  - # 15
    frequency:   12.7043032858
  - # 16
    frequency:   13.8913878345
  - # 17
    frequency:   16.1432418484
  - # 18
    frequency:   20.4626200186

- q-position: [    0.1717172,    0.0000000,    0.0000000 ]
  distance:    0.0553332
  band:
  - # 1
    frequency:   -0.4475964047
  - # 2
    frequency:    1.1265083342
  - # 3
    frequency:    1.6634911242
  - # 4
    frequency:    2.0943497753
  - # 5
    frequency:    2.9185241398
  - # 6
    frequency:    3.0827962694
  - # 7
    frequency:    4.0538783458
  - # 8
    frequency:    4.4356252500
  - # 9
    frequency:    6.5830057460
  - # 10
    frequency:    6.6254666318
  - # 11
    frequency:    7.2308528198
  - # 12
    frequency:   10.2235458471
  - # 13
    frequency:   10.4710014587
  - # 14
    frequency:   12.5347202123
  - # 15
    frequency:   12.6882661781
  - # 16
    frequency:   13.9596139732
  - # 17
    frequency:   16.2096337760
  - # 18
    frequency:   20.4591866915

- q-position: [    0.1767677,    0.0000000,    0.0000000 ]
  distance:    0.0569606
  band:
  - # 1
    frequency:   -0.3443260448
  - # 2
    frequency:    1.1817135328
  - # 3
    frequency:    1.7074272227
  - # 4
    frequency:    2.1649699464
  - # 5
    frequency:    2.9425551468
  - # 6
    frequency:    3.1461271083
  - # 7
    frequency:    4.1028617849
  - # 8
    frequency:    4.4731661341
  - # 9
    frequency:    6.5815807570
  - # 10
    frequency:    6.6004392257
  - # 11
    frequency:    7.2520956485
  - # 12
    frequency:   10.2112130756
  - # 13
    frequency:   10.4213650240
  - # 14