nqpoint: 300    
npath: 3      
segment_nqpoint:
- 100
- 100
- 100
labels:
- [ 'G', 'M' ]
- [ 'M', 'K' ]
- [ 'K', 'G' ]
reciprocal_lattice:
- [   0.30748012,   0.17752373,   0.00000000 ] # a*
- [   0.00000000,   0.35504746,   0.00000000 ] # b*
- [   0.00000000,   0.00000000,   0.04363746 ] # c*
natom: 5      
lattice:
- [     3.252242770031406,     0.000000000000000,     0.000000000000000 ] # a
- [    -1.626121385015703,     2.816524858117031,     0.000000000000000 ] # b
- [     0.000000000000000,     0.000000000000000,    22.916091621604934 ] # c
points:
- symbol: Cl # 1
  coordinates: [  0.666666984744047,  0.333332985985145,  0.392737127631089 ]
  mass: 35.453000
- symbol: F # 2
  coordinates: [  0.333332985432215,  0.666666983183674,  0.607262872368910 ]
  mass: 18.998403
- symbol: N # 3
  coordinates: [  0.000000000000000,  0.000000000000000,  0.511474774941855 ]
  mass: 14.006700
- symbol: Ti # 4
  coordinates: [  0.333332985432215,  0.666666983183674,  0.465907187658084 ]
  mass: 47.867000
- symbol: Ti # 5
  coordinates: [  0.666666984744047,  0.333332985985145,  0.555005714452587 ]
  mass: 47.867000

phonon:
- q-position: [    0.0000000,    0.0000000,    0.0000000 ]
  distance:    0.0000000
  band:
  - # 1
    frequency:   -0.0000155667
  - # 2
    frequency:    0.0000001639
  - # 3
    frequency:    0.0000138199
  - # 4
    frequency:    4.6474113303
  - # 5
    frequency:    4.6474113303
  - # 6
    frequency:    6.7087900276
  - # 7
    frequency:    6.7087900276
  - # 8
    frequency:    7.1117380066
  - # 9
    frequency:    7.4975036689
  - # 10
    frequency:    7.4975036690
  - # 11
    frequency:   10.9579762270
  - # 12
    frequency:   13.2553837018
  - # 13
    frequency:   15.5654254923
  - # 14
    frequency:   16.6616124283
  - # 15
    frequency:   16.6616124283

- q-position: [    0.0050505,    0.0000000,    0.0000000 ]
  distance:    0.0017932
  band:
  - # 1
    frequency:    0.0020053638
  - # 2
    frequency:    0.0815400689
  - # 3
    frequency:    0.1278190786
  - # 4
    frequency:    4.6476769266
  - # 5
    frequency:    4.6487163341
  - # 6
    frequency:    6.7079009504
  - # 7
    frequency:    6.7086268442
  - # 8
    frequency:    7.1121511544
  - # 9
    frequency:    7.4972820106
  - # 10
    frequency:    7.4988982141
  - # 11
    frequency:   10.9574609051
  - # 12
    frequency:   13.2542770686
  - # 13
    frequency:   15.5651662806
  - # 14
    frequency:   16.6615033008
  - # 15
    frequency:   16.6616659774

- q-position: [    0.0101010,    0.0000000,    0.0000000 ]
  distance:    0.0035863
  band:
  - # 1
    frequency:    0.0080129349
  - # 2
    frequency:    0.1630219641
  - # 3
    frequency:    0.2555588399
  - # 4
    frequency:    4.6484728763
  - # 5
    frequency:    4.6526224227
  - # 6
    frequency:    6.7052546586
  - # 7
    frequency:    6.7081378832
  - # 8
    frequency:    7.1133917288
  - # 9
    frequency:    7.4966169872
  - # 10
    frequency:    7.5030575767
  - # 11
    frequency:   10.9559155495
  - # 12
    frequency:   13.2509593143
  - # 13
    frequency:   15.5643889484
  - # 14
    frequency:   16.6611764379
  - # 15
    frequency:   16.6618265381

- q-position: [    0.0151515,    0.0000000,    0.0000000 ]
  distance:    0.0053795
  band:
  - # 1
    frequency:    0.0179966091
  - # 2
    frequency:    0.2443876633
  - # 3
    frequency:    0.3831401676
  - # 4
    frequency:    4.6497966645
  - # 5
    frequency:    4.6591030177
  - # 6
    frequency:    6.7009122528
  - # 7
    frequency:    6.7073249107
  - # 8
    frequency:    7.1154628631
  - # 9
    frequency:    7.4955084586
  - # 10
    frequency:    7.5099109233
  - # 11
    frequency:   10.9533419925
  - # 12
    frequency:   13.2454368773
  - # 13
    frequency:   15.5630944062
  - # 14
    frequency:   16.6606333877
  - # 15
    frequency:   16.6620938477

- q-position: [    0.0202020,    0.0000000,    0.0000000 ]
  distance:    0.0071727
  band:
  - # 1
    frequency:    0.0319136113
  - # 2
    frequency:    0.3255794429
  - # 3
    frequency:    0.5104843497
  - # 4
    frequency:    4.6516441089
  - # 5
    frequency:    4.6681144444
  - # 6
    frequency:    6.6949701584
  - # 7
    frequency:    6.7061908669
  - # 8
    frequency:    7.1183689886
  - # 9
    frequency:    7.4939562106
  - # 10
    frequency:    7.5193464161
  - # 11
    frequency:   10.9497432934
  - # 12
    frequency:   13.2377204979
  - # 13
    frequency:   15.5612841775
  - # 14
    frequency:   16.6598766970
  - # 15
    frequency:   16.6624674582

- q-position: [    0.0252525,    0.0000000,    0.0000000 ]
  distance:    0.0089658
  band:
  - # 1
    frequency:    0.0497053056
  - # 2
    frequency:    0.4065400291
  - # 3
    frequency:    0.6375132740
  - # 4
    frequency:    4.6540093740
  - # 5
    frequency:    4.6795968326
  - # 6
    frequency:    6.6875530379
  - # 7
    frequency:    6.7047398608
  - # 8
    frequency:    7.1221148851
  - # 9
    frequency:    7.4919599814
  - # 10
    frequency:    7.5312192801
  - # 11
    frequency:   10.9451237464
  - # 12
    frequency:   13.2278252316
  - # 13
    frequency:   15.5589604080
  - # 14
    frequency:   16.6589098620
  - # 15
    frequency:   16.6629467208

- q-position: [    0.0303030,    0.0000000,    0.0000000 ]
  distance:    0.0107590
  band:
  - # 1
    frequency:    0.0712983690
  - # 2
    frequency:    0.4872127475
  - # 3
    frequency:    0.7641496180
  - # 4
    frequency:    4.6568849904
  - # 5
    frequency:    4.6934753142
  - # 6
    frequency:    6.6788055947
  - # 7
    frequency:    6.7029771630
  - # 8
    frequency:    7.1267047152
  - # 9
    frequency:    7.4895195007
  - # 10
    frequency:    7.5453610064
  - # 11
    frequency:   10.9394888924
  - # 12
    frequency:   13.2157704655
  - # 13
    frequency:   15.5561258786
  - # 14
    frequency:   16.6577372601
  - # 15
    frequency:   16.6635307658

- q-position: [    0.0353535,    0.0000000,    0.0000000 ]
  distance:    0.0125522
  band:
  - # 1
    frequency:    0.0966061997
  - # 2
    frequency:    0.5675416740
  - # 3
    frequency:    0.8903170307
  - # 4
    frequency:    4.6602618811
  - # 5
    frequency:    4.7096614599
  - # 6
    frequency:    6.6688843947
  - # 7
    frequency:    6.7009091966
  - # 8
    frequency:    7.1321412214
  - # 9
    frequency:    7.4866345364
  - # 10
    frequency:    7.5615883891
  - # 11
    frequency:   10.9328455319
  - # 12
    frequency:   13.2015799375
  - # 13
    frequency:   15.5527840240
  - # 14
    frequency:   16.6563640649
  - # 15
    frequency:   16.6642184751

- q-position: [    0.0404040,    0.0000000,    0.0000000 ]
  distance:    0.0143454
  band:
  - # 1
    frequency:    0.1255304968
  - # 2
    frequency:    0.6474717841
  - # 3
    frequency:    1.0159403042
  - # 4
    frequency:    4.6641293925
  - # 5
    frequency:    4.7280548899
  - # 6
    frequency:    6.6579505779
  - # 7
    frequency:    6.6985435258
  - # 8
    frequency:    7.1384251769
  - # 9
    frequency:    7.4833049509
  - # 10
    frequency:    7.5797114351
  - # 11
    frequency:   10.9252017421
  - # 12
    frequency:   13.1852817543
  - # 13
    frequency:   15.5489389554
  - # 14
    frequency:   16.6547961454
  - # 15
    frequency:   16.6650084517

- q-position: [    0.0454545,    0.0000000,    0.0000000 ]
  distance:    0.0161385
  band:
  - # 1
    frequency:    0.1579629465
  - # 2
    frequency:    0.7269491041
  - # 3
    frequency:    1.1409455333
  - # 4
    frequency:    4.6684753323
  - # 5
    frequency:    4.7485449922
  - # 6
    frequency:    6.6461639784
  - # 7
    frequency:    6.6958888428
  - # 8
    frequency:    7.1455550859
  - # 9
    frequency:    7.4795307653
  - # 10
    frequency:    7.5995396314
  - # 11
    frequency:   10.9165668943
  - # 12
    frequency:   13.1669084074
  - # 13
    frequency:   15.5445954892
  - # 14
    frequency:   16.6530399518
  - # 15
    frequency:   16.6658989830

- q-position: [    0.0505051,    0.0000000,    0.0000000 ]
  distance:    0.0179317
  band:
  - # 1
    frequency:    0.1937869495
  - # 2
    frequency:    0.8059208610
  - # 3
    frequency:    1.2652602620
  - # 4
    frequency:    4.6732860140
  - # 5
    frequency:    4.7710126802
  - # 6
    frequency:    6.6336788317
  - # 7
    frequency:    6.6929549522
  - # 8
    frequency:    7.1535270832
  - # 9
    frequency:    7.4753122294
  - # 10
    frequency:    7.6208864486
  - # 11
    frequency:   10.9069516741
  - # 12
    frequency:   13.1464967838
  - # 13
    frequency:   15.5397591807
  - # 14
    frequency:   16.6511023899
  - # 15
    frequency:   16.6668880005

- q-position: [    0.0555556,    0.0000000,    0.0000000 ]
  distance:    0.0197249
  band:
  - # 1
    frequency:    0.2328793325
  - # 2
    frequency:    0.8843356322
  - # 3
    frequency:    1.3888136148
  - # 4
    frequency:    4.6785463078
  - # 5
    frequency:    4.7953321294
  - # 6
    frequency:    6.6206409906
  - # 7
    frequency:    6.6897527530
  - # 8
    frequency:    7.1623349582
  - # 9
    frequency:    7.4706498973
  - # 10
    frequency:    7.6435722319
  - # 11
    frequency:   10.8963681015
  - # 12
    frequency:   13.1240881703
  - # 13
    frequency:   15.5344363641
  - # 14
    frequency:   16.6489906865
  - # 15
    frequency:   16.6679730363

- q-position: [    0.0606061,    0.0000000,    0.0000000 ]
  distance:    0.0215180
  band:
  - # 1
    frequency:    0.2751119935
  - # 2
    frequency:    0.9621434960
  - # 3
    frequency:    1.5115364121
  - # 4
    frequency:    4.6842396989
  - # 5
    frequency:    4.8213724401
  - # 6
    frequency:    6.6071864264
  - # 7
    frequency:    6.6862942186
  - # 8
    frequency:    7.1719702381
  - # 9
    frequency:    7.4655447063
  - # 10
    frequency:    7.6674257738
  - # 11
    frequency:   10.8848295522
  - # 12
    frequency:   13.0997282465
  - # 13
    frequency:   15.5286341963
  - # 14
    frequency:   16.6467122497
  - # 15
    frequency:   16.6691511759

- q-position: [    0.0656566,    0.0000000,    0.0000000 ]
  distance:    0.0233112
  band:
  - # 1
    frequency:    0.3203534416
  - # 2
    frequency:    1.0392961801
  - # 3
    frequency:    1.6333612691
  - # 4
    frequency:    4.6903483522
  - # 5
    frequency:    4.8489991808
  - # 6
    frequency:    6.5934407349
  - # 7
    frequency:    6.6825923728
  - # 8
    frequency:    7.1824222844
  - # 9
    frequency:    7.4599980589
  - # 10
    frequency:    7.6922849007
  - # 11
    frequency:   10.8723507774
  - # 12
    frequency:   13.0734670678
  - # 13
    frequency:   15.5223607055
  - # 14
    frequency:   16.6442745256
  - # 15
    frequency:   16.6704190100

- q-position: [    0.0707071,    0.0000000,    0.0000000 ]
  distance:    0.0251044
  band:
  - # 1
    frequency:    0.3684702013
  - # 2
    frequency:    1.1157472099
  - # 3
    frequency:    1.7542226764
  - # 4
    frequency:    4.6968531863
  - # 5
    frequency:    4.8780757799
  - # 6
    frequency:    6.5795193687
  - # 7
    frequency:    6.6786612631
  - # 8
    frequency:    7.1936783718
  - # 9
    frequency:    7.4540119053
  - # 10
    frequency:    7.7179963809
  - # 11
    frequency:   10.8589479242
  - # 12
    frequency:   13.0453590329
  - # 13
    frequency:   15.5156248426
  - # 14
    frequency:   16.6416848555
  - # 15
    frequency:   16.6717725837

- q-position: [    0.0757576,    0.0000000,    0.0000000 ]
  distance:    0.0268975
  band:
  - # 1
    frequency:    0.4193280632
  - # 2
    frequency:    1.1914520558
  - # 3
    frequency:    1.8740570635
  - # 4
    frequency:    4.7037339542
  - # 5
    frequency:    4.9084647407
  - # 6
    frequency:    6.5655283618
  - # 7
    frequency:    6.6745159295
  - # 8
    frequency:    7.2057237405
  - # 9
    frequency:    7.4475888251
  - # 10
    frequency:    7.7444154096
  - # 11
    frequency:   10.8446385521
  - # 12
    frequency:   13.0154628367
  - # 13
    frequency:   15.5084365340
  - # 14
    frequency:   16.6389503368
  - # 15
    frequency:   16.6732073461

- q-position: [    0.0808081,    0.0000000,    0.0000000 ]
  distance:    0.0286907
  band:
  - # 1
    frequency:    0.4727931709
  - # 2
    frequency:    1.2663682782
  - # 3
    frequency:    1.9928028438
  - # 4
    frequency:    4.7109693331
  - # 5
    frequency:    4.9400286638
  - # 6
    frequency:    6.5515653587
  - # 7
    frequency:    6.6701723681
  - # 8
    frequency:    7.2185416176
  - # 9
    frequency:    7.4407321083
  - # 10
    frequency:    7.7714048618
  - # 11
    frequency:   10.8294416482
  - # 12
    frequency:   12.9838414057
  - # 13
    frequency:   15.5008067336
  - # 14
    frequency:   16.6360776906
  - # 15
    frequency:   16.6747180998

- q-position: [    0.0858586,    0.0000000,    0.0000000 ]
  distance:    0.0304839
  band:
  - # 1
    frequency:    0.5287329436
  - # 2
    frequency:    1.3404556713
  - # 3
    frequency:    2.1104004422
  - # 4
    frequency:    4.7185370227
  - # 5
    frequency:    4.9726310698
  - # 6
    frequency:    6.5377208158
  - # 7
    frequency:    6.6656474886
  - # 8
    frequency:    7.2321132112
  - # 9
    frequency:    7.4334458321
  - # 10
    frequency:    7.7988344523
  - # 11
    frequency:   10.8133776380
  - # 12
    frequency:   12.9505618159
  - # 13
    frequency:   15.4927474730
  - # 14
    frequency:   16.6330731387
  - # 15
    frequency:   16.6762989518

- q-position: [    0.0909091,    0.0000000,    0.0000000 ]
  distance:    0.0322770
  band:
  - # 1
    frequency:    0.5870168370
  - # 2
    frequency:    1.4136764029
  - # 3
    frequency:    2.2267923050
  - # 4
    frequency:    4.7264138530
  - # 5
    frequency:    5.0061370181
  - # 6
    frequency:    6.5240792803
  - # 7
    frequency:    6.6609590656
  - # 8
    frequency:    7.2464176851
  - # 9
    frequency:    7.4257349339
  - # 10
    frequency:    7.8265798925
  - # 11
    frequency:   10.7964683916
  - # 12
    frequency:   12.9156951913
  - # 13
    frequency:   15.4842719058
  - # 14
    frequency:   16.6299422931
  - # 15
    frequency:   16.6779432666

- q-position: [    0.0959596,    0.0000000,    0.0000000 ]
  distance:    0.0340702
  band:
  - # 1
    frequency:    0.6475169548
  - # 2
    frequency:    1.4859951529
  - # 3
    frequency:    2.3419228946
  - # 4
    frequency:    4.7345759009
  - # 5
    frequency:    5.0404135250
  - # 6
    frequency:    6.5107206923
  - # 7
    frequency:    6.6561256800
  - # 8
    frequency:    7.2614321195
  - # 9
    frequency:    7.4176052791
  - # 10
    frequency:    7.8545221032
  - # 11
    frequency:   10.7787372239
  - # 12
    frequency:   12.8793165837
  - # 13
    frequency:   15.4753943461
  - # 14
    frequency:   16.6266900615
  - # 15
    frequency:   16.6796436222

- q-position: [    0.1010101,    0.0000000,    0.0000000 ]
  distance:    0.0358634
  band:
  - # 1
    frequency:    0.7101085211
  - # 2
    frequency:    1.5573792461
  - # 3
    frequency:    2.4557386681
  - # 4
    frequency:    4.7429986169
  - # 5
    frequency:    5.0753297854
  - # 6
    frequency:    6.4977216762
  - # 7
    frequency:    6.6511666526
  - # 8
    frequency:    7.2771314648
  - # 9
    frequency:    7.4090637223
  - # 10
    frequency:    7.8825465159
  - # 11
    frequency:   10.7602088877
  - # 12
    frequency:   12.8415048320
  - # 13
    frequency:   15.4661302971
  - # 14
    frequency:   16.6233205689
  - # 15
    frequency:   16.6813917705

- q-position: [    0.1060606,    0.0000000,    0.0000000 ]
  distance:    0.0376565
  band:
  - # 1
    frequency:    0.7746702301
  - # 2
    frequency:    1.6277987816
  - # 3
    frequency:    2.5681880437
  - # 4
    frequency:    4.7516569607
  - # 5
    frequency:    5.1107572042
  - # 6
    frequency:    6.4851568062
  - # 7
    frequency:    6.6461019648
  - # 8
    frequency:    7.2934884933
  - # 9
    frequency:    7.4001181619
  - # 10
    frequency:    7.9105424783
  - # 11
    frequency:   10.7409095585
  - # 12
    frequency:   12.8023424033
  - # 13
    frequency:   15.4564964685
  - # 14
    frequency:   16.6198370989
  - # 15
    frequency:   16.6831786023

- q-position: [    0.1111111,    0.0000000,    0.0000000 ]
  distance:    0.0394497
  band:
  - # 1
    frequency:    0.8410844867
  - # 2
    frequency:    1.6972267568
  - # 3
    frequency:    2.6792213549
  - # 4
    frequency:    4.7605255473
  - # 5
    frequency:    5.1465692465
  - # 6
    frequency:    6.4730998427
  - # 7
    frequency:    6.6409521681
  - # 8
    frequency:    7.3104737544
  - # 9
    frequency:    7.3907775869
  - # 10
    frequency:    7.9384027724
  - # 11
    frequency:   10.7208668092
  - # 12
    frequency:   12.7619152136
  - # 13
    frequency:   15.4465107812
  - # 14
    frequency:   16.6162420553
  - # 15
    frequency:   16.6849941187

- q-position: [    0.1161616,    0.0000000,    0.0000000 ]
  distance:    0.0412429
  band:
  - # 1
    frequency:    0.9092375562
  - # 2
    frequency:    1.7656391849
  - # 3
    frequency:    2.7887907963
  - # 4
    frequency:    4.7695788009
  - # 5
    frequency:    5.1826411154
  - # 6
    frequency:    6.4616249413
  - # 7
    frequency:    6.6357382790
  - # 8
    frequency:    7.3280555362
  - # 9
    frequency:    7.3810521164
  - # 10
    frequency:    7.9660232413
  - # 11
    frequency:   10.7001095740
  - # 12
    frequency:   12.7203124291
  - # 13
    frequency:   15.4361923575
  - # 14
    frequency:   16.6125369446
  - # 15
    frequency:   16.6868274086

- q-position: [    0.1212121,    0.0000000,    0.0000000 ]
  distance:    0.0430361
  band:
  - # 1
    frequency:    0.9790196353
  - # 2
    frequency:    1.8330152054
  - # 3
    frequency:    2.8968503633
  - # 4
    frequency:    4.7787911187
  - # 5
    frequency:    5.2188492714
  - # 6
    frequency:    6.4508078370
  - # 7
    frequency:    6.6304816591
  - # 8
    frequency:    7.3461998361
  - # 9
    frequency:    7.3709530302
  - # 10
    frequency:    7.9933025238
  - # 11
    frequency:   10.6786680986
  - # 12
    frequency:   12.6776262494
  - # 13
    frequency:   15.4255614962
  - # 14
    frequency:   16.6087223793
  - # 15
    frequency:   16.6886666346

- q-position: [    0.1262626,    0.0000000,    0.0000000 ]
  distance:    0.0448292
  band:
  - # 1
    frequency:    1.0503248594
  - # 2
    frequency:    1.8993371873
  - # 3
    frequency:    3.0033557880
  - # 4
    frequency:    4.7881370422
  - # 5
    frequency:    5.2550708076
  - # 6
    frequency:    6.4407270046
  - # 7
    frequency:    6.6252038782
  - # 8
    frequency:    7.3604927924
  - # 9
    frequency:    7.3648703425
  - # 10
    frequency:    8.0201418888
  - # 11
    frequency:   10.6565738767
  - # 12
    frequency:   12.6339516717
  - # 13
    frequency:   15.4146396311
  - # 14
    frequency:   16.6047981026
  - # 15
    frequency:   16.6904990262

- q-position: [    0.1313131,    0.0000000,    0.0000000 ]
  distance:    0.0466224
  band:
  - # 1
    frequency:    1.1230512590
  - # 2
    frequency:    1.9645908228
  - # 3
    frequency:    3.1082644753
  - # 4
    frequency:    4.7975914345
  - # 5
    frequency:    5.2911827059
  - # 6
    frequency:    6.4314647890
  - # 7
    frequency:    6.6199265608
  - # 8
    frequency:    7.3496850672
  - # 9
    frequency:    7.3840284291
  - # 10
    frequency:    8.0464451641
  - # 11
    frequency:   10.6338595695
  - # 12
    frequency:   12.5893862358
  - # 13
    frequency:   15.4034492745
  - # 14
    frequency:   16.6007630331
  - # 15
    frequency:   16.6923108829

- q-position: [    0.1363636,    0.0000000,    0.0000000 ]
  distance:    0.0484156
  band:
  - # 1
    frequency:    1.1971006755
  - # 2
    frequency:    2.0287652113
  - # 3
    frequency:    3.2115354432
  - # 4
    frequency:    4.8071296640
  - # 5
    frequency:    5.3270610074
  - # 6
    frequency:    6.4231084866
  - # 7
    frequency:    6.6146712137
  - # 8
    frequency:    7.3385447267
  - # 9
    frequency:    7.4036331629
  - # 10
    frequency:    8.0721187527
  - # 11
    frequency:   10.6105589079
  - # 12
    frequency:   12.5440297518
  - # 13
    frequency:   15.3920139435
  - # 14
    frequency:   16.5966153277
  - # 15
    frequency:   16.6940875866

- q-position: [    0.1414141,    0.0000000,    0.0000000 ]
  distance:    0.0502087
  band:
  - # 1
    frequency:    1.2723786461
  - # 2
    frequency:    2.0918529321
  - # 3
    frequency:    3.3131292696
  - # 4
    frequency:    4.8167277909
  - # 5
    frequency:    5.3625799484
  - # 6
    frequency:    6.4157513420
  - # 7
    frequency:    6.6094590362
  - # 8
    frequency:    7.3270878538
  - # 9
    frequency:    7.4236413247
  - # 10
    frequency:    8.0970717322
  - # 11
    frequency:   10.5867065751
  - # 12
    frequency:   12.4979840091
  - # 13
    frequency:   15.3803580725
  - # 14
    frequency:   16.5923524625
  - # 15
    frequency:   16.6958136238

- q-position: [    0.1464646,    0.0000000,    0.0000000 ]
  distance:    0.0520019
  band:
  - # 1
    frequency:    1.3487942665
  - # 2
    frequency:    2.1538501054
  - # 3
    frequency:    3.4130080508
  - # 4
    frequency:    4.8263627547
  - # 5
    frequency:    5.3976111346
  - # 6
    frequency:    6.4094933979
  - # 7
    frequency:    6.6043107116
  - # 8
    frequency:    7.3153317380
  - # 9
    frequency:    7.4440074449
  - # 10
    frequency:    8.1212160293
  - # 11
    frequency:   10.5623380685
  - # 12
    frequency:   12.4513524672
  - # 13
    frequency:   15.3685069109
  - # 14
    frequency:   16.5879713281
  - # 15
    frequency:   16.6974726185

- q-position: [    0.1515152,    0.0000000,    0.0000000 ]
  distance:    0.0537951
  band:
  - # 1
    frequency:    1.4262600373
  - # 2
    frequency:    2.2147564392
  - # 3
    frequency:    3.5111353749
  - # 4
    frequency:    4.8360125613
  - # 5
    frequency:    5.4320228602
  - # 6
    frequency:    6.4044421053
  - # 7
    frequency:    6.5992461816
  - # 8
    frequency:    7.3032948678
  - # 9
    frequency:    7.4646838518
  - # 10
    frequency:    8.1444666688
  - # 11
    frequency:   10.5374895400
  - # 12
    frequency:   12.4042399275
  - # 13
    frequency:   15.3564864076
  - # 14
    frequency:   16.5834683383
  - # 15
    frequency:   16.6990473760

- q-position: [    0.1565657,    0.0000000,    0.0000000 ]
  distance:    0.0555882
  band:
  - # 1
    frequency:    1.5046917003
  - # 2
    frequency:    2.2745752619
  - # 3
    frequency:    3.6074763142
  - # 4
    frequency:    4.8456564642
  - # 5
    frequency:    5.4656797119
  - # 6
    frequency:    6.4007125610
  - # 7
    frequency:    6.5942844038
  - # 8
    frequency:    7.2909969193
  - # 9
    frequency:    7.4856207324
  - # 10
    frequency:    8.1667420896
  - # 11
    frequency:   10.5121976134
  - # 12
    frequency:   12.3567521874
  - # 13
    frequency:   15.3443230851
  - # 14
    frequency:   16.5788395490
  - # 15
    frequency:   16.7005199373

- q-position: [    0.1616162,    0.0000000,    0.0000000 ]
  distance:    0.0573814
  band:
  - # 1
    frequency:    1.5840080688
  - # 2
    frequency:    2.3333135384
  - # 3
    frequency:    3.7019974398
  - # 4
    frequency:    4.8552751395
  - # 5
    frequency:    5.4984426443
  - # 6
    frequency:    6.3984271959
  - # 7
    frequency:    6.5894430957
  - # 8
    frequency:    7.2784587421
  - # 9
    frequency:    7.5067662056
  - # 10
    frequency:    8.1879645259
  - # 11
    frequency:   10.4864991804
  - # 12
    frequency:   12.3089956744
  - # 13
    frequency:   15.3320439028
  - # 14
    frequency:   16.5740807854
  - # 15
    frequency:   16.7018716446

- q-position: [    0.1666667,    0.0000000,    0.0000000 ]
  distance:    0.0591746
  band:
  - # 1
    frequency:    1.6641308552
  - # 2
    frequency:    2.3909818693
  - # 3
    frequency:    3.7946668616
  - # 4
    frequency:    4.8648508483
  - # 5
    frequency:    5.5301697475
  - # 6
    frequency:    6.3977146983
  - # 7
    frequency:    6.5847384661
  - # 8
    frequency:    7.2657023456
  - # 9
    frequency:    7.5280664056
  - # 10
    frequency:    8.2080604500
  - # 11
    frequency:   10.4604311746
  - # 12
    frequency:   12.2610770606
  - # 13
    frequency:   15.3196761136
  - # 14
    frequency:   16.5691877753
  - # 15
    frequency:   16.7030832173

- q-position: [    0.1717172,    0.0000000,    0.0000000 ]
  distance:    0.0609677
  band:
  - # 1
    frequency:    1.7449844993
  - # 2
    frequency:    2.4475944699
  - # 3
    frequency:    3.8854542966
  - # 4
    frequency:    4.8743675851
  - # 5
    frequency:    5.5607179482
  - # 6
    frequency:    6.3987079401
  - # 7
    frequency:    6.5801849371
  - # 8
    frequency:    7.2527508847
  - # 9
    frequency:    7.5494655748
  - # 10
    frequency:    8.2269610717
  - # 11
    frequency:   10.4340303261
  - # 12
    frequency:   12.2131028587
  - # 13
    frequency:   15.3072471125
  - # 14
    frequency:   16.5641562844
  - # 15
    frequency:   16.7041348388

- q-position: [    0.1767677,    0.0000000,    0.0000000 ]
  distance:    0.0627609
  band:
  - # 1
    frequency:    1.8264959981
  - # 2
    frequency:    2.5031691302
  - # 3
    frequency:    3.9743311649
  - # 4
    frequency:    4.8838112061
  - # 5
    frequency:    5.5899458678
  - # 6
    frequency:    6.4015406870
  - # 7
    frequency:    6.5757948608
  - # 8
    frequency:    7.2396286480
  - # 9
    frequency:    7.5709061633
  - # 10
    frequency:    8.2446028904
  - # 11
    frequency:   10.4073329002
  - # 12
    frequency:   12.1651789959
  - # 13
    frequency:   15.2947842827
  - # 14
    frequency:   16.5589822537
  - # 15
    frequency:   16.7050062538

- q-position: [    0.1818182,    0.0000000,    0.0000000 ]
  distance:    0.0645541
  band:
  - # 1
    frequency:    1.9085947390
  - # 2
    frequency:    2.5577271514
  - # 3
    frequency:    4.0612707171
  - # 4
    frequency:    4.8931695358
  - # 5
    frequency:    5.6177179736
  - # 6
    frequency:    6.4063429641
  - # 7
    frequency:    6.5715782343
  - # 8
    frequency:    7.2263610490
  - # 9
    frequency:    7.5923289354
  - # 10
    frequency:    8.2609282949
  - # 11
    frequency:   10.3803744234
  - # 12
    frequency:   12.1174103701
  - # 13
    frequency:   15.2823148373
  - # 14
    frequency:   16.5536619349
  - # 15
    frequency:   16.7056768745

- q-position: [    0.1868687,    0.0000000,    0.0000000 ]
  distance:    0.0663473
  band:
  - # 1
    frequency:    1.9912123376
  - # 2
    frequency:    2.6112932600
  - # 3
    frequency:    4.1462481873
  - # 4
    frequency:    4.9024324470
  - # 5
    frequency:    5.6439099910
  - # 6
    frequency:    6.4132351155
  - # 7
    frequency:    6.5675424172
  - # 8
    frequency:    7.2129746206
  - # 9
    frequency:    7.6136730791
  - # 10
    frequency:    8.2758862033
  - # 11
    frequency:   10.3531894043
  - # 12
    frequency:   12.0699003841
  - # 13
    frequency:   15.2698656605
  - # 14
    frequency:   16.5481920225
  - # 15
    frequency:   16.7061258965

- q-position: [    0.1919192,    0.0000000,    0.0000000 ]
  distance:    0.0681404
  band:
  - # 1
    frequency:    2.0742824795
  - # 2
    frequency:    2.6638954960
  - # 3
    frequency:    4.2292409719
  - # 4
    frequency:    4.9115919108
  - # 5
    frequency:    5.6684152865
  - # 6
    frequency:    6.4223208582
  - # 7
    frequency:    6.5636918566
  - # 8
    frequency:    7.1994970154
  - # 9
    frequency:    7.6348763172
  - # 10
    frequency:    8.2894327353
  - # 11
    frequency:   10.3258110549
  - # 12
    frequency:   12.0227504633
  - # 13
    frequency:   15.2574631490
  - # 14
    frequency:   16.5425697812
  - # 15
    frequency:   16.7063324233

- q-position: [    0.1969697,    0.0000000,    0.0000000 ]
  distance:    0.0699336
  band:
  - # 1
    frequency:    2.1577407667
  - # 2
    frequency:    2.7155650754
  - # 3
    frequency:    4.3102288263
  - # 4
    frequency:    4.9206420157
  - # 5
    frequency:    5.6911516221
  - # 6
    frequency:    6.4336799370
  - # 7
    frequency:    6.5600278246
  - # 8
    frequency:    7.1859570106
  - # 9
    frequency:    7.6558750193
  - # 10
    frequency:    8.3015319075
  - # 11
    frequency:   10.2982710230
  - # 12
    frequency:   11.9760595548
  - # 13
    frequency:   15.2451330547
  - # 14
    frequency:   16.5367931659
  - # 15
    frequency:   16.7062755972

- q-position: [    0.2020202,    0.0000000,    0.0000000 ]
  distance:    0.0717268
  band:
  - # 1
    frequency:    2.2415245690
  - # 2
    frequency:    2.7663362242
  - # 3
    frequency:    4.3891940714
  - # 4
    frequency:    4.9295789521
  - # 5
    frequency:    5.7120674078
  - # 6
    frequency:    6.4473612679
  - # 7
    frequency:    6.5565481731
  - # 8
    frequency:    7.1723845172
  - # 9
    frequency:    7.6766043115
  - # 10
    frequency:    8.3121563388
  - # 11
    frequency:   10.2705991447
  - # 12
    frequency:   11.9299236125
  - # 13
    frequency:   15.2329003312
  - # 14
    frequency:   16.5308609335
  - # 15
    frequency:   16.7059347383

- q-position: [    0.2070707,    0.0000000,    0.0000000 ]
  distance:    0.0735199
  band:
  - # 1
    frequency:    2.3255728783
  - # 2
    frequency:    2.8162459849
  - # 3
    frequency:    4.4661218000
  - # 4
    frequency:    4.9384009618
  - # 5
    frequency:    5.7311464472
  - # 6
    frequency:    6.4633775870
  - # 7
    frequency:    6.5532471118
  - # 8
    frequency:    7.1588105946
  - # 9
    frequency:    7.6969981830
  - # 10
    frequency:    8.3212879542
  - # 11
    frequency:   10.2428232269
  - # 12
    frequency:   11.8844350722
  - # 13
    frequency:   15.2207889834
  - # 14
    frequency:   16.5247727463
  - # 15
    frequency:   16.7052894878

- q-position: [    0.2121212,    0.0000000,    0.0000000 ]
  distance:    0.0753131
  band:
  - # 1
    frequency:    2.4098261676