nqpoint: 300    
npath: 3      
segment_nqpoint:
- 100
- 100
- 100
labels:
- [ 'G', 'M' ]
- [ 'M', 'K' ]
- [ 'K', 'G' ]
reciprocal_lattice:
- [   0.29535975,   0.17052603,   0.00000000 ] # a*
- [   0.00000000,   0.34105207,   0.00000000 ] # b*
- [   0.00000000,   0.00000000,   0.03921182 ] # c*
natom: 7      
lattice:
- [     3.385701637927481,     0.000000000000000,     0.000000000000000 ] # a
- [    -1.692850818963741,     2.932103628064481,     0.000000000000000 ] # b
- [     0.000000000000000,     0.000000000000000,    25.502512579831965 ] # c
points:
- symbol: C # 1
  coordinates: [  0.333332985432215,  0.666666983183674,  0.599833087706753 ]
  mass: 12.010700
- symbol: F # 2
  coordinates: [  0.666666984744048,  0.333332985985145,  0.352906403705391 ]
  mass: 18.998403
- symbol: N # 3
  coordinates: [  0.000000000000000,  0.000000000000000,  0.447970057397612 ]
  mass: 14.006700
- symbol: N # 4
  coordinates: [  0.333332985432215,  0.666666983183674,  0.550913855492304 ]
  mass: 14.006700
- symbol: O # 5
  coordinates: [  0.333332985432215,  0.666666983183674,  0.647093596294609 ]
  mass: 15.999400
- symbol: Zr # 6
  coordinates: [  0.333332985432215,  0.666666983183674,  0.404136536701059 ]
  mass: 91.224000
- symbol: Zr # 7
  coordinates: [  0.666666984744048,  0.333332985985145,  0.494551099915362 ]
  mass: 91.224000

phonon:
- q-position: [    0.0000000,    0.0000000,    0.0000000 ]
  distance:    0.0000000
  band:
  - # 1
    frequency:   -0.9353215172
  - # 2
    frequency:   -0.9353215171
  - # 3
    frequency:   -0.0000235596
  - # 4
    frequency:   -0.0000004162
  - # 5
    frequency:    0.0000186016
  - # 6
    frequency:    4.0029586253
  - # 7
    frequency:    4.0029586253
  - # 8
    frequency:    6.1108681419
  - # 9
    frequency:    6.1108681420
  - # 10
    frequency:    6.1437936037
  - # 11
    frequency:    6.9087749986
  - # 12
    frequency:    6.9087749987
  - # 13
    frequency:    8.9805725870
  - # 14
    frequency:   11.5762441549
  - # 15
    frequency:   14.2090123312
  - # 16
    frequency:   16.1921242318
  - # 17
    frequency:   16.1921242318
  - # 18
    frequency:   17.0455411203
  - # 19
    frequency:   17.0455411204
  - # 20
    frequency:   38.2711127444
  - # 21
    frequency:   68.9210367588

- q-position: [    0.0050505,    0.0000000,    0.0000000 ]
  distance:    0.0017225
  band:
  - # 1
    frequency:   -0.9351409950
  - # 2
    frequency:   -0.9337482206
  - # 3
    frequency:    0.0013222699
  - # 4
    frequency:    0.0653147857
  - # 5
    frequency:    0.0982958963
  - # 6
    frequency:    4.0021591183
  - # 7
    frequency:    4.0031164963
  - # 8
    frequency:    6.1109068994
  - # 9
    frequency:    6.1115236121
  - # 10
    frequency:    6.1430990311
  - # 11
    frequency:    6.9086842842
  - # 12
    frequency:    6.9096599143
  - # 13
    frequency:    8.9799169507
  - # 14
    frequency:   11.5755099952
  - # 15
    frequency:   14.2087612347
  - # 16
    frequency:   16.1922267679
  - # 17
    frequency:   16.1924644718
  - # 18
    frequency:   17.0455266271
  - # 19
    frequency:   17.0458388003
  - # 20
    frequency:   38.2710913718
  - # 21
    frequency:   68.9198216730

- q-position: [    0.0101010,    0.0000000,    0.0000000 ]
  distance:    0.0034450
  band:
  - # 1
    frequency:   -0.9345987191
  - # 2
    frequency:   -0.9290315483
  - # 3
    frequency:    0.0052887966
  - # 4
    frequency:    0.1305667155
  - # 5
    frequency:    0.1966043347
  - # 6
    frequency:    3.9997610618
  - # 7
    frequency:    4.0035930743
  - # 8
    frequency:    6.1110238527
  - # 9
    frequency:    6.1134817297
  - # 10
    frequency:    6.1410339948
  - # 11
    frequency:    6.9084119246
  - # 12
    frequency:    6.9123018401
  - # 13
    frequency:    8.9779512421
  - # 14
    frequency:   11.5733091625
  - # 15
    frequency:   14.2080076926
  - # 16
    frequency:   16.1925339968
  - # 17
    frequency:   16.1934830055
  - # 18
    frequency:   17.0454834804
  - # 19
    frequency:   17.0467314498
  - # 20
    frequency:   38.2710273162
  - # 21
    frequency:   68.9161790118

- q-position: [    0.0151515,    0.0000000,    0.0000000 ]
  distance:    0.0051675
  band:
  - # 1
    frequency:   -0.9336926159
  - # 2
    frequency:   -0.9211775577
  - # 3
    frequency:    0.0119018977
  - # 4
    frequency:    0.1956932429
  - # 5
    frequency:    0.2949260326
  - # 6
    frequency:    3.9957658777
  - # 7
    frequency:    4.0043971992
  - # 8
    frequency:    6.1112210303
  - # 9
    frequency:    6.1167061892
  - # 10
    frequency:    6.1376652431
  - # 11
    frequency:    6.9079572755
  - # 12
    frequency:    6.9166630488
  - # 13
    frequency:    8.9746790600
  - # 14
    frequency:   11.5696465931
  - # 15
    frequency:   14.2067509671
  - # 16
    frequency:   16.1930447787
  - # 17
    frequency:   16.1951732826
  - # 18
    frequency:   17.0454126776
  - # 19
    frequency:   17.0482178973
  - # 20
    frequency:   38.2709207645
  - # 21
    frequency:   68.9101165565

- q-position: [    0.0202020,    0.0000000,    0.0000000 ]
  distance:    0.0068899
  band:
  - # 1
    frequency:   -0.9324193955
  - # 2
    frequency:   -0.9101854966
  - # 3
    frequency:    0.0211651555
  - # 4
    frequency:    0.2606323781
  - # 5
    frequency:    0.3932414928
  - # 6
    frequency:    3.9901760299
  - # 7
    frequency:    4.0055434216
  - # 8
    frequency:    6.1115017654
  - # 9
    frequency:    6.1210318023
  - # 10
    frequency:    6.1332063986
  - # 11
    frequency:    6.9073192783
  - # 12
    frequency:    6.9226830104
  - # 13
    frequency:    8.9701063939
  - # 14
    frequency:   11.5645305026
  - # 15
    frequency:   14.2049898903
  - # 16
    frequency:   16.1937572071
  - # 17
    frequency:   16.1975244137
  - # 18
    frequency:   17.0453158733
  - # 19
    frequency:   17.0502961875
  - # 20
    frequency:   38.2707720273
  - # 21
    frequency:   68.9016472510

- q-position: [    0.0252525,    0.0000000,    0.0000000 ]
  distance:    0.0086124
  band:
  - # 1
    frequency:   -0.9307747582
  - # 2
    frequency:   -0.8960348530
  - # 3
    frequency:    0.0330841213
  - # 4
    frequency:    0.3253228521
  - # 5
    frequency:    0.4915079061
  - # 6
    frequency:    3.9829951637
  - # 7
    frequency:    4.0070517340
  - # 8
    frequency:    6.1118706257
  - # 9
    frequency:    6.1242123248
  - # 10
    frequency:    6.1299670216
  - # 11
    frequency:    6.9064964828
  - # 12
    frequency:    6.9302815672
  - # 13
    frequency:    8.9642416118
  - # 14
    frequency:   11.5579723698
  - # 15
    frequency:   14.2027229568
  - # 16
    frequency:   16.1946685984
  - # 17
    frequency:   16.2005212136
  - # 18
    frequency:   17.0451953681
  - # 19
    frequency:   17.0529635784
  - # 20
    frequency:   38.2705815379
  - # 21
    frequency:   68.8907891646

- q-position: [    0.0303030,    0.0000000,    0.0000000 ]
  distance:    0.0103349
  band:
  - # 1
    frequency:   -0.9287536113
  - # 2
    frequency:   -0.8786719836
  - # 3
    frequency:    0.0476669555
  - # 4
    frequency:    0.3897041737
  - # 5
    frequency:    0.5896611273
  - # 6
    frequency:    3.9742283028
  - # 7
    frequency:    4.0089472045
  - # 8
    frequency:    6.1123333183
  - # 9
    frequency:    6.1189080493
  - # 10
    frequency:    6.1353612716
  - # 11
    frequency:    6.9054870782
  - # 12
    frequency:    6.9393627725
  - # 13
    frequency:    8.9570954429
  - # 14
    frequency:   11.5499869128
  - # 15
    frequency:   14.1999484470
  - # 16
    frequency:   16.1957754774
  - # 17
    frequency:   16.2041442630
  - # 18
    frequency:   17.0450540930
  - # 19
    frequency:   17.0562165358
  - # 20
    frequency:   38.2703498507
  - # 21
    frequency:   68.8775654409

- q-position: [    0.0353535,    0.0000000,    0.0000000 ]
  distance:    0.0120574
  band:
  - # 1
    frequency:   -0.9263502553
  - # 2
    frequency:   -0.8579979620
  - # 3
    frequency:    0.0649254171
  - # 4
    frequency:    0.4537165916
  - # 5
    frequency:    0.6876209262
  - # 6
    frequency:    3.9638821002
  - # 7
    frequency:    4.0112595203
  - # 8
    frequency:    6.1110183869
  - # 9
    frequency:    6.1128965723
  - # 10
    frequency:    6.1435713731
  - # 11
    frequency:    6.9042889311
  - # 12
    frequency:    6.9498189569
  - # 13
    frequency:    8.9486809568
  - # 14
    frequency:   11.5405920572
  - # 15
    frequency:   14.1966645795
  - # 16
    frequency:   16.1970735598
  - # 17
    frequency:   16.2083699905
  - # 18
    frequency:   17.0448955892
  - # 19
    frequency:   17.0600507266
  - # 20
    frequency:   38.2700776392
  - # 21
    frequency:   68.8620042307

- q-position: [    0.0404040,    0.0000000,    0.0000000 ]
  distance:    0.0137799
  band:
  - # 1
    frequency:   -0.9235585153
  - # 2
    frequency:   -0.8338575005
  - # 3
    frequency:    0.0848763629
  - # 4
    frequency:    0.5173009866
  - # 5
    frequency:    0.7852973009
  - # 6
    frequency:    3.9519651453
  - # 7
    frequency:    4.0140224543
  - # 8
    frequency:    6.1020543458
  - # 9
    frequency:    6.1135680022
  - # 10
    frequency:    6.1531713629
  - # 11
    frequency:    6.9028996310
  - # 12
    frequency:    6.9615346418
  - # 13
    frequency:    8.9390135382
  - # 14
    frequency:   11.5298088975
  - # 15
    frequency:   14.1928696860
  - # 16
    frequency:   16.1985577292
  - # 17
    frequency:   16.2131707774
  - # 18
    frequency:   17.0447239841
  - # 19
    frequency:   17.0644610104
  - # 20
    frequency:   38.2697656934
  - # 21
    frequency:   68.8441386116

- q-position: [    0.0454545,    0.0000000,    0.0000000 ]
  distance:    0.0155024
  band:
  - # 1
    frequency:   -0.9203718067
  - # 2
    frequency:   -0.8060272047
  - # 3
    frequency:    0.1075440018
  - # 4
    frequency:    0.5803987194
  - # 5
    frequency:    0.8825961488
  - # 6
    frequency:    3.9384883258
  - # 7
    frequency:    4.0172732658
  - # 8
    frequency:    6.0922495233
  - # 9
    frequency:    6.1143559562
  - # 10
    frequency:    6.1640127736
  - # 11
    frequency:    6.9013165402
  - # 12
    frequency:    6.9743900215
  - # 13
    frequency:    8.9281108584
  - # 14
    frequency:   11.5176616487
  - # 15
    frequency:   14.1885624042
  - # 16
    frequency:   16.2002220120
  - # 17
    frequency:   16.2185150858
  - # 18
    frequency:   17.0445439633
  - # 19
    frequency:   17.0694414288
  - # 20
    frequency:   38.2694149171
  - # 21
    frequency:   68.8240064931

- q-position: [    0.0505051,    0.0000000,    0.0000000 ]
  distance:    0.0172249
  band:
  - # 1
    frequency:   -0.9167831404
  - # 2
    frequency:   -0.7742002164
  - # 3
    frequency:    0.1329632752
  - # 4
    frequency:    0.6429514575
  - # 5
    frequency:    0.9794234484
  - # 6
    frequency:    3.9234652452
  - # 7
    frequency:    4.0210520492
  - # 8
    frequency:    6.0817479167
  - # 9
    frequency:    6.1152693534
  - # 10
    frequency:    6.1760341092
  - # 11
    frequency:    6.8995368490
  - # 12
    frequency:    6.9882638546
  - # 13
    frequency:    8.9159928444
  - # 14
    frequency:   11.5041775898
  - # 15
    frequency:   14.1837418823
  - # 16
    frequency:   16.2020595485
  - # 17
    frequency:   16.2243676123
  - # 18
    frequency:   17.0443607382
  - # 19
    frequency:   17.0749851929
  - # 20
    frequency:   38.2690263247
  - # 21
    frequency:   68.8016505078

- q-position: [    0.0555556,    0.0000000,    0.0000000 ]
  distance:    0.0189473
  band:
  - # 1
    frequency:   -0.9127850812
  - # 2
    frequency:   -0.7379630356
  - # 3
    frequency:    0.1611849225
  - # 4
    frequency:    0.7049009944
  - # 5
    frequency:    1.0756878371
  - # 6
    frequency:    3.9069126968
  - # 7
    frequency:    4.0254010448
  - # 8
    frequency:    6.0706750452
  - # 9
    frequency:    6.1163175145
  - # 10
    frequency:    6.1891876691
  - # 11
    frequency:    6.8975576338
  - # 12
    frequency:    7.0030357131
  - # 13
    frequency:    8.9026816446
  - # 14
    frequency:   11.4893869974
  - # 15
    frequency:   14.1784079888
  - # 16
    frequency:   16.2040625602
  - # 17
    frequency:   16.2306894692
  - # 18
    frequency:   17.0441800108
  - # 19
    frequency:   17.0810846687
  - # 20
    frequency:   38.2686010371
  - # 21
    frequency:   68.7771178889

- q-position: [    0.0606061,    0.0000000,    0.0000000 ]
  distance:    0.0206698
  band:
  - # 1
    frequency:   -0.9083696717
  - # 2
    frequency:   -0.6967579982
  - # 3
    frequency:    0.1922830499
  - # 4
    frequency:    0.7661890647
  - # 5
    frequency:    1.1713018722
  - # 6
    frequency:    3.8888511949
  - # 7
    frequency:    4.0303639266
  - # 8
    frequency:    6.0591485053
  - # 9
    frequency:    6.1175099893
  - # 10
    frequency:    6.2034275680
  - # 11
    frequency:    6.8953759173
  - # 12
    frequency:    7.0185876177
  - # 13
    frequency:    8.8882015938
  - # 14
    frequency:   11.4733230694
  - # 15
    frequency:   14.1725615222
  - # 16
    frequency:   16.2062223158
  - # 17
    frequency:   16.2374383932
  - # 18
    frequency:   17.0440079347
  - # 19
    frequency:   17.0877313598
  - # 20
    frequency:   38.2681402784
  - # 21
    frequency:   68.7504603346

- q-position: [    0.0656566,    0.0000000,    0.0000000 ]
  distance:    0.0223923
  band:
  - # 1
    frequency:   -0.9035283367
  - # 2
    frequency:   -0.6498194908
  - # 3
    frequency:    0.2263663207
  - # 4
    frequency:    0.8267571526
  - # 5
    frequency:    1.2661823894
  - # 6
    frequency:    3.8693055649
  - # 7
    frequency:    4.0359850791
  - # 8
    frequency:    6.0472801185
  - # 9
    frequency:    6.1188563871
  - # 10
    frequency:    6.2187067134
  - # 11
    frequency:    6.8929887291
  - # 12
    frequency:    7.0348051366
  - # 13
    frequency:    8.8725791760
  - # 14
    frequency:   11.4560218374
  - # 15
    frequency:   14.1662044145
  - # 16
    frequency:   16.2085290939
  - # 17
    frequency:   16.2445689823
  - # 18
    frequency:   17.0438510732
  - # 19
    frequency:   17.0949158887
  - # 20
    frequency:   38.2676453708
  - # 21
    frequency:   68.7217338593

- q-position: [    0.0707071,    0.0000000,    0.0000000 ]
  distance:    0.0241148
  band:
  - # 1
    frequency:   -0.8982517758
  - # 2
    frequency:   -0.5960583506
  - # 3
    frequency:    0.2635939877
  - # 4
    frequency:    0.8865462847
  - # 5
    frequency:    1.3602503348
  - # 6
    frequency:    3.8483055964
  - # 7
    frequency:    4.0423088770
  - # 8
    frequency:    6.0351764092
  - # 9
    frequency:    6.1203662109
  - # 10
    frequency:    6.2349759006
  - # 11
    frequency:    6.8903931667
  - # 12
    frequency:    7.0515780499
  - # 13
    frequency:    8.8558429870
  - # 14
    frequency:   11.4375220696
  - # 15
    frequency:   14.1593399233
  - # 16
    frequency:   16.2109721447
  - # 17
    frequency:   16.2520329605
  - # 18
    frequency:   17.0437163543
  - # 19
    frequency:   17.1026279755
  - # 20
    frequency:   38.2671177301
  - # 21
    frequency:   68.6909986324

- q-position: [    0.0757576,    0.0000000,    0.0000000 ]
  distance:    0.0258373
  band:
  - # 1
    frequency:   -0.8925298508
  - # 2
    frequency:   -0.5338304485
  - # 3
    frequency:    0.3041970345
  - # 4
    frequency:    0.9454967989
  - # 5
    frequency:    1.4534303433
  - # 6
    frequency:    3.8258867606
  - # 7
    frequency:    4.0493789791
  - # 8
    frequency:    6.0229387626
  - # 9
    frequency:    6.1220487021
  - # 10
    frequency:    6.2521835685
  - # 11
    frequency:    6.8875864544
  - # 12
    frequency:    7.0688006828
  - # 13
    frequency:    8.8380236953
  - # 14
    frequency:   11.4178651608
  - # 15
    frequency:   14.1519728081
  - # 16
    frequency:   16.2135396510
  - # 17
    frequency:   16.2597794705
  - # 18
    frequency:   17.0436110235
  - # 19
    frequency:   17.1108564156
  - # 20
    frequency:   38.2665588609
  - # 21
    frequency:   68.6583188051

- q-position: [    0.0808081,    0.0000000,    0.0000000 ]
  distance:    0.0275598
  band:
  - # 1
    frequency:   -0.8863514707
  - # 2
    frequency:   -0.4603970188
  - # 3
    frequency:    0.3484999304
  - # 4
    frequency:    1.0035480757
  - # 5
    frequency:    1.5456502431
  - # 6
    frequency:    3.8020909985
  - # 7
    frequency:    4.0572376452
  - # 8
    frequency:    6.0106635820
  - # 9
    frequency:    6.1239126964
  - # 10
    frequency:    6.2702758023
  - # 11
    frequency:    6.8845660011
  - # 12
    frequency:    7.0863720028
  - # 13
    frequency:    8.8191540040
  - # 14
    frequency:   11.3970950118
  - # 15
    frequency:   14.1441094875
  - # 16
    frequency:   16.2162186886
  - # 17
    frequency:   16.2677553894
  - # 18
    frequency:   17.0435425943
  - # 19
    frequency:   17.1195890560
  - # 20
    frequency:   38.2659703509
  - # 21
    frequency:   68.6237623260

- q-position: [    0.0858586,    0.0000000,    0.0000000 ]
  distance:    0.0292822
  band:
  - # 1
    frequency:   -0.8797044741
  - # 2
    frequency:   -0.3703315712
  - # 3
    frequency:    0.3969231654
  - # 4
    frequency:    1.0606382235
  - # 5
    frequency:    1.6368405841
  - # 6
    frequency:    3.7769675837
  - # 7
    frequency:    4.0659250838
  - # 8
    frequency:    5.9984425029
  - # 9
    frequency:    6.1259664935
  - # 10
    frequency:    6.2891964413
  - # 11
    frequency:    6.8813294535
  - # 12
    frequency:    7.1041955627
  - # 13
    frequency:    8.7992686119
  - # 14
    frequency:   11.3752578972
  - # 15
    frequency:   14.1357581733
  - # 16
    frequency:   16.2189951885
  - # 17
    frequency:   16.2759056694
  - # 18
    frequency:   17.0435187969
  - # 19
    frequency:   17.1288127713
  - # 20
    frequency:   38.2653538654
  - # 21
    frequency:   68.5874007445

- q-position: [    0.0909091,    0.0000000,    0.0000000 ]
  distance:    0.0310047
  band:
  - # 1
    frequency:   -0.8725755075
  - # 2
    frequency:   -0.2483459535
  - # 3
    frequency:    0.4499116563
  - # 4
    frequency:    1.1167037050
  - # 5
    frequency:    1.7269342405
  - # 6
    frequency:    3.7505740658
  - # 7
    frequency:    4.0754788362
  - # 8
    frequency:    5.9863626574
  - # 9
    frequency:    6.1282177433
  - # 10
    frequency:    6.3088872343
  - # 11
    frequency:    6.8778747469
  - # 12
    frequency:    7.1221793507
  - # 13
    frequency:    8.7784041747
  - # 14
    frequency:   11.3524023211
  - # 15
    frequency:   14.1269289800
  - # 16
    frequency:   16.2218539002
  - # 17
    frequency:   16.2841736954
  - # 18
    frequency:   17.0435475250
  - # 19
    frequency:   17.1385134405
  - # 20
    frequency:   38.2647111416
  - # 21
    frequency:   68.5493090051

- q-position: [    0.0959596,    0.0000000,    0.0000000 ]
  distance:    0.0327272
  band:
  - # 1
    frequency:   -0.8649498974
  - # 2
    frequency:    0.1148733347
  - # 3
    frequency:    0.5076991955
  - # 4
    frequency:    1.1716788976
  - # 5
    frequency:    1.8158661089
  - # 6
    frequency:    3.7229773018
  - # 7
    frequency:    4.0859332000
  - # 8
    frequency:    5.9745069654
  - # 9
    frequency:    6.1306733496
  - # 10
    frequency:    6.3292880171
  - # 11
    frequency:    6.8742001512
  - # 12
    frequency:    7.1402355989
  - # 13
    frequency:    8.7565992670
  - # 14
    frequency:   11.3285788615
  - # 15
    frequency:   14.1176340075
  - # 16
    frequency:   16.2247783584
  - # 17
    frequency:   16.2925016588
  - # 18
    frequency:   17.0436367817
  - # 19
    frequency:   17.1486759257
  - # 20
    frequency:   38.2640439822
  - # 21
    frequency:   68.5095652308

- q-position: [    0.1010101,    0.0000000,    0.0000000 ]
  distance:    0.0344497
  band:
  - # 1
    frequency:   -0.8568115128
  - # 2
    frequency:    0.2943976995
  - # 3
    frequency:    0.5699141899
  - # 4
    frequency:    1.2254955776
  - # 5
    frequency:    1.9035729043
  - # 6
    frequency:    3.6942545797
  - # 7
    frequency:    4.0973186937
  - # 8
    frequency:    5.9629544290
  - # 9
    frequency:    6.1333393902
  - # 10
    frequency:    6.3503368958
  - # 11
    frequency:    6.8703043119
  - # 12
    frequency:    7.1582805828
  - # 13
    frequency:    8.7338943436
  - # 14
    frequency:   11.3038400036
  - # 15
    frequency:   14.1078873975
  - # 16
    frequency:   16.2277508547
  - # 17
    frequency:   16.3008309422
  - # 18
    frequency:   17.0437946249
  - # 19
    frequency:   17.1592840541
  - # 20
    frequency:   38.2633542491
  - # 21
    frequency:   68.4682504980

- q-position: [    0.1060606,    0.0000000,    0.0000000 ]
  distance:    0.0361722
  band:
  - # 1
    frequency:   -0.8481426137
  - # 2
    frequency:    0.3988049843
  - # 3
    frequency:    0.6353660493
  - # 4
    frequency:    1.2780823244
  - # 5
    frequency:    1.9899930527
  - # 6
    frequency:    3.6644948397
  - # 7
    frequency:    4.1096615601
  - # 8
    frequency:    5.9517804128
  - # 9
    frequency:    6.1362210556
  - # 10
    frequency:    6.3719704300
  - # 11
    frequency:    6.8661862872
  - # 12
    frequency:    7.1762344379
  - # 13
    frequency:    8.7103317013
  - # 14
    frequency:   11.2782399613
  - # 15
    frequency:   14.0977053616
  - # 16
    frequency:   16.2307524133
  - # 17
    frequency:   16.3091025096
  - # 18
    frequency:   17.0440291108
  - # 19
    frequency:   17.1703206044
  - # 20
    frequency:   38.2626438572
  - # 21
    frequency:   68.4254486023

- q-position: [    0.1111111,    0.0000000,    0.0000000 ]
  distance:    0.0378947
  band:
  - # 1
    frequency:   -0.8389236813
  - # 2
    frequency:    0.4814511518
  - # 3
    frequency:    0.7024088864
  - # 4
    frequency:    1.3293638403
  - # 5
    frequency:    2.0750666756
  - # 6
    frequency:    3.6337999965
  - # 7
    frequency:    4.1229833084
  - # 8
    frequency:    5.9410568987
  - # 9
    frequency:    6.1393226040
  - # 10
    frequency:    6.3941238061
  - # 11
    frequency:    6.8618455798
  - # 12
    frequency:    7.1940210082
  - # 13
    frequency:    8.6859554406
  - # 14
    frequency:   11.2518344892
  - # 15
    frequency:   14.0871061832
  - # 16
    frequency:   16.2337627752
  - # 17
    frequency:   16.3172572967
  - # 18
    frequency:   17.0443482394
  - # 19
    frequency:   17.1817673008
  - # 20
    frequency:   38.2619147674
  - # 21
    frequency:   68.3812458164

- q-position: [    0.1161616,    0.0000000,    0.0000000 ]
  distance:    0.0396172
  band:
  - # 1
    frequency:   -0.8291332238
  - # 2
    frequency:    0.5540196609
  - # 3
    frequency:    0.7695882773
  - # 4
    frequency:    1.3792601895
  - # 5
    frequency:    2.1587356596
  - # 6
    frequency:    3.6022863574
  - # 7
    frequency:    4.1373002892
  - # 8
    frequency:    5.9308527061
  - # 9
    frequency:    6.1426473325
  - # 10
    frequency:    6.4167309994
  - # 11
    frequency:    6.8572821631
  - # 12
    frequency:    7.2115677380
  - # 13
    frequency:    8.6608114268
  - # 14
    frequency:   11.2246806836
  - # 15
    frequency:   14.0761101921
  - # 16
    frequency:   16.2367603898
  - # 17
    frequency:   16.3252365979
  - # 18
    frequency:   17.0447598977
  - # 19
    frequency:   17.1936048141
  - # 20
    frequency:   38.2611689801
  - # 21
    frequency:   68.3357306417

- q-position: [    0.1212121,    0.0000000,    0.0000000 ]
  distance:    0.0413396
  band:
  - # 1
    frequency:   -0.8187475517
  - # 2
    frequency:    0.6215976146
  - # 3
    frequency:    0.8359696120
  - # 4
    frequency:    1.4276859668
  - # 5
    frequency:    2.2409438089
  - # 6
    frequency:    3.5700861279
  - # 7
    frequency:    4.1526233007
  - # 8
    frequency:    5.9212336739
  - # 9
    frequency:    6.1461975620
  - # 10
    frequency:    6.4397249164
  - # 11
    frequency:    6.8524965047
  - # 12
    frequency:    7.2288056119
  - # 13
    frequency:    8.6349472506
  - # 14
    frequency:   11.1968367749
  - # 15
    frequency:   14.0647397151
  - # 16
    frequency:   16.2397224159
  - # 17
    frequency:   16.3329824433
  - # 18
    frequency:   17.0452718058
  - # 19
    frequency:   17.2058127738
  - # 20
    frequency:   38.2604085279
  - # 21
    frequency:   68.2889935525

- q-position: [    0.1262626,    0.0000000,    0.0000000 ]
  distance:    0.0430621
  band:
  - # 1
    frequency:   -0.8077405140
  - # 2
    frequency:    0.6867819734
  - # 3
    frequency:    0.9010889104
  - # 4
    frequency:    1.4745494188
  - # 5
    frequency:    2.3216370751
  - # 6
    frequency:    3.5373489801
  - # 7
    frequency:    4.1689572198
  - # 8
    frequency:    5.9122628014
  - # 9
    frequency:    6.1499746358
  - # 10
    frequency:    6.4630375165
  - # 11
    frequency:    6.8474895835
  - # 12
    frequency:    7.2456691470
  - # 13
    frequency:    8.6084121872
  - # 14
    frequency:   11.1683619113
  - # 15
    frequency:   14.0530190011
  - # 16
    frequency:   16.2426247341
  - # 17
    frequency:   16.3404379616
  - # 18
    frequency:   17.0458914623
  - # 19
    frequency:   17.2183697917
  - # 20
    frequency:   38.2596354691
  - # 21
    frequency:   68.2411267356

- q-position: [    0.1313131,    0.0000000,    0.0000000 ]
  distance:    0.0447846
  band:
  - # 1
    frequency:   -0.7960831853
  - # 2
    frequency:    0.7509747103
  - # 3
    frequency:    0.9647829540
  - # 4
    frequency:    1.5197515606
  - # 5
    frequency:    2.4007638610
  - # 6
    frequency:    3.5042436419
  - # 7
    frequency:    4.1863006578
  - # 8
    frequency:    5.9040003468
  - # 9
    frequency:    6.1539789267
  - # 10
    frequency:    6.4865999057
  - # 11
    frequency:    6.8422629053
  - # 12
    frequency:    7.2620964384
  - # 13
    frequency:    8.5812571546
  - # 14
    frequency:   11.1393159342
  - # 15
    frequency:   14.0409741248
  - # 16
    frequency:   16.2454419702
  - # 17
    frequency:   16.3475477253
  - # 18
    frequency:   17.0466260914
  - # 19
    frequency:   17.2312534978
  - # 20
    frequency:   38.2588518803
  - # 21
    frequency:   68.1922238247

- q-position: [    0.1363636,    0.0000000,    0.0000000 ]
  distance:    0.0465071
  band:
  - # 1
    frequency:   -0.7837434900
  - # 2
    frequency:    0.8149507111
  - # 3
    frequency:    1.0270503755
  - # 4
    frequency:    1.5631853549
  - # 5
    frequency:    2.4782753943
  - # 6
    frequency:    3.4709594372
  - # 7
    frequency:    4.2046456367
  - # 8
    frequency:    5.8965038827
  - # 9
    frequency:    6.1582098546
  - # 10
    frequency:    6.5103424016
  - # 11
    frequency:    6.8368185137
  - # 12
    frequency:    7.2780292572
  - # 13
    frequency:    8.5535346701
  - # 14
    frequency:   11.1097591480
  - # 15
    frequency:   14.0286328686
  - # 16
    frequency:   16.2481475328
  - # 17
    frequency:   16.3542580738
  - # 18
    frequency:   17.0474825926
  - # 19
    frequency:   17.2444405909
  - # 20
    frequency:   38.2580598493
  - # 21
    frequency:   68.1423796311

- q-position: [    0.1414141,    0.0000000,    0.0000000 ]
  distance:    0.0482296
  band:
  - # 1
    frequency:   -0.7706857483
  - # 2
    frequency:    0.8791369663
  - # 3
    frequency:    1.0879687499
  - # 4
    frequency:    1.6047350617
  - # 5
    frequency:    2.5541261643
  - # 6
    frequency:    3.4377076679
  - # 7
    frequency:    4.2239772897
  - # 8
    frequency:    5.8898283076
  - # 9
    frequency:    6.1626659079
  - # 10
    frequency:    6.5341945624
  - # 11
    frequency:    6.8311590002
  - # 12
    frequency:    7.2934132025
  - # 13
    frequency:    8.5252988047
  - # 14
    frequency:   11.0797520840
  - # 15
    frequency:   14.0160245841
  - # 16
    frequency:   16.2507136634
  - # 17
    frequency:   16.3605174126
  - # 18
    frequency:   17.0484674909
  - # 19
    frequency:   17.2579069034
  - # 20
    frequency:   38.2572614684
  - # 21
    frequency:   68.0916898717

- q-position: [    0.1464646,    0.0000000,    0.0000000 ]
  distance:    0.0499521
  band:
  - # 1
    frequency:   -0.7568701191
  - # 2
    frequency:    0.9437565539
  - # 3
    frequency:    1.1476520322
  - # 4
    frequency:    1.6442759140
  - # 5
    frequency:    2.6282744133
  - # 6
    frequency:    3.4047226772
  - # 7
    frequency:    4.2442735888
  - # 8
    frequency:    5.8840258123
  - # 9
    frequency:    6.1673446698
  - # 10
    frequency:    6.5580851787
  - # 11
    frequency:    6.8252875117
  - # 12
    frequency:    7.3081979037
  - # 13
    frequency:    8.4966051358
  - # 14
    frequency:   11.0493552598
  - # 15
    frequency:   14.0031800368
  - # 16
    frequency:   16.2531115025
  - # 17
    frequency:   16.3662764862
  - # 18
    frequency:   17.0495868913
  - # 19
    frequency:   17.2716274807
  - # 20
    frequency:   38.2564588265
  - # 21
    frequency:   68.0402508946

- q-position: [    0.1515152,    0.0000000,    0.0000000 ]
  distance:    0.0516746
  band:
  - # 1
    frequency:   -0.7422519135
  - # 2
    frequency:    1.0089048163
  - # 3
    frequency:    1.2062316043
  - # 4
    frequency:    1.6816743406
  - # 5
    frequency:    2.7006826717
  - # 6
    frequency:    3.3722623658
  - # 7
    frequency:    4.2655051088
  - # 8
    frequency:    5.8791458006
  - # 9
    frequency:    6.1722428445
  - # 10
    frequency:    6.5819422244
  - # 11
    frequency:    6.8192077592
  - # 12
    frequency:    7.3223372728
  - # 13
    frequency:    8.4675106980
  - # 14
    frequency:   11.0186289364
  - # 15
    frequency:   13.9901312324
  - # 16
    frequency:   16.2553111696
  - # 17
    frequency:   16.3714886236
  - # 18
    frequency:   17.0508464348
  - # 19
    frequency:   17.2855766743
  - # 20
    frequency:   38.2556540030
  - # 21
    frequency:   67.9881594045