nqpoint: 300    
npath: 3      
segment_nqpoint:
- 100
- 100
- 100
labels:
- [ 'G', 'M' ]
- [ 'M', 'K' ]
- [ 'K', 'G' ]
reciprocal_lattice:
- [   0.30886919,   0.17832571,   0.00000000 ] # a*
- [   0.00000000,   0.35665142,   0.00000000 ] # b*
- [   0.00000000,   0.00000000,   0.03870805 ] # c*
natom: 7      
lattice:
- [     3.237616570473661,     0.000000000000000,     0.000000000000000 ] # a
- [    -1.618808285236831,     2.803858197730253,     0.000000000000000 ] # b
- [     0.000000000000000,     0.000000000000000,    25.834421839401141 ] # c
points:
- symbol: C # 1
  coordinates: [  0.333332985432215,  0.666666983183674,  0.591597366292093 ]
  mass: 12.010700
- symbol: Cl # 2
  coordinates: [  0.666666984744047,  0.333332985985145,  0.348372417851973 ]
  mass: 35.453000
- symbol: N # 3
  coordinates: [  0.000000000000000,  0.000000000000000,  0.452945726515549 ]
  mass: 14.006700
- symbol: N # 4
  coordinates: [  0.333332985432215,  0.666666983183674,  0.543127813284160 ]
  mass: 14.006700
- symbol: S # 5
  coordinates: [  0.333332985432215,  0.666666983183674,  0.651627582148027 ]
  mass: 32.065000
- symbol: Ti # 6
  coordinates: [  0.333332985432215,  0.666666983183674,  0.413669970550984 ]
  mass: 47.867000
- symbol: Ti # 7
  coordinates: [  0.666666984744047,  0.333332985985145,  0.493651357063940 ]
  mass: 47.867000

phonon:
- q-position: [    0.0000000,    0.0000000,    0.0000000 ]
  distance:    0.0000000
  band:
  - # 1
    frequency:   -0.0000268599
  - # 2
    frequency:   -0.0000001879
  - # 3
    frequency:    0.0000218010
  - # 4
    frequency:    1.0062802547
  - # 5
    frequency:    1.0062802550
  - # 6
    frequency:    4.3378183257
  - # 7
    frequency:    4.3378183258
  - # 8
    frequency:    5.8023112092
  - # 9
    frequency:    7.1207290110
  - # 10
    frequency:    7.1207290111
  - # 11
    frequency:    8.2184741475
  - # 12
    frequency:    8.2184741475
  - # 13
    frequency:    8.8832935655
  - # 14
    frequency:   11.9299425044
  - # 15
    frequency:   14.0202189343
  - # 16
    frequency:   14.0202189343
  - # 17
    frequency:   15.2460889316
  - # 18
    frequency:   16.7732356290
  - # 19
    frequency:   16.7732356291
  - # 20
    frequency:   27.3650554569
  - # 21
    frequency:   57.8669406208

- q-position: [    0.0050505,    0.0000000,    0.0000000 ]
  distance:    0.0018013
  band:
  - # 1
    frequency:    0.0032949350
  - # 2
    frequency:    0.0804749370
  - # 3
    frequency:    0.1364844830
  - # 4
    frequency:    1.0081709403
  - # 5
    frequency:    1.0126472571
  - # 6
    frequency:    4.3383343240
  - # 7
    frequency:    4.3392867243
  - # 8
    frequency:    5.8017012543
  - # 9
    frequency:    7.1204437876
  - # 10
    frequency:    7.1215425904
  - # 11
    frequency:    8.2182147503
  - # 12
    frequency:    8.2190468263
  - # 13
    frequency:    8.8829656289
  - # 14
    frequency:   11.9287993434
  - # 15
    frequency:   14.0202528271
  - # 16
    frequency:   14.0205431069
  - # 17
    frequency:   15.2458522003
  - # 18
    frequency:   16.7732043930
  - # 19
    frequency:   16.7733378833
  - # 20
    frequency:   27.3649401082
  - # 21
    frequency:   57.8658908083

- q-position: [    0.0101010,    0.0000000,    0.0000000 ]
  distance:    0.0036025
  band:
  - # 1
    frequency:    0.0130053945
  - # 2
    frequency:    0.1608141970
  - # 3
    frequency:    0.2727158928
  - # 4
    frequency:    1.0138319971
  - # 5
    frequency:    1.0315036390
  - # 6
    frequency:    4.3398808929
  - # 7
    frequency:    4.3436810543
  - # 8
    frequency:    5.7998822249
  - # 9
    frequency:    7.1195889701
  - # 10
    frequency:    7.1239733873
  - # 11
    frequency:    8.2174369967
  - # 12
    frequency:    8.2207610023
  - # 13
    frequency:    8.8819850751
  - # 14
    frequency:   11.9253723029
  - # 15
    frequency:   14.0203546367
  - # 16
    frequency:   14.0215152915
  - # 17
    frequency:   15.2451419797
  - # 18
    frequency:   16.7731108234
  - # 19
    frequency:   16.7736439938
  - # 20
    frequency:   27.3645942138
  - # 21
    frequency:   57.8627431539

- q-position: [    0.0151515,    0.0000000,    0.0000000 ]
  distance:    0.0054038
  band:
  - # 1
    frequency:    0.0286589522
  - # 2
    frequency:    0.2408783279
  - # 3
    frequency:    0.4084227125
  - # 4
    frequency:    1.0232318955
  - # 5
    frequency:    1.0621795987
  - # 6
    frequency:    4.3424537625
  - # 7
    frequency:    4.3509688979
  - # 8
    frequency:    5.7968862973
  - # 9
    frequency:    7.1181671157
  - # 10
    frequency:    7.1279919716
  - # 11
    frequency:    8.2161422020
  - # 12
    frequency:    8.2236050040
  - # 13
    frequency:    8.8803617303
  - # 14
    frequency:   11.9196687063
  - # 15
    frequency:   14.0205247555
  - # 16
    frequency:   14.0231344868
  - # 17
    frequency:   15.2439582053
  - # 18
    frequency:   16.7729553247
  - # 19
    frequency:   16.7741520043
  - # 20
    frequency:   27.3640182296
  - # 21
    frequency:   57.8575030027

- q-position: [    0.0202020,    0.0000000,    0.0000000 ]
  distance:    0.0072051
  band:
  - # 1
    frequency:    0.0496069274
  - # 2
    frequency:    0.3205200864
  - # 3
    frequency:    0.5432929672
  - # 4
    frequency:    1.0363228807
  - # 5
    frequency:    1.1037428192
  - # 6
    frequency:    4.3460458445
  - # 7
    frequency:    4.3610968110
  - # 8
    frequency:    5.7927660358
  - # 9
    frequency:    7.1161824820
  - # 10
    frequency:    7.1335505698
  - # 11
    frequency:    8.2143325590
  - # 12
    frequency:    8.2275590785
  - # 13
    frequency:    8.8781121680
  - # 14
    frequency:   11.9117007476
  - # 15
    frequency:   14.0207638316
  - # 16
    frequency:   14.0253990188
  - # 17
    frequency:   15.2423008189
  - # 18
    frequency:   16.7727385366
  - # 19
    frequency:   16.7748586587
  - # 20
    frequency:   27.3632129148
  - # 21
    frequency:   57.8501792487

- q-position: [    0.0252525,    0.0000000,    0.0000000 ]
  distance:    0.0090063
  band:
  - # 1
    frequency:    0.0751588806
  - # 2
    frequency:    0.3995799916
  - # 3
    frequency:    0.6769445767
  - # 4
    frequency:    1.0530478259
  - # 5
    frequency:    1.1551961415
  - # 6
    frequency:    4.3506472731
  - # 7
    frequency:    4.3739911638
  - # 8
    frequency:    5.7875929099
  - # 9
    frequency:    7.1136410194
  - # 10
    frequency:    7.1405848640
  - # 11
    frequency:    8.2120111393
  - # 12
    frequency:    8.2325949420
  - # 13
    frequency:    8.8752600086
  - # 14
    frequency:   11.9014854742
  - # 15
    frequency:   14.0210727604
  - # 16
    frequency:   14.0283065335
  - # 17
    frequency:   15.2401698417
  - # 18
    frequency:   16.7724612824
  - # 19
    frequency:   16.7757594062
  - # 20
    frequency:   27.3621793318
  - # 21
    frequency:   57.8407843125

- q-position: [    0.0303030,    0.0000000,    0.0000000 ]
  distance:    0.0108076
  band:
  - # 1
    frequency:    0.1046819073
  - # 2
    frequency:    0.4778812946
  - # 3
    frequency:    0.8088838963
  - # 4
    frequency:    1.0733491757
  - # 5
    frequency:    1.2156582046
  - # 6
    frequency:    4.3562454626
  - # 7
    frequency:    4.3895592439
  - # 8
    frequency:    5.7814554277
  - # 9
    frequency:    7.1105503623
  - # 10
    frequency:    7.1490162932
  - # 11
    frequency:    8.2091818954
  - # 12
    frequency:    8.2386751522
  - # 13
    frequency:    8.8718363530
  - # 14
    frequency:   11.8890447620
  - # 15
    frequency:   14.0214526732
  - # 16
    frequency:   14.0318539862
  - # 17
    frequency:   15.2375654740
  - # 18
    frequency:   16.7721245000
  - # 19
    frequency:   16.7768484097
  - # 20
    frequency:   27.3609188457
  - # 21
    frequency:   57.8293341111

- q-position: [    0.0353535,    0.0000000,    0.0000000 ]
  distance:    0.0126089
  band:
  - # 1
    frequency:    0.1376501137
  - # 2
    frequency:    0.5552243956
  - # 3
    frequency:    0.9384514188
  - # 4
    frequency:    1.0971793212
  - # 5
    frequency:    1.2845058336
  - # 6
    frequency:    4.3628251803
  - # 7
    frequency:    4.4076905560
  - # 8
    frequency:    5.7744570541
  - # 9
    frequency:    7.1069198151
  - # 10
    frequency:    7.1587546806
  - # 11
    frequency:    8.2058496618
  - # 12
    frequency:    8.2457523047
  - # 13
    frequency:    8.8678803593
  - # 14
    frequency:   11.8744052851
  - # 15
    frequency:   14.0219049226
  - # 16
    frequency:   14.0360376285
  - # 17
    frequency:   15.2344882175
  - # 18
    frequency:   16.7717291566
  - # 19
    frequency:   16.7781185560
  - # 20
    frequency:   27.3594331231
  - # 21
    frequency:   57.8158480181

- q-position: [    0.0404040,    0.0000000,    0.0000000 ]
  distance:    0.0144102
  band:
  - # 1
    frequency:    0.1736539241
  - # 2
    frequency:    0.6313811130
  - # 3
    frequency:    1.0647692014
  - # 4
    frequency:    1.1245114269
  - # 5
    frequency:    1.3614682064
  - # 6
    frequency:    4.3703686337
  - # 7
    frequency:    4.4282582456
  - # 8
    frequency:    5.7667140908
  - # 9
    frequency:    7.1027603371
  - # 10
    frequency:    7.1697010016
  - # 11
    frequency:    8.2020201573
  - # 12
    frequency:    8.2537680578
  - # 13
    frequency:    8.8634399773
  - # 14
    frequency:   11.8575984790
  - # 15
    frequency:   14.0224310642
  - # 16
    frequency:   14.0408529921
  - # 17
    frequency:   15.2309390199
  - # 18
    frequency:   16.7712761498
  - # 19
    frequency:   16.7795614685
  - # 20
    frequency:   27.3577241321
  - # 21
    frequency:   57.8003488165

- q-position: [    0.0454545,    0.0000000,    0.0000000 ]
  distance:    0.0162114
  band:
  - # 1
    frequency:    0.2123864137
  - # 2
    frequency:    0.7060899628
  - # 3
    frequency:    1.1553490828
  - # 4
    frequency:    1.1867501914
  - # 5
    frequency:    1.4466275185
  - # 6
    frequency:    4.3788555728
  - # 7
    frequency:    4.4511205655
  - # 8
    frequency:    5.7583536790
  - # 9
    frequency:    7.0980845226
  - # 10
    frequency:    7.1817501223
  - # 11
    frequency:    8.1976999857
  - # 12
    frequency:    8.2626519904
  - # 13
    frequency:    8.8585728526
  - # 14
    frequency:   11.8386604982
  - # 15
    frequency:   14.0230328376
  - # 16
    frequency:   14.0462948701
  - # 17
    frequency:   15.2269194342
  - # 18
    frequency:   16.7707661994
  - # 19
    frequency:   16.7811675224
  - # 20
    frequency:   27.3557941400
  - # 21
    frequency:   57.7828626422

- q-position: [    0.0505051,    0.0000000,    0.0000000 ]
  distance:    0.0180127
  band:
  - # 1
    frequency:    0.2536209295
  - # 2
    frequency:    0.7790549012
  - # 3
    frequency:    1.1897319933
  - # 4
    frequency:    1.3033003238
  - # 5
    frequency:    1.5402094287
  - # 6
    frequency:    4.3882634039
  - # 7
    frequency:    4.4761223133
  - # 8
    frequency:    5.7495120591
  - # 9
    frequency:    7.0929065782
  - # 10
    frequency:    7.1947933634
  - # 11
    frequency:    8.1928966368
  - # 12
    frequency:    8.2723203057
  - # 13
    frequency:    8.8533474079
  - # 14
    frequency:   11.8176321680
  - # 15
    frequency:   14.0237121429
  - # 16
    frequency:   14.0523572953
  - # 17
    frequency:   15.2224317924
  - # 18
    frequency:   16.7701997311
  - # 19
    frequency:   16.7829258620
  - # 20
    frequency:   27.3536457126
  - # 21
    frequency:   57.7634189197

- q-position: [    0.0555556,    0.0000000,    0.0000000 ]
  distance:    0.0198140
  band:
  - # 1
    frequency:    0.2971885239
  - # 2
    frequency:    0.8499518077
  - # 3
    frequency:    1.2277332332
  - # 4
    frequency:    1.4137977475
  - # 5
    frequency:    1.6420886674
  - # 6
    frequency:    4.3985673166
  - # 7
    frequency:    4.5030961684
  - # 8
    frequency:    5.7403331874
  - # 9
    frequency:    7.0872422958
  - # 10
    frequency:    7.2087207826
  - # 11
    frequency:    8.1876184857
  - # 12
    frequency:    8.2826744054
  - # 13
    frequency:    8.8478440983
  - # 14
    frequency:   11.7945589325
  - # 15
    frequency:   14.0244710167
  - # 16
    frequency:   14.0590335159
  - # 17
    frequency:   15.2174793864
  - # 18
    frequency:   16.7695767581
  - # 19
    frequency:   16.7848244209
  - # 20
    frequency:   27.3512817125
  - # 21
    frequency:   57.7420502901

- q-position: [    0.0606061,    0.0000000,    0.0000000 ]
  distance:    0.0216152
  band:
  - # 1
    frequency:    0.3429590205
  - # 2
    frequency:    0.9184485242
  - # 3
    frequency:    1.2694421731
  - # 4
    frequency:    1.5185573614
  - # 5
    frequency:    1.7513072128
  - # 6
    frequency:    4.4097404216
  - # 7
    frequency:    4.5318638733
  - # 8
    frequency:    5.7309677703
  - # 9
    frequency:    7.0811090220
  - # 10
    frequency:    7.2234231028
  - # 11
    frequency:    8.1818747908
  - # 12
    frequency:    8.2935993805
  - # 13
    frequency:    8.8421568121
  - # 14
    frequency:   11.7694907985
  - # 15
    frequency:   14.0253116056
  - # 16
    frequency:   14.0663159684
  - # 17
    frequency:   15.2120666536
  - # 18
    frequency:   16.7688967629
  - # 19
    frequency:   16.7868499444
  - # 20
    frequency:   27.3487052966
  - # 21
    frequency:   57.7187925305

- q-position: [    0.0656566,    0.0000000,    0.0000000 ]
  distance:    0.0234165
  band:
  - # 1
    frequency:    0.3908267051
  - # 2
    frequency:    0.9842432474
  - # 3
    frequency:    1.3149282943
  - # 4
    frequency:    1.6187352787
  - # 5
    frequency:    1.8661531805
  - # 6
    frequency:    4.4217538978
  - # 7
    frequency:    4.5622372171
  - # 8
    frequency:    5.7215727447
  - # 9
    frequency:    7.0745256222
  - # 10
    frequency:    7.2387932485
  - # 11
    frequency:    8.1756756905
  - # 12
    frequency:    8.3049625052
  - # 13
    frequency:    8.8363943485
  - # 14
    frequency:   11.7424822752
  - # 15
    frequency:   14.0262361389
  - # 16
    frequency:   14.0741962466
  - # 17
    frequency:   15.2061993618
  - # 18
    frequency:   16.7681585832
  - # 19
    frequency:   16.7889880144
  - # 20
    frequency:   27.3459199142
  - # 21
    frequency:   57.6936844665

- q-position: [    0.0707071,    0.0000000,    0.0000000 ]
  distance:    0.0252178
  band:
  - # 1
    frequency:    0.4407002691
  - # 2
    frequency:    1.0471191333
  - # 3
    frequency:    1.3641881004
  - # 4
    frequency:    1.7157367215
  - # 5
    frequency:    1.9847380663
  - # 6
    frequency:    4.4345771484
  - # 7
    frequency:    4.5940187997
  - # 8
    frequency:    5.7123111985
  - # 9
    frequency:    7.0675124402
  - # 10
    frequency:    7.2547274809
  - # 11
    frequency:    8.1690321968
  - # 12
    frequency:    8.3166118870
  - # 13
    frequency:    8.8306818317
  - # 14
    frequency:   11.7135923122
  - # 15
    frequency:   14.0272468992
  - # 16
    frequency:   14.0826650676
  - # 17
    frequency:   15.1998847905
  - # 18
    frequency:   16.7673603060
  - # 19
    frequency:   16.7912230778
  - # 20
    frequency:   27.3429293042
  - # 21
    frequency:   57.6667678771

- q-position: [    0.0757576,    0.0000000,    0.0000000 ]
  distance:    0.0270190
  band:
  - # 1
    frequency:    0.4924961587
  - # 2
    frequency:    1.1069998197
  - # 3
    frequency:    1.4170905260
  - # 4
    frequency:    1.8107305857
  - # 5
    frequency:    2.1054694015
  - # 6
    frequency:    4.4481779649
  - # 7
    frequency:    4.6270025810
  - # 8
    frequency:    5.7033526955
  - # 9
    frequency:    7.0600912528
  - # 10
    frequency:    7.2711261452
  - # 11
    frequency:    8.1619561871
  - # 12
    frequency:    8.3283755295
  - # 13
    frequency:    8.8251618181
  - # 14
    frequency:   11.6828842354
  - # 15
    frequency:   14.0283461938
  - # 16
    frequency:   14.0917122333
  - # 17
    frequency:   15.1931319045
  - # 18
    frequency:   16.7664991725
  - # 19
    frequency:   16.7935384766
  - # 20
    frequency:   27.3397374917
  - # 21
    frequency:   57.6380873923

- q-position: [    0.0808081,    0.0000000,    0.0000000 ]
  distance:    0.0288203
  band:
  - # 1
    frequency:    0.5461344334
  - # 2
    frequency:    1.1639799922
  - # 3
    frequency:    1.4733468270
  - # 4
    frequency:    1.9045127590
  - # 5
    frequency:    2.2271766466
  - # 6
    frequency:    4.4625226965
  - # 7
    frequency:    4.6609742523
  - # 8
    frequency:    5.6948739341
  - # 9
    frequency:    7.0522852178
  - # 10
    frequency:    7.2878940574
  - # 11
    frequency:    8.1544603924
  - # 12
    frequency:    8.3400612100
  - # 13
    frequency:    8.8199946966
  - # 14
    frequency:   11.6504256814
  - # 15
    frequency:   14.0295363245
  - # 16
    frequency:   14.1013265868
  - # 17
    frequency:   15.1859515164
  - # 18
    frequency:   16.7655714969
  - # 19
    frequency:   16.7959164824
  - # 20
    frequency:   27.3363487848
  - # 21
    frequency:   57.6076903846

- q-position: [    0.0858586,    0.0000000,    0.0000000 ]
  distance:    0.0306216
  band:
  - # 1
    frequency:    0.6015363689
  - # 2
    frequency:    1.2183114334
  - # 3
    frequency:    1.5325246230
  - # 4
    frequency:    1.9975664281
  - # 5
    frequency:    2.3490418352
  - # 6
    frequency:    4.4775764259
  - # 7
    frequency:    4.6957115121
  - # 8
    frequency:    5.6870596338
  - # 9
    frequency:    7.0441188160
  - # 10
    frequency:    7.3049405705
  - # 11
    frequency:    8.1465583827
  - # 12
    frequency:    8.3514577607
  - # 13
    frequency:    8.8153577963
  - # 14
    frequency:   11.6162885314
  - # 15
    frequency:   14.0308195578
  - # 16
    frequency:   14.1114959637
  - # 17
    frequency:   15.1783564375
  - # 18
    frequency:   16.7645726025
  - # 19
    frequency:   16.7983383328
  - # 20
    frequency:   27.3327677701
  - # 21
    frequency:   57.5756268531

- q-position: [    0.0909091,    0.0000000,    0.0000000 ]
  distance:    0.0324229
  band:
  - # 1
    frequency:    0.6586232135
  - # 2
    frequency:    1.2703490791
  - # 3
    frequency:    1.5941016653
  - # 4
    frequency:    2.0901616634
  - # 5
    frequency:    2.4704923846
  - # 6
    frequency:    4.4933031477
  - # 7
    frequency:    4.7309843916
  - # 8
    frequency:    5.6801034846
  - # 9
    frequency:    7.0356177866
  - # 10
    frequency:    7.3221793643
  - # 11
    frequency:    8.1382645481
  - # 12
    frequency:    8.3623385286
  - # 13
    frequency:    8.8114424216
  - # 14
    frequency:   11.5805488454
  - # 15
    frequency:   14.0321980957
  - # 16
    frequency:   14.1222071355
  - # 17
    frequency:   15.1703616137
  - # 18
    frequency:   16.7634967752
  - # 19
    frequency:   16.8007842721
  - # 20
    frequency:   27.3289993083
  - # 21
    frequency:   57.5419493024

- q-position: [    0.0959596,    0.0000000,    0.0000000 ]
  distance:    0.0342241
  band:
  - # 1
    frequency:    0.7173156720
  - # 2
    frequency:    1.3204829310
  - # 3
    frequency:    1.6575335635
  - # 4
    frequency:    2.1824352152
  - # 5
    frequency:    2.5911148515
  - # 6
    frequency:    4.5096659508
  - # 7
    frequency:    4.7665558574
  - # 8
    frequency:    5.6742089243
  - # 9
    frequency:    7.0268090546
  - # 10
    frequency:    7.3395280061
  - # 11
    frequency:    8.1295940763
  - # 12
    frequency:    8.3724678936
  - # 13
    frequency:    8.8084479253
  - # 14
    frequency:   11.5432867972
  - # 15
    frequency:   14.0336740470
  - # 16
    frequency:   14.1334457457
  - # 17
    frequency:   15.1619842474
  - # 18
    frequency:   16.7623372376
  - # 19
    frequency:   16.8032335954
  - # 20
    frequency:   27.3250485288
  - # 21
    frequency:   57.5067126149

- q-position: [    0.1010101,    0.0000000,    0.0000000 ]
  distance:    0.0360254
  band:
  - # 1
    frequency:    0.7775338176
  - # 2
    frequency:    1.3690822330
  - # 3
    frequency:    1.7223091272
  - # 4
    frequency:    2.2744434256
  - # 5
    frequency:    2.7105964693
  - # 6
    frequency:    4.5266272023
  - # 7
    frequency:    4.8021830276
  - # 8
    frequency:    5.6695894114
  - # 9
    frequency:    7.0177206505
  - # 10
    frequency:    7.3569073321
  - # 11
    frequency:    8.1205629252
  - # 12
    frequency:    8.3816115886
  - # 13
    frequency:    8.8065720630
  - # 14
    frequency:   11.5045866095
  - # 15
    frequency:   14.0352493993
  - # 16
    frequency:   14.1451962356
  - # 17
    frequency:   15.1532439048
  - # 18
    frequency:   16.7610861439
  - # 19
    frequency:   16.8056646961
  - # 20
    frequency:   27.3209208242
  - # 21
    frequency:   57.4699739184

- q-position: [    0.1060606,    0.0000000,    0.0000000 ]
  distance:    0.0378267
  band:
  - # 1
    frequency:    0.8391972363
  - # 2
    frequency:    1.4164634959
  - # 3
    frequency:    1.7879817903
  - # 4
    frequency:    2.3661949742
  - # 5
    frequency:    2.8286875194
  - # 6
    frequency:    4.5441487319
  - # 7
    frequency:    4.8376194689
  - # 8
    frequency:    5.6664677386
  - # 9
    frequency:    7.0083816220
  - # 10
    frequency:    7.3742406982
  - # 11
    frequency:    8.1111877919
  - # 12
    frequency:    8.3895510003
  - # 13
    frequency:    8.8059974307
  - # 14
    frequency:   11.4645364903
  - # 15
    frequency:   14.0369259927
  - # 16
    frequency:   14.1574417580
  - # 17
    frequency:   15.1441626104
  - # 18
    frequency:   16.7597345948
  - # 19
    frequency:   16.8080551184
  - # 20
    frequency:   27.3166218432
  - # 21
    frequency:   57.4317924481

- q-position: [    0.1111111,    0.0000000,    0.0000000 ]
  distance:    0.0396279
  band:
  - # 1
    frequency:    0.9022252760
  - # 2
    frequency:    1.4628799378
  - # 3
    frequency:    1.8541795861
  - # 4
    frequency:    2.4576706637
  - # 5
    frequency:    2.9451771343
  - # 6
    frequency:    4.5621920168
  - # 7
    frequency:    4.8726191750
  - # 8
    frequency:    5.6650738111
  - # 9
    frequency:    6.9988219356
  - # 10
    frequency:    7.3914531476
  - # 11
    frequency:    8.1014860757
  - # 12
    frequency:    8.3961005413
  - # 13
    frequency:    8.8068748722
  - # 14
    frequency:   11.4232285702
  - # 15
    frequency:   14.0387054945
  - # 16
    frequency:   14.1701640775
  - # 17
    frequency:   15.1347649321
  - # 18
    frequency:   16.7582726744
  - # 19
    frequency:   16.8103816129
  - # 20
    frequency:   27.3121574842
  - # 21
    frequency:   57.3922294041

- q-position: [    0.1161616,    0.0000000,    0.0000000 ]
  distance:    0.0414292
  band:
  - # 1
    frequency:    0.9665373220
  - # 2
    frequency:    1.5085243165
  - # 3
    frequency:    1.9206017244
  - # 4
    frequency:    2.5488353042
  - # 5
    frequency:    3.0598773028
  - # 6
    frequency:    4.5807183645
  - # 7
    frequency:    4.9069429189
  - # 8
    frequency:    5.6656402281
  - # 9
    frequency:    6.9890723706
  - # 10
    frequency:    7.4084705460
  - # 11
    frequency:    8.0914758375
  - # 12
    frequency:    8.4011257441
  - # 13
    frequency:    8.8093061775
  - # 14
    frequency:   11.3807588394
  - # 15
    frequency:   14.0405893758
  - # 16
    frequency:   14.1833434538
  - # 17
    frequency:   15.1250780583
  - # 18
    frequency:   16.7566895061
  - # 19
    frequency:   16.8126201980
  - # 20
    frequency:   27.3075338863
  - # 21
    frequency:   57.3513478049

- q-position: [    0.1212121,    0.0000000,    0.0000000 ]
  distance:    0.0432305
  band:
  - # 1
    frequency:    1.0320530529
  - # 2
    frequency:    1.5535378199
  - # 3
    frequency:    1.9870091206
  - # 4
    frequency:    2.6396448534
  - # 5
    frequency:    3.1726117747
  - # 6
    frequency:    4.5996890944
  - # 7
    frequency:    4.9403676470
  - # 8
    frequency:    5.6683950383
  - # 9
    frequency:    6.9791644013
  - # 10
    frequency:    7.4252187340
  - # 11
    frequency:    8.0811757530
  - # 12
    frequency:    8.4045585442
  - # 13
    frequency:    8.8133295712
  - # 14
    frequency:   11.3372270828
  - # 15
    frequency:   14.0425788901
  - # 16
    frequency:   14.1969585042
  - # 17
    frequency:   15.1151318731
  - # 18
    frequency:   16.7549733271
  - # 19
    frequency:   16.8147462253
  - # 20
    frequency:   27.3027574219
  - # 21
    frequency:   57.3092123371

- q-position: [    0.1262626,    0.0000000,    0.0000000 ]
  distance:    0.0450317
  band:
  - # 1
    frequency:    1.0986926552
  - # 2
    frequency:    1.5980203945
  - # 3
    frequency:    2.0532135086
  - # 4
    frequency:    2.7300507018
  - # 5
    frequency:    3.2832078535
  - # 6
    frequency:    4.6190657164
  - # 7
    frequency:    4.9726993256
  - # 8
    frequency:    5.6735512948
  - # 9
    frequency:    6.9691300715
  - # 10
    frequency:    7.4416227510
  - # 11
    frequency:    8.0706050622
  - # 12
    frequency:    8.4064061026
  - # 13
    frequency:    8.8189116023
  - # 14
    frequency:   11.2927368128
  - # 15
    frequency:   14.0446750537
  - # 16
    frequency:   14.2109860436
  - # 17
    frequency:   15.1049590345
  - # 18
    frequency:   16.7531115802
  - # 19
    frequency:   16.8167344503
  - # 20
    frequency:   27.2978346860
  - # 21
    frequency:   57.2658892013

- q-position: [    0.1313131,    0.0000000,    0.0000000 ]
  distance:    0.0468330
  band:
  - # 1
    frequency:    1.1663769834
  - # 2
    frequency:    1.6420402616
  - # 3
    frequency:    2.1190673936
  - # 4
    frequency:    2.8200022251
  - # 5
    frequency:    3.3914898589
  - # 6
    frequency:    4.6388101050
  - # 7
    frequency:    5.0037890656
  - # 8
    frequency:    5.6812936135
  - # 9
    frequency:    6.9590018576
  - # 10
    frequency:    7.4576061883
  - # 11
    frequency:    8.0597835132
  - # 12
    frequency:    8.4067509154
  - # 13
    frequency:    8.8259476393
  - # 14
    frequency:   11.2473951939
  - # 15
    frequency:   14.0468786286
  - # 16
    frequency:   14.2254008951
  - # 17
    frequency:   15.0945950616
  - # 18
    frequency:   16.7510910210
  - # 19
    frequency:   16.8185591080
  - # 20
    frequency:   27.2927724868
  - # 21
    frequency:   57.2214459556

- q-position: [    0.1363636,    0.0000000,    0.0000000 ]
  distance:    0.0486343
  band:
  - # 1
    frequency:    1.2350276658
  - # 2
    frequency:    1.6856418224
  - # 3
    frequency:    2.1844556450
  - # 4
    frequency:    2.9094482719
  - # 5
    frequency:    3.4972735393
  - # 6
    frequency:    4.6588846697
  - # 7
    frequency:    5.0335514161
  - # 8
    frequency:    5.6917628506
  - # 9
    frequency:    6.9488125223
  - # 10
    frequency:    7.4730907386
  - # 11
    frequency:    8.0487313013
  - # 12
    frequency:    8.4057424093
  - # 13
    frequency:    8.8342707171
  - # 14
    frequency:   11.2013129588
  - # 15
    frequency:   14.0491901069
  - # 16
    frequency:   14.2401756676
  - # 17
    frequency:   15.0840784391
  - # 18
    frequency:   16.7488978376
  - # 19
    frequency:   16.8201939945
  - # 20
    frequency:   27.2875778342
  - # 21
    frequency:   57.1759513566

- q-position: [    0.1414141,    0.0000000,    0.0000000 ]
  distance:    0.0504356
  band:
  - # 1
    frequency:    1.3045671564
  - # 2
    frequency:    1.7288518805
  - # 3
    frequency:    2.2492888016
  - # 4
    frequency:    2.9983379835
  - # 5
    frequency:    3.6003610391
  - # 6
    frequency:    4.6792525193
  - # 7
    frequency:    5.0619826161
  - # 8
    frequency:    5.7050410636
  - # 9
    frequency:    6.9385949594
  - # 10
    frequency:    7.4879960130
  - # 11
    frequency:    8.0374690040
  - # 12
    frequency:    8.4035825210
  - # 13
    frequency:    8.8436661743
  - # 14
    frequency:   11.1546043057
  - # 15
    frequency:   14.0516096982
  - # 16
    frequency:   14.2552804943
  - # 17
    frequency:   15.0734507464
  - # 18
    frequency:   16.7465177821
  - # 19
    frequency:   16.8216125536
  - # 20
    frequency:   27.2822579279
  - # 21
    frequency:   57.1294751980

- q-position: [    0.1464646,    0.0000000,    0.0000000 ]
  distance:    0.0522368
  band:
  - # 1
    frequency:    1.3749187401
  - # 2
    frequency:    1.7716843924
  - # 3
    frequency:    2.3134978760
  - # 4
    frequency:    3.0866211870
  - # 5
    frequency:    3.7005362895
  - # 6
    frequency:    4.6998776203
  - # 7
    frequency:    5.0891757358
  - # 8
    frequency:    5.7211396915
  - # 9
    frequency:    6.9283820284
  - # 10
    frequency:    7.5022397088
  - # 11
    frequency:    8.0260175116
  - # 12
    frequency:    8.4005088223
  - # 13
    frequency:    8.8538884458
  - # 14
    frequency:   11.1073867730
  - # 15
    frequency:   14.0541373192
  - # 16
    frequency:   14.2706827242
  - # 17
    frequency:   15.0627568203
  - # 18
    frequency:   16.7439363099
  - # 19
    frequency:   16.8227879689
  - # 20
    frequency:   27.2768201447
  - # 21
    frequency:   57.0820881483

- q-position: [    0.1515152,    0.0000000,    0.0000000 ]
  distance:    0.0540381
  band:
  - # 1
    frequency:    1.4460064937
  - # 2
    frequency:    1.8141440350
  - # 3
    frequency:    2.3770303661
  - # 4
    frequency:    3.1742485037
  - # 5
    frequency:    3.7975609464
  - # 6
    frequency:    4.7207249478
  - # 7
    frequency:    5.1153295188
  - # 8
    frequency:    5.7399938532
  - # 9
    frequency:    6.9182063826
  - # 10
    frequency:    7.5157382111
  - # 11
    frequency:    8.0143979533
  - # 12
    frequency:    8.3967783555
  - # 13
    frequency:    8.8646767742
  - # 14
    frequency:   11.0597810800
  - # 15
    frequency:   14.0567725852
  - # 16
    frequency:   14.2863465612
  - # 17
    frequency:   15.0520449617
  - # 18
    frequency:   16.7411387265
  - # 19
    frequency:   16.8236932621
  - # 20
    frequency:   27.2712720252
  - # 21