nqpoint: 300    
npath: 3      
segment_nqpoint:
- 100
- 100
- 100
labels:
- [ 'G', 'M' ]
- [ 'M', 'K' ]
- [ 'K', 'G' ]
reciprocal_lattice:
- [   0.29965559,   0.17300624,   0.00000000 ] # a*
- [   0.00000000,   0.34601247,   0.00000000 ] # b*
- [   0.00000000,   0.00000000,   0.03916563 ] # c*
natom: 7      
lattice:
- [     3.337164515208674,     0.000000000000000,     0.000000000000000 ] # a
- [    -1.668582257604337,     2.890069246766681,     0.000000000000000 ] # b
- [     0.000000000000000,     0.000000000000000,    25.532590651241193 ] # c
points:
- symbol: C # 1
  coordinates: [  0.000000000000000,  0.000000000000000,  0.554173587851461 ]
  mass: 12.010700
- symbol: C # 2
  coordinates: [  0.666666984744047,  0.333332985985145,  0.399016389422719 ]
  mass: 12.010700
- symbol: N # 3
  coordinates: [  0.666666984744047,  0.333332985985145,  0.352490670568225 ]
  mass: 14.006700
- symbol: O # 4
  coordinates: [  0.333332985432215,  0.666666983183674,  0.647509329431775 ]
  mass: 15.999400
- symbol: O # 5
  coordinates: [  0.666666984744047,  0.333332985985145,  0.451343024191335 ]
  mass: 15.999400
- symbol: Zr # 6
  coordinates: [  0.333332985432215,  0.666666983183674,  0.505950659702019 ]
  mass: 91.224000
- symbol: Zr # 7
  coordinates: [  0.666666984744047,  0.333332985985145,  0.610299843985313 ]
  mass: 91.224000

phonon:
- q-position: [    0.0000000,    0.0000000,    0.0000000 ]
  distance:    0.0000000
  band:
  - # 1
    frequency:   -0.7718856855
  - # 2
    frequency:   -0.7718856855
  - # 3
    frequency:   -0.0000026302
  - # 4
    frequency:    0.0000005511
  - # 5
    frequency:    0.0000026927
  - # 6
    frequency:    3.5500415503
  - # 7
    frequency:    3.5500415503
  - # 8
    frequency:    5.7851236861
  - # 9
    frequency:    5.8587717369
  - # 10
    frequency:    5.8587717369
  - # 11
    frequency:    9.1281336841
  - # 12
    frequency:    9.8821692814
  - # 13
    frequency:    9.8821692814
  - # 14
    frequency:   13.6983022028
  - # 15
    frequency:   13.6983022028
  - # 16
    frequency:   14.9156382663
  - # 17
    frequency:   15.3500750031
  - # 18
    frequency:   15.3500750031
  - # 19
    frequency:   18.1672135204
  - # 20
    frequency:   32.0914076926
  - # 21
    frequency:   67.9478641705

- q-position: [    0.0050505,    0.0000000,    0.0000000 ]
  distance:    0.0017475
  band:
  - # 1
    frequency:   -0.7705952102
  - # 2
    frequency:   -0.7678827638
  - # 3
    frequency:   -0.2735585085
  - # 4
    frequency:    0.0786342835
  - # 5
    frequency:    0.3021762777
  - # 6
    frequency:    3.5502337751
  - # 7
    frequency:    3.5521042015
  - # 8
    frequency:    5.7831203651
  - # 9
    frequency:    5.8591615965
  - # 10
    frequency:    5.8613030860
  - # 11
    frequency:    9.1270964763
  - # 12
    frequency:    9.8806726277
  - # 13
    frequency:    9.8810942281
  - # 14
    frequency:   13.6983238074
  - # 15
    frequency:   13.6983827756
  - # 16
    frequency:   14.9131428470
  - # 17
    frequency:   15.3489071301
  - # 18
    frequency:   15.3493285160
  - # 19
    frequency:   18.1664213827
  - # 20
    frequency:   32.0906855768
  - # 21
    frequency:   67.9475309151

- q-position: [    0.0101010,    0.0000000,    0.0000000 ]
  distance:    0.0034951
  band:
  - # 1
    frequency:   -0.7667534217
  - # 2
    frequency:   -0.7558446414
  - # 3
    frequency:   -0.3674246639
  - # 4
    frequency:    0.1573781583
  - # 5
    frequency:    0.4483552282
  - # 6
    frequency:    3.5508120866
  - # 7
    frequency:    3.5582675898
  - # 8
    frequency:    5.7777798419
  - # 9
    frequency:    5.8603286668
  - # 10
    frequency:    5.8682237562
  - # 11
    frequency:    9.1239825083
  - # 12
    frequency:    9.8761826585
  - # 13
    frequency:    9.8778710985
  - # 14
    frequency:   13.6983885602
  - # 15
    frequency:   13.6986245277
  - # 16
    frequency:   14.9056883482
  - # 17
    frequency:   15.3454093007
  - # 18
    frequency:   15.3470700036
  - # 19
    frequency:   18.1640494075
  - # 20
    frequency:   32.0885220885
  - # 21
    frequency:   67.9465322221

- q-position: [    0.0151515,    0.0000000,    0.0000000 ]
  distance:    0.0052426
  band:
  - # 1
    frequency:   -0.7604417878
  - # 2
    frequency:   -0.7357058329
  - # 3
    frequency:   -0.4265609366
  - # 4
    frequency:    0.2363120060
  - # 5
    frequency:    0.5753050219
  - # 6
    frequency:    3.5517813642
  - # 7
    frequency:    3.5684590347
  - # 8
    frequency:    5.7703846060
  - # 9
    frequency:    5.8622654825
  - # 10
    frequency:    5.8782394259
  - # 11
    frequency:    9.1187846787
  - # 12
    frequency:    9.8686995980
  - # 13
    frequency:    9.8725060012
  - # 14
    frequency:   13.6984962758
  - # 15
    frequency:   13.6990275590
  - # 16
    frequency:   14.8933671820
  - # 17
    frequency:   15.3395988607
  - # 18
    frequency:   15.3432452064
  - # 19
    frequency:   18.1601108218
  - # 20
    frequency:   32.0849257889
  - # 21
    frequency:   67.9448713048

- q-position: [    0.0202020,    0.0000000,    0.0000000 ]
  distance:    0.0069902
  band:
  - # 1
    frequency:   -0.7517735160
  - # 2
    frequency:   -0.7074915451
  - # 3
    frequency:   -0.4652324630
  - # 4
    frequency:    0.3154652287
  - # 5
    frequency:    0.6948058057
  - # 6
    frequency:    3.5531496333
  - # 7
    frequency:    3.5825606893
  - # 8
    frequency:    5.7619465561
  - # 9
    frequency:    5.8649597986
  - # 10
    frequency:    5.8903184056
  - # 11
    frequency:    9.1114909255
  - # 12
    frequency:    9.8582246559
  - # 13
    frequency:    9.8650091730
  - # 14
    frequency:   13.6986466409
  - # 15
    frequency:   13.6995920341
  - # 16
    frequency:   14.8763245874
  - # 17
    frequency:   15.3315046444
  - # 18
    frequency:   15.3377725638
  - # 19
    frequency:   18.1546273821
  - # 20
    frequency:   32.0799108917
  - # 21
    frequency:   67.9425534990

- q-position: [    0.0252525,    0.0000000,    0.0000000 ]
  distance:    0.0087377
  band:
  - # 1
    frequency:   -0.7408666824
  - # 2
    frequency:   -0.6718538670
  - # 3
    frequency:   -0.4875389250
  - # 4
    frequency:    0.3948067170
  - # 5
    frequency:    0.8109007567
  - # 6
    frequency:    3.5549279094
  - # 7
    frequency:    3.6004141492
  - # 8
    frequency:    5.7530648710
  - # 9
    frequency:    5.8683948792
  - # 10
    frequency:    5.9038336564
  - # 11
    frequency:    9.1020838823
  - # 12
    frequency:    9.8447613018
  - # 13
    frequency:    9.8553950637
  - # 14
    frequency:   13.6988392060
  - # 15
    frequency:   13.7003181778
  - # 16
    frequency:   14.8547478027
  - # 17
    frequency:   15.3211668614
  - # 18
    frequency:   15.3305541580
  - # 19
    frequency:   18.1476289538
  - # 20
    frequency:   32.0734971815
  - # 21
    frequency:   67.9395862327

- q-position: [    0.0303030,    0.0000000,    0.0000000 ]
  distance:    0.0104852
  band:
  - # 1
    frequency:   -0.7278177279
  - # 2
    frequency:   -0.6321447926
  - # 3
    frequency:   -0.4909525361
  - # 4
    frequency:    0.4742481039
  - # 5
    frequency:    0.9252719565
  - # 6
    frequency:    3.5571299889
  - # 7
    frequency:    3.6218263123
  - # 8
    frequency:    5.7440665966
  - # 9
    frequency:    5.8725498851
  - # 10
    frequency:    5.9184220400
  - # 11
    frequency:    9.0905403920
  - # 12
    frequency:    9.8283170914
  - # 13
    frequency:    9.8436824562
  - # 14
    frequency:   13.6990733749
  - # 15
    frequency:   13.7012062666
  - # 16
    frequency:   14.8288545612
  - # 17
    frequency:   15.3086369362
  - # 18
    frequency:   15.3214873442
  - # 19
    frequency:   18.1391529424
  - # 20
    frequency:   32.0657098998
  - # 21
    frequency:   67.9359789844

- q-position: [    0.0353535,    0.0000000,    0.0000000 ]
  distance:    0.0122328
  band:
  - # 1
    frequency:   -0.7126809013
  - # 2
    frequency:   -0.5985913971
  - # 3
    frequency:   -0.4627589291
  - # 4
    frequency:    0.5536563586
  - # 5
    frequency:    1.0386069493
  - # 6
    frequency:    3.5597721921
  - # 7
    frequency:    3.6465760130
  - # 8
    frequency:    5.7351288529
  - # 9
    frequency:    5.8774003455
  - # 10
    frequency:    5.9338618861
  - # 11
    frequency:    9.0768308786
  - # 12
    frequency:    9.8089060779
  - # 13
    frequency:    9.8298946227
  - # 14
    frequency:   13.6993483907
  - # 15
    frequency:   13.7022566129
  - # 16
    frequency:   14.7988828134
  - # 17
    frequency:   15.2939773003
  - # 18
    frequency:   15.3104751267
  - # 19
    frequency:   18.1292435982
  - # 20
    frequency:   32.0565795995
  - # 21
    frequency:   67.9317432303

- q-position: [    0.0404040,    0.0000000,    0.0000000 ]
  distance:    0.0139803
  band:
  - # 1
    frequency:   -0.6954557448
  - # 2
    frequency:   -0.5789965128
  - # 3
    frequency:   -0.3870142938
  - # 4
    frequency:    0.6328702864
  - # 5
    frequency:    1.1511067698
  - # 6
    frequency:    3.5628730701
  - # 7
    frequency:    3.6744209431
  - # 8
    frequency:    5.7263482817
  - # 9
    frequency:    5.8829186973
  - # 10
    frequency:    5.9500032478
  - # 11
    frequency:    9.0609185878
  - # 12
    frequency:    9.7865518425
  - # 13
    frequency:    9.8140595190
  - # 14
    frequency:   13.6996633178
  - # 15
    frequency:   13.7034695375
  - # 16
    frequency:   14.7650827403
  - # 17
    frequency:   15.2772611350
  - # 18
    frequency:   15.2974341746
  - # 19
    frequency:   18.1179512185
  - # 20
    frequency:   32.0461419698
  - # 21
    frequency:   67.9268923804

- q-position: [    0.0454545,    0.0000000,    0.0000000 ]
  distance:    0.0157278
  band:
  - # 1
    frequency:   -0.6760811879
  - # 2
    frequency:   -0.5651888321
  - # 3
    frequency:   -0.2431476460
  - # 4
    frequency:    0.7117160235
  - # 5
    frequency:    1.2627172218
  - # 6
    frequency:    3.5664530830
  - # 7
    frequency:    3.7051044233
  - # 8
    frequency:    5.7177775448
  - # 9
    frequency:    5.8890748696
  - # 10
    frequency:    5.9667310209
  - # 11
    frequency:    9.0427587259
  - # 12
    frequency:    9.7612911671
  - # 13
    frequency:    9.7962100181
  - # 14
    frequency:   13.7000170200
  - # 15
    frequency:   13.7048453265
  - # 16
    frequency:   14.7277113144
  - # 17
    frequency:   15.2585720636
  - # 18
    frequency:   15.2823001739
  - # 19
    frequency:   18.1053312743
  - # 20
    frequency:   32.0344376307
  - # 21
    frequency:   67.9214417041

- q-position: [    0.0505051,    0.0000000,    0.0000000 ]
  distance:    0.0174754
  band:
  - # 1
    frequency:   -0.6544326474
  - # 2
    frequency:   -0.5491494305
  - # 3
    frequency:    0.2200538995
  - # 4
    frequency:    0.7900186887
  - # 5
    frequency:    1.3732464060
  - # 6
    frequency:    3.5705342606
  - # 7
    frequency:    3.7383616709
  - # 8
    frequency:    5.7094447314
  - # 9
    frequency:    5.8958368940
  - # 10
    frequency:    5.9839450566
  - # 11
    frequency:    9.0222975628
  - # 12
    frequency:    9.7331783458
  - # 13
    frequency:    9.7763841859
  - # 14
    frequency:   13.7004081355
  - # 15
    frequency:   13.7063841622
  - # 16
    frequency:   14.6870291041
  - # 17
    frequency:   15.2380037900
  - # 18
    frequency:   15.2650307694
  - # 19
    frequency:   18.0914434911
  - # 20
    frequency:   32.0215119000
  - # 21
    frequency:   67.9154082462

- q-position: [    0.0555556,    0.0000000,    0.0000000 ]
  distance:    0.0192229
  band:
  - # 1
    frequency:   -0.6303178824
  - # 2
    frequency:   -0.5271400513
  - # 3
    frequency:    0.4113068783
  - # 4
    frequency:    0.8676095374
  - # 5
    frequency:    1.4824274483
  - # 6
    frequency:    3.5751398539
  - # 7
    frequency:    3.7739253121
  - # 8
    frequency:    5.7013641072
  - # 9
    frequency:    5.9031715179
  - # 10
    frequency:    6.0015488234
  - # 11
    frequency:    8.9994716180
  - # 12
    frequency:    9.7022900810
  - # 13
    frequency:    9.7546255996
  - # 14
    frequency:   13.7008350461
  - # 15
    frequency:   13.7080860195
  - # 16
    frequency:   14.6432987686
  - # 17
    frequency:   15.2156596840
  - # 18
    frequency:   15.2456066093
  - # 19
    frequency:   18.0763509130
  - # 20
    frequency:   32.0074145335
  - # 21
    frequency:   67.9088107336

- q-position: [    0.0606061,    0.0000000,    0.0000000 ]
  distance:    0.0209705
  band:
  - # 1
    frequency:   -0.6034673492
  - # 2
    frequency:   -0.4967463849
  - # 3
    frequency:    0.5492117896
  - # 4
    frequency:    0.9443293631
  - # 5
    frequency:    1.5899521240
  - # 6
    frequency:    3.5802939868
  - # 7
    frequency:    3.8115299839
  - # 8
    frequency:    5.6935423757
  - # 9
    frequency:    5.9110447982
  - # 10
    frequency:    6.0194424351
  - # 11
    frequency:    8.9742071302
  - # 12
    frequency:    9.6687308304
  - # 13
    frequency:    9.7309837118
  - # 14
    frequency:   13.7012958437
  - # 15
    frequency:   13.7099505094
  - # 16
    frequency:   14.5967846513
  - # 17
    frequency:   15.1916523092
  - # 18
    frequency:   15.2240310420
  - # 19
    frequency:   18.0601189796
  - # 20
    frequency:   31.9921994406
  - # 21
    frequency:   67.9016694733

- q-position: [    0.0656566,    0.0000000,    0.0000000 ]
  distance:    0.0227180
  band:
  - # 1
    frequency:   -0.5735142294
  - # 2
    frequency:   -0.4553165624
  - # 3
    frequency:    0.6671189718
  - # 4
    frequency:    1.0200293846
  - # 5
    frequency:    1.6954881636
  - # 6
    frequency:    3.5860213135
  - # 7
    frequency:    3.8509159548
  - # 8
    frequency:    5.6859825271
  - # 9
    frequency:    5.9194226578
  - # 10
    frequency:    6.0375179674
  - # 11
    frequency:    8.9464201332
  - # 12
    frequency:    9.6326383501
  - # 13
    frequency:    9.7055142608
  - # 14
    frequency:   13.7017882918
  - # 15
    frequency:   13.7119766455
  - # 16
    frequency:   14.5477529791
  - # 17
    frequency:   15.1661028934
  - # 18
    frequency:   15.2003289434
  - # 19
    frequency:   18.0428146406
  - # 20
    frequency:   31.9759243762
  - # 21
    frequency:   67.8940062429

- q-position: [    0.0707071,    0.0000000,    0.0000000 ]
  distance:    0.0244655
  band:
  - # 1
    frequency:   -0.5399567769
  - # 2
    frequency:   -0.3986853792
  - # 3
    frequency:    0.7739088421
  - # 4
    frequency:    1.0945707672
  - # 5
    frequency:    1.7986871516
  - # 6
    frequency:    3.5923466887
  - # 7
    frequency:    3.8918317541
  - # 8
    frequency:    5.6786863391
  - # 9
    frequency:    5.9282713832
  - # 10
    frequency:    6.0556560023
  - # 11
    frequency:    8.9160176124
  - # 12
    frequency:    9.5941890150
  - # 13
    frequency:    9.6782797289
  - # 14
    frequency:   13.7023097838
  - # 15
    frequency:   13.7141624939
  - # 16
    frequency:   14.4964723073
  - # 17
    frequency:   15.1391407395
  - # 18
    frequency:   15.1745450355
  - # 19
    frequency:   18.0245055331
  - # 20
    frequency:   31.9586506120
  - # 21
    frequency:   67.8858441745

- q-position: [    0.0757576,    0.0000000,    0.0000000 ]
  distance:    0.0262131
  band:
  - # 1
    frequency:   -0.5020886561
  - # 2
    frequency:   -0.3181723421
  - # 3
    frequency:    0.8734564736
  - # 4
    frequency:    1.1678236051
  - # 5
    frequency:    1.8991869192
  - # 6
    frequency:    3.5992948507
  - # 7
    frequency:    3.9340358404
  - # 8
    frequency:    5.6716560973
  - # 9
    frequency:    5.9375580488
  - # 10
    frequency:    6.0737228538
  - # 11
    frequency:    8.8829004027
  - # 12
    frequency:    9.5536022934
  - # 13
    frequency:    9.6493498482
  - # 14
    frequency:   13.7028572975
  - # 15
    frequency:   13.7165046416
  - # 16
    frequency:   14.4432140073
  - # 17
    frequency:   15.1109025756
  - # 18
    frequency:   15.1467419490
  - # 19
    frequency:   18.0052592378
  - # 20
    frequency:   31.9404425884
  - # 21
    frequency:   67.8772076321

- q-position: [    0.0808081,    0.0000000,    0.0000000 ]
  distance:    0.0279606
  band:
  - # 1
    frequency:   -0.4588648201
  - # 2
    frequency:   -0.1839694494
  - # 3
    frequency:    0.9678317389
  - # 4
    frequency:    1.2396658675
  - # 5
    frequency:    1.9966106697
  - # 6
    frequency:    3.6068901208
  - # 7
    frequency:    3.9772973547
  - # 8
    frequency:    5.6648958495
  - # 9
    frequency:    5.9472508536
  - # 10
    frequency:    6.0915682127
  - # 11
    frequency:    8.8469686708
  - # 12
    frequency:    9.5111435401
  - # 13
    frequency:    9.6188021533
  - # 14
    frequency:   13.7034273487
  - # 15
    frequency:   13.7189973712
  - # 16
    frequency:   14.3882527408
  - # 17
    frequency:   15.0815318449
  - # 18
    frequency:   15.1169981962
  - # 19
    frequency:   17.9851426304
  - # 20
    frequency:   31.9213675499
  - # 21
    frequency:   67.8681220839

- q-position: [    0.0858586,    0.0000000,    0.0000000 ]
  distance:    0.0297081
  band:
  - # 1
    frequency:   -0.4086186369
  - # 2
    frequency:    0.2084171365
  - # 3
    frequency:    1.0582735988
  - # 4
    frequency:    1.3099825640
  - # 5
    frequency:    2.0905641251
  - # 6
    frequency:    3.6151561174
  - # 7
    frequency:    4.0213960117
  - # 8
    frequency:    5.6584123713
  - # 9
    frequency:    5.9573193597
  - # 10
    frequency:    6.1090231182
  - # 11
    frequency:    8.8081309357
  - # 12
    frequency:    9.4671241069
  - # 13
    frequency:    9.5867225788
  - # 14
    frequency:   13.7040159433
  - # 15
    frequency:   13.7216313408
  - # 16
    frequency:   14.3318670422
  - # 17
    frequency:   15.0511779333
  - # 18
    frequency:   15.0854061565
  - # 19
    frequency:   17.9642213341
  - # 20
    frequency:   31.9014951668
  - # 21
    frequency:   67.8586139710

- q-position: [    0.0909091,    0.0000000,    0.0000000 ]
  distance:    0.0314557
  band:
  - # 1
    frequency:   -0.3483669861
  - # 2
    frequency:    0.3615839084
  - # 3
    frequency:    1.1455795580
  - # 4
    frequency:    1.3786652297
  - # 5
    frequency:    2.1806314339
  - # 6
    frequency:    3.6241154794
  - # 7
    frequency:    4.0661211747
  - # 8
    frequency:    5.6522159474
  - # 9
    frequency:    5.9677346249
  - # 10
    frequency:    6.1258983104
  - # 11
    frequency:    8.7663175103
  - # 12
    frequency:    9.4218977630
  - # 13
    frequency:    9.5532060970
  - # 14
    frequency:   13.7046185318
  - # 15
    frequency:   13.7243913904
  - # 16
    frequency:   14.2743403699
  - # 17
    frequency:   15.0199953386
  - # 18
    frequency:   15.0520701379
  - # 19
    frequency:   17.9425592790
  - # 20
    frequency:   31.8808971439
  - # 21
    frequency:   67.8487105721

- q-position: [    0.0959596,    0.0000000,    0.0000000 ]
  distance:    0.0332032
  band:
  - # 1
    frequency:   -0.2715943073
  - # 2
    frequency:    0.4776098410
  - # 3
    frequency:    1.2302888659
  - # 4
    frequency:    1.4456117463
  - # 5
    frequency:    2.2663702630
  - # 6
    frequency:    3.6337895979
  - # 7
    frequency:    4.1112701594
  - # 8
    frequency:    5.6463210216
  - # 9
    frequency:    5.9784692255
  - # 10
    frequency:    6.1419831510
  - # 11
    frequency:    8.7214988540
  - # 12
    frequency:    9.3758526941
  - # 13
    frequency:    9.5183573907
  - # 14
    frequency:   13.7052299678
  - # 15
    frequency:   13.7272527124
  - # 16
    frequency:   14.2159634211
  - # 17
    frequency:   14.9881427793
  - # 18
    frequency:   15.0171045504
  - # 19
    frequency:   17.9202183649
  - # 20
    frequency:   31.8596468219
  - # 21
    frequency:   67.8384398665

- q-position: [    0.1010101,    0.0000000,    0.0000000 ]
  distance:    0.0349508
  band:
  - # 1
    frequency:   -0.1556337678
  - # 2
    frequency:    0.5792201973
  - # 3
    frequency:    1.3127786432
  - # 4
    frequency:    1.5107264727
  - # 5
    frequency:    2.3473063246
  - # 6
    frequency:    3.6441983469
  - # 7
    frequency:    4.1566458156
  - # 8
    frequency:    5.6407467359
  - # 9
    frequency:    5.9894971671
  - # 10
    frequency:    6.1570454657
  - # 11
    frequency:    8.6737084914
  - # 12
    frequency:    9.3293990130
  - # 13
    frequency:    9.4822915512
  - # 14
    frequency:   13.7058444749
  - # 15
    frequency:   13.7301737596
  - # 16
    frequency:   14.1570394056
  - # 17
    frequency:   14.9557822485
  - # 18
    frequency:   14.9806322134
  - # 19
    frequency:   17.8972582228
  - # 20
    frequency:   31.8378187708
  - # 21
    frequency:   67.8278303953

- q-position: [    0.1060606,    0.0000000,    0.0000000 ]
  distance:    0.0366983
  band:
  - # 1
    frequency:    0.1649823737
  - # 2
    frequency:    0.6728795538
  - # 3
    frequency:    1.3933183638
  - # 4
    frequency:    1.5739206434
  - # 5
    frequency:    2.4229275068
  - # 6
    frequency:    3.6553598102
  - # 7
    frequency:    4.2020534560
  - # 8
    frequency:    5.6355173491
  - # 9
    frequency:    6.0007936871
  - # 10
    frequency:    6.1708328603
  - # 11
    frequency:    8.6230688926
  - # 12
    frequency:    9.2829527435
  - # 13
    frequency:    9.4451347897
  - # 14
    frequency:   13.7064556263
  - # 15
    frequency:   13.7330821187
  - # 16
    frequency:   14.0978961465
  - # 17
    frequency:   14.9230780141
  - # 18
    frequency:   14.9427828085
  - # 19
    frequency:   17.8737360656
  - # 20
    frequency:   31.8154883812
  - # 21
    frequency:   67.8169111227

- q-position: [    0.1111111,    0.0000000,    0.0000000 ]
  distance:    0.0384458
  band:
  - # 1
    frequency:    0.2837411273
  - # 2
    frequency:    0.7613877170
  - # 3
    frequency:    1.4721024365
  - # 4
    frequency:    1.6351129913
  - # 5
    frequency:    2.4926777720
  - # 6
    frequency:    3.6672899959
  - # 7
    frequency:    4.2472972524
  - # 8
    frequency:    5.6306624917
  - # 9
    frequency:    6.0123349531
  - # 10
    frequency:    6.1830763076
  - # 11
    frequency:    8.5698172475
  - # 12
    frequency:    9.2369183932
  - # 13
    frequency:    9.4070251493
  - # 14
    frequency:   13.7070563423
  - # 15
    frequency:   13.7358437373
  - # 16
    frequency:   14.0389147355
  - # 17
    frequency:   14.8901955699
  - # 18
    frequency:   14.9036914852
  - # 19
    frequency:   17.8497066163
  - # 20
    frequency:   31.7927314537
  - # 21
    frequency:   67.8057112973

- q-position: [    0.1161616,    0.0000000,    0.0000000 ]
  distance:    0.0401934
  band:
  - # 1
    frequency:    0.3682294481
  - # 2
    frequency:    0.8461897398
  - # 3
    frequency:    1.5492702932
  - # 4
    frequency:    1.6942305519
  - # 5
    frequency:    2.5559510538
  - # 6
    frequency:    3.6800025358
  - # 7
    frequency:    4.2921762947
  - # 8
    frequency:    5.6262171801
  - # 9
    frequency:    6.0240976657
  - # 10
    frequency:    6.1934970718
  - # 11
    frequency:    8.5143268564
  - # 12
    frequency:    9.1916730580
  - # 13
    frequency:    9.3681131950
  - # 14
    frequency:   13.7076389129
  - # 15
    frequency:   13.7381879888
  - # 16
    frequency:   13.9806023803
  - # 17
    frequency:   14.8573005421
  - # 18
    frequency:   14.8634976228
  - # 19
    frequency:   17.8252221008
  - # 20
    frequency:   31.7696237917
  - # 21
    frequency:   67.7942603154

- q-position: [    0.1212121,    0.0000000,    0.0000000 ]
  distance:    0.0419409
  band:
  - # 1
    frequency:    0.4386486445
  - # 2
    frequency:    0.9281024636
  - # 3
    frequency:    1.6249187236
  - # 4
    frequency:    1.7512096124
  - # 5
    frequency:    2.6120855569
  - # 6
    frequency:    3.6935083668
  - # 7
    frequency:    4.3364806304
  - # 8
    frequency:    5.6222214687
  - # 9
    frequency:    6.0360585779
  - # 10
    frequency:    6.2018182871
  - # 11
    frequency:    8.4571193935
  - # 12
    frequency:    9.1475550441
  - # 13
    frequency:    9.3285626633
  - # 14
    frequency:   13.7081950518
  - # 15
    frequency:   13.7394984142
  - # 16
    frequency:   13.9237997278
  - # 17
    frequency:   14.8223437502
  - # 18
    frequency:   14.8245575569
  - # 19
    frequency:   17.8003322905
  - # 20
    frequency:   31.7462407977
  - # 21
    frequency:   67.7825875862

- q-position: [    0.1262626,    0.0000000,    0.0000000 ]
  distance:    0.0436884
  band:
  - # 1
    frequency:    0.5009061207
  - # 2
    frequency:    1.0076080907
  - # 3
    frequency:    1.6991088246
  - # 4
    frequency:    1.8059967719
  - # 5
    frequency:    2.6603592049
  - # 6
    frequency:    3.7078153940
  - # 7
    frequency:    4.3799877476
  - # 8
    frequency:    5.6187195680
  - # 9
    frequency:    6.0481939455
  - # 10
    frequency:    6.2077826172
  - # 11
    frequency:    8.3988638428
  - # 12
    frequency:    9.1048590714
  - # 13
    frequency:    9.2885510410
  - # 14
    frequency:   13.7087159909
  - # 15
    frequency:   13.7381359811
  - # 16
    frequency:   13.8703559346
  - # 17
    frequency:   14.7803746250
  - # 18
    frequency:   14.7921290745
  - # 19
    frequency:   17.7750845821
  - # 20
    frequency:   31.7226570791
  - # 21
    frequency:   67.7707224003

- q-position: [    0.1313131,    0.0000000,    0.0000000 ]
  distance:    0.0454360
  band:
  - # 1
    frequency:    0.5576847072
  - # 2
    frequency:    1.0849915654
  - # 3
    frequency:    1.7718684861
  - # 4
    frequency:    1.8585500806
  - # 5
    frequency:    2.6999875898
  - # 6
    frequency:    3.7229281392
  - # 7
    frequency:    4.4224601453
  - # 8
    frequency:    5.6157582174
  - # 9
    frequency:    6.0604789267
  - # 10
    frequency:    6.2111772133
  - # 11
    frequency:    8.3403593225
  - # 12
    frequency:    9.0638385289
  - # 13
    frequency:    9.2482700434
  - # 14
    frequency:   13.7091926228
  - # 15
    frequency:   13.7292581793
  - # 16
    frequency:   13.8253082580
  - # 17
    frequency:   14.7377364727
  - # 18
    frequency:   14.7601741970
  - # 19
    frequency:   17.7495241010
  - # 20
    frequency:   31.6989460628
  - # 21
    frequency:   67.7586938023

- q-position: [    0.1363636,    0.0000000,    0.0000000 ]
  distance:    0.0471835
  band:
  - # 1
    frequency:    0.6104613036
  - # 2
    frequency:    1.1604104308
  - # 3
    frequency:    1.8431901269
  - # 4
    frequency:    1.9088402285
  - # 5
    frequency:    2.7301268779
  - # 6
    frequency:    3.7388473833
  - # 7
    frequency:    4.4636447985
  - # 8
    frequency:    5.6133840759
  - # 9
    frequency:    6.0728869516
  - # 10
    frequency:    6.2118663852
  - # 11
    frequency:    8.2825009159
  - # 12
    frequency:    9.0247136361
  - # 13
    frequency:    9.2079259570
  - # 14
    frequency:   13.7033775227
  - # 15
    frequency:   13.7096157009
  - # 16
    frequency:   13.7983226622
  - # 17
    frequency:   14.6945763901
  - # 18
    frequency:   14.7288474566
  - # 19
    frequency:   17.7236938169
  - # 20
    frequency:   31.6751796238
  - # 21
    frequency:   67.7465304680

- q-position: [    0.1414141,    0.0000000,    0.0000000 ]
  distance:    0.0489311
  band:
  - # 1
    frequency:    0.6601457278
  - # 2
    frequency:    1.2339307218
  - # 3
    frequency:    1.9130217956
  - # 4
    frequency:    1.9568517543
  - # 5
    frequency:    2.7498861148
  - # 6
    frequency:    3.7555698129
  - # 7
    frequency:    4.5032754430
  - # 8
    frequency:    5.6116399367
  - # 9
    frequency:    6.0853890879
  - # 10
    frequency:    6.2098307300
  - # 11
    frequency:    8.2262297139
  - # 12
    frequency:    8.9876833102
  - # 13
    frequency:    9.1677398044
  - # 14
    frequency:   13.6606497924
  - # 15
    frequency:   13.7099761025
  - # 16
    frequency:   13.7894051355
  - # 17
    frequency:   14.6510419201
  - # 18
    frequency:   14.6982975937
  - # 19
    frequency:   17.6976346625
  - # 20
    frequency:   31.6514277297
  - # 21
    frequency:   67.7342605870

- q-position: [    0.1464646,    0.0000000,    0.0000000 ]
  distance:    0.0506786
  band:
  - # 1
    frequency:    0.7073419438
  - # 2
    frequency:    1.3055424042
  - # 3
    frequency:    1.9812467605
  - # 4
    frequency:    2.0025842423
  - # 5
    frequency:    2.7583572498
  - # 6
    frequency:    3.7730876884
  - # 7
    frequency:    4.5410785822
  - # 8
    frequency:    5.6105597369
  - # 9
    frequency:    6.0979534296
  - # 10
    frequency:    6.2052088103
  - # 11
    frequency:    8.1724705073
  - # 12
    frequency:    8.9529382765
  - # 13
    frequency:    9.1279472898
  - # 14
    frequency:   13.6110529256
  - # 15
    frequency:   13.7102651618
  - # 16
    frequency:   13.7887228048
  - # 17
    frequency:   14.6072808141
  - # 18
    frequency:   14.6686663345
  - # 19
    frequency:   17.6713856467
  - # 20
    frequency:   31.6277581024
  - # 21
    frequency:   67.7219117515

- q-position: [    0.1515152,    0.0000000,    0.0000000 ]
  distance:    0.0524261
  band:
  - # 1
    frequency:    0.7524729878
  - # 2
    frequency:    1.3751585887
  - # 3
    frequency:    2.0460534745
  - # 4
    frequency:    2.0476398450
  - # 5
    frequency:    2.7546795409
  - # 6
    frequency:    3.7913885515
  - # 7
    frequency:    4.5767838658
  - # 8
    frequency:    5.6101626981
  - # 9
    frequency:    6.1105445425
  - # 10
    frequency:    6.1983341389
  - # 11
    frequency:    8.1220630048
  - # 12
    frequency:    8.9206733292
  - # 13
    frequency:    9.0887984766
  - # 14
    frequency:   13.5597775458
  - # 15
    frequency:   13.7104750738
  - # 16
    frequency:   13.7912138000
  - # 17
    frequency:   14.5634410098
  - # 18
    frequency:   14.6400871821
  - # 19
    frequency:   17.6449839573
  - # 20
    frequency:   31.6042359012
  - # 21
    frequency:   67.7095108515