nqpoint: 300    
npath: 3      
segment_nqpoint:
- 100
- 100
- 100
labels:
- [ 'G', 'M' ]
- [ 'M', 'K' ]
- [ 'K', 'G' ]
reciprocal_lattice:
- [   0.28203942,   0.16283553,   0.00000000 ] # a*
- [   0.00000000,   0.32567107,   0.00000000 ] # b*
- [   0.00000000,   0.00000000,   0.03862055 ] # c*
natom: 7      
lattice:
- [     3.545603692737960,     0.000000000000000,     0.000000000000000 ] # a
- [    -1.772801846368980,     3.070582869659980,     0.000000000000000 ] # b
- [     0.000000000000000,     0.000000000000000,    25.892953167516026 ] # c
points:
- symbol: C # 1
  coordinates: [  0.333332985432215,  0.666666983183674,  0.592263524363881 ]
  mass: 12.010700
- symbol: H # 2
  coordinates: [  0.666666984744047,  0.333332985985145,  0.347584917864484 ]
  mass: 1.007940
- symbol: N # 3
  coordinates: [  0.000000000000000,  0.000000000000000,  0.439299922342275 ]
  mass: 14.006700
- symbol: N # 4
  coordinates: [  0.333332985432215,  0.666666983183674,  0.544067758391007 ]
  mass: 14.006700
- symbol: S # 5
  coordinates: [  0.333332985432215,  0.666666983183674,  0.652415082135515 ]
  mass: 32.065000
- symbol: Y # 6
  coordinates: [  0.333332985432215,  0.666666983183674,  0.387004999073998 ]
  mass: 88.905850
- symbol: Y # 7
  coordinates: [  0.666666984744047,  0.333332985985145,  0.489990232593192 ]
  mass: 88.905850

phonon:
- q-position: [    0.0000000,    0.0000000,    0.0000000 ]
  distance:    0.0000000
  band:
  - # 1
    frequency:   -0.4897095413
  - # 2
    frequency:   -0.4897095413
  - # 3
    frequency:   -0.0000076075
  - # 4
    frequency:   -0.0000002460
  - # 5
    frequency:    0.0000081970
  - # 6
    frequency:    3.6559103913
  - # 7
    frequency:    3.6559103913
  - # 8
    frequency:    4.9133077499
  - # 9
    frequency:    6.6995286309
  - # 10
    frequency:    6.6995286310
  - # 11
    frequency:    7.1693536295
  - # 12
    frequency:   10.9546992626
  - # 13
    frequency:   11.1336015891
  - # 14
    frequency:   11.1336015891
  - # 15
    frequency:   14.0835050074
  - # 16
    frequency:   14.0835050075
  - # 17
    frequency:   24.9269852004
  - # 18
    frequency:   26.9497650673
  - # 19
    frequency:   27.1420094666
  - # 20
    frequency:   27.1420094667
  - # 21
    frequency:   58.5715748780

- q-position: [    0.0050505,    0.0000000,    0.0000000 ]
  distance:    0.0016448
  band:
  - # 1
    frequency:   -0.4874967073
  - # 2
    frequency:   -0.4838445556
  - # 3
    frequency:    0.0020203300
  - # 4
    frequency:    0.0736071990
  - # 5
    frequency:    0.0915005392
  - # 6
    frequency:    3.6560411469
  - # 7
    frequency:    3.6566274197
  - # 8
    frequency:    4.9131754911
  - # 9
    frequency:    6.6995695076
  - # 10
    frequency:    6.6997964279
  - # 11
    frequency:    7.1687147889
  - # 12
    frequency:   10.9549007331
  - # 13
    frequency:   11.1334252191
  - # 14
    frequency:   11.1336499057
  - # 15
    frequency:   14.0835535217
  - # 16
    frequency:   14.0837149172
  - # 17
    frequency:   24.9259404370
  - # 18
    frequency:   26.9496633193
  - # 19
    frequency:   27.1418421179
  - # 20
    frequency:   27.1423049563
  - # 21
    frequency:   58.5706148921

- q-position: [    0.0101010,    0.0000000,    0.0000000 ]
  distance:    0.0032896
  band:
  - # 1
    frequency:   -0.4809800908
  - # 2
    frequency:   -0.4659909540
  - # 3
    frequency:    0.0082066440
  - # 4
    frequency:    0.1477271049
  - # 5
    frequency:    0.1833334132
  - # 6
    frequency:    3.6564343064
  - # 7
    frequency:    3.6587745609
  - # 8
    frequency:    4.9127802442
  - # 9
    frequency:    6.6996916154
  - # 10
    frequency:    6.7005978837
  - # 11
    frequency:    7.1668008966
  - # 12
    frequency:   10.9554992743
  - # 13
    frequency:   11.1329008817
  - # 14
    frequency:   11.1337945001
  - # 15
    frequency:   14.0836989346
  - # 16
    frequency:   14.0843444303
  - # 17
    frequency:   24.9228086045
  - # 18
    frequency:   26.9493593094
  - # 19
    frequency:   27.1413400910
  - # 20
    frequency:   27.1431903864
  - # 21
    frequency:   58.5677367388

- q-position: [    0.0151515,    0.0000000,    0.0000000 ]
  distance:    0.0049344
  band:
  - # 1
    frequency:   -0.4704699750
  - # 2
    frequency:   -0.4352364651
  - # 3
    frequency:    0.0190264795
  - # 4
    frequency:    0.2227146760
  - # 5
    frequency:    0.2757468071
  - # 6
    frequency:    3.6570925394
  - # 7
    frequency:    3.6623400426
  - # 8
    frequency:    4.9121266035
  - # 9
    frequency:    6.6998933962
  - # 10
    frequency:    6.7019271332
  - # 11
    frequency:    7.1636199079
  - # 12
    frequency:   10.9564770126
  - # 13
    frequency:   11.1320431729
  - # 14
    frequency:   11.1340343002
  - # 15
    frequency:   14.0839408579
  - # 16
    frequency:   14.0853928958
  - # 17
    frequency:   24.9175970613
  - # 18
    frequency:   26.9488566657
  - # 19
    frequency:   27.1405034455
  - # 20
    frequency:   27.1446627201
  - # 21
    frequency:   58.5629458267

- q-position: [    0.0202020,    0.0000000,    0.0000000 ]
  distance:    0.0065792
  band:
  - # 1
    frequency:   -0.4563231227
  - # 2
    frequency:   -0.3895367212
  - # 3
    frequency:    0.0356934563
  - # 4
    frequency:    0.2986769781
  - # 5
    frequency:    0.3688476792
  - # 6
    frequency:    3.6580202651
  - # 7
    frequency:    3.6673044377
  - # 8
    frequency:    4.9112222476
  - # 9
    frequency:    6.7001722783
  - # 10
    frequency:    6.7037741985
  - # 11
    frequency:    7.1591853101
  - # 12
    frequency:   10.9578032721
  - # 13
    frequency:   11.1308773546
  - # 14
    frequency:   11.1343674994
  - # 15
    frequency:   14.0842786464
  - # 16
    frequency:   14.0868592233
  - # 17
    frequency:   24.9103180205
  - # 18
    frequency:   26.9481611962
  - # 19
    frequency:   27.1393322844
  - # 20
    frequency:   27.1467171498
  - # 21
    frequency:   58.5562511539

- q-position: [    0.0252525,    0.0000000,    0.0000000 ]
  distance:    0.0082240
  band:
  - # 1
    frequency:   -0.4387781529
  - # 2
    frequency:   -0.3246775600
  - # 3
    frequency:    0.0616847153
  - # 4
    frequency:    0.3754846881
  - # 5
    frequency:    0.4625917125
  - # 6
    frequency:    3.6592236079
  - # 7
    frequency:    3.6736409441
  - # 8
    frequency:    4.9100779715
  - # 9
    frequency:    6.7005247142
  - # 10
    frequency:    6.7061246628
  - # 11
    frequency:    7.1535164843
  - # 12
    frequency:   10.9594332258
  - # 13
    frequency:   11.1294407769
  - # 14
    frequency:   11.1347915282
  - # 15
    frequency:   14.0847114015
  - # 16
    frequency:   14.0887418734
  - # 17
    frequency:   24.9009884749
  - # 18
    frequency:   26.9472805623
  - # 19
    frequency:   27.1378267591
  - # 20
    frequency:   27.1493474475
  - # 21
    frequency:   58.5476652838

- q-position: [    0.0303030,    0.0000000,    0.0000000 ]
  distance:    0.0098688
  band:
  - # 1
    frequency:   -0.4178332807
  - # 2
    frequency:   -0.2339499850
  - # 3
    frequency:    0.1097173316
  - # 4
    frequency:    0.4528607730
  - # 5
    frequency:    0.5568196587
  - # 6
    frequency:    3.6607103355
  - # 7
    frequency:    3.6813157539
  - # 8
    frequency:    4.9087077316
  - # 9
    frequency:    6.7009462328
  - # 10
    frequency:    6.7089591711
  - # 11
    frequency:    7.1466392548
  - # 12
    frequency:   10.9613059897
  - # 13
    frequency:   11.1277848874
  - # 14
    frequency:   11.1353030143
  - # 15
    frequency:   14.0852379760
  - # 16
    frequency:   14.0910388461
  - # 17
    frequency:   24.8896300959
  - # 18
    frequency:   26.9462238754
  - # 19
    frequency:   27.1359870767
  - # 20
    frequency:   27.1525463960
  - # 21
    frequency:   58.5372043113

- q-position: [    0.0353535,    0.0000000,    0.0000000 ]
  distance:    0.0115136
  band:
  - # 1
    frequency:   -0.3931812206
  - # 2
    frequency:   -0.1376117118
  - # 3
    frequency:    0.2126336259
  - # 4
    frequency:    0.5304838318
  - # 5
    frequency:    0.6513158388
  - # 6
    frequency:    3.6624897795
  - # 7
    frequency:    3.6902884937
  - # 8
    frequency:    4.9071287044
  - # 9
    frequency:    6.7014315043
  - # 10
    frequency:    6.7122527049
  - # 11
    frequency:    7.1385866742
  - # 12
    frequency:   10.9633422117
  - # 13
    frequency:   11.1259777739
  - # 14
    frequency:   11.1358977340
  - # 15
    frequency:   14.0858569801
  - # 16
    frequency:   14.0937476658
  - # 17
    frequency:   24.8762691056
  - # 18
    frequency:   26.9450012609
  - # 19
    frequency:   27.1338135099
  - # 20
    frequency:   27.1563062605
  - # 21
    frequency:   58.5248878197

- q-position: [    0.0404040,    0.0000000,    0.0000000 ]
  distance:    0.0131584
  band:
  - # 1
    frequency:   -0.3641541178
  - # 2
    frequency:   -0.0827557426
  - # 3
    frequency:    0.3351115678
  - # 4
    frequency:    0.6080582670
  - # 5
    frequency:    0.7458593971
  - # 6
    frequency:    3.6645727395
  - # 7
    frequency:    3.7005127127
  - # 8
    frequency:    4.9053613578
  - # 9
    frequency:    6.7019744183
  - # 10
    frequency:    6.7159735549
  - # 11
    frequency:    7.1294001209
  - # 12
    frequency:   10.9654413449
  - # 13
    frequency:   11.1241070546
  - # 14
    frequency:   11.1365705544
  - # 15
    frequency:   14.0865667885
  - # 16
    frequency:   14.0968653632
  - # 17
    frequency:   24.8609361285
  - # 18
    frequency:   26.9436234264
  - # 19
    frequency:   27.1313064080
  - # 20
    frequency:   27.1606192554
  - # 21
    frequency:   58.5107388274

- q-position: [    0.0454545,    0.0000000,    0.0000000 ]
  distance:    0.0148032
  band:
  - # 1
    frequency:   -0.3295880061
  - # 2
    frequency:   -0.0101497113
  - # 3
    frequency:    0.4418035904
  - # 4
    frequency:    0.6853425189
  - # 5
    frequency:    0.8402536084
  - # 6
    frequency:    3.6669713713
  - # 7
    frequency:    3.7119363951
  - # 8
    frequency:    4.9034295369
  - # 9
    frequency:    6.7025681721
  - # 10
    frequency:    6.7200818783
  - # 11
    frequency:    7.1191308182
  - # 12
    frequency:   10.9674790647
  - # 13
    frequency:   11.1222826510
  - # 14
    frequency:   11.1373153689
  - # 15
    frequency:   14.0873655496
  - # 16
    frequency:   14.1003884566
  - # 17
    frequency:   24.8436660235
  - # 18
    frequency:   26.9421012687
  - # 19
    frequency:   27.1284662097
  - # 20
    frequency:   27.1654779746
  - # 21
    frequency:   58.4947837269

- q-position: [    0.0505051,    0.0000000,    0.0000000 ]
  distance:    0.0164480
  band:
  - # 1
    frequency:   -0.2874339022
  - # 2
    frequency:    0.0824712689
  - # 3
    frequency:    0.5373091560
  - # 4
    frequency:    0.7621498978
  - # 5
    frequency:    0.9343350459
  - # 6
    frequency:    3.6696990598
  - # 7
    frequency:    3.7245024730
  - # 8
    frequency:    4.9013605615
  - # 9
    frequency:    6.7032053692
  - # 10
    frequency:    6.7245276736
  - # 11
    frequency:    7.1078419393
  - # 12
    frequency:   10.9693057402
  - # 13
    frequency:   11.1206385374
  - # 14
    frequency:   11.1381250273
  - # 15
    frequency:   14.0882511955
  - # 16
    frequency:   14.1043129295
  - # 17
    frequency:   24.8244977008
  - # 18
    frequency:   26.9404455384
  - # 19
    frequency:   27.1252934589
  - # 20
    frequency:   27.1708757593
  - # 21
    frequency:   58.4770522130

- q-position: [    0.0555556,    0.0000000,    0.0000000 ]
  distance:    0.0180928
  band:
  - # 1
    frequency:   -0.2335422217
  - # 2
    frequency:    0.1236890462
  - # 3
    frequency:    0.6258952947
  - # 4
    frequency:    0.8383382540
  - # 5
    frequency:    1.0279710974
  - # 6
    frequency:    3.6727702765
  - # 7
    frequency:    3.7381493176
  - # 8
    frequency:    4.8991853358
  - # 9
    frequency:    6.7038781253
  - # 10
    frequency:    6.7292479338
  - # 11
    frequency:    7.0956115378
  - # 12
    frequency:   10.9707474647
  - # 13
    frequency:   11.1193319583
  - # 14
    frequency:   11.1389912625
  - # 15
    frequency:   14.0892214535
  - # 16
    frequency:   14.1086342095
  - # 17
    frequency:   24.8034739266
  - # 18
    frequency:   26.9386665760
  - # 19
    frequency:   27.1217888205
  - # 20
    frequency:   27.1768069902
  - # 21
    frequency:   58.4575772036

- q-position: [    0.0606061,    0.0000000,    0.0000000 ]
  distance:    0.0197376
  band:
  - # 1
    frequency:   -0.1561130797
  - # 2
    frequency:    0.1616034951
  - # 3
    frequency:    0.7098948116
  - # 4
    frequency:    0.9137980403
  - # 5
    frequency:    1.1210531685
  - # 6
    frequency:    3.6762004243
  - # 7
    frequency:    3.7528111903
  - # 8
    frequency:    4.8969384695
  - # 9
    frequency:    6.7045781814
  - # 10
    frequency:    6.7341626325
  - # 11
    frequency:    7.0825366434
  - # 12
    frequency:   10.9716116411
  - # 13
    frequency:   11.1185381168
  - # 14
    frequency:   11.1399046146
  - # 15
    frequency:   14.0902738590
  - # 16
    frequency:   14.1133471447
  - # 17
    frequency:   24.7806411188
  - # 18
    frequency:   26.9367741202
  - # 19
    frequency:   27.1179530986
  - # 20
    frequency:   27.1832672995
  - # 21
    frequency:   58.4363947506

- q-position: [    0.0656566,    0.0000000,    0.0000000 ]
  distance:    0.0213824
  band:
  - # 1
    frequency:    0.0889381666
  - # 2
    frequency:    0.1995008702
  - # 3
    frequency:    0.7906456221
  - # 4
    frequency:    0.9884424724
  - # 5
    frequency:    1.2134896144
  - # 6
    frequency:    3.6800056689
  - # 7
    frequency:    3.7684186371
  - # 8
    frequency:    4.8946584056
  - # 9
    frequency:    6.7052970201
  - # 10
    frequency:    6.7391690620
  - # 11
    frequency:    7.0687390039
  - # 12
    frequency:   10.9716989181
  - # 13
    frequency:   11.1184385379
  - # 14
    frequency:   11.1408543560
  - # 15
    frequency:   14.0914057699
  - # 16
    frequency:   14.1184459824
  - # 17
    frequency:   24.7560491369
  - # 18
    frequency:   26.9347771835
  - # 19
    frequency:   27.1137872566
  - # 20
    frequency:   27.1902537048
  - # 21
    frequency:   58.4135439440

- q-position: [    0.0707071,    0.0000000,    0.0000000 ]
  distance:    0.0230272
  band:
  - # 1
    frequency:    0.2056840207
  - # 2
    frequency:    0.2384194852
  - # 3
    frequency:    0.8689672368
  - # 4
    frequency:    1.0622004604
  - # 5
    frequency:    1.3051999356
  - # 6
    frequency:    3.6842027589
  - # 7
    frequency:    3.7848988175
  - # 8
    frequency:    4.8923875532
  - # 9
    frequency:    6.7060259858
  - # 10
    frequency:    6.7441338903
  - # 11
    frequency:    7.0543731042
  - # 12
    frequency:   10.9708215905
  - # 13
    frequency:   11.1192029883
  - # 14
    frequency:   11.1418284190
  - # 15
    frequency:   14.0926143821
  - # 16
    frequency:   14.1239243473
  - # 17
    frequency:   24.7297510688
  - # 18
    frequency:   26.9326839878
  - # 19
    frequency:   27.1092924370
  - # 20
    frequency:   27.1977646731
  - # 21
    frequency:   58.3890668061

- q-position: [    0.0757576,    0.0000000,    0.0000000 ]
  distance:    0.0246721
  band:
  - # 1
    frequency:    0.2787651588
  - # 2
    frequency:    0.2807300934
  - # 3
    frequency:    0.9453888414
  - # 4
    frequency:    1.1350118784
  - # 5
    frequency:    1.3961104922
  - # 6
    frequency:    3.6888088349
  - # 7
    frequency:    3.8021757612
  - # 8
    frequency:    4.8901724187
  - # 9
    frequency:    6.7067564038
  - # 10
    frequency:    6.7488822070
  - # 11
    frequency:    7.0396371902
  - # 12
    frequency:   10.9688253007
  - # 13
    frequency:   11.1209681150
  - # 14
    frequency:   11.1428133270
  - # 15
    frequency:   14.0938967464
  - # 16
    frequency:   14.1297752221
  - # 17
    frequency:   24.7018030160
  - # 18
    frequency:   26.9305019486
  - # 19
    frequency:   27.1044699840
  - # 20
    frequency:   27.2058001231
  - # 21
    frequency:   58.3630081794

- q-position: [    0.0808081,    0.0000000,    0.0000000 ]
  distance:    0.0263169
  band:
  - # 1
    frequency:    0.3206986601
  - # 2
    frequency:    0.3426423218
  - # 3
    frequency:    1.0202661713
  - # 4
    frequency:    1.2068245249
  - # 5
    frequency:    1.4861515132
  - # 6
    frequency:    3.6938412301
  - # 7
    frequency:    3.8201705536
  - # 8
    frequency:    4.8880637277
  - # 9
    frequency:    6.7074796997
  - # 10
    frequency:    6.7531830105
  - # 11
    frequency:    7.0247878447
  - # 12
    frequency:   10.9656076344
  - # 13
    frequency:   11.1238192032
  - # 14
    frequency:   11.1437941327
  - # 15
    frequency:   14.0952497868
  - # 16
    frequency:   14.1359909310
  - # 17
    frequency:   24.6722638809
  - # 18
    frequency:   26.9282376962
  - # 19
    frequency:   27.0993214655
  - # 20
    frequency:   27.2143613767
  - # 21
    frequency:   58.3354156061

- q-position: [    0.0858586,    0.0000000,    0.0000000 ]
  distance:    0.0279617
  band:
  - # 1
    frequency:    0.3642675739
  - # 2
    frequency:    0.3975730479
  - # 3
    frequency:    1.0938457547
  - # 4
    frequency:    1.2775922225
  - # 5
    frequency:    1.5752550753
  - # 6
    frequency:    3.6993172633
  - # 7
    frequency:    3.8388014566
  - # 8
    frequency:    4.8861165279
  - # 9
    frequency:    6.7081875143
  - # 10
    frequency:    6.7567316021
  - # 11
    frequency:    7.0101576485
  - # 12
    frequency:   10.9611269682
  - # 13
    frequency:   11.1277816942
  - # 14
    frequency:   11.1447543649
  - # 15
    frequency:   14.0966703191
  - # 16
    frequency:   14.1425631257
  - # 17
    frequency:   24.6411951553
  - # 18
    frequency:   26.9258971240
  - # 19
    frequency:   27.0938486968
  - # 20
    frequency:   27.2234510712
  - # 21
    frequency:   58.3063392012

- q-position: [    0.0909091,    0.0000000,    0.0000000 ]
  distance:    0.0296065
  band:
  - # 1
    frequency:    0.4094608244
  - # 2
    frequency:    0.4480620652
  - # 3
    frequency:    1.1663023817
  - # 4
    frequency:    1.3472736523
  - # 5
    frequency:    1.6633537674
  - # 6
    frequency:    3.7052540251
  - # 7
    frequency:    3.8579839768
  - # 8
    frequency:    4.8843902577
  - # 9
    frequency:    6.7088718141
  - # 10
    frequency:    6.7591323309
  - # 11
    frequency:    6.9961724820
  - # 12
    frequency:   10.9553989418
  - # 13
    frequency:   11.1328250829
  - # 14
    frequency:   11.1456759857
  - # 15
    frequency:   14.0981550718
  - # 16
    frequency:   14.1494827756
  - # 17
    frequency:   24.6086607136
  - # 18
    frequency:   26.9234854558
  - # 19
    frequency:   27.0880537644
  - # 20
    frequency:   27.2330730389
  - # 21
    frequency:   58.2758315184

- q-position: [    0.0959596,    0.0000000,    0.0000000 ]
  distance:    0.0312513
  band:
  - # 1
    frequency:    0.4562343487
  - # 2
    frequency:    0.4954316053
  - # 3
    frequency:    1.2377620535
  - # 4
    frequency:    1.4158316544
  - # 5
    frequency:    1.7503798263
  - # 6
    frequency:    3.7116681600
  - # 7
    frequency:    3.8776309002
  - # 8
    frequency:    4.8829487621
  - # 9
    frequency:    6.7095249944
  - # 10
    frequency:    6.7598915928
  - # 11
    frequency:    6.9833585632
  - # 12
    frequency:   10.9484835333
  - # 13
    frequency:   11.1388762124
  - # 14
    frequency:   11.1465393595
  - # 15
    frequency:   14.0997007065
  - # 16
    frequency:   14.1567401624
  - # 17
    frequency:   24.5747266094
  - # 18
    frequency:   26.9210073226
  - # 19
    frequency:   27.0819390500
  - # 20
    frequency:   27.2432321642
  - # 21
    frequency:   58.2439474096

- q-position: [    0.1010101,    0.0000000,    0.0000000 ]
  distance:    0.0328961
  band:
  - # 1
    frequency:    0.5045243921
  - # 2
    frequency:    0.5404636824
  - # 3
    frequency:    1.3083166169
  - # 4
    frequency:    1.4832328168
  - # 5
    frequency:    1.8362645977
  - # 6
    frequency:    3.7185756459
  - # 7
    frequency:    3.8976523212
  - # 8
    frequency:    4.8818602331
  - # 9
    frequency:    6.7101399745
  - # 10
    frequency:    6.7584405638
  - # 11
    frequency:    6.9723197437
  - # 12
    frequency:   10.9404687586
  - # 13
    frequency:   11.1458359378
  - # 14
    frequency:   11.1473232362
  - # 15
    frequency:   14.1013038400
  - # 16
    frequency:   14.1643248798
  - # 17
    frequency:   24.5394608772
  - # 18
    frequency:   26.9184668458
  - # 19
    frequency:   27.0755072546
  - # 20
    frequency:   27.2539342241
  - # 21
    frequency:   58.2107438791

- q-position: [    0.1060606,    0.0000000,    0.0000000 ]
  distance:    0.0345409
  band:
  - # 1
    frequency:    0.5542549160
  - # 2
    frequency:    0.5836601636
  - # 3
    frequency:    1.3780334205
  - # 4
    frequency:    1.5494472411
  - # 5
    frequency:    1.9209382247
  - # 6
    frequency:    3.7259915725
  - # 7
    frequency:    3.9179556972
  - # 8
    frequency:    4.8811970438
  - # 9
    frequency:    6.7107102833
  - # 10
    frequency:    6.7542110922
  - # 11
    frequency:    6.9636616338
  - # 12
    frequency:   10.9314562045
  - # 13
    frequency:   11.1480047496
  - # 14
    frequency:   11.1535939433
  - # 15
    frequency:   14.1029610666
  - # 16
    frequency:   14.1722258390
  - # 17
    frequency:   24.5029333394
  - # 18
    frequency:   26.9158677193
  - # 19
    frequency:   27.0687614227
  - # 20
    frequency:   27.2651857186
  - # 21
    frequency:   58.1762799321

- q-position: [    0.1111111,    0.0000000,    0.0000000 ]
  distance:    0.0361857
  band:
  - # 1
    frequency:    0.6053419742
  - # 2
    frequency:    0.6253619824
  - # 3
    frequency:    1.4469618718
  - # 4
    frequency:    1.6144484147
  - # 5
    frequency:    2.0043295005
  - # 6
    frequency:    3.7339299208
  - # 7
    frequency:    3.9384459716
  - # 8
    frequency:    4.8810354407
  - # 9
    frequency:    6.7112301334
  - # 10
    frequency:    6.7467658061
  - # 11
    frequency:    6.9578615032
  - # 12
    frequency:   10.9215508452
  - # 13
    frequency:   11.1485594321
  - # 14
    frequency:   11.1620392561
  - # 15
    frequency:   14.1046689803
  - # 16
    frequency:   14.1804312789
  - # 17
    frequency:   24.4652154175
  - # 18
    frequency:   26.9132132905
  - # 19
    frequency:   27.0617049657
  - # 20
    frequency:   27.2769936940
  - # 21
    frequency:   58.1406164175

- q-position: [    0.1161616,    0.0000000,    0.0000000 ]
  distance:    0.0378305
  band:
  - # 1
    frequency:    0.6576964242
  - # 2
    frequency:    0.6658106420
  - # 3
    frequency:    1.5151380038
  - # 4
    frequency:    1.6782131443
  - # 5
    frequency:    2.0863658490
  - # 6
    frequency:    3.7424033461
  - # 7
    frequency:    3.9590258122
  - # 8
    frequency:    4.8814550530
  - # 9
    frequency:    6.7116944842
  - # 10
    frequency:    6.7359284229
  - # 11
    frequency:    6.9551379692
  - # 12
    frequency:   10.9108552048
  - # 13
    frequency:   11.1489612466
  - # 14
    frequency:   11.1710663867
  - # 15
    frequency:   14.1064241973
  - # 16
    frequency:   14.1889287837
  - # 17
    frequency:   24.4263799485
  - # 18
    frequency:   26.9105066356
  - # 19
    frequency:   27.0543416849
  - # 20
    frequency:   27.2893655651
  - # 21
    frequency:   58.1038158677

- q-position: [    0.1212121,    0.0000000,    0.0000000 ]
  distance:    0.0394753
  band:
  - # 1
    frequency:    0.7051827681
  - # 2
    frequency:    0.7112256750
  - # 3
    frequency:    1.5825877247
  - # 4
    frequency:    1.7407215241
  - # 5
    frequency:    2.1669734075
  - # 6
    frequency:    3.7514229651
  - # 7
    frequency:    3.9795960176
  - # 8
    frequency:    4.8825381716
  - # 9
    frequency:    6.7120990922
  - # 10
    frequency:    6.7218277944
  - # 11
    frequency:    6.9554069363
  - # 12
    frequency:   10.8994667903
  - # 13
    frequency:   11.1491826364
  - # 14
    frequency:   11.1805781659
  - # 15
    frequency:   14.1082233787
  - # 16
    frequency:   14.1977053056
  - # 17
    frequency:   24.3865010052
  - # 18
    frequency:   26.9077506287
  - # 19
    frequency:   27.0466757940
  - # 20
    frequency:   27.3023089374
  - # 21
    frequency:   58.0659423329

- q-position: [    0.1262626,    0.0000000,    0.0000000 ]
  distance:    0.0411201
  band:
  - # 1
    frequency:    0.7436108145
  - # 2
    frequency:    0.7658348539
  - # 3
    frequency:    1.6493291757
  - # 4
    frequency:    1.8019569196
  - # 5
    frequency:    2.2460771999
  - # 6
    frequency:    3.7609981523
  - # 7
    frequency:    4.0000561474
  - # 8
    frequency:    4.8843687515
  - # 9
    frequency:    6.7048257238
  - # 10
    frequency:    6.7124405484
  - # 11
    frequency:    6.9583537503
  - # 12
    frequency:   10.8874775515
  - # 13
    frequency:   11.1491945936
  - # 14
    frequency:   11.1904865127
  - # 15
    frequency:   14.1100632518
  - # 16
    frequency:   14.2067471941
  - # 17
    frequency:   24.3456537213
  - # 18
    frequency:   26.9049480041
  - # 19
    frequency:   27.0387119395
  - # 20
    frequency:   27.3158314336
  - # 21
    frequency:   58.0270612132

- q-position: [    0.1313131,    0.0000000,    0.0000000 ]
  distance:    0.0427649
  band:
  - # 1
    frequency:    0.7811961179
  - # 2
    frequency:    0.8214276103
  - # 3
    frequency:    1.7153744712
  - # 4
    frequency:    1.8619059588
  - # 5
    frequency:    2.3236013928
  - # 6
    frequency:    3.7711363441
  - # 7
    frequency:    4.0203054274
  - # 8
    frequency:    4.8870310928
  - # 9
    frequency:    6.6853893639
  - # 10
    frequency:    6.7127163035
  - # 11
    frequency:    6.9635607567
  - # 12
    frequency:   10.8749743946
  - # 13
    frequency:   11.1489667457
  - # 14
    frequency:   11.2007121018
  - # 15
    frequency:   14.1119406314
  - # 16
    frequency:   14.2160402311
  - # 17
    frequency:   24.3039141185
  - # 18
    frequency:   26.9021014113
  - # 19
    frequency:   27.0304552206
  - # 20
    frequency:   27.3299405252
  - # 21
    frequency:   57.9872390868

- q-position: [    0.1363636,    0.0000000,    0.0000000 ]
  distance:    0.0444097
  band:
  - # 1
    frequency:    0.8180174719
  - # 2
    frequency:    0.8779066880
  - # 3
    frequency:    1.7807310033
  - # 4
    frequency:    1.9205585222
  - # 5
    frequency:    2.3994696309
  - # 6
    frequency:    3.7818428559
  - # 7
    frequency:    4.0402439730
  - # 8
    frequency:    4.8906081687
  - # 9
    frequency:    6.6639856984
  - # 10
    frequency:    6.7129246793
  - # 11
    frequency:    6.9706127561
  - # 12
    frequency:   10.8620401181
  - # 13
    frequency:   11.1484674606
  - # 14
    frequency:   11.2111835544
  - # 15
    frequency:   14.1138524392
  - # 16
    frequency:   14.2255696714
  - # 17
    frequency:   24.2613589387
  - # 18
    frequency:   26.8992134618
  - # 19
    frequency:   27.0219112076
  - # 20
    frequency:   27.3446433713
  - # 21
    frequency:   57.9465435367

- q-position: [    0.1414141,    0.0000000,    0.0000000 ]
  distance:    0.0460545
  band:
  - # 1
    frequency:    0.8541369508
  - # 2
    frequency:    0.9351743472
  - # 3
    frequency:    1.8454024324
  - # 4
    frequency:    1.9779077283
  - # 5
    frequency:    2.4736054483
  - # 6
    frequency:    3.7931207133
  - # 7
    frequency:    4.0597743500
  - # 8
    frequency:    4.8951795884
  - # 9
    frequency:    6.6410271448
  - # 10
    frequency:    6.7130648686
  - # 11
    frequency:    6.9791513171
  - # 12
    frequency:   10.8487544164
  - # 13
    frequency:   11.1476639693
  - # 14
    frequency:   11.2218365021
  - # 15
    frequency:   14.1157957225
  - # 16
    frequency:   14.2353202888
  - # 17
    frequency:   24.2180654767
  - # 18
    frequency:   26.8962867693
  - # 19
    frequency:   27.0130859577
  - # 20
    frequency:   27.3599466664
  - # 21
    frequency:   57.9050429751

- q-position: [    0.1464646,    0.0000000,    0.0000000 ]
  distance:    0.0476993
  band:
  - # 1
    frequency:    0.8896039803
  - # 2
    frequency:    0.9931326896
  - # 3
    frequency:    1.9093894489
  - # 4
    frequency:    2.0339499124
  - # 5
    frequency:    2.5459327567
  - # 6
    frequency:    3.8049704988
  - # 7
    frequency:    4.0788034649
  - # 8
    frequency:    4.9008192177
  - # 9
    frequency:    6.6168570705
  - # 10
    frequency:    6.7131369232
  - # 11
    frequency:    6.9888891509
  - # 12
    frequency:   10.8351947687
  - # 13
    frequency:   11.1465225055
  - # 14
    frequency:   11.2326127008
  - # 15
    frequency:   14.1177676702
  - # 16
    frequency:   14.2452764267
  - # 17
    frequency:   24.1741114164
  - # 18
    frequency:   26.8933239827
  - # 19
    frequency:   27.0039860298
  - # 20
    frequency:   27.3758564976
  - # 21
    frequency:   57.8628064665

- q-position: [    0.1515152,    0.0000000,    0.0000000 ]
  distance:    0.0493441
  band:
  - # 1
    frequency:    0.9244582506
  - # 2
    frequency:    1.0516839206
  - # 3
    frequency:    1.9726903654
  - # 4
    frequency:    2.0886845968
  - # 5
    frequency:    2.6163764045
  - # 6
    frequency:    3.8173902175
  - # 7
    frequency:    4.0972447303
  - # 8
    frequency:    4.9075925213
  - # 9
    frequency:    6.5917552695
  - # 10
    frequency:    6.7131417305
  - # 11
    frequency:    6.9996044954
  - # 12
    frequency:   10.8214371416
  - # 13
    frequency:   11.1450084616
  - # 14
    frequency:   11.2434592627
  - # 15
    frequency:   14.1197656280
  - # 16
    frequency:   14.2554220524
  - # 17
    frequency:   24.1295746687
  - # 18
    frequency:   26.8903278119
  - # 19
    frequency:   26.9946184962
  - # 20
    frequency:   27.3923782128
  - # 21
    frequency:   57.8199035509
