nqpoint: 300    
npath: 3      
segment_nqpoint:
- 100
- 100
- 100
labels:
- [ 'G', 'M' ]
- [ 'M', 'K' ]
- [ 'K', 'G' ]
reciprocal_lattice:
- [   0.29532471,   0.17050580,   0.00000000 ] # a*
- [   0.00000000,   0.34101160,   0.00000000 ] # b*
- [   0.00000000,   0.00000000,   0.03899234 ] # c*
natom: 7      
lattice:
- [     3.386103356458292,     0.000000000000000,     0.000000000000000 ] # a
- [    -1.693051678229146,     2.932451526535968,     0.000000000000000 ] # b
- [     0.000000000000000,     0.000000000000000,    25.646061761500274 ] # c
points:
- symbol: C # 1
  coordinates: [  0.000000000000000,  0.000000000000000,  0.551280491279746 ]
  mass: 12.010700
- symbol: C # 2
  coordinates: [  0.666666984744047,  0.333332985985145,  0.397258082008208 ]
  mass: 12.010700
- symbol: F # 3
  coordinates: [  0.333332985432215,  0.666666983183674,  0.649068925915528 ]
  mass: 18.998403
- symbol: N # 4
  coordinates: [  0.666666984744047,  0.333332985985145,  0.350931074084472 ]
  mass: 14.006700
- symbol: O # 5
  coordinates: [  0.666666984744047,  0.333332985985145,  0.449310157316120 ]
  mass: 15.999400
- symbol: Zr # 6
  coordinates: [  0.333332985432215,  0.666666983183674,  0.503430852762025 ]
  mass: 91.224000
- symbol: Zr # 7
  coordinates: [  0.666666984744047,  0.333332985985145,  0.598295501826302 ]
  mass: 91.224000

phonon:
- q-position: [    0.0000000,    0.0000000,    0.0000000 ]
  distance:    0.0000000
  band:
  - # 1
    frequency:   -0.0000079164
  - # 2
    frequency:    0.0000005557
  - # 3
    frequency:    0.0000113011
  - # 4
    frequency:    1.8887746927
  - # 5
    frequency:    1.8887746927
  - # 6
    frequency:    4.6592072653
  - # 7
    frequency:    4.6592072653
  - # 8
    frequency:    5.1963316679
  - # 9
    frequency:    5.1963316679
  - # 10
    frequency:    6.1053753580
  - # 11
    frequency:    6.3359208412
  - # 12
    frequency:    6.3359208412
  - # 13
    frequency:    9.2969968138
  - # 14
    frequency:   11.8684596104
  - # 15
    frequency:   14.0491522065
  - # 16
    frequency:   14.0491522065
  - # 17
    frequency:   16.2133881267
  - # 18
    frequency:   18.0176431479
  - # 19
    frequency:   18.0176431480
  - # 20
    frequency:   31.8968705546
  - # 21
    frequency:   67.8178223036

- q-position: [    0.0050505,    0.0000000,    0.0000000 ]
  distance:    0.0017223
  band:
  - # 1
    frequency:    0.0014038971
  - # 2
    frequency:    0.0554096851
  - # 3
    frequency:    0.1071256734
  - # 4
    frequency:    1.8881040923
  - # 5
    frequency:    1.8897812066
  - # 6
    frequency:    4.6589560244
  - # 7
    frequency:    4.6597206032
  - # 8
    frequency:    5.1970717665
  - # 9
    frequency:    5.1974164422
  - # 10
    frequency:    6.1045184863
  - # 11
    frequency:    6.3358515542
  - # 12
    frequency:    6.3370421416
  - # 13
    frequency:    9.2964692595
  - # 14
    frequency:   11.8676011217
  - # 15
    frequency:   14.0492086229
  - # 16
    frequency:   14.0493056526
  - # 17
    frequency:   16.2132506192
  - # 18
    frequency:   18.0172251757
  - # 19
    frequency:   18.0178360269
  - # 20
    frequency:   31.8964553869
  - # 21
    frequency:   67.8175999727

- q-position: [    0.0101010,    0.0000000,    0.0000000 ]
  distance:    0.0034446
  band:
  - # 1
    frequency:    0.0056093290
  - # 2
    frequency:    0.1108551502
  - # 3
    frequency:    0.2142155163
  - # 4
    frequency:    1.8860943825
  - # 5
    frequency:    1.8927990445
  - # 6
    frequency:    4.6582008192
  - # 7
    frequency:    4.6612576388
  - # 8
    frequency:    5.1992910632
  - # 9
    frequency:    5.2006655261
  - # 10
    frequency:    6.1019979977
  - # 11
    frequency:    6.3356439100
  - # 12
    frequency:    6.3403548716
  - # 13
    frequency:    9.2948870254
  - # 14
    frequency:   11.8650276100
  - # 15
    frequency:   14.0493777821
  - # 16
    frequency:   14.0497657582
  - # 17
    frequency:   16.2128382551
  - # 18
    frequency:   18.0159728747
  - # 19
    frequency:   18.0184117646
  - # 20
    frequency:   31.8952108604
  - # 21
    frequency:   67.8169334498

- q-position: [    0.0151515,    0.0000000,    0.0000000 ]
  distance:    0.0051668
  band:
  - # 1
    frequency:    0.0125973937
  - # 2
    frequency:    0.1663707541
  - # 3
    frequency:    0.3212305990
  - # 4
    frequency:    1.8827519071
  - # 5
    frequency:    1.8978236680
  - # 6
    frequency:    4.6569374281
  - # 7
    frequency:    4.6638095407
  - # 8
    frequency:    5.2029863654
  - # 9
    frequency:    5.2060631444
  - # 10
    frequency:    6.0979526016
  - # 11
    frequency:    6.3352985675
  - # 12
    frequency:    6.3457172204
  - # 13
    frequency:    9.2922514004
  - # 14
    frequency:   11.8607449304
  - # 15
    frequency:   14.0496594135
  - # 16
    frequency:   14.0505318252
  - # 17
    frequency:   16.2121515094
  - # 18
    frequency:   18.0138910892
  - # 19
    frequency:   18.0193616887
  - # 20
    frequency:   31.8931399010
  - # 21
    frequency:   67.8158241431

- q-position: [    0.0202020,    0.0000000,    0.0000000 ]
  distance:    0.0068891
  band:
  - # 1
    frequency:    0.0223374515
  - # 2
    frequency:    0.2219880125
  - # 3
    frequency:    0.4281256018
  - # 4
    frequency:    1.8780874757
  - # 5
    frequency:    1.9048494348
  - # 6
    frequency:    4.6551595434
  - # 7
    frequency:    4.6673619222
  - # 8
    frequency:    5.2081517251
  - # 9
    frequency:    5.2135828199
  - # 10
    frequency:    6.0925804520
  - # 11
    frequency:    6.3348166542
  - # 12
    frequency:    6.3529259770
  - # 13
    frequency:    9.2885645401
  - # 14
    frequency:   11.8547628186
  - # 15
    frequency:   14.0500530643
  - # 16
    frequency:   14.0516026935
  - # 17
    frequency:   16.2111911718
  - # 18
    frequency:   18.0109878822
  - # 19
    frequency:   18.0206714311
  - # 20
    frequency:   31.8902473747
  - # 21
    frequency:   67.8142743941

- q-position: [    0.0252525,    0.0000000,    0.0000000 ]
  distance:    0.0086114
  band:
  - # 1
    frequency:    0.0347882221
  - # 2
    frequency:    0.2777341666
  - # 3
    frequency:    0.5348451268
  - # 4
    frequency:    1.8721167317
  - # 5
    frequency:    1.9138725393
  - # 6
    frequency:    4.6528597749
  - # 7
    frequency:    4.6718953044
  - # 8
    frequency:    5.2147775841
  - # 9
    frequency:    5.2231871233
  - # 10
    frequency:    6.0861053928
  - # 11
    frequency:    6.3341998097
  - # 12
    frequency:    6.3617504550
  - # 13
    frequency:    9.2838294780
  - # 14
    frequency:   11.8470948555
  - # 15
    frequency:   14.0505580980
  - # 16
    frequency:   14.0529767445
  - # 17
    frequency:   16.2099583454
  - # 18
    frequency:   18.0072745180
  - # 19
    frequency:   18.0223210544
  - # 20
    frequency:   31.8865400724
  - # 21
    frequency:   67.8122874708

- q-position: [    0.0303030,    0.0000000,    0.0000000 ]
  distance:    0.0103337
  band:
  - # 1
    frequency:    0.0498992461
  - # 2
    frequency:    0.3336307293
  - # 3
    frequency:    0.6413193315
  - # 4
    frequency:    1.8648606980
  - # 5
    frequency:    1.9248952702
  - # 6
    frequency:    4.6500308915
  - # 7
    frequency:    4.6773856950
  - # 8
    frequency:    5.2228497326
  - # 9
    frequency:    5.2348273707
  - # 10
    frequency:    6.0787495260
  - # 11
    frequency:    6.3334502454
  - # 12
    frequency:    6.3719601698
  - # 13
    frequency:    9.2780501408
  - # 14
    frequency:   11.8377584193
  - # 15
    frequency:   14.0511736909
  - # 16
    frequency:   14.0546519072
  - # 17
    frequency:   16.2084544433
  - # 18
    frequency:   18.0027654397
  - # 19
    frequency:   18.0242852274
  - # 20
    frequency:   31.8820266872
  - # 21
    frequency:   67.8098675564

- q-position: [    0.0353535,    0.0000000,    0.0000000 ]
  distance:    0.0120560
  band:
  - # 1
    frequency:    0.0676125664
  - # 2
    frequency:    0.3896919780
  - # 3
    frequency:    0.7474585127
  - # 4
    frequency:    1.8563465361
  - # 5
    frequency:    1.9379317990
  - # 6
    frequency:    4.6466671710
  - # 7
    frequency:    4.6838052303
  - # 8
    frequency:    5.2323482077
  - # 9
    frequency:    5.2484433088
  - # 10
    frequency:    6.0707164875
  - # 11
    frequency:    6.3325708210
  - # 12
    frequency:    6.3833418874
  - # 13
    frequency:    9.2712313673
  - # 14
    frequency:   11.8267746256
  - # 15
    frequency:   14.0518988287
  - # 16
    frequency:   14.0566256653
  - # 17
    frequency:   16.2066811857
  - # 18
    frequency:   17.9974782380
  - # 19
    frequency:   18.0265334458
  - # 20
    frequency:   31.8767177875
  - # 21
    frequency:   67.8070197367

- q-position: [    0.0404040,    0.0000000,    0.0000000 ]
  distance:    0.0137782
  band:
  - # 1
    frequency:    0.0878645175
  - # 2
    frequency:    0.4459233441
  - # 3
    frequency:    0.8531461107
  - # 4
    frequency:    1.8466085726
  - # 5
    frequency:    1.9530158730
  - # 6
    frequency:    4.6427657241
  - # 7
    frequency:    4.6911228194
  - # 8
    frequency:    5.2432462527
  - # 9
    frequency:    5.2639628202
  - # 10
    frequency:    6.0621844307
  - # 11
    frequency:    6.3315651349
  - # 12
    frequency:    6.3957070584
  - # 13
    frequency:    9.2633789315
  - # 14
    frequency:   11.8141682544
  - # 15
    frequency:   14.0527323027
  - # 16
    frequency:   14.0588950647
  - # 17
    frequency:   16.2046405971
  - # 18
    frequency:   17.9914336137
  - # 19
    frequency:   18.0290302961
  - # 20
    frequency:   31.8706257822
  - # 21
    frequency:   67.8037499831

- q-position: [    0.0454545,    0.0000000,    0.0000000 ]
  distance:    0.0155005
  band:
  - # 1
    frequency:    0.1105875148
  - # 2
    frequency:    0.5023196161
  - # 3
    frequency:    0.9582293796
  - # 4
    frequency:    1.8356896786
  - # 5
    frequency:    1.9702110261
  - # 6
    frequency:    4.6383276807
  - # 7
    frequency:    4.6993047397
  - # 8
    frequency:    5.2555094459
  - # 9
    frequency:    5.2813016746
  - # 10
    frequency:    6.0533055562
  - # 11
    frequency:    6.3304376287
  - # 12
    frequency:    6.4088928097
  - # 13
    frequency:    9.2544995677
  - # 14
    frequency:   11.7999676680
  - # 15
    frequency:   14.0536727048
  - # 16
    frequency:   14.0614567229
  - # 17
    frequency:   16.2023350027
  - # 18
    frequency:   17.9846553331
  - # 19
    frequency:   18.0317357592
  - # 20
    frequency:   31.8637648817
  - # 21
    frequency:   67.8000651338

- q-position: [    0.0505051,    0.0000000,    0.0000000 ]
  distance:    0.0172228
  band:
  - # 1
    frequency:    0.1357117505
  - # 2
    frequency:    0.5588628289
  - # 3
    frequency:    1.0625066603
  - # 4
    frequency:    1.8236431256
  - # 5
    frequency:    1.9896242507
  - # 6
    frequency:    4.6333591520
  - # 7
    frequency:    4.7083151410
  - # 8
    frequency:    5.2690950711
  - # 9
    frequency:    5.3003633315
  - # 10
    frequency:    6.0442091650
  - # 11
    frequency:    6.3291937053
  - # 12
    frequency:    6.4227595385
  - # 13
    frequency:    9.2446009991
  - # 14
    frequency:   11.7842047172
  - # 15
    frequency:   14.0547184235
  - # 16
    frequency:   14.0643068381
  - # 17
    frequency:   16.1997670268
  - # 18
    frequency:   17.9771701745
  - # 19
    frequency:   18.0346055486
  - # 20
    frequency:   31.8561510521
  - # 21
    frequency:   67.7959728722

- q-position: [    0.0555556,    0.0000000,    0.0000000 ]
  distance:    0.0189451
  band:
  - # 1
    frequency:    0.1631667236
  - # 2
    frequency:    0.6155196430
  - # 3
    frequency:    1.1657098286
  - # 4
    frequency:    1.8105351107
  - # 5
    frequency:    2.0114244626
  - # 6
    frequency:    4.6278719198
  - # 7
    frequency:    4.7181164332
  - # 8
    frequency:    5.2839517691
  - # 9
    frequency:    5.3210387792
  - # 10
    frequency:    6.0350061704
  - # 11
    frequency:    6.3278398572
  - # 12
    frequency:    6.4371872023
  - # 13
    frequency:    9.2336919677
  - # 14
    frequency:   11.7669146401
  - # 15
    frequency:   14.0558676386
  - # 16
    frequency:   14.0674411991
  - # 17
    frequency:   16.1969395907
  - # 18
    frequency:   17.9690078677
  - # 19
    frequency:   18.0375914802
  - # 20
    frequency:   31.8478019644
  - # 21
    frequency:   67.7914817018

- q-position: [    0.0606061,    0.0000000,    0.0000000 ]
  distance:    0.0206674
  band:
  - # 1
    frequency:    0.1928825533
  - # 2
    frequency:    0.6722379142
  - # 3
    frequency:    1.2674802057
  - # 4
    frequency:    1.7964482426
  - # 5
    frequency:    2.0358673997
  - # 6
    frequency:    4.6218838413
  - # 7
    frequency:    4.7286695442
  - # 8
    frequency:    5.3000194730
  - # 9
    frequency:    5.3432063695
  - # 10
    frequency:    6.0257939353
  - # 11
    frequency:    6.3263838073
  - # 12
    frequency:    6.4520714767
  - # 13
    frequency:    9.2217822662
  - # 14
    frequency:   11.7481359510
  - # 15
    frequency:   14.0571183176
  - # 16
    frequency:   14.0708551955
  - # 17
    frequency:   16.1938559134
  - # 18
    frequency:   17.9602010247
  - # 19
    frequency:   18.0406418684
  - # 20
    frequency:   31.8387369381
  - # 21
    frequency:   67.7866009201

- q-position: [    0.0656566,    0.0000000,    0.0000000 ]
  distance:    0.0223897
  band:
  - # 1
    frequency:    0.2247910464
  - # 2
    frequency:    0.7289419951
  - # 3
    frequency:    1.3673365036
  - # 4
    frequency:    1.7814864372
  - # 5
    frequency:    2.0633283353
  - # 6
    frequency:    4.6154189821
  - # 7
    frequency:    4.7399340561
  - # 8
    frequency:    5.3172296026
  - # 9
    frequency:    5.3667315744
  - # 10
    frequency:    6.0166609495
  - # 11
    frequency:    6.3248346576
  - # 12
    frequency:    6.4673203224
  - # 13
    frequency:    9.2088827705
  - # 14
    frequency:   11.7279103234
  - # 15
    frequency:   14.0584682110
  - # 16
    frequency:   14.0745438272
  - # 17
    frequency:   16.1905195129
  - # 18
    frequency:   17.9507850618
  - # 19
    frequency:   18.0437019441
  - # 20
    frequency:   31.8289768803
  - # 21
    frequency:   67.7813405883

- q-position: [    0.0707071,    0.0000000,    0.0000000 ]
  distance:    0.0241119
  band:
  - # 1
    frequency:    0.2588265099
  - # 2
    frequency:    0.7855260575
  - # 3
    frequency:    1.4646355343
  - # 4
    frequency:    1.7657819226
  - # 5
    frequency:    2.0943418507
  - # 6
    frequency:    4.6085075158
  - # 7
    frequency:    4.7518682347
  - # 8
    frequency:    5.3355054701
  - # 9
    frequency:    5.3914665634
  - # 10
    frequency:    6.0076912418
  - # 11
    frequency:    6.3232030472
  - # 12
    frequency:    6.4828511461
  - # 13
    frequency:    9.1950054720
  - # 14
    frequency:   11.7062824646
  - # 15
    frequency:   14.0599148497
  - # 16
    frequency:   14.0785017148
  - # 17
    frequency:   16.1869342101
  - # 18
    frequency:   17.9407981120
  - # 19
    frequency:   18.0467142895
  - # 20
    frequency:   31.8185442190
  - # 21
    frequency:   67.7757115003

- q-position: [    0.0757576,    0.0000000,    0.0000000 ]
  distance:    0.0258342
  band:
  - # 1
    frequency:    0.2949263137
  - # 2
    frequency:    0.8418443229
  - # 3
    frequency:    1.5585333343
  - # 4
    frequency:    1.7495054543
  - # 5
    frequency:    2.1296410054
  - # 6
    frequency:    4.6011854360
  - # 7
    frequency:    4.7644289800
  - # 8
    frequency:    5.3547628433
  - # 9
    frequency:    5.4172494605
  - # 10
    frequency:    5.9989686285
  - # 11
    frequency:    6.3215013185
  - # 12
    frequency:    6.4985885579
  - # 13
    frequency:    9.1801635105
  - # 14
    frequency:   11.6832999846
  - # 15
    frequency:   14.0614555429
  - # 16
    frequency:   14.0827231091
  - # 17
    frequency:   16.1831041353
  - # 18
    frequency:   17.9302809283
  - # 19
    frequency:   18.0496192844
  - # 20
    frequency:   31.8074628327
  - # 21
    frequency:   67.7697251485

- q-position: [    0.0808081,    0.0000000,    0.0000000 ]
  distance:    0.0275565
  band:
  - # 1
    frequency:    0.3330312212
  - # 2
    frequency:    0.8976964586
  - # 3
    frequency:    1.6479706040
  - # 4
    frequency:    1.7328814723
  - # 5
    frequency:    2.1701720109
  - # 6
    frequency:    4.5934941302
  - # 7
    frequency:    4.7775717298
  - # 8
    frequency:    5.3749106086
  - # 9
    frequency:    5.4439030966
  - # 10
    frequency:    5.9905810139
  - # 11
    frequency:    6.3197436890
  - # 12
    frequency:    6.5144626597
  - # 13
    frequency:    9.1643712053
  - # 14
    frequency:   11.6590132586
  - # 15
    frequency:   14.0630873765
  - # 16
    frequency:   14.0872019009
  - # 17
    frequency:   16.1790337361
  - # 18
    frequency:   17.9192767766
  - # 19
    frequency:   18.0523555610
  - # 20
    frequency:   31.7957579750
  - # 21
    frequency:   67.7633936881

- q-position: [    0.0858586,    0.0000000,    0.0000000 ]
  distance:    0.0292788
  band:
  - # 1
    frequency:    0.3730855125
  - # 2
    frequency:    0.9528054180
  - # 3
    frequency:    1.7162109089
  - # 4
    frequency:    1.7317327132
  - # 5
    frequency:    2.2170341671
  - # 6
    frequency:    4.5854798618
  - # 7
    frequency:    4.7912503505
  - # 8
    frequency:    5.3958514811
  - # 9
    frequency:    5.4712330284
  - # 10
    frequency:    5.9826250264
  - # 11
    frequency:    6.3179464289
  - # 12
    frequency:    6.5304077728
  - # 13
    frequency:    9.1476440852
  - # 14
    frequency:   11.6334752829
  - # 15
    frequency:   14.0648072143
  - # 16
    frequency:   14.0919316304
  - # 17
    frequency:   16.1747277891
  - # 18
    frequency:   17.9078313182
  - # 19
    frequency:   18.0548604604
  - # 20
    frequency:   31.7834561952
  - # 21
    frequency:   67.7567298991

- q-position: [    0.0909091,    0.0000000,    0.0000000 ]
  distance:    0.0310011
  band:
  - # 1
    frequency:    0.4150369292
  - # 2
    frequency:    1.0067836297
  - # 3
    frequency:    1.6999057326
  - # 4
    frequency:    1.8086488080
  - # 5
    frequency:    2.2712805449
  - # 6
    frequency:    4.5771931976
  - # 7
    frequency:    4.8054170479
  - # 8
    frequency:    5.4174827197
  - # 9
    frequency:    5.4990245412
  - # 10
    frequency:    5.9752113268
  - # 11
    frequency:    6.3161280426
  - # 12
    frequency:    6.5463615194
  - # 13
    frequency:    9.1299989162
  - # 14
    frequency:   11.6067415252
  - # 15
    frequency:   14.0666117002
  - # 16
    frequency:   14.0969054967
  - # 17
    frequency:   16.1701914131
  - # 18
    frequency:   17.8959924810
  - # 19
    frequency:   18.0570704876
  - # 20
    frequency:   31.7705852552
  - # 21
    frequency:   67.7497471472

- q-position: [    0.0959596,    0.0000000,    0.0000000 ]
  distance:    0.0327233
  band:
  - # 1
    frequency:    0.4588364723
  - # 2
    frequency:    1.0590819484
  - # 3
    frequency:    1.6845408055
  - # 4
    frequency:    1.8779341533
  - # 5
    frequency:    2.3335753024
  - # 6
    frequency:    4.5686884119
  - # 7
    frequency:    4.8200223298
  - # 8
    frequency:    5.4396968166
  - # 9
    frequency:    5.5270383264
  - # 10
    frequency:    5.9684709426
  - # 11
    frequency:    6.3143094503
  - # 12
    frequency:    6.5622641795
  - # 13
    frequency:    9.1114537268
  - # 14
    frequency:   11.5788697677
  - # 15
    frequency:   14.0684972624
  - # 16
    frequency:   14.1021163683
  - # 17
    frequency:   16.1654300851
  - # 18
    frequency:   17.8838103197
  - # 19
    frequency:   18.0589217613
  - # 20
    frequency:   31.7571740434
  - # 21
    frequency:   67.7424593422

- q-position: [    0.1010101,    0.0000000,    0.0000000 ]
  distance:    0.0344456
  band:
  - # 1
    frequency:    0.5044380832
  - # 2
    frequency:    1.1089158485
  - # 3
    frequency:    1.6709285676
  - # 4
    frequency:    1.9395166074
  - # 5
    frequency:    2.4038667573
  - # 6
    frequency:    4.5600228848
  - # 7
    frequency:    4.8350150465
  - # 8
    frequency:    5.4623821390
  - # 9
    frequency:    5.5550045707
  - # 10
    frequency:    5.9625629337
  - # 11
    frequency:    6.3125141679
  - # 12
    frequency:    6.5780582626
  - # 13
    frequency:    9.0920278302
  - # 14
    frequency:   11.5499199440
  - # 15
    frequency:   14.0704601199
  - # 16
    frequency:   14.1075567923
  - # 17
    frequency:   16.1604496579
  - # 18
    frequency:   17.8713368639
  - # 19
    frequency:   18.0603504533
  - # 20
    frequency:   31.7432524839
  - # 21
    frequency:   67.7348808959

- q-position: [    0.1060606,    0.0000000,    0.0000000 ]
  distance:    0.0361679
  band:
  - # 1
    frequency:    0.5517982377
  - # 2
    frequency:    1.1551708966
  - # 3
    frequency:    1.6602145009
  - # 4
    frequency:    1.9940951568
  - # 5
    frequency:    2.4813283102
  - # 6
    frequency:    4.5512565114
  - # 7
    frequency:    4.8503425349
  - # 8
    frequency:    5.4854235160
  - # 9
    frequency:    5.5826154501
  - # 10
    frequency:    5.9576834222
  - # 11
    frequency:    6.3107684773
  - # 12
    frequency:    6.5936882427
  - # 13
    frequency:    9.0717418430
  - # 14
    frequency:   11.5199539687
  - # 15
    frequency:   14.0724962914
  - # 16
    frequency:   14.1132190064
  - # 17
    frequency:   16.1552563790
  - # 18
    frequency:   17.8586259542
  - # 19
    frequency:   18.0612932158
  - # 20
    frequency:   31.7288514444
  - # 21
    frequency:   67.7270266785

- q-position: [    0.1111111,    0.0000000,    0.0000000 ]
  distance:    0.0378902
  band:
  - # 1
    frequency:    0.6008754795
  - # 2
    frequency:    1.1963199493
  - # 3
    frequency:    1.6539609256
  - # 4
    frequency:    2.0428715978
  - # 5
    frequency:    2.5646261467
  - # 6
    frequency:    4.5424511243
  - # 7
    frequency:    4.8659508862
  - # 8
    frequency:    5.5087027720
  - # 9
    frequency:    5.6095167827
  - # 10
    frequency:    5.9540752603
  - # 11
    frequency:    6.3091015791
  - # 12
    frequency:    6.6091004172
  - # 13
    frequency:    9.0506177000
  - # 14
    frequency:   11.4890355594
  - # 15
    frequency:   14.0746016068
  - # 16
    frequency:   14.1190949499
  - # 17
    frequency:   16.1498569103
  - # 18
    frequency:   17.8457330660
  - # 19
    frequency:   18.0616875917
  - # 20
    frequency:   31.7140026406
  - # 21
    frequency:   67.7189119734

- q-position: [    0.1161616,    0.0000000,    0.0000000 ]
  distance:    0.0396125
  band:
  - # 1
    frequency:    0.6516299180
  - # 2
    frequency:    1.2304592253
  - # 3
    frequency:    1.6541119716
  - # 4
    frequency:    2.0871725047
  - # 5
    frequency:    2.6522965965
  - # 6
    frequency:    4.5336699352
  - # 7
    frequency:    4.8817853572
  - # 8
    frequency:    5.5320992167
  - # 9
    frequency:    5.6353013418
  - # 10
    frequency:    5.9520358511
  - # 11
    frequency:    6.3075457147
  - # 12
    frequency:    6.6242428580
  - # 13
    frequency:    9.0286786645
  - # 14
    frequency:   11.4572300509
  - # 15
    frequency:   14.0767717210
  - # 16
    frequency:   14.1251762770
  - # 17
    frequency:   16.1442583471
  - # 18
    frequency:   17.8327151207
  - # 19
    frequency:   18.0614724070
  - # 20
    frequency:   31.6987385381
  - # 21
    frequency:   67.7105524318

- q-position: [    0.1212121,    0.0000000,    0.0000000 ]
  distance:    0.0413347
  band:
  - # 1
    frequency:    0.7040227100
  - # 2
    frequency:    1.2556559212
  - # 3
    frequency:    1.6626470514
  - # 4
    frequency:    2.1281858484
  - # 5
    frequency:    2.7430087924
  - # 6
    frequency:    4.5249769925
  - # 7
    frequency:    4.8977909431
  - # 8
    frequency:    5.5554901126
  - # 9
    frequency:    5.6595096520
  - # 10
    frequency:    5.9519173152
  - # 11
    frequency:    6.3061362397
  - # 12
    frequency:    6.6390654310
  - # 13
    frequency:    9.0059493335
  - # 14
    frequency:   11.4246042004
  - # 15
    frequency:   14.0790021307
  - # 16
    frequency:   14.1314543715
  - # 17
    frequency:   16.1384682359
  - # 18
    frequency:   17.8196302843
  - # 19
    frequency:   18.0605881418
  - # 20
    frequency:   31.6830922532
  - # 21
    frequency:   67.7019640262

- q-position: [    0.1262626,    0.0000000,    0.0000000 ]
  distance:    0.0430570
  band:
  - # 1
    frequency:    0.7580155452
  - # 2
    frequency:    1.2706757371
  - # 3
    frequency:    1.6808544623
  - # 4
    frequency:    2.1668609854
  - # 5
    frequency:    2.8356639187
  - # 6
    frequency:    4.5164366542
  - # 7
    frequency:    4.9139131292
  - # 8
    frequency:    5.5787511512
  - # 9
    frequency:    5.6816487129
  - # 10
    frequency:    5.9541085672
  - # 11
    frequency:    6.3049116232
  - # 12
    frequency:    6.6535198646
  - # 13
    frequency:    8.9824556384
  - # 14
    frequency:   11.3912259851
  - # 15
    frequency:   14.0812881938
  - # 16
    frequency:   14.1379203624
  - # 17
    frequency:   16.1324945903
  - # 18
    frequency:   17.8065377536
  - # 19
    frequency:   18.0589772779
  - # 20
    frequency:   31.6670974515
  - # 21
    frequency:   67.6931630034

- q-position: [    0.1313131,    0.0000000,    0.0000000 ]
  distance:    0.0447793
  band:
  - # 1
    frequency:    0.8135701484
  - # 2
    frequency:    1.2756439253
  - # 3
    frequency:    1.7086714946
  - # 4
    frequency:    2.2039120579
  - # 5
    frequency:    2.9293910073
  - # 6
    frequency:    4.5081130717
  - # 7
    frequency:    4.9300988418
  - # 8
    frequency:    5.6017569751
  - # 9
    frequency:    5.7012415872
  - # 10
    frequency:    5.9589863746
  - # 11
    frequency:    6.3039133396
  - # 12
    frequency:    6.6675598532
  - # 13
    frequency:    8.9582248385
  - # 14
    frequency:   11.3571643899
  - # 15
    frequency:   14.0836251510
  - # 16
    frequency:   14.1445651423
  - # 17
    frequency:   16.1263459020
  - # 18
    frequency:   17.7934975303
  - # 19
    frequency:   18.0565846226
  - # 20
    frequency:   31.6507882444
  - # 21
    frequency:   67.6841658373

- q-position: [    0.1363636,    0.0000000,    0.0000000 ]
  distance:    0.0465016
  band:
  - # 1
    frequency:    0.8706478108
  - # 2
    frequency:    1.2719696180
  - # 3
    frequency:    1.7447612782
  - # 4
    frequency:    2.2398607437
  - # 5
    frequency:    3.0235033428
  - # 6
    frequency:    4.5000696836
  - # 7
    frequency:    4.9462976151
  - # 8
    frequency:    5.6243817964
  - # 9
    frequency:    5.7179124101
  - # 10
    frequency:    5.9668308430
  - # 11
    frequency:    6.3031856119
  - # 12
    frequency:    6.6811411825
  - # 13
    frequency:    8.9332855090
  - # 14
    frequency:   11.3224891867
  - # 15
    frequency:   14.0860081499
  - # 16
    frequency:   14.1513793878
  - # 17
    frequency:   16.1200311474
  - # 18
    frequency:   17.7805701832
  - # 19
    frequency:   18.0533576065
  - # 20
    frequency:   31.6341990865
  - # 21
    frequency:   67.6749891814

- q-position: [    0.1414141,    0.0000000,    0.0000000 ]
  distance:    0.0482239
  band:
  - # 1
    frequency:    0.9292089598
  - # 2
    frequency:    1.2616284300
  - # 3
    frequency:    1.7872313517
  - # 4
    frequency:    2.2750836009
  - # 5
    frequency:    3.1174502224
  - # 6
    frequency:    4.4923687143
  - # 7
    frequency:    4.9624629955
  - # 8
    frequency:    5.6465001690
  - # 9
    frequency:    5.7314849220
  - # 10
    frequency:    5.9777272311
  - # 11
    frequency:    6.3027749549
  - # 12
    frequency:    6.6942218695
  - # 13
    frequency:    8.9076675207
  - # 14
    frequency:   11.2872707050
  - # 15
    frequency:   14.0884322721
  - # 16
    frequency:   14.1583535815
  - # 17
    frequency:   16.1135597878
  - # 18
    frequency:   17.7678165992
  - # 19
    frequency:   18.0492465546
  - # 20
    frequency:   31.6173646704
  - # 21
    frequency:   67.6656498210

- q-position: [    0.1464646,    0.0000000,    0.0000000 ]
  distance:    0.0499461
  band:
  - # 1
    frequency:    0.9892127728
  - # 2
    frequency:    1.2465026804
  - # 3
    frequency:    1.8342945820
  - # 4
    frequency:    2.3098515509
  - # 5
    frequency:    3.2107765214
  - # 6
    frequency:    4.4850706801
  - # 7
    frequency:    4.9785541984
  - # 8
    frequency:    5.6679879774
  - # 9
    frequency:    5.7420433437
  - # 10
    frequency:    5.9915052772
  - # 11
    frequency:    6.3027294622
  - # 12
    frequency:    6.7067623082
  - # 13
    frequency:    8.8814020119
  - # 14
    frequency:   11.2515795935
  - # 15
    frequency:   14.0908925607
  - # 16
    frequency:   14.1654780375
  - # 17
    frequency:   16.1069417606
  - # 18
    frequency:   17.7552977239
  - # 19
    frequency:   18.0442049306
  - # 20
    frequency:   31.6003198221
  - # 21
    frequency:   67.6561646259

- q-position: [    0.1515152,    0.0000000,    0.0000000 ]
  distance:    0.0516684
  band:
  - # 1
    frequency:    1.0506168383
  - # 2
    frequency:    1.2281095726
  - # 3
    frequency:    1.8845420551
  - # 4
    frequency:    2.3443594755
  - # 5
    frequency:    3.3030920792
  - # 6
    frequency:    4.4782338988
  - # 7
    frequency:    4.9945380317
  - # 8
    frequency:    5.6887237070
  - # 9
    frequency:    5.7499121673
  - # 10
    frequency:    6.0077594647
  - # 11
    frequency:    6.3030977785
  - # 12
    frequency:    6.7187254174
  - # 13
    frequency:    8.8545213510
  - # 14
    frequency:   11.2154865743
  - # 15
    frequency:   14.0933840504
  - # 16
    frequency:   14.1727429282
  - # 17
    frequency:   16.1001874620
  - # 18
    frequency:   17.7430742931
  - # 19
    frequency:   18.0381895537
  - # 20
    frequency:   31.5830993967
  - # 21
    frequency:   67.6465505037