nqpoint: 300    
npath: 3      
segment_nqpoint:
- 100
- 100
- 100
labels:
- [ 'G', 'M' ]
- [ 'M', 'K' ]
- [ 'K', 'G' ]
reciprocal_lattice:
- [   0.29283703,   0.16906954,   0.00000000 ] # a*
- [   0.00000000,   0.33813908,   0.00000000 ] # b*
- [   0.00000000,   0.00000000,   0.03655558 ] # c*
natom: 8      
lattice:
- [     3.414868665399236,     0.000000000000000,     0.000000000000000 ] # a
- [    -1.707434332699618,     2.957363014816492,     0.000000000000000 ] # b
- [     0.000000000000000,     0.000000000000000,    27.355602361403410 ] # c
points:
- symbol: C # 1
  coordinates: [  0.000000000000000,  0.000000000000000,  0.527362701131048 ]
  mass: 12.010700
- symbol: C # 2
  coordinates: [  0.333332985432215,  0.666666983183674,  0.626981589461572 ]
  mass: 12.010700
- symbol: C # 3
  coordinates: [  0.666666984744047,  0.333332985985145,  0.385797935289554 ]
  mass: 12.010700
- symbol: N # 4
  coordinates: [  0.333332985432215,  0.666666983183674,  0.670999750577663 ]
  mass: 14.006700
- symbol: N # 5
  coordinates: [  0.666666984744047,  0.333332985985145,  0.431587442439475 ]
  mass: 14.006700
- symbol: S # 6
  coordinates: [  0.666666984744047,  0.333332985985145,  0.329000249422337 ]
  mass: 32.065000
- symbol: Zr # 7
  coordinates: [  0.333332985432215,  0.666666983183674,  0.482253974765452 ]
  mass: 91.224000
- symbol: Zr # 8
  coordinates: [  0.666666984744047,  0.333332985985145,  0.572789232958958 ]
  mass: 91.224000

phonon:
- q-position: [    0.0000000,    0.0000000,    0.0000000 ]
  distance:    0.0000000
  band:
  - # 1
    frequency:   -2.3416708778
  - # 2
    frequency:   -2.3416708778
  - # 3
    frequency:   -0.0000018587
  - # 4
    frequency:   -0.0000000660
  - # 5
    frequency:    0.0000019766
  - # 6
    frequency:    0.5133813707
  - # 7
    frequency:    0.5133813707
  - # 8
    frequency:    4.5900863078
  - # 9
    frequency:    4.5900863078
  - # 10
    frequency:    5.2584142966
  - # 11
    frequency:    6.0669440180
  - # 12
    frequency:    6.0669440180
  - # 13
    frequency:    7.0563111548
  - # 14
    frequency:    7.1675242404
  - # 15
    frequency:    7.1675242404
  - # 16
    frequency:    8.2618929603
  - # 17
    frequency:   13.9167764363
  - # 18
    frequency:   13.9167764363
  - # 19
    frequency:   15.8686402742
  - # 20
    frequency:   16.0121326790
  - # 21
    frequency:   16.0121326790
  - # 22
    frequency:   27.0309185327
  - # 23
    frequency:   57.9048749298
  - # 24
    frequency:   60.8409698037

- q-position: [    0.0050505,    0.0000000,    0.0000000 ]
  distance:    0.0017078
  band:
  - # 1
    frequency:   -2.3403511175
  - # 2
    frequency:   -2.3398902317
  - # 3
    frequency:   -0.2283304987
  - # 4
    frequency:    0.0674418818
  - # 5
    frequency:    0.2483593770
  - # 6
    frequency:    0.5164719624
  - # 7
    frequency:    0.5220933123
  - # 8
    frequency:    4.5905230535
  - # 9
    frequency:    4.5906023188
  - # 10
    frequency:    5.2582681432
  - # 11
    frequency:    6.0681667328
  - # 12
    frequency:    6.0688027206
  - # 13
    frequency:    7.0573182466
  - # 14
    frequency:    7.1680232500
  - # 15
    frequency:    7.1685374266
  - # 16
    frequency:    8.2622151297
  - # 17
    frequency:   13.9169690368
  - # 18
    frequency:   13.9171298640
  - # 19
    frequency:   15.8684079822
  - # 20
    frequency:   16.0132884424
  - # 21
    frequency:   16.0133491750
  - # 22
    frequency:   27.0309189591
  - # 23
    frequency:   57.9037061256
  - # 24
    frequency:   60.8409708564

- q-position: [    0.0101010,    0.0000000,    0.0000000 ]
  distance:    0.0034155
  band:
  - # 1
    frequency:   -2.3364007017
  - # 2
    frequency:   -2.3345574801
  - # 3
    frequency:   -0.3082597157
  - # 4
    frequency:    0.1343957621
  - # 5
    frequency:    0.3635953119
  - # 6
    frequency:    0.5257487408
  - # 7
    frequency:    0.5483541550
  - # 8
    frequency:    4.5918290046
  - # 9
    frequency:    4.5921471716
  - # 10
    frequency:    5.2578329198
  - # 11
    frequency:    6.0718258439
  - # 12
    frequency:    6.0743650416
  - # 13
    frequency:    7.0603249422
  - # 14
    frequency:    7.1695193716
  - # 15
    frequency:    7.1715734283
  - # 16
    frequency:    8.2631833498
  - # 17
    frequency:   13.9175456894
  - # 18
    frequency:   13.9181890432
  - # 19
    frequency:   15.8677239160
  - # 20
    frequency:   16.0167330527
  - # 21
    frequency:   16.0169883149
  - # 22
    frequency:   27.0309199515
  - # 23
    frequency:   57.9002027265
  - # 24
    frequency:   60.8409737201

- q-position: [    0.0151515,    0.0000000,    0.0000000 ]
  distance:    0.0051233
  band:
  - # 1
    frequency:   -2.3298461462
  - # 2
    frequency:   -2.3257000885
  - # 3
    frequency:   -0.3596582661
  - # 4
    frequency:    0.2003233120
  - # 5
    frequency:    0.4569886097
  - # 6
    frequency:    0.5412423378
  - # 7
    frequency:    0.5927918656
  - # 8
    frequency:    4.5939913698
  - # 9
    frequency:    4.5947113597
  - # 10
    frequency:    5.2571182828
  - # 11
    frequency:    6.0778943303
  - # 12
    frequency:    6.0835898116
  - # 13
    frequency:    7.0652872941
  - # 14
    frequency:    7.1720098699
  - # 15
    frequency:    7.1766221043
  - # 16
    frequency:    8.2648026633
  - # 17
    frequency:   13.9185029607
  - # 18
    frequency:   13.9199506707
  - # 19
    frequency:   15.8666227961
  - # 20
    frequency:   16.0224022805
  - # 21
    frequency:   16.0230191536
  - # 22
    frequency:   27.0309206514
  - # 23
    frequency:   57.8943737586
  - # 24
    frequency:   60.8409775141

- q-position: [    0.0202020,    0.0000000,    0.0000000 ]
  distance:    0.0068311
  band:
  - # 1
    frequency:   -2.3207313805
  - # 2
    frequency:   -2.3133635133
  - # 3
    frequency:   -0.3948367360
  - # 4
    frequency:    0.2645932313
  - # 5
    frequency:    0.5361016620
  - # 6
    frequency:    0.5630461530
  - # 7
    frequency:    0.6556213660
  - # 8
    frequency:    4.5969890518
  - # 9
    frequency:    4.5982791489
  - # 10
    frequency:    5.2561401607
  - # 11
    frequency:    6.0863274192
  - # 12
    frequency:    6.0964090413
  - # 13
    frequency:    7.0721314057
  - # 14
    frequency:    7.1754901418
  - # 15
    frequency:    7.1836682673
  - # 16
    frequency:    8.2670811663
  - # 17
    frequency:   13.9198351715
  - # 18
    frequency:   13.9224092663
  - # 19
    frequency:   15.8651520450
  - # 20
    frequency:   16.0301998573
  - # 21
    frequency:   16.0313904455
  - # 22
    frequency:   27.0309196331
  - # 23
    frequency:   57.8862342168
  - # 24
    frequency:   60.8409807803

- q-position: [    0.0252525,    0.0000000,    0.0000000 ]
  distance:    0.0085389
  band:
  - # 1
    frequency:   -2.3091173585
  - # 2
    frequency:   -2.2976107085
  - # 3
    frequency:   -0.4187631489
  - # 4
    frequency:    0.3264687360
  - # 5
    frequency:    0.5913423166
  - # 6
    frequency:    0.6060217518
  - # 7
    frequency:    0.7331991059
  - # 8
    frequency:    4.6007929738
  - # 9
    frequency:    4.6028287295
  - # 10
    frequency:    5.2549205373
  - # 11
    frequency:    6.0970629832
  - # 12
    frequency:    6.1127288182
  - # 13
    frequency:    7.0807526247
  - # 14
    frequency:    7.1799536465
  - # 15
    frequency:    7.1926940747
  - # 16
    frequency:    8.2700295387
  - # 17
    frequency:   13.9215344589
  - # 18
    frequency:   13.9255572109
  - # 19
    frequency:   15.8633613025
  - # 20
    frequency:   16.0400084584
  - # 21
    frequency:   16.0420311352
  - # 22
    frequency:   27.0309149114
  - # 23
    frequency:   57.8758049921
  - # 24
    frequency:   60.8409814980

- q-position: [    0.0303030,    0.0000000,    0.0000000 ]
  distance:    0.0102466
  band:
  - # 1
    frequency:   -2.2950815230
  - # 2
    frequency:   -2.2785214061
  - # 3
    frequency:   -0.4339809521
  - # 4
    frequency:    0.3851731099
  - # 5
    frequency:    0.6263571292
  - # 6
    frequency:    0.6727166721
  - # 7
    frequency:    0.8193593906
  - # 8
    frequency:    4.6053665268
  - # 9
    frequency:    4.6083324078
  - # 10
    frequency:    5.2534872088
  - # 11
    frequency:    6.1100221040
  - # 12
    frequency:    6.1324304887
  - # 13
    frequency:    7.0910148043
  - # 14
    frequency:    7.1853918003
  - # 15
    frequency:    7.2036819548
  - # 16
    frequency:    8.2736603783
  - # 17
    frequency:   13.9235908626
  - # 18
    frequency:   13.9293847981
  - # 19
    frequency:   15.8612942906
  - # 20
    frequency:   16.0516985279
  - # 21
    frequency:   16.0548510368
  - # 22
    frequency:   27.0309039529
  - # 23
    frequency:   57.8631127699
  - # 24
    frequency:   60.8409771035

- q-position: [    0.0353535,    0.0000000,    0.0000000 ]
  distance:    0.0119544
  band:
  - # 1
    frequency:   -2.2787171350
  - # 2
    frequency:   -2.2561911522
  - # 3
    frequency:   -0.4418805597
  - # 4
    frequency:    0.4400816163
  - # 5
    frequency:    0.6681891106
  - # 6
    frequency:    0.7396827211
  - # 7
    frequency:    0.9099551485
  - # 8
    frequency:    4.6106661293
  - # 9
    frequency:    4.6147568153
  - # 10
    frequency:    5.2518735544
  - # 11
    frequency:    6.1251098072
  - # 12
    frequency:    6.1553720676
  - # 13
    frequency:    7.1027501313
  - # 14
    frequency:    7.1917938307
  - # 15
    frequency:    7.2166175407
  - # 16
    frequency:    8.2779873309
  - # 17
    frequency:   13.9259924300
  - # 18
    frequency:   13.9338803004
  - # 19
    frequency:   15.8589844399
  - # 20
    frequency:   16.0651335227
  - # 21
    frequency:   16.0697416946
  - # 22
    frequency:   27.0308836897
  - # 23
    frequency:   57.8481899016
  - # 24
    frequency:   60.8409645164

- q-position: [    0.0404040,    0.0000000,    0.0000000 ]
  distance:    0.0136622
  band:
  - # 1
    frequency:   -2.2601324797
  - # 2
    frequency:   -2.2307300778
  - # 3
    frequency:   -0.4431631520
  - # 4
    frequency:    0.4909885474
  - # 5
    frequency:    0.7165564269
  - # 6
    frequency:    0.8081062348
  - # 7
    frequency:    1.0030790660
  - # 8
    frequency:    4.6166418853
  - # 9
    frequency:    4.6220631156
  - # 10
    frequency:    5.2501183587
  - # 11
    frequency:    6.1422159769
  - # 12
    frequency:    6.1813898203
  - # 13
    frequency:    7.1157602435
  - # 14
    frequency:    7.1991465819
  - # 15
    frequency:    7.2314918455
  - # 16
    frequency:    8.2830240132
  - # 17
    frequency:   13.9287253388
  - # 18
    frequency:   13.9390300464
  - # 19
    frequency:   15.8564538188
  - # 20
    frequency:   16.0801720252
  - # 21
    frequency:   16.0865774142
  - # 22
    frequency:   27.0308505375
  - # 23
    frequency:   57.8310742482
  - # 24
    frequency:   60.8409401701

- q-position: [    0.0454545,    0.0000000,    0.0000000 ]
  distance:    0.0153700
  band:
  - # 1
    frequency:   -2.2394499609
  - # 2
    frequency:   -2.2022613966
  - # 3
    frequency:   -0.4380317451
  - # 4
    frequency:    0.5382393828
  - # 5
    frequency:    0.7706726847
  - # 6
    frequency:    0.8781643942
  - # 7
    frequency:    1.0978853330
  - # 8
    frequency:    4.6232383292
  - # 9
    frequency:    4.6302071893
  - # 10
    frequency:    5.2482657119
  - # 11
    frequency:    6.1612164540
  - # 12
    frequency:    6.2102999745
  - # 13
    frequency:    7.1298195064
  - # 14
    frequency:    7.2074342650
  - # 15
    frequency:    7.2483017529
  - # 16
    frequency:    8.2887827335
  - # 17
    frequency:   13.9317740353
  - # 18
    frequency:   13.9448185110
  - # 19
    frequency:   15.8537141362
  - # 20
    frequency:   16.0966679407
  - # 21
    frequency:   16.1052164540
  - # 22
    frequency:   27.0308004165
  - # 23
    frequency:   57.8118089982
  - # 24
    frequency:   60.8409000482

- q-position: [    0.0505051,    0.0000000,    0.0000000 ]
  distance:    0.0170777
  band:
  - # 1
    frequency:   -2.2168051007
  - # 2
    frequency:   -2.1709196330
  - # 3
    frequency:   -0.4262515893
  - # 4
    frequency:    0.5825746453
  - # 5
    frequency:    0.8294054441
  - # 6
    frequency:    0.9496967117
  - # 7
    frequency:    1.1939482066
  - # 8
    frequency:    4.6303952412
  - # 9
    frequency:    4.6391397801
  - # 10
    frequency:    5.2463650004
  - # 11
    frequency:    6.1819743222
  - # 12
    frequency:    6.2419005238
  - # 13
    frequency:    7.1446811964
  - # 14
    frequency:    7.2166381456
  - # 15
    frequency:    7.2670480002
  - # 16
    frequency:    8.2952730246
  - # 17
    frequency:   13.9351213822
  - # 18
    frequency:   13.9512284151
  - # 19
    frequency:   15.8507686660
  - # 20
    frequency:   16.1144699157
  - # 21
    frequency:   16.1255023627
  - # 22
    frequency:   27.0307287760
  - # 23
    frequency:   57.7904424605
  - # 24
    frequency:   60.8408397251

- q-position: [    0.0555556,    0.0000000,    0.0000000 ]
  distance:    0.0187855
  band:
  - # 1
    frequency:   -2.1923454582
  - # 2
    frequency:   -2.1368486003
  - # 3
    frequency:   -0.4071089649
  - # 4
    frequency:    0.6248243385
  - # 5
    frequency:    0.8915802195
  - # 6
    frequency:    1.0224564988
  - # 7
    frequency:    1.2910083104
  - # 8
    frequency:    4.6380485175
  - # 9
    frequency:    4.6488065918
  - # 10
    frequency:    5.2444709875
  - # 11
    frequency:    6.2043413835
  - # 12
    frequency:    6.2759731038
  - # 13
    frequency:    7.1600867708
  - # 14
    frequency:    7.2267361640
  - # 15
    frequency:    7.2877303822
  - # 16
    frequency:    8.3025000186
  - # 17
    frequency:   13.9387488168
  - # 18
    frequency:   13.9582408351
  - # 19
    frequency:   15.8476143280
  - # 20
    frequency:   16.1334207282
  - # 21
    frequency:   16.1472654462
  - # 22
    frequency:   27.0306306224
  - # 23
    frequency:   57.7670278338
  - # 24
    frequency:   60.8407544115

- q-position: [    0.0606061,    0.0000000,    0.0000000 ]
  distance:    0.0204933
  band:
  - # 1
    frequency:   -2.1662294837
  - # 2
    frequency:   -2.1001991693
  - # 3
    frequency:   -0.3792280959
  - # 4
    frequency:    0.6656883220
  - # 5
    frequency:    0.9561962157
  - # 6
    frequency:    1.0961967936
  - # 7
    frequency:    1.3888747522
  - # 8
    frequency:    4.6461310793
  - # 9
    frequency:    4.6591483353
  - # 10
    frequency:    5.2426439731
  - # 11
    frequency:    6.2281598166
  - # 12
    frequency:    6.3122849239
  - # 13
    frequency:    7.1757774042
  - # 14
    frequency:    7.2377024864
  - # 15
    frequency:    7.3103408816
  - # 16
    frequency:    8.3104627140
  - # 17
    frequency:   13.9426365142
  - # 18
    frequency:   13.9658353194
  - # 19
    frequency:   15.8442435386
  - # 20
    frequency:   16.1533570165
  - # 21
    frequency:   16.1703243491
  - # 22
    frequency:   27.0305005514
  - # 23
    frequency:   57.7416229537
  - # 24
    frequency:   60.8406390040

- q-position: [    0.0656566,    0.0000000,    0.0000000 ]
  distance:    0.0222011
  band:
  - # 1
    frequency:   -2.1386253234
  - # 2
    frequency:   -2.0611268785
  - # 3
    frequency:   -0.3400753021
  - # 4
    frequency:    0.7056684330
  - # 5
    frequency:    1.0224892316
  - # 6
    frequency:    1.1706964468
  - # 7
    frequency:    1.4873856737
  - # 8
    frequency:    4.6545738025
  - # 9
    frequency:    4.6701007354
  - # 10
    frequency:    5.2409500073
  - # 11
    frequency:    6.2532640094
  - # 12
    frequency:    6.3505907477
  - # 13
    frequency:    7.1915059479
  - # 14
    frequency:    7.2495069883
  - # 15
    frequency:    7.3348564372
  - # 16
    frequency:    8.3191522034
  - # 17
    frequency:   13.9467635547
  - # 18
    frequency:   13.9739900132
  - # 19
    frequency:   15.8406456965
  - # 20
    frequency:   16.1741094659
  - # 21
    frequency:   16.1944877309
  - # 22
    frequency:   27.0303327838
  - # 23
    frequency:   57.7142900194
  - # 24
    frequency:   60.8404881377

- q-position: [    0.0707071,    0.0000000,    0.0000000 ]
  distance:    0.0239088
  band:
  - # 1
    frequency:   -2.1097095932
  - # 2
    frequency:   -2.0197894488
  - # 3
    frequency:   -0.2844846790
  - # 4
    frequency:    0.7450902240
  - # 5
    frequency:    1.0899046886
  - # 6
    frequency:    1.2457649658
  - # 7
    frequency:    1.5863914630
  - # 8
    frequency:    4.6633064534
  - # 9
    frequency:    4.6815945207
  - # 10
    frequency:    5.2394611252
  - # 11
    frequency:    6.2794825454
  - # 12
    frequency:    6.3906349150
  - # 13
    frequency:    7.2070470647
  - # 14
    frequency:    7.2621146788
  - # 15
    frequency:    7.3612334497
  - # 16
    frequency:    8.3285499538
  - # 17
    frequency:   13.9511080929
  - # 18
    frequency:   13.9826817872
  - # 19
    frequency:   15.8368083044
  - # 20
    frequency:   16.1955034337
  - # 21
    frequency:   16.2195560187
  - # 22
    frequency:   27.0301212044
  - # 23
    frequency:   57.6850953012
  - # 24
    frequency:   60.8402962430

- q-position: [    0.0757576,    0.0000000,    0.0000000 ]
  distance:    0.0256166
  band:
  - # 1
    frequency:   -2.0796661353
  - # 2
    frequency:   -1.9763442554
  - # 3
    frequency:   -0.1982504630
  - # 4
    frequency:    0.7841499659
  - # 5
    frequency:    1.1580456303
  - # 6
    frequency:    1.3212402005
  - # 7
    frequency:    1.6857472801
  - # 8
    frequency:    4.6722586133
  - # 9
    frequency:    4.6935554382
  - # 10
    frequency:    5.2382555537
  - # 11
    frequency:    6.3066403168
  - # 12
    frequency:    6.4321533948
  - # 13
    frequency:    7.2222039001
  - # 14
    frequency:    7.2754850791
  - # 15
    frequency:    7.3894055027
  - # 16
    frequency:    8.3386262479
  - # 17
    frequency:   13.9556475271
  - # 18
    frequency:   13.9918863727
  - # 19
    frequency:   15.8327177823
  - # 20
    frequency:   16.2173599344
  - # 21
    frequency:   16.2453232168
  - # 22
    frequency:   27.0298594056
  - # 23
    frequency:   57.6541088314
  - # 24
    frequency:   60.8400576048

- q-position: [    0.0808081,    0.0000000,    0.0000000 ]
  distance:    0.0273244
  band:
  - # 1
    frequency:   -2.0486847769
  - # 2
    frequency:   -1.9309457973
  - # 3
    frequency:    0.0980015622
  - # 4
    frequency:    0.8229573347
  - # 5
    frequency:    1.2266255281
  - # 6
    frequency:    1.3969840623
  - # 7
    frequency:    1.7853096657
  - # 8
    frequency:    4.6813605792
  - # 9
    frequency:    4.7059043526
  - # 10
    frequency:    5.2374178310
  - # 11
    frequency:    6.3345607272
  - # 12
    frequency:    6.4748758555
  - # 13
    frequency:    7.2368109551
  - # 14
    frequency:    7.2895715786
  - # 15
    frequency:    7.4192844819
  - # 16
    frequency:    8.3493389019
  - # 17
    frequency:   13.9603586681
  - # 18
    frequency:   14.0015784984
  - # 19
    frequency:   15.8283600458
  - # 20
    frequency:   16.2394968986
  - # 21
    frequency:   16.2715787529
  - # 22
    frequency:   27.0295407338
  - # 23
    frequency:   57.6214040798
  - # 24
    frequency:   60.8397664238

- q-position: [    0.0858586,    0.0000000,    0.0000000 ]
  distance:    0.0290321
  band:
  - # 1
    frequency:   -2.0169601065
  - # 2
    frequency:   -1.8837431703
  - # 3
    frequency:    0.2572301596
  - # 4
    frequency:    0.8615666443
  - # 5
    frequency:    1.2954331383
  - # 6
    frequency:    1.4728781543
  - # 7
    frequency:    1.8849350587
  - # 8
    frequency:    4.6905442266
  - # 9
    frequency:    4.7185575154
  - # 10
    frequency:    5.2370387568
  - # 11
    frequency:    6.3630679359
  - # 12
    frequency:    6.5185277245
  - # 13
    frequency:    7.2507340268
  - # 14
    frequency:    7.3043207980
  - # 15
    frequency:    7.4507640856
  - # 16
    frequency:    8.3606323805
  - # 17
    frequency:   13.9652179060
  - # 18
    frequency:   14.0117320303
  - # 19
    frequency:   15.8237209115
  - # 20
    frequency:   16.2617306190
  - # 21
    frequency:   16.2981093422
  - # 22
    frequency:   27.0291583398
  - # 23
    frequency:   57.5870576167
  - # 24
    frequency:   60.8394168797

- q-position: [    0.0909091,    0.0000000,    0.0000000 ]
  distance:    0.0307399
  band:
  - # 1
    frequency:   -1.9846902844
  - # 2
    frequency:   -1.8348775144
  - # 3
    frequency:    0.3616009189
  - # 4
    frequency:    0.8999977872
  - # 5
    frequency:    1.3643082612
  - # 6
    frequency:    1.5488199275
  - # 7
    frequency:    1.9844792418
  - # 8
    frequency:    4.6997438236
  - # 9
    frequency:    4.7314271084
  - # 10
    frequency:    5.2372150733
  - # 11
    frequency:    6.3919890881
  - # 12
    frequency:    6.5628321948
  - # 13
    frequency:    7.2638685981
  - # 14
    frequency:    7.3196719984
  - # 15
    frequency:    7.4837242415
  - # 16
    frequency:    8.3724374127
  - # 17
    frequency:   13.9702013745
  - # 18
    frequency:   14.0223201131
  - # 19
    frequency:   15.8187863854
  - # 20
    frequency:   16.2838773150
  - # 21
    frequency:   16.3247008499
  - # 22
    frequency:   27.0287052325
  - # 23
    frequency:   57.5511487643
  - # 24
    frequency:   60.8390031957

- q-position: [    0.0959596,    0.0000000,    0.0000000 ]
  distance:    0.0324477
  band:
  - # 1
    frequency:   -1.9520759018
  - # 2
    frequency:   -1.7844793687
  - # 3
    frequency:    0.4513518515
  - # 4
    frequency:    0.9382497471
  - # 5
    frequency:    1.4331255100
  - # 6
    frequency:    1.6247195014
  - # 7
    frequency:    2.0837972282
  - # 8
    frequency:    4.7088967862
  - # 9
    frequency:    4.7444221929
  - # 10
    frequency:    5.2380487605
  - # 11
    frequency:    6.4211564666
  - # 12
    frequency:    6.6075121144
  - # 13
    frequency:    7.2761378844
  - # 14
    frequency:    7.3355565793
  - # 15
    frequency:    7.5180351760
  - # 16
    frequency:    8.3846711889
  - # 17
    frequency:   13.9752851129
  - # 18
    frequency:   14.0333153115
  - # 19
    frequency:   15.8135428707
  - # 20
    frequency:   16.3057547588
  - # 21
    frequency:   16.3511401338
  - # 22
    frequency:   27.0281743351
  - # 23
    frequency:   57.5137592403
  - # 24
    frequency:   60.8385197035

- q-position: [    0.1010101,    0.0000000,    0.0000000 ]
  distance:    0.0341555
  band:
  - # 1
    frequency:   -1.9193188990
  - # 2
    frequency:   -1.7326658383
  - # 3
    frequency:    0.5342074834
  - # 4
    frequency:    0.9763091805
  - # 5
    frequency:    1.5017835371
  - # 6
    frequency:    1.7004971104
  - # 7
    frequency:    2.1827433142
  - # 8
    frequency:    4.7179443683
  - # 9
    frequency:    4.7574502022
  - # 10
    frequency:    5.2396458140
  - # 11
    frequency:    6.4504094990
  - # 12
    frequency:    6.6522916657
  - # 13
    frequency:    7.2874912511
  - # 14
    frequency:    7.3518977172
  - # 15
    frequency:    7.5535604365
  - # 16
    frequency:    8.3972381861
  - # 17
    frequency:   13.9804452243
  - # 18
    frequency:   14.0446897503
  - # 19
    frequency:   15.8079773246
  - # 20
    frequency:   16.3271839184
  - # 21
    frequency:   16.3772168504
  - # 22
    frequency:   27.0275585444
  - # 23
    frequency:   57.4749727944
  - # 24
    frequency:   60.8379609080

- q-position: [    0.1060606,    0.0000000,    0.0000000 ]
  distance:    0.0358632
  band:
  - # 1
    frequency:   -1.8866215515
  - # 2
    frequency:   -1.6795374737
  - # 3
    frequency:    0.6131983104
  - # 4
    frequency:    1.0141558301
  - # 5
    frequency:    1.5701978898
  - # 6
    frequency:    1.7760810919
  - # 7
    frequency:    2.2811711265
  - # 8
    frequency:    4.7268322782
  - # 9
    frequency:    4.7704191156
  - # 10
    frequency:    5.2421143839
  - # 11
    frequency:    6.4795965502
  - # 12
    frequency:    6.6968977105
  - # 13
    frequency:    7.2979032815
  - # 14
    frequency:    7.3686101904
  - # 15
    frequency:    7.5901586938
  - # 16
    frequency:    8.4100316233
  - # 17
    frequency:   13.9856580304
  - # 18
    frequency:   14.0564152538
  - # 19
    frequency:   15.8020773841
  - # 20
    frequency:   16.3479905824
  - # 21
    frequency:   16.4027252083
  - # 22
    frequency:   27.0268507927
  - # 23
    frequency:   57.4348748418
  - # 24
    frequency:   60.8373215521

- q-position: [    0.1111111,    0.0000000,    0.0000000 ]
  distance:    0.0375710
  band:
  - # 1
    frequency:   -1.8541855216
  - # 2
    frequency:   -1.6251747770
  - # 3
    frequency:    0.6898192557
  - # 4
    frequency:    1.0517659329
  - # 5
    frequency:    1.6382962680
  - # 6
    frequency:    1.8514063168
  - # 7
    frequency:    2.3789335553
  - # 8
    frequency:    4.7355112196
  - # 9
    frequency:    4.7832404096
  - # 10
    frequency:    5.2455621860
  - # 11
    frequency:    6.5085764410
  - # 12
    frequency:    6.7410606345
  - # 13
    frequency:    7.3073735313
  - # 14
    frequency:    7.3856004383
  - # 15
    frequency:    7.6276844725
  - # 16
    frequency:    8.4229355138
  - # 17
    frequency:   13.9909002228
  - # 18
    frequency:   14.0684634812
  - # 19
    frequency:   15.7958314716
  - # 20
    frequency:   16.3680069419
  - # 21
    frequency:   16.4274656545
  - # 22
    frequency:   27.0260441106
  - # 23
    frequency:   57.3935520934
  - # 24
    frequency:   60.8365966796

- q-position: [    0.1161616,    0.0000000,    0.0000000 ]
  distance:    0.0392788
  band:
  - # 1
    frequency:   -1.8222109712
  - # 2
    frequency:   -1.5696342905
  - # 3
    frequency:    0.7648932807
  - # 4
    frequency:    1.0891143579
  - # 5
    frequency:    1.7060153826
  - # 6
    frequency:    1.9264129813
  - # 7
    frequency:    2.4758825053
  - # 8
    frequency:    4.7439373520
  - # 9
    frequency:    4.7958328110
  - # 10
    frequency:    5.2500931730
  - # 11
    frequency:    6.5372196371
  - # 12
    frequency:    6.7845144883
  - # 13
    frequency:    7.3159269523
  - # 14
    frequency:    7.4027668896
  - # 15
    frequency:    7.6659880945
  - # 16
    frequency:    8.4358272415
  - # 17
    frequency:   13.9961490099
  - # 18
    frequency:   14.0808060591
  - # 19
    frequency:   15.7892288906
  - # 20
    frequency:   16.3870731042
  - # 21
    frequency:   16.4512464808
  - # 22
    frequency:   27.0251316918
  - # 23
    frequency:   57.3510921884
  - # 24
    frequency:   60.8357816962

- q-position: [    0.1212121,    0.0000000,    0.0000000 ]
  distance:    0.0409866
  band:
  - # 1
    frequency:   -1.7908957178
  - # 2
    frequency:   -1.5129442673
  - # 3
    frequency:    0.8388968486
  - # 4
    frequency:    1.1261759400
  - # 5
    frequency:    1.7732988864
  - # 6
    frequency:    2.0010456850
  - # 7
    frequency:    2.5718684340
  - # 8
    frequency:    4.7520726707
  - # 9
    frequency:    4.8081267497
  - # 10
    frequency:    5.2558035721
  - # 11
    frequency:    6.5654090740
  - # 12
    frequency:    6.8269961803
  - # 13
    frequency:    7.3236150242
  - # 14
    frequency:    7.4200005834
  - # 15
    frequency:    7.7049151313
  - # 16
    frequency:    8.4485805689
  - # 17
    frequency:   14.0013822596
  - # 18
    frequency:   14.0934147088
  - # 19
    frequency:   15.7822599164
  - # 20
    frequency:   16.4050385256
  - # 21
    frequency:   16.4738853387
  - # 22
    frequency:   27.0241069586
  - # 23
    frequency:   57.3075833288
  - # 24
    frequency:   60.8348724290

- q-position: [    0.1262626,    0.0000000,    0.0000000 ]
  distance:    0.0426943
  band:
  - # 1
    frequency:   -1.7604344119
  - # 2
    frequency:   -1.4550999513
  - # 3
    frequency:    0.9121081825
  - # 4
    frequency:    1.1629263010
  - # 5
    frequency:    1.8400960306
  - # 6
    frequency:    2.0752527366
  - # 7
    frequency:    2.6667396760
  - # 8
    frequency:    4.7598853043
  - # 9
    frequency:    4.8200692540
  - # 10
    frequency:    5.2627775490
  - # 11
    frequency:    6.5930405989
  - # 12
    frequency:    6.8682434579
  - # 13
    frequency:    7.3305177144
  - # 14
    frequency:    7.4371860894
  - # 15
    frequency:    7.7443056150
  - # 16
    frequency:    8.4610689742
  - # 17
    frequency:   14.0065786372
  - # 18
    frequency:   14.1062613682
  - # 19
    frequency:   15.7749158832
  - # 20
    frequency:   16.4217633462
  - # 21
    frequency:   16.4952106529
  - # 22
    frequency:   27.0229636271
  - # 23
    frequency:   57.2631139193
  - # 24
    frequency:   60.8338651817

- q-position: [    0.1313131,    0.0000000,    0.0000000 ]
  distance:    0.0444021
  band:
  - # 1
    frequency:   -1.7310177045
  - # 2
    frequency:   -1.3960584637
  - # 3
    frequency:    0.9846845371
  - # 4
    frequency:    1.1993423438
  - # 5
    frequency:    1.9063608083
  - # 6
    frequency:    2.1489856385
  - # 7
    frequency:    2.7603415739
  - # 8
    frequency:    4.7673497317
  - # 9
    frequency:    4.8316288676
  - # 10
    frequency:    5.2710829137
  - # 11
    frequency:    6.6200230326
  - # 12
    frequency:    6.9079914349
  - # 13
    frequency:    7.3367464319
  - # 14
    frequency:    7.4542027145
  - # 15
    frequency:    7.7839931834
  - # 16
    frequency:    8.4731692204
  - # 17
    frequency:   14.0117177381
  - # 18
    frequency:   14.1193183068
  - # 19
    frequency:   15.7671892714
  - # 20
    frequency:   16.4371196177
  - # 21
    frequency:   16.5150629253
  - # 22
    frequency:   27.0216957717
  - # 23
    frequency:   57.2177722152
  - # 24
    frequency:   60.8327567868

- q-position: [    0.1363636,    0.0000000,    0.0000000 ]
  distance:    0.0461099
  band:
  - # 1
    frequency:   -1.7028313701
  - # 2
    frequency:   -1.3357331680
  - # 3
    frequency:    1.0567069923
  - # 4
    frequency:    1.2354025371
  - # 5
    frequency:    1.9720514251
  - # 6
    frequency:    2.2221987101
  - # 7