nqpoint: 300    
npath: 3      
segment_nqpoint:
- 100
- 100
- 100
labels:
- [ 'G', 'M' ]
- [ 'M', 'K' ]
- [ 'K', 'G' ]
reciprocal_lattice:
- [   0.29283703,   0.16906954,   0.00000000 ] # a*
- [   0.00000000,   0.33813908,   0.00000000 ] # b*
- [   0.00000000,   0.00000000,   0.03655558 ] # c*
natom: 8      
lattice:
- [     3.414868665399236,     0.000000000000000,     0.000000000000000 ] # a
- [    -1.707434332699618,     2.957363014816492,     0.000000000000000 ] # b
- [     0.000000000000000,     0.000000000000000,    27.355602361403410 ] # c
points:
- symbol: C # 1
  coordinates: [  0.000000000000000,  0.000000000000000,  0.527362701131048 ]
  mass: 12.010700
- symbol: C # 2
  coordinates: [  0.333332985432215,  0.666666983183674,  0.626981589461572 ]
  mass: 12.010700
- symbol: C # 3
  coordinates: [  0.666666984744047,  0.333332985985145,  0.385797935289554 ]
  mass: 12.010700
- symbol: N # 4
  coordinates: [  0.333332985432215,  0.666666983183674,  0.670999750577663 ]
  mass: 14.006700
- symbol: N # 5
  coordinates: [  0.666666984744047,  0.333332985985145,  0.431587442439475 ]
  mass: 14.006700
- symbol: S # 6
  coordinates: [  0.666666984744047,  0.333332985985145,  0.329000249422337 ]
  mass: 32.065000
- symbol: Zr # 7
  coordinates: [  0.333332985432215,  0.666666983183674,  0.482253974765452 ]
  mass: 91.224000
- symbol: Zr # 8
  coordinates: [  0.666666984744047,  0.333332985985145,  0.572789232958958 ]
  mass: 91.224000

phonon:
- q-position: [    0.0000000,    0.0000000,    0.0000000 ]
  distance:    0.0000000
  band:
  - # 1
    frequency:   -1.2052200485
  - # 2
    frequency:   -1.2052200484
  - # 3
    frequency:   -0.0000151529
  - # 4
    frequency:   -0.0000004121
  - # 5
    frequency:    0.0000120827
  - # 6
    frequency:    0.8035585171
  - # 7
    frequency:    0.8035585172
  - # 8
    frequency:    4.5882384342
  - # 9
    frequency:    4.5882384342
  - # 10
    frequency:    5.2803234587
  - # 11
    frequency:    6.2423679417
  - # 12
    frequency:    6.2423679418
  - # 13
    frequency:    7.3522283694
  - # 14
    frequency:    7.4165570902
  - # 15
    frequency:    7.4165570902
  - # 16
    frequency:    8.4621936881
  - # 17
    frequency:   13.9768089302
  - # 18
    frequency:   13.9768089302
  - # 19
    frequency:   15.9251639135
  - # 20
    frequency:   16.6546378123
  - # 21
    frequency:   16.6546378123
  - # 22
    frequency:   27.0412790803
  - # 23
    frequency:   57.8198756535
  - # 24
    frequency:   60.8674221949

- q-position: [    0.0050505,    0.0000000,    0.0000000 ]
  distance:    0.0017078
  band:
  - # 1
    frequency:   -1.2053080941
  - # 2
    frequency:   -1.2045445062
  - # 3
    frequency:    0.0024466326
  - # 4
    frequency:    0.0548152599
  - # 5
    frequency:    0.1105548527
  - # 6
    frequency:    0.8044681481
  - # 7
    frequency:    0.8084013188
  - # 8
    frequency:    4.5881025833
  - # 9
    frequency:    4.5889790860
  - # 10
    frequency:    5.2801826387
  - # 11
    frequency:    6.2429291914
  - # 12
    frequency:    6.2434862113
  - # 13
    frequency:    7.3520692807
  - # 14
    frequency:    7.4166697033
  - # 15
    frequency:    7.4174403521
  - # 16
    frequency:    8.4622069030
  - # 17
    frequency:   13.9768698959
  - # 18
    frequency:   13.9770461574
  - # 19
    frequency:   15.9249417287
  - # 20
    frequency:   16.6542413994
  - # 21
    frequency:   16.6544720055
  - # 22
    frequency:   27.0412432253
  - # 23
    frequency:   57.8189050104
  - # 24
    frequency:   60.8673588489

- q-position: [    0.0101010,    0.0000000,    0.0000000 ]
  distance:    0.0034155
  band:
  - # 1
    frequency:   -1.2055720699
  - # 2
    frequency:   -1.2025391780
  - # 3
    frequency:    0.0096860478
  - # 4
    frequency:    0.1096425006
  - # 5
    frequency:    0.2209590611
  - # 6
    frequency:    0.8071928814
  - # 7
    frequency:    0.8227832726
  - # 8
    frequency:    4.5876964279
  - # 9
    frequency:    4.5911953583
  - # 10
    frequency:    5.2797629112
  - # 11
    frequency:    6.2446111198
  - # 12
    frequency:    6.2468360425
  - # 13
    frequency:    7.3516136040
  - # 14
    frequency:    7.4170068712
  - # 15
    frequency:    7.4200647133
  - # 16
    frequency:    8.4622463726
  - # 17
    frequency:   13.9770525269
  - # 18
    frequency:   13.9777574493
  - # 19
    frequency:   15.9242753202
  - # 20
    frequency:   16.6530535755
  - # 21
    frequency:   16.6539746864
  - # 22
    frequency:   27.0411356405
  - # 23
    frequency:   57.8159947303
  - # 24
    frequency:   60.8671689656

- q-position: [    0.0151515,    0.0000000,    0.0000000 ]
  distance:    0.0051233
  band:
  - # 1
    frequency:   -1.2060115657
  - # 2
    frequency:   -1.1992643654
  - # 3
    frequency:    0.0214499279
  - # 4
    frequency:    0.1644934202
  - # 5
    frequency:    0.3310174958
  - # 6
    frequency:    0.8117205324
  - # 7
    frequency:    0.8463088555
  - # 8
    frequency:    4.5870241545
  - # 9
    frequency:    4.5948702447
  - # 10
    frequency:    5.2790724846
  - # 11
    frequency:    6.2474082737
  - # 12
    frequency:    6.2524025419
  - # 13
    frequency:    7.3509164669
  - # 14
    frequency:    7.4175665828
  - # 15
    frequency:    7.4243635921
  - # 16
    frequency:    8.4623115653
  - # 17
    frequency:   13.9773560277
  - # 18
    frequency:   13.9789416399
  - # 19
    frequency:   15.9231651247
  - # 20
    frequency:   16.6510785822
  - # 21
    frequency:   16.6531461575
  - # 22
    frequency:   27.0409562670
  - # 23
    frequency:   57.8111497576
  - # 24
    frequency:   60.8668530088

- q-position: [    0.0202020,    0.0000000,    0.0000000 ]
  distance:    0.0068311
  band:
  - # 1
    frequency:   -1.2066261352
  - # 2
    frequency:   -1.1948098607
  - # 3
    frequency:    0.0373657023
  - # 4
    frequency:    0.2193789962
  - # 5
    frequency:    0.4404419572
  - # 6
    frequency:    0.8180317799
  - # 7
    frequency:    0.8784501491
  - # 8
    frequency:    4.5860927245
  - # 9
    frequency:    4.5999755429
  - # 10
    frequency:    5.2781250779
  - # 11
    frequency:    6.2513115887
  - # 12
    frequency:    6.2601610143
  - # 13
    frequency:    7.3500450447
  - # 14
    frequency:    7.4183454944
  - # 15
    frequency:    7.4302508890
  - # 16
    frequency:    8.4624015720
  - # 17
    frequency:   13.9777790820
  - # 18
    frequency:   13.9805967923
  - # 19
    frequency:   15.9216118655
  - # 20
    frequency:   16.6483234805
  - # 21
    frequency:   16.6519869201
  - # 22
    frequency:   27.0407050064
  - # 23
    frequency:   57.8043783191
  - # 24
    frequency:   60.8664117497

- q-position: [    0.0252525,    0.0000000,    0.0000000 ]
  distance:    0.0085389
  band:
  - # 1
    frequency:   -1.2074156207
  - # 2
    frequency:   -1.1892826350
  - # 3
    frequency:    0.0570316864
  - # 4
    frequency:    0.2743087391
  - # 5
    frequency:    0.5487912979
  - # 6
    frequency:    0.8261016770
  - # 7
    frequency:    0.9187046870
  - # 8
    frequency:    4.5849118488
  - # 9
    frequency:    4.6064720595
  - # 10
    frequency:    5.2769399829
  - # 11
    frequency:    6.2563084266
  - # 12
    frequency:    6.2700771507
  - # 13
    frequency:    7.3490589524
  - # 14
    frequency:    7.4193389414
  - # 15
    frequency:    7.4376408398
  - # 16
    frequency:    8.4625150751
  - # 17
    frequency:   13.9783198672
  - # 18
    frequency:   13.9827202101
  - # 19
    frequency:   15.9196165460
  - # 20
    frequency:   16.6447981372
  - # 21
    frequency:   16.6504976695
  - # 22
    frequency:   27.0403817204
  - # 23
    frequency:   57.7956919045
  - # 24
    frequency:   60.8658462642

- q-position: [    0.0303030,    0.0000000,    0.0000000 ]
  distance:    0.0102466
  band:
  - # 1
    frequency:   -1.2083805520
  - # 2
    frequency:   -1.1827951499
  - # 3
    frequency:    0.0800732075
  - # 4
    frequency:    0.3292894439
  - # 5
    frequency:    0.6553906829
  - # 6
    frequency:    0.8359018490
  - # 7
    frequency:    0.9667682477
  - # 8
    frequency:    4.5834939527
  - # 9
    frequency:    4.6143098827
  - # 10
    frequency:    5.2755421605
  - # 11
    frequency:    6.2623826262
  - # 12
    frequency:    6.2821072832
  - # 13
    frequency:    7.3479999076
  - # 14
    frequency:    7.4205409561
  - # 15
    frequency:    7.4464586853
  - # 16
    frequency:    8.4626503049
  - # 17
    frequency:   13.9789760741
  - # 18
    frequency:   13.9853084516
  - # 19
    frequency:   15.9171804414
  - # 20
    frequency:   16.6405152064
  - # 21
    frequency:   16.6486792892
  - # 22
    frequency:   27.0399862302
  - # 23
    frequency:   57.7851052377
  - # 24
    frequency:   60.8651579290

- q-position: [    0.0353535,    0.0000000,    0.0000000 ]
  distance:    0.0119544
  band:
  - # 1
    frequency:   -1.2095225734
  - # 2
    frequency:   -1.1754565996
  - # 3
    frequency:    0.1061710318
  - # 4
    frequency:    0.3843231963
  - # 5
    frequency:    0.7592325660
  - # 6
    frequency:    0.8474035169
  - # 7
    frequency:    1.0227012071
  - # 8
    frequency:    4.5818541279
  - # 9
    frequency:    4.6234287105
  - # 10
    frequency:    5.2739623788
  - # 11
    frequency:    6.2695145685
  - # 12
    frequency:    6.2961987008
  - # 13
    frequency:    7.3468898757
  - # 14
    frequency:    7.4219442886
  - # 15
    frequency:    7.4566429398
  - # 16
    frequency:    8.4628049904
  - # 17
    frequency:   13.9797449318
  - # 18
    frequency:   13.9883573478
  - # 19
    frequency:   15.9143050894
  - # 20
    frequency:   16.6354901036
  - # 21
    frequency:   16.6465328446
  - # 22
    frequency:   27.0395183160
  - # 23
    frequency:   57.7726362409
  - # 24
    frequency:   60.8643484169

- q-position: [    0.0404040,    0.0000000,    0.0000000 ]
  distance:    0.0136622
  band:
  - # 1
    frequency:   -1.2108448554
  - # 2
    frequency:   -1.1673677588
  - # 3
    frequency:    0.1350665710
  - # 4
    frequency:    0.4394042762
  - # 5
    frequency:    0.8589278351
  - # 6
    frequency:    0.8605816125
  - # 7
    frequency:    1.0870171620
  - # 8
    frequency:    4.5800100737
  - # 9
    frequency:    4.6337582201
  - # 10
    frequency:    5.2722374005
  - # 11
    frequency:    6.2776812535
  - # 12
    frequency:    6.3122900188
  - # 13
    frequency:    7.3457338267
  - # 14
    frequency:    7.4235404335
  - # 15
    frequency:    7.4681431149
  - # 16
    frequency:    8.4629763044
  - # 17
    frequency:   13.9806232379
  - # 18
    frequency:   13.9918620248
  - # 19
    frequency:   15.9109922799
  - # 20
    frequency:   16.6297409731
  - # 21
    frequency:   16.6440595764
  - # 22
    frequency:   27.0389777166
  - # 23
    frequency:   57.7583059909
  - # 24
    frequency:   60.8634196908

- q-position: [    0.0454545,    0.0000000,    0.0000000 ]
  distance:    0.0153700
  band:
  - # 1
    frequency:   -1.2123524491
  - # 2
    frequency:   -1.1586188172
  - # 3
    frequency:    0.1665534077
  - # 4
    frequency:    0.4945143992
  - # 5
    frequency:    0.8754204798
  - # 6
    frequency:    0.9529336594
  - # 7
    frequency:    1.1604727638
  - # 8
    frequency:    4.5779820234
  - # 9
    frequency:    4.6452184641
  - # 10
    frequency:    5.2704102265
  - # 11
    frequency:    6.2868563902
  - # 12
    frequency:    6.3303115939
  - # 13
    frequency:    7.3445239322
  - # 14
    frequency:    7.4253196607
  - # 15
    frequency:    7.4809160615
  - # 16
    frequency:    8.4631608094
  - # 17
    frequency:   13.9816073930
  - # 18
    frequency:   13.9958169274
  - # 19
    frequency:   15.9072440464
  - # 20
    frequency:   16.6232886466
  - # 21
    frequency:   16.6412608951
  - # 22
    frequency:   27.0383641282
  - # 23
    frequency:   57.7421386672
  - # 24
    frequency:   60.8623739972

- q-position: [    0.0505051,    0.0000000,    0.0000000 ]
  distance:    0.0170777
  band:
  - # 1
    frequency:   -1.2140525555
  - # 2
    frequency:   -1.1492890272
  - # 3
    frequency:    0.2004636091
  - # 4
    frequency:    0.5496153698
  - # 5
    frequency:    0.8919220401
  - # 6
    frequency:    1.0403013643
  - # 7
    frequency:    1.2433228153
  - # 8
    frequency:    4.5757926572
  - # 9
    frequency:    4.6577202823
  - # 10
    frequency:    5.2685303986
  - # 11
    frequency:    6.2970104969
  - # 12
    frequency:    6.3501859756
  - # 13
    frequency:    7.3432435630
  - # 14
    frequency:    7.4272710509
  - # 15
    frequency:    7.4949225521
  - # 16
    frequency:    8.4633544074
  - # 17
    frequency:   13.9826934395
  - # 18
    frequency:   14.0002158473
  - # 19
    frequency:   15.9030626581
  - # 20
    frequency:   16.6161565931
  - # 21
    frequency:   16.6381383764
  - # 22
    frequency:   27.0376772048
  - # 23
    frequency:   57.7241614929
  - # 24
    frequency:   60.8612138577

- q-position: [    0.0555556,    0.0000000,    0.0000000 ]
  distance:    0.0187855
  band:
  - # 1
    frequency:   -1.2159546856
  - # 2
    frequency:   -1.1394470581
  - # 3
    frequency:    0.2366541753
  - # 4
    frequency:    0.6046375902
  - # 5
    frequency:    0.9101179494
  - # 6
    frequency:    1.1214610536
  - # 7
    frequency:    1.3345301616
  - # 8
    frequency:    4.5734669993
  - # 9
    frequency:    4.6711657213
  - # 10
    frequency:    5.2666543592
  - # 11
    frequency:    6.3081110112
  - # 12
    frequency:    6.3718283877
  - # 13
    frequency:    7.3418705301
  - # 14
    frequency:    7.4293825355
  - # 15
    frequency:    7.5101246508
  - # 16
    frequency:    8.4635522996
  - # 17
    frequency:   13.9838771040
  - # 18
    frequency:   14.0050519519
  - # 19
    frequency:   15.8984506163
  - # 20
    frequency:   16.6083708583
  - # 21
    frequency:   16.6346937602
  - # 22
    frequency:   27.0369165567
  - # 23
    frequency:   57.7044046680
  - # 24
    frequency:   60.8599420610

- q-position: [    0.0606061,    0.0000000,    0.0000000 ]
  distance:    0.0204933
  band:
  - # 1
    frequency:   -1.2180707047
  - # 2
    frequency:   -1.1291513305
  - # 3
    frequency:    0.2749961741
  - # 4
    frequency:    0.6594618467
  - # 5
    frequency:    0.9300883172
  - # 6
    frequency:    1.1979830569
  - # 7
    frequency:    1.4319946559
  - # 8
    frequency:    4.5710322981
  - # 9
    frequency:    4.6854484645
  - # 10
    frequency:    5.2648458573
  - # 11
    frequency:    6.3201224096
  - # 12
    frequency:    6.3951472301
  - # 13
    frequency:    7.3403795325
  - # 14
    frequency:    7.4316409417
  - # 15
    frequency:    7.5264838911
  - # 16
    frequency:    8.4637489627
  - # 17
    frequency:   13.9851538431
  - # 18
    frequency:   14.0103178152
  - # 19
    frequency:   15.8934106538
  - # 20
    frequency:   16.5999599921
  - # 21
    frequency:   16.6309289519
  - # 22
    frequency:   27.0360817512
  - # 23
    frequency:   57.6829012951
  - # 24
    frequency:   60.8585616526

- q-position: [    0.0656566,    0.0000000,    0.0000000 ]
  distance:    0.0222011
  band:
  - # 1
    frequency:   -1.2204147580
  - # 2
    frequency:   -1.1184500360
  - # 3
    frequency:    0.3153673187
  - # 4
    frequency:    0.7138903634
  - # 5
    frequency:    0.9519909962
  - # 6
    frequency:    1.2715944402
  - # 7
    frequency:    1.5335256824
  - # 8
    frequency:    4.5685178896
  - # 9
    frequency:    4.7004542858
  - # 10
    frequency:    5.2631763751
  - # 11
    frequency:    6.3330063335
  - # 12
    frequency:    6.4200445937
  - # 13
    frequency:    7.3387439613
  - # 14
    frequency:    7.4340320409
  - # 15
    frequency:    7.5439601006
  - # 16
    frequency:    8.4639381461
  - # 17
    frequency:   13.9865188915
  - # 18
    frequency:   14.0160054499
  - # 19
    frequency:   15.8879457412
  - # 20
    frequency:   16.5909549636
  - # 21
    frequency:   16.6268460287
  - # 22
    frequency:   27.0351723121
  - # 23
    frequency:   57.6596872986
  - # 24
    frequency:   60.8570759247

- q-position: [    0.0707071,    0.0000000,    0.0000000 ]
  distance:    0.0239088
  band:
  - # 1
    frequency:   -1.2230030841
  - # 2
    frequency:   -1.1073808801
  - # 3
    frequency:    0.3576478073
  - # 4
    frequency:    0.7676021249
  - # 5
    frequency:    0.9761064549
  - # 6
    frequency:    1.3435760586
  - # 7
    frequency:    1.6374342801
  - # 8
    frequency:    4.5659550416
  - # 9
    frequency:    4.7160615618
  - # 10
    frequency:    5.2617255337
  - # 11
    frequency:    6.3467217222
  - # 12
    frequency:    6.4464167793
  - # 13
    frequency:    7.3369372358
  - # 14
    frequency:    7.4365406033
  - # 15
    frequency:    7.5625106847
  - # 16
    frequency:    8.4641128991
  - # 17
    frequency:   13.9879673128
  - # 18
    frequency:   14.0221063390
  - # 19
    frequency:   15.8820590990
  - # 20
    frequency:   16.5813890622
  - # 21
    frequency:   16.6224472510
  - # 22
    frequency:   27.0341877205
  - # 23
    frequency:   57.6348013365
  - # 24
    frequency:   60.8554884050

- q-position: [    0.0757576,    0.0000000,    0.0000000 ]
  distance:    0.0256166
  band:
  - # 1
    frequency:   -1.2258537289
  - # 2
    frequency:   -1.0959707748
  - # 3
    frequency:    0.4017188381
  - # 4
    frequency:    0.8200912031
  - # 5
    frequency:    1.0028995151
  - # 6
    frequency:    1.4147132309
  - # 7
    frequency:    1.7425725496
  - # 8
    frequency:    4.5633767797
  - # 9
    frequency:    4.7321419009
  - # 10
    frequency:    5.2605814084
  - # 11
    frequency:    6.3612249515
  - # 12
    frequency:    6.4741548092
  - # 13
    frequency:    7.3349338267
  - # 14
    frequency:    7.4391504567
  - # 15
    frequency:    7.5820902062
  - # 16
    frequency:    8.4642656343
  - # 17
    frequency:   13.9894940513
  - # 18
    frequency:   14.0286114681
  - # 19
    frequency:   15.8757542190
  - # 20
    frequency:   16.5712977836
  - # 21
    frequency:   16.6177350792
  - # 22
    frequency:   27.0331274152
  - # 23
    frequency:   57.6082847058
  - # 24
    frequency:   60.8538028440

- q-position: [    0.0808081,    0.0000000,    0.0000000 ]
  distance:    0.0273244
  band:
  - # 1
    frequency:   -1.2289861746
  - # 2
    frequency:   -1.0842357751
  - # 3
    frequency:    0.4474630823
  - # 4
    frequency:    0.8706093547
  - # 5
    frequency:    1.0330767075
  - # 6
    frequency:    1.4854412640
  - # 7
    frequency:    1.8481794133
  - # 8
    frequency:    4.5608176931
  - # 9
    frequency:    4.7485609841
  - # 10
    frequency:    5.2598406509
  - # 11
    frequency:    6.3764699754
  - # 12
    frequency:    6.5031449198
  - # 13
    frequency:    7.3327100809
  - # 14
    frequency:    7.4418445498
  - # 15
    frequency:    7.6026501405
  - # 16
    frequency:    8.4643882344
  - # 17
    frequency:   13.9910939844
  - # 18
    frequency:   14.0355113560
  - # 19
    frequency:   15.8690348934
  - # 20
    frequency:   16.5607187001
  - # 21
    frequency:   16.6127121982
  - # 22
    frequency:   27.0319907949
  - # 23
    frequency:   57.5801812410
  - # 24
    frequency:   60.8520232030

- q-position: [    0.0858586,    0.0000000,    0.0000000 ]
  distance:    0.0290321
  band:
  - # 1
    frequency:   -1.2324209023
  - # 2
    frequency:   -1.0721815080
  - # 3
    frequency:    0.4947663860
  - # 4
    frequency:    0.9181989592
  - # 5
    frequency:    1.0675532017
  - # 6
    frequency:    1.5559831601
  - # 7
    frequency:    1.9537354430
  - # 8
    frequency:    4.5583137218
  - # 9
    frequency:    4.7651797503
  - # 10
    frequency:    5.2596082767
  - # 11
    frequency:    6.3924084718
  - # 12
    frequency:    6.5332690185
  - # 13
    frequency:    7.3302449366
  - # 14
    frequency:    7.4446050221
  - # 15
    frequency:    7.6241387178
  - # 16
    frequency:    8.4644722120
  - # 17
    frequency:   13.9927619760
  - # 18
    frequency:   14.0427960840
  - # 19
    frequency:   15.8619052548
  - # 20
    frequency:   16.5496913141
  - # 21
    frequency:   16.6073815475
  - # 22
    frequency:   27.0307772192
  - # 23
    frequency:   57.5505372073
  - # 24
    frequency:   60.8501536404

- q-position: [    0.0909091,    0.0000000,    0.0000000 ]
  distance:    0.0307399
  band:
  - # 1
    frequency:   -1.2361789067
  - # 2
    frequency:   -1.0598042359
  - # 3
    frequency:    0.5435200268
  - # 4
    frequency:    0.9619697105
  - # 5
    frequency:    1.1071759168
  - # 6
    frequency:    1.6264401055
  - # 7
    frequency:    2.0588660698
  - # 8
    frequency:    4.5559019232
  - # 9
    frequency:    4.7818561050
  - # 10
    frequency:    5.2599969321
  - # 11
    frequency:    6.4089899900
  - # 12
    frequency:    6.5644050809
  - # 13
    frequency:    7.3275205920
  - # 14
    frequency:    7.4474132785
  - # 15
    frequency:    7.6465007930
  - # 16
    frequency:    8.4645089285
  - # 17
    frequency:   13.9944929288
  - # 18
    frequency:   14.0504553231
  - # 19
    frequency:   15.8543698261
  - # 20
    frequency:   16.5382568955
  - # 21
    frequency:   16.6017463601
  - # 22
    frequency:   27.0294860123
  - # 23
    frequency:   57.5194011872
  - # 24
    frequency:   60.8481984974

- q-position: [    0.0959596,    0.0000000,    0.0000000 ]
  distance:    0.0324477
  band:
  - # 1
    frequency:   -1.2402811826
  - # 2
    frequency:   -1.0470925543
  - # 3
    frequency:    0.5936229486
  - # 4
    frequency:    1.0015939366
  - # 5
    frequency:    1.1522279626
  - # 6
    frequency:    1.6968448243
  - # 7
    frequency:    2.1632829570
  - # 8
    frequency:    4.5536202209
  - # 9
    frequency:    4.7984473640
  - # 10
    frequency:    5.2611254185
  - # 11
    frequency:    6.4261621003
  - # 12
    frequency:    6.5964274602
  - # 13
    frequency:    7.3245231876
  - # 14
    frequency:    7.4502500695
  - # 15
    frequency:    7.6696777014
  - # 16
    frequency:    8.4644898844
  - # 17
    frequency:   13.9962818359
  - # 18
    frequency:   14.0584783579
  - # 19
    frequency:   15.8464335793
  - # 20
    frequency:   16.5264583012
  - # 21
    frequency:   16.5958102083
  - # 22
    frequency:   27.0281164658
  - # 23
    frequency:   57.4868239616
  - # 24
    frequency:   60.8461622841

- q-position: [    0.1010101,    0.0000000,    0.0000000 ]
  distance:    0.0341555
  band:
  - # 1
    frequency:   -1.2447482034
  - # 2
    frequency:   -1.0340295839
  - # 3
    frequency:    0.6449835277
  - # 4
    frequency:    1.0375429457
  - # 5
    frequency:    1.2021920295
  - # 6
    frequency:    1.7671920571
  - # 7
    frequency:    2.2667491289
  - # 8
    frequency:    4.5515071355
  - # 9
    frequency:    4.8148136545
  - # 10
    frequency:    5.2631162434
  - # 11
    frequency:    6.4438705441
  - # 12
    frequency:    6.6292070625
  - # 13
    frequency:    7.3212435561
  - # 14
    frequency:    7.4530955787
  - # 15
    frequency:    7.6936070709
  - # 16
    frequency:    8.4644070881
  - # 17
    frequency:   13.9981238309
  - # 18
    frequency:   14.0668541079
  - # 19
    frequency:   15.8381020056
  - # 20
    frequency:   16.5143397802
  - # 21
    frequency:   16.5895770570
  - # 22
    frequency:   27.0266678432
  - # 23
    frequency:   57.4528583862
  - # 24
    frequency:   60.8440496640

- q-position: [    0.1060606,    0.0000000,    0.0000000 ]
  distance:    0.0358632
  band:
  - # 1
    frequency:   -1.2495994097
  - # 2
    frequency:   -1.0205954176
  - # 3
    frequency:    0.6975205858
  - # 4
    frequency:    1.0707522682
  - # 5
    frequency:    1.2560848761
  - # 6
    frequency:    1.8374559040
  - # 7
    frequency:    2.3690579750
  - # 8
    frequency:    4.5496014978
  - # 9
    frequency:    4.8308224514
  - # 10
    frequency:    5.2660920089
  - # 11
    frequency:    6.4620593848
  - # 12
    frequency:    6.6626113267
  - # 13
    frequency:    7.3176781088
  - # 14
    frequency:    7.4559295154
  - # 15
    frequency:    7.7182225707
  - # 16
    frequency:    8.4642535171
  - # 17
    frequency:   14.0000142352
  - # 18
    frequency:   14.0755711438
  - # 19
    frequency:   15.8293811921
  - # 20
    frequency:   16.5019467624
  - # 21
    frequency:   16.5830513243
  - # 22
    frequency:   27.0251393854
  - # 23
    frequency:   57.4175592625
  - # 24
    frequency:   60.8418654390

- q-position: [    0.1111111,    0.0000000,    0.0000000 ]
  distance:    0.0375710
  band:
  - # 1
    frequency:   -1.2548527256
  - # 2
    frequency:   -1.0067695322
  - # 3
    frequency:    0.7511635285
  - # 4
    frequency:    1.1021433714
  - # 5
    frequency:    1.3129353526
  - # 6
    frequency:    1.9075997426
  - # 7
    frequency:    2.4700203039
  - # 8
    frequency:    4.5479421491
  - # 9
    frequency:    4.8463542981
  - # 10
    frequency:    5.2701705736
  - # 11
    frequency:    6.4806711590
  - # 12
    frequency:    6.6965039169
  - # 13
    frequency:    7.3138299496
  - # 14
    frequency:    7.4587312143
  - # 15
    frequency:    7.7434535766
  - # 16
    frequency:    8.4640236842
  - # 17
    frequency:   14.0019486031
  - # 18
    frequency:   14.0846177005
  - # 19
    frequency:   15.8202779060
  - # 20
    frequency:   16.4893256355
  - # 21
    frequency:   16.5762379490
  - # 22
    frequency:   27.0235303166
  - # 23
    frequency:   57.3809832045
  - # 24
    frequency:   60.8396145331

- q-position: [    0.1161616,    0.0000000,    0.0000000 ]
  distance:    0.0392788
  band:
  - # 1
    frequency:   -1.2605241196
  - # 2
    frequency:   -0.9925328864
  - # 3
    frequency:    0.8058516413
  - # 4
    frequency:    1.1324056001
  - # 5
    frequency:    1.3720022143
  - # 6
    frequency:    1.9775819272
  - # 7
    frequency:    2.5694561439
  - # 8
    frequency:    4.5465676282
  - # 9
    frequency:    4.8613095275
  - # 10
    frequency:    5.2754591509
  - # 11
    frequency:    6.4996470280
  - # 12
    frequency:    6.7307439924
  - # 13
    frequency:    7.3097103490
  - # 14
    frequency:    7.4614797425
  - # 15
    frequency:    7.7692247380
  - # 16
    frequency:    8.4637143261
  - # 17
    frequency:   14.0039227637
  - # 18
    frequency:   14.0939816850
  - # 19
    frequency:   15.8107996811
  - # 20
    frequency:   16.4765235113
  - # 21
    frequency:   16.5691424635
  - # 22
    frequency:   27.0218398519
  - # 23
    frequency:   57.3431885017
  - # 24
    frequency:   60.8373019770

- q-position: [    0.1212121,    0.0000000,    0.0000000 ]
  distance:    0.0409866
  band:
  - # 1
    frequency:   -1.2666272234
  - # 2
    frequency:   -0.9778694804
  - # 3
    frequency:    0.8615326901
  - # 4
    frequency:    1.1619940786
  - # 5
    frequency:    1.4327760033
  - # 6
    frequency:    2.0473590616
  - # 7
    frequency:    2.6671894315
  - # 8
    frequency:    4.5455158488
  - # 9
    frequency:    4.8756154814
  - # 10
    frequency:    5.2820478235
  - # 11
    frequency:    6.5189269293
  - # 12
    frequency:    6.7651848489
  - # 13
    frequency:    7.3053407779
  - # 14
    frequency:    7.4641540124
  - # 15
    frequency:    7.7954554276
  - # 16
    frequency:    8.4633252335
  - # 17
    frequency:   14.0059328582
  - # 18
    frequency:   14.1036506796
  - # 19
    frequency:   15.8009549059
  - # 20
    frequency:   16.4635879845
  - # 21
    frequency:   16.5617710723
  - # 22
    frequency:   27.0200672054
  - # 23
    frequency:   57.3042349774
  - # 24
    frequency:   60.8349328915

- q-position: [    0.1262626,    0.0000000,    0.0000000 ]
  distance:    0.0426943
  band:
  - # 1
    frequency:   -1.2731730200
  - # 2
    frequency:   -0.9627672382
  - # 3
    frequency:    0.9181610464
  - # 4
    frequency:    1.1911933921
  - # 5
    frequency:    1.4949151816
  - # 6
    frequency:    2.1168878607
  - # 7
    frequency:    2.7630445320
  - # 8
    frequency:    4.5448237713
  - # 9
    frequency:    4.8892333808
  - # 10
    frequency:    5.2900032805
  - # 11
    frequency:    6.5384497282
  - # 12
    frequency:    6.7996716173
  - # 13
    frequency:    7.3007558095
  - # 14
    frequency:    7.4667329019
  - # 15
    frequency:    7.8220590517
  - # 16
    frequency:    8.4628602508
  - # 17
    frequency:   14.0079753740
  - # 18
    frequency:   14.1136119398
  - # 19
    frequency:   15.7907529075
  - # 20
    frequency:   16.4505668890
  - # 21
    frequency:   16.5541307333
  - # 22
    frequency:   27.0182115995
  - # 23
    frequency:   57.2641838452
  - # 24
    frequency:   60.8325124710

- q-position: [    0.1313131,    0.0000000,    0.0000000 ]
  distance:    0.0444021
  band:
  - # 1
    frequency:   -1.2801696098
  - # 2
    frequency:   -0.9472181684
  - # 3
    frequency:    0.9756955809
  - # 4
    frequency:    1.2201770408
  - # 5
    frequency:    1.5581865304
  - # 6
    frequency:    2.1861261784
  - # 7
    frequency:    2.8568439983
  - # 8
    frequency:    4.5445270723
  - # 9
    frequency:    4.9021637742
  - # 10
    frequency:    5.2993638059
  - # 11
    frequency:    6.5581533705
  - # 12
    frequency:    6.8340375280
  - # 13
    frequency:    7.2960073750
  - # 14
    frequency:    7.4691953811
  - # 15
    frequency:    7.8489421931
  - # 16
    frequency:    8.4623284751
  - # 17
    frequency:   14.0100471734
  - # 18
    frequency:   14.1238523884
  - # 19
    frequency:   15.7802040266
  - # 20
    frequency:   16.4375080556
  - # 21
    frequency:   16.5462292421
  - # 22
    frequency:   27.0162722759
  - # 23
    frequency:   57.2230975614
  - # 24
    frequency:   60.8300459671

- q-position: [    0.1363636,    0.0000000,    0.0000000 ]
  distance:    0.0461099
  band:
  - # 1
    frequency:   -1.2876220602
  - # 2
    frequency:   -0.9312178389
  - # 3
    frequency:    1.0340975581
  - # 4
    frequency:    1.2490486761
  - # 5
    frequency:    1.6224238054
  - # 6
    frequency:    2.2550335434
  - # 7