nqpoint: 300    
npath: 3      
segment_nqpoint:
- 100
- 100
- 100
labels:
- [ 'G', 'M' ]
- [ 'M', 'K' ]
- [ 'K', 'G' ]
reciprocal_lattice:
- [   0.28364153,   0.16376051,  -0.00000000 ] # a*
- [   0.00000000,   0.32752103,  -0.00000000 ] # b*
- [   0.00000000,   0.00000000,   0.03565921 ] # c*
natom: 5      
lattice:
- [     3.525576813750317,     0.000000000000000,     0.000000000000000 ] # a
- [    -1.762788406875158,     3.053239083700649,     0.000000000000000 ] # b
- [     0.000000000000002,     0.000000000000003,    28.043244966113502 ] # c
points:
- symbol: C # 1
  coordinates: [  0.000000000000000,  0.000000000000000,  0.500000026999999 ]
  mass: 12.010700
- symbol: Br # 2
  coordinates: [  0.333332985432215,  0.666666983183674,  0.391040294191221 ]
  mass: 79.904000
- symbol: Br # 3
  coordinates: [  0.666666984744048,  0.333332985985145,  0.608959705808779 ]
  mass: 79.904000
- symbol: Sc # 4
  coordinates: [  0.333332985432215,  0.666666983183674,  0.543297403377629 ]
  mass: 44.955912
- symbol: Sc # 5
  coordinates: [  0.666666984744048,  0.333332985985145,  0.456702596622378 ]
  mass: 44.955912

phonon:
- q-position: [    0.0000000,    0.0000000,    0.0000000 ]
  distance:    0.0000000
  band:
  - # 1
    frequency:   -0.0000029039
  - # 2
    frequency:   -0.0000001082
  - # 3
    frequency:    0.0000037544
  - # 4
    frequency:    2.1992631147
  - # 5
    frequency:    2.1992631147
  - # 6
    frequency:    3.8385150706
  - # 7
    frequency:    4.0089399380
  - # 8
    frequency:    4.0089399380
  - # 9
    frequency:    5.8230692242
  - # 10
    frequency:    5.8230692242
  - # 11
    frequency:    7.3188093405
  - # 12
    frequency:   10.5754352445
  - # 13
    frequency:   10.5754352445
  - # 14
    frequency:   11.2061030534
  - # 15
    frequency:   17.1134279946

- q-position: [    0.0050505,    0.0000000,    0.0000000 ]
  distance:    0.0016541
  band:
  - # 1
    frequency:   -0.0280824310
  - # 2
    frequency:    0.0589484200
  - # 3
    frequency:    0.1118064174
  - # 4
    frequency:    2.1996339139
  - # 5
    frequency:    2.2012690532
  - # 6
    frequency:    3.8340924184
  - # 7
    frequency:    4.0091342149
  - # 8
    frequency:    4.0152768928
  - # 9
    frequency:    5.8227424740
  - # 10
    frequency:    5.8230494037
  - # 11
    frequency:    7.3190645022
  - # 12
    frequency:   10.5749912596
  - # 13
    frequency:   10.5797786320
  - # 14
    frequency:   11.2063514629
  - # 15
    frequency:   17.1119621133

- q-position: [    0.0101010,    0.0000000,    0.0000000 ]
  distance:    0.0033083
  band:
  - # 1
    frequency:   -0.0555581810
  - # 2
    frequency:    0.1178646932
  - # 3
    frequency:    0.2234710245
  - # 4
    frequency:    2.2007453883
  - # 5
    frequency:    2.2072590457
  - # 6
    frequency:    3.8224066925
  - # 7
    frequency:    4.0097168374
  - # 8
    frequency:    4.0326928102
  - # 9
    frequency:    5.8217636628
  - # 10
    frequency:    5.8229900924
  - # 11
    frequency:    7.3198296693
  - # 12
    frequency:   10.5736608023
  - # 13
    frequency:   10.5926626508
  - # 14
    frequency:   11.2072119199
  - # 15
    frequency:   17.1075669637

- q-position: [    0.0151515,    0.0000000,    0.0000000 ]
  distance:    0.0049624
  band:
  - # 1
    frequency:   -0.0818231817
  - # 2
    frequency:    0.1767167439
  - # 3
    frequency:    0.3348523481
  - # 4
    frequency:    2.2025947746
  - # 5
    frequency:    2.2171512898
  - # 6
    frequency:    3.8064578797
  - # 7
    frequency:    4.0106871821
  - # 8
    frequency:    4.0581499837
  - # 9
    frequency:    5.8201371290
  - # 10
    frequency:    5.8228917372
  - # 11
    frequency:    7.3211039088
  - # 12
    frequency:   10.5714483617
  - # 13
    frequency:   10.6136285833
  - # 14
    frequency:   11.2090508390
  - # 15
    frequency:   17.1002500266

- q-position: [    0.0202020,    0.0000000,    0.0000000 ]
  distance:    0.0066166
  band:
  - # 1
    frequency:   -0.1062763262
  - # 2
    frequency:    0.2354726371
  - # 3
    frequency:    0.4458096025
  - # 4
    frequency:    2.2051774878
  - # 5
    frequency:    2.2308147715
  - # 6
    frequency:    3.7885670800
  - # 7
    frequency:    4.0120442159
  - # 8
    frequency:    4.0892658376
  - # 9
    frequency:    5.8178701684
  - # 10
    frequency:    5.8227550712
  - # 11
    frequency:    7.3228857396
  - # 12
    frequency:   10.5683614067
  - # 13
    frequency:   10.6418410998
  - # 14
    frequency:   11.2125511747
  - # 15
    frequency:   17.0900237603

- q-position: [    0.0252525,    0.0000000,    0.0000000 ]
  distance:    0.0082707
  band:
  - # 1
    frequency:   -0.1283151886
  - # 2
    frequency:    0.2941006491
  - # 3
    frequency:    0.5562030677
  - # 4
    frequency:    2.2084871507
  - # 5
    frequency:    2.2480764896
  - # 6
    frequency:    3.7700679795
  - # 7
    frequency:    4.0137865049
  - # 8
    frequency:    4.1246234077
  - # 9
    frequency:    5.8149731348
  - # 10
    frequency:    5.8225810949
  - # 11
    frequency:    7.3251732407
  - # 12
    frequency:   10.5644103662
  - # 13
    frequency:   10.6759739597
  - # 14
    frequency:   11.2188288735
  - # 15
    frequency:   17.0769055863

- q-position: [    0.0303030,    0.0000000,    0.0000000 ]
  distance:    0.0099249
  band:
  - # 1
    frequency:   -0.1473243316
  - # 2
    frequency:    0.3525693361
  - # 3
    frequency:    0.6658945060
  - # 4
    frequency:    2.2125156355
  - # 5
    frequency:    2.2687302355
  - # 6
    frequency:    3.7516547579
  - # 7
    frequency:    4.0159122259
  - # 8
    frequency:    4.1634259162
  - # 9
    frequency:    5.8114595850
  - # 10
    frequency:    5.8223710521
  - # 11
    frequency:    7.3279642023
  - # 12
    frequency:   10.5596086018
  - # 13
    frequency:   10.7140503144
  - # 14
    frequency:   11.2295955075
  - # 15
    frequency:   17.0609178698

- q-position: [    0.0353535,    0.0000000,    0.0000000 ]
  distance:    0.0115790
  band:
  - # 1
    frequency:   -0.1626521676
  - # 2
    frequency:    0.4108476024
  - # 3
    frequency:    0.7747476280
  - # 4
    frequency:    2.2172531161
  - # 5
    frequency:    2.2925459538
  - # 6
    frequency:    3.7336747207
  - # 7
    frequency:    4.0184191825
  - # 8
    frequency:    4.2052069389
  - # 9
    frequency:    5.8073464752
  - # 10
    frequency:    5.8221263980
  - # 11
    frequency:    7.3312563163
  - # 12
    frequency:   10.5539723721
  - # 13
    frequency:   10.7532972528
  - # 14
    frequency:   11.2473073682
  - # 15
    frequency:   17.0420878958

- q-position: [    0.0404040,    0.0000000,    0.0000000 ]
  distance:    0.0132332
  band:
  - # 1
    frequency:   -0.1735690643
  - # 2
    frequency:    0.4689047671
  - # 3
    frequency:    0.8826286158
  - # 4
    frequency:    2.2226881301
  - # 5
    frequency:    2.3192788142
  - # 6
    frequency:    3.7162925764
  - # 7
    frequency:    4.0213048236
  - # 8
    frequency:    4.2496690071
  - # 9
    frequency:    5.8026544155
  - # 10
    frequency:    5.8218487625
  - # 11
    frequency:    7.3350474048
  - # 12
    frequency:   10.5475207890
  - # 13
    frequency:   10.7902057008
  - # 14
    frequency:   11.2751098152
  - # 15
    frequency:   17.0204478401

- q-position: [    0.0454545,    0.0000000,    0.0000000 ]
  distance:    0.0148873
  band:
  - # 1
    frequency:   -0.1791910379
  - # 2
    frequency:    0.5267106292
  - # 3
    frequency:    0.9894067077
  - # 4
    frequency:    2.2288076497
  - # 5
    frequency:    2.3486773397
  - # 6
    frequency:    3.6995761011
  - # 7
    frequency:    4.0245662663
  - # 8
    frequency:    4.2966006742
  - # 9
    frequency:    5.7974079978
  - # 10
    frequency:    5.8215399075
  - # 11
    frequency:    7.3393356852
  - # 12
    frequency:   10.5402757649
  - # 13
    frequency:   10.8211040584
  - # 14
    frequency:   11.3162683823
  - # 15
    frequency:   16.9960347388

- q-position: [    0.0505051,    0.0000000,    0.0000000 ]
  distance:    0.0165415
  band:
  - # 1
    frequency:   -0.1783305323
  - # 2
    frequency:    0.5842355302
  - # 3
    frequency:    1.0949548452
  - # 4
    frequency:    2.2355971616
  - # 5
    frequency:    2.3804901925
  - # 6
    frequency:    3.6835412378
  - # 7
    frequency:    4.0282003208
  - # 8
    frequency:    4.3458337894
  - # 9
    frequency:    5.7916362130
  - # 10
    frequency:    5.8212016801
  - # 11
    frequency:    7.3441200689
  - # 12
    frequency:   10.5322619515
  - # 13
    frequency:   10.8432629034
  - # 14
    frequency:   11.3730691890
  - # 15
    frequency:   16.9688904539

- q-position: [    0.0555556,    0.0000000,    0.0000000 ]
  distance:    0.0181956
  band:
  - # 1
    frequency:   -0.1691628848
  - # 2
    frequency:    0.6414504155
  - # 3
    frequency:    1.1991503786
  - # 4
    frequency:    2.2430407529
  - # 5
    frequency:    2.4144714587
  - # 6
    frequency:    3.6681765892
  - # 7
    frequency:    4.0322035197
  - # 8
    frequency:    4.3972208470
  - # 9
    frequency:    5.7853729882
  - # 10
    frequency:    5.8208359616
  - # 11
    frequency:    7.3494004933
  - # 12
    frequency:   10.5235066697
  - # 13
    frequency:   10.8557626164
  - # 14
    frequency:   11.4459566730
  - # 15
    frequency:   16.9390616404

- q-position: [    0.0606061,    0.0000000,    0.0000000 ]
  distance:    0.0198498
  band:
  - # 1
    frequency:   -0.1482950374
  - # 2
    frequency:    0.6983268924
  - # 3
    frequency:    1.3018758241
  - # 4
    frequency:    2.2511212039
  - # 5
    frequency:    2.4503844601
  - # 6
    frequency:    3.6534571369
  - # 7
    frequency:    4.0365721495
  - # 8
    frequency:    4.4506224400
  - # 9
    frequency:    5.7786578820
  - # 10
    frequency:    5.8204446142
  - # 11
    frequency:    7.3551782828
  - # 12
    frequency:   10.5140398299
  - # 13
    frequency:   10.8593153695
  - # 14
    frequency:   11.5337170692
  - # 15
    frequency:   16.9065997143

- q-position: [    0.0656566,    0.0000000,    0.0000000 ]
  distance:    0.0215039
  band:
  - # 1
    frequency:   -0.1067700277
  - # 2
    frequency:    0.7548372851
  - # 3
    frequency:    1.4030196574
  - # 4
    frequency:    2.2598200845
  - # 5
    frequency:    2.4880042398
  - # 6
    frequency:    3.6393520948
  - # 7
    frequency:    4.0413022857
  - # 8
    frequency:    4.5058998087
  - # 9
    frequency:    5.7715369995
  - # 10
    frequency:    5.8200294257
  - # 11
    frequency:    7.3614565388
  - # 12
    frequency:   10.5038938424
  - # 13
    frequency:   10.8553878661
  - # 14
    frequency:   11.6343611198
  - # 15
    frequency:   16.8715608255

- q-position: [    0.0707071,    0.0000000,    0.0000000 ]
  distance:    0.0231581
  band:
  - # 1
    frequency:    0.0604120286
  - # 2
    frequency:    0.8109546874
  - # 3
    frequency:    1.5024771271
  - # 4
    frequency:    2.2691178557
  - # 5
    frequency:    2.5271189314
  - # 6
    frequency:    3.6258294464
  - # 7
    frequency:    4.0463898301
  - # 8
    frequency:    4.5629098493
  - # 9
    frequency:    5.7640642157
  - # 10
    frequency:    5.8195920534
  - # 11
    frequency:    7.3682405542
  - # 12
    frequency:   10.4931035183
  - # 13
    frequency:   10.8454729194
  - # 14
    frequency:   11.7458578126
  - # 15
    frequency:   16.8340058392

- q-position: [    0.0757576,    0.0000000,    0.0000000 ]
  distance:    0.0248122
  band:
  - # 1
    frequency:    0.1536521672
  - # 2
    frequency:    0.8666530112
  - # 3
    frequency:    1.6001510640
  - # 4
    frequency:    2.2789939721
  - # 5
    frequency:    2.5675302360
  - # 6
    frequency:    3.6128585545
  - # 7
    frequency:    4.0518305506
  - # 8
    frequency:    4.6215011096
  - # 9
    frequency:    5.7563028431
  - # 10
    frequency:    5.8191339690
  - # 11
    frequency:    7.3755382510
  - # 12
    frequency:   10.4817059599
  - # 13
    frequency:   10.8307882153
  - # 14
    frequency:   11.8664406934
  - # 15
    frequency:   16.7940003318

- q-position: [    0.0808081,    0.0000000,    0.0000000 ]
  distance:    0.0264663
  band:
  - # 1
    frequency:    0.2211133056
  - # 2
    frequency:    0.9219070308
  - # 3
    frequency:    1.6959526603
  - # 4
    frequency:    2.2894269865
  - # 5
    frequency:    2.6090532159
  - # 6
    frequency:    3.6004116402
  - # 7
    frequency:    4.0576201238
  - # 8
    frequency:    4.6815098519
  - # 9
    frequency:    5.7483279489
  - # 10
    frequency:    5.8186564047
  - # 11
    frequency:    7.3833606348
  - # 12
    frequency:   10.4697404402
  - # 13
    frequency:   10.8122432968
  - # 14
    frequency:   11.9946456271
  - # 15
    frequency:   16.7516146058

- q-position: [    0.0858586,    0.0000000,    0.0000000 ]
  distance:    0.0281205
  band:
  - # 1
    frequency:    0.2826132792
  - # 2
    frequency:    0.9766924240
  - # 3
    frequency:    1.7898021882
  - # 4
    frequency:    2.3003946551
  - # 5
    frequency:    2.6515155821
  - # 6
    frequency:    3.5884646102
  - # 7
    frequency:    4.0637541783
  - # 8
    frequency:    4.7427554922
  - # 9
    frequency:    5.7402296420
  - # 10
    frequency:    5.8181603023
  - # 11
    frequency:    7.3917222631
  - # 12
    frequency:   10.4572482722
  - # 13
    frequency:   10.7904988802
  - # 14
    frequency:   12.1292558251
  - # 15
    frequency:   16.7069237369

- q-position: [    0.0909091,    0.0000000,    0.0000000 ]
  distance:    0.0297746
  band:
  - # 1
    frequency:    0.3418828342
  - # 2
    frequency:    1.0309858082
  - # 3
    frequency:    1.8816296276
  - # 4
    frequency:    2.3118740412
  - # 5
    frequency:    2.6947566120
  - # 6
    frequency:    3.5769975408
  - # 7
    frequency:    4.0702283406
  - # 8
    frequency:    4.8050347319
  - # 9
    frequency:    5.7321178303
  - # 10
    frequency:    5.8176462674
  - # 11
    frequency:    7.4006417186
  - # 12
    frequency:   10.4442726663
  - # 13
    frequency:   10.7660361738
  - # 14
    frequency:   12.2692364088
  - # 15
    frequency:   16.6600076623

- q-position: [    0.0959596,    0.0000000,    0.0000000 ]
  distance:    0.0314288
  band:
  - # 1
    frequency:    0.4002927061
  - # 2
    frequency:    1.0847647714
  - # 3
    frequency:    1.9713751711
  - # 4
    frequency:    2.3238416176
  - # 5
    frequency:    2.7386257907
  - # 6
    frequency:    3.5659950253
  - # 7
    frequency:    4.0770382811
  - # 8
    frequency:    4.8681135090
  - # 9
    frequency:    5.7241292533
  - # 10
    frequency:    5.8171145279
  - # 11
    frequency:    7.4101420814
  - # 12
    frequency:   10.4308585773
  - # 13
    frequency:   10.7392122471
  - # 14
    frequency:   12.4136824184
  - # 15
    frequency:   16.6109513321

- q-position: [    0.1010101,    0.0000000,    0.0000000 ]
  distance:    0.0330829
  band:
  - # 1
    frequency:    0.4584657570
  - # 2
    frequency:    1.1380078989
  - # 3
    frequency:    2.0589895771
  - # 4
    frequency:    2.3362733674
  - # 5
    frequency:    2.7829812254
  - # 6
    frequency:    3.5554465481
  - # 7
    frequency:    4.0841797610
  - # 8
    frequency:    4.9317154615
  - # 9
    frequency:    5.7164380811
  - # 10
    frequency:    5.8165649006
  - # 11
    frequency:    7.4202513851
  - # 12
    frequency:   10.4170525391
  - # 13
    frequency:   10.7102993820
  - # 14
    frequency:   12.5617823019
  - # 15
    frequency:   16.5598449473

- q-position: [    0.1060606,    0.0000000,    0.0000000 ]
  distance:    0.0347371
  band:
  - # 1
    frequency:    0.5167131030
  - # 2
    frequency:    1.1906947947
  - # 3
    frequency:    2.1444343444
  - # 4
    frequency:    2.3491448802
  - # 5
    frequency:    2.8276878327
  - # 6
    frequency:    3.5453470249
  - # 7
    frequency:    4.0916486785
  - # 8
    frequency:    4.9955048248
  - # 9
    frequency:    5.7092721840
  - # 10
    frequency:    5.8159967646
  - # 11
    frequency:    7.4310030460
  - # 12
    frequency:   10.4029024889
  - # 13
    frequency:   10.6795118982
  - # 14
    frequency:   12.7127933580
  - # 15
    frequency:   16.5067843232

- q-position: [    0.1111111,    0.0000000,    0.0000000 ]
  distance:    0.0363912
  band:
  - # 1
    frequency:    0.5751949192
  - # 2
    frequency:    1.2428060965
  - # 3
    frequency:    2.2276816858
  - # 4
    frequency:    2.3624314460
  - # 5
    frequency:    2.8726152400
  - # 6
    frequency:    3.5356976682
  - # 7
    frequency:    4.0994411153
  - # 8
    frequency:    5.0590604199
  - # 9
    frequency:    5.7029384497
  - # 10
    frequency:    5.8154090451
  - # 11
    frequency:    7.4424362432
  - # 12
    frequency:   10.3884575799
  - # 13
    frequency:   10.6470242382
  - # 14
    frequency:   12.8660253131
  - # 15
    frequency:   16.4518714326

- q-position: [    0.1161616,    0.0000000,    0.0000000 ]
  distance:    0.0380454
  band:
  - # 1
    frequency:    0.6339911618
  - # 2
    frequency:    1.2943234869
  - # 3
    frequency:    2.3087142827
  - # 4
    frequency:    2.3761081439
  - # 5
    frequency:    2.9176352615
  - # 6
    frequency:    3.5265073865
  - # 7
    frequency:    4.1075533804
  - # 8
    frequency:    5.1218355815
  - # 9
    frequency:    5.6978623406
  - # 10
    frequency:    5.8148002061
  - # 11
    frequency:    7.4545962273
  - # 12
    frequency:   10.3737679823
  - # 13
    frequency:   10.6129831992
  - # 14
    frequency:   13.0208290886
  - # 15
    frequency:   16.3952152104

- q-position: [    0.1212121,    0.0000000,    0.0000000 ]
  distance:    0.0396995
  band:
  - # 1
    frequency:    0.6931364559
  - # 2
    frequency:    1.3452296972
  - # 3
    frequency:    2.3875248070
  - # 4
    frequency:    2.3901499268
  - # 5
    frequency:    2.9626186763
  - # 6
    frequency:    3.5177950370
  - # 7
    frequency:    4.1159820527
  - # 8
    frequency:    5.1830970981
  - # 9
    frequency:    5.6946486610
  - # 10
    frequency:    5.8141682550
  - # 11
    frequency:    7.4675345266
  - # 12
    frequency:   10.3588846748
  - # 13
    frequency:   10.5775162906
  - # 14
    frequency:   13.1765886891
  - # 15
    frequency:   16.3369327446

- q-position: [    0.1262626,    0.0000000,    0.0000000 ]
  distance:    0.0413537
  band:
  - # 1
    frequency:    0.7526387379
  - # 2
    frequency:    1.3955085067
  - # 3
    frequency:    2.4045317007
  - # 4
    frequency:    2.4641151969
  - # 5
    frequency:    3.0074308198
  - # 6
    frequency:    3.5095930636
  - # 7
    frequency:    4.1247240204
  - # 8
    frequency:    5.2418377933
  - # 9
    frequency:    5.6941689430
  - # 10
    frequency:    5.8135107582
  - # 11
    frequency:    7.4813090123
  - # 12
    frequency:   10.3438592250
  - # 13
    frequency:   10.5407375240
  - # 14
    frequency:   13.3327147492
  - # 15
    frequency:   16.2771510473

- q-position: [    0.1313131,    0.0000000,    0.0000000 ]
  distance:    0.0430078
  band:
  - # 1
    frequency:    0.8124898040
  - # 2
    frequency:    1.4451447362
  - # 3
    frequency:    2.4192283988
  - # 4
    frequency:    2.5384956739
  - # 5
    frequency:    3.0519250927
  - # 6
    frequency:    3.5019534510
  - # 7
    frequency:    4.1337765168
  - # 8
    frequency:    5.2966739984
  - # 9
    frequency:    5.6976642385
  - # 10
    frequency:    5.8128248690
  - # 11
    frequency:    7.4959837769
  - # 12
    frequency:   10.3287435609
  - # 13
    frequency:   10.5027514884
  - # 14
    frequency:   13.4886386145
  - # 15
    frequency:   16.2160097161

- q-position: [    0.1363636,    0.0000000,    0.0000000 ]
  distance:    0.0446620
  band:
  - # 1
    frequency:    0.8726715288
  - # 2
    frequency:    1.4941242352
  - # 3
    frequency:    2.4342150508
  - # 4
    frequency:    2.6106834771
  - # 5
    frequency:    3.0959327325
  - # 6
    frequency:    3.4949576965
  - # 7
    frequency:    4.1431371522
  - # 8
    frequency:    5.3457990938
  - # 9
    frequency:    5.7067921746
  - # 10
    frequency:    5.8121073676
  - # 11
    frequency:    7.5116287707
  - # 12
    frequency:   10.3135897335
  - # 13
    frequency:   10.4636562705
  - # 14
    frequency:   13.6438059288
  - # 15
    frequency:   16.1536649944

- q-position: [    0.1414141,    0.0000000,    0.0000000 ]
  distance:    0.0463161
  band:
  - # 1
    frequency:    0.9331596404
  - # 2
    frequency:    1.5424338651
  - # 3
    frequency:    2.4494668459
  - # 4
    frequency:    2.6807012712
  - # 5
    frequency:    3.1392457052
  - # 6
    frequency:    3.4887340117
  - # 7
    frequency:    4.1528039404
  - # 8
    frequency:    5.3871858172
  - # 9
    frequency:    5.7234256117
  - # 10
    frequency:    5.8113547132
  - # 11
    frequency:    7.5283191327
  - # 12
    frequency:   10.2984496728
  - # 13
    frequency:   10.4235455891
  - # 14
    frequency:   13.7976685382
  - # 15
    frequency:   16.0902960913

- q-position: [    0.1464646,    0.0000000,    0.0000000 ]
  distance:    0.0479703
  band:
  - # 1
    frequency:    0.9939260517
  - # 2
    frequency:    1.5900614763
  - # 3
    frequency:    2.4649591911
  - # 4
    frequency:    2.7485751390
  - # 5
    frequency:    3.1815866390
  - # 6
    frequency:    3.4834879378
  - # 7
    frequency:    4.1627753194
  - # 8
    frequency:    5.4192559931
  - # 9
    frequency:    5.7489842848
  - # 10
    frequency:    5.8105631080
  - # 11
    frequency:    7.5461341477
  - # 12
    frequency:   10.2833749363
  - # 13
    frequency:   10.3825103925
  - # 14
    frequency:   13.9496729911
  - # 15
    frequency:   16.0261152720

- q-position: [    0.1515152,    0.0000000,    0.0000000 ]
  distance:    0.0496244
  band:
  - # 1
    frequency:    1.0549403120
  - # 2
    frequency:    1.6369958808
  - # 3
    frequency:    2.4806677639
  - # 4
    frequency:    2.8143319862
  - # 5
    frequency:    3.2225541591
  - # 6
    frequency:    3.4795582157
  - # 7
    frequency:    4.1730501665
  - # 8
    frequency:    5.4417576759
  - # 9
    frequency:    5.7835594733
  - # 10
    frequency:    5.8097285715
  - # 11
    frequency:    7.5651557581
  - # 12
    frequency:   10.2684164545
  - # 13
    frequency:   10.3406400873
  - # 14
    frequency:   14.0992427559
  - # 15
    frequency:   15.9613844624

- q-position: [    0.1565657,    0.0000000,    0.0000000 ]
  distance:    0.0512785
  band:
  - # 1
    frequency:    1.1161705068
  - # 2
    frequency:    1.6832268206
  - # 3
    frequency:    2.4965685594
  - # 4
    frequency:    2.8779960115
  - # 5
    frequency:    3.2615233604
  - # 6
    frequency:    3.4775185353
  - # 7
    frequency:    4.1836278056
  - # 8
    frequency:    5.4559600840
  - # 9
    frequency:    5.8088470259
  - # 10
    frequency:    5.8257213480
  - # 11
    frequency:    7.5854665639
  - # 12
    frequency:   10.2536242724
  - # 13
    frequency:   10.2980235185
  - # 14
    frequency:   14.2457488606
  - # 15
    frequency:   15.8964435822

- q-position: [    0.1616162,    0.0000000,    0.0000000 ]
  distance:    0.0529327
  band:
  - # 1
    frequency:    1.1775838051
  - # 2
    frequency:    1.7287449324
  - # 3
    frequency:    2.5126379329
  - # 4
    frequency:    2.9395835440
  - # 5
    frequency:    3.2974799857
  - # 6
    frequency:    3.4783473162
  - # 7
    frequency:    4.1945080076
  - # 8
    frequency:    5.4639062454
  - # 9
    frequency:    5.8079143889
  - # 10
    frequency:    5.8732690923
  - # 11
    frequency:    7.6071472616
  - # 12
    frequency:   10.2390472909
  - # 13
    frequency:   10.2547497844
  - # 14
    frequency:   14.3884585508
  - # 15
    frequency:   15.8317609557

- q-position: [    0.1666667,    0.0000000,    0.0000000 ]
  distance:    0.0545868
  band:
  - # 1
    frequency:    1.2391467757
  - # 2
    frequency:    1.7735417086
  - # 3
    frequency:    2.5288526370
  - # 4
    frequency:    2.9990947873
  - # 5
    frequency:    3.3288410824
  - # 6
    frequency:    3.4836142160
  - # 7
    frequency:    4.2056909825
  - # 8
    frequency:    5.4675652981
  - # 9
    frequency:    5.8069266740
  - # 10
    frequency:    5.9240818396
  - # 11
    frequency:    7.6302734964
  - # 12
    frequency:   10.2109089508
  - # 13
    frequency:   10.2247330090
  - # 14
    frequency:   14.5264403875
  - # 15
    frequency:   15.7680273475

- q-position: [    0.1717172,    0.0000000,    0.0000000 ]
  distance:    0.0562410
  band:
  - # 1
    frequency:    1.3008255548
  - # 2
    frequency:    1.8176094561
  - # 3
    frequency:    2.5451898542
  - # 4
    frequency:    3.0564992574
  - # 5
    frequency:    3.3536470284
  - # 6
    frequency:    3.4953017043
  - # 7
    frequency:    4.2171773637
  - # 8
    frequency:    5.4684653469
  - # 9
    frequency:    5.8058800959
  - # 10
    frequency:    5.9764894775
  - # 11
    frequency:    7.6549121509
  - # 12
    frequency:   10.1665927132
  - # 13
    frequency:   10.2107272700
  - # 14
    frequency:   14.6583789883
  - # 15
    frequency:   15.7063404000

- q-position: [    0.1767677,    0.0000000,    0.0000000 ]
  distance:    0.0578951
  band:
  - # 1
    frequency:    1.3625859138
  - # 2
    frequency:    1.8609412523
  - # 3
    frequency:    2.5616272252
  - # 4
    frequency:    3.1117073580
  - # 5
    frequency:    3.3707938855
  - # 6
    frequency:    3.5146002998
  - # 7
    frequency:    4.2289681835
  - # 8
    frequency:    5.4676896967
  - # 9
    frequency:    5.8047711783
  - # 10
    frequency:    6.0292803880
  - # 11
    frequency:    7.6811171430
  - # 12
    frequency:   10.1218950489
  - # 13
    frequency:   10.1970740132
  - # 14
    frequency:   14.7821960152
  - # 15
    frequency:   15.6485828584

- q-position: [    0.1818182,    0.0000000,    0.0000000 ]
  distance:    0.0595493
  band:
  - # 1
    frequency:    1.4243932629
  - # 2
    frequency:    1.9035309012
  - # 3
    frequency:    2.5781428728
  - # 4
    frequency:    3.1645089369
  - # 5
    frequency:    3.3814042812
  - # 6
    frequency:    3.5405984357
  - # 7
    frequency:    4.2410648395
  - # 8
    frequency:    5.4659878996
  - # 9
    frequency:    5.8035968620
  - # 10
    frequency:    6.0815945193
  - # 11
    frequency:    7.7089248797
  - # 12
    frequency:   10.0769128937
  - # 13
    frequency:   10.1838150349
  - # 14
    frequency:   14.8942651210
  - # 15
    frequency:   15.5982068654

- q-position: [    0.1868687,    0.0000000,    0.0000000 ]
  distance:    0.0612034
  band:
  - # 1
    frequency:    1.4862126143
  - # 2
    frequency:    1.9453728870
  - # 3
    frequency:    2.5947154218
  - # 4
    frequency:    3.2144266042
  - # 5
    frequency:    3.3882174843
  - # 6
    frequency:    3.5710384978
  - # 7
    frequency:    4.2534690532
  - # 8
    frequency:    5.4638834671
  - # 9
    frequency:    5.8023546111
  - # 10
    frequency:    6.1328196975
  - # 11
    frequency:    7.7383495761
  - # 12
    frequency:   10.0317468792
  - # 13
    frequency:   10.1709897602
  - # 14
    frequency:   14.9879691201
  - # 15
    frequency:   15.5616760557

- q-position: [    0.1919192,    0.0000000,    0.0000000 ]
  distance:    0.0628576
  band:
  - # 1
    frequency:    1.5480085200
  - # 2
    frequency:    1.9864623297
  - # 3
    frequency:    2.6113240155
  - # 4
    frequency:    3.2603403960
  - # 5
    frequency:    3.3943978401
  - # 6
    frequency:    3.6038832881
  - # 7
    frequency:    4.2661828187
  - # 8
    frequency:    5.4617512871
  - # 9
    frequency:    5.8010425138
  - # 10
    frequency:    6.1825178505
  - # 11
    frequency:    7.7693787063
  - # 12
    frequency:    9.9865021650
  - # 13
    frequency:   10.1586350285
  - # 14
    frequency:   15.0525306389
  - # 15
    frequency:   15.5496341954

- q-position: [    0.1969697,    0.0000000,    0.0000000 ]
  distance:    0.0645117
  band:
  - # 1
    frequency:    1.6097449969
  - # 2
    frequency:    2.0267949408
  - # 3
    frequency:    2.6279483288
  - # 4
    frequency:    3.2996201388
  - # 5
    frequency:    3.4039081144
  - # 6
    frequency:    3.6378099958
  - # 7
    frequency:    4.2792083438
  - # 8
    frequency:    5.4598681414
  - # 9
    frequency:    5.7996593760
  - # 10
    frequency:    6.2303774237
  - # 11
    frequency:    7.8019688813
  - # 12
    frequency:    9.9412894025
  - # 13
    frequency:   10.1467848957
  - # 14
    frequency:   15.0776405563
  - # 15
    frequency:   15.5722760545

- q-position: [    0.2020202,    0.0000000,    0.0000000 ]
  distance:    0.0661659
  band:
  - # 1
    frequency:    1.6713854459
  - # 2
    frequency:    2.0663669802
  - # 3
    frequency:    2.6445685785
  - # 4
    frequency:    3.3276405099
  - # 5
    frequency:    3.4221628072
  - # 6
    frequency:    3.6720416141
  - # 7
    frequency:    4.2925479820
  - # 8
    frequency:    5.4584446673
  - # 9
    frequency:    5.7982048043
  - # 10
    frequency:    6.2761833394
  - # 11
    frequency:    7.8360424334
  - # 12
    frequency:    9.8962258724
  - # 13
    frequency:   10.1354704554
  - # 14
    frequency:   15.0650561558
  - # 15
    frequency:   15.6277485924

- q-position: [    0.2070707,    0.0000000,    0.0000000 ]
  distance:    0.0678200
  band:
  - # 1
    frequency:    1.7328925738
  - # 2
    frequency:    2.1051752169
  - # 3
    frequency:    2.6611655304
  - # 4
    frequency:    3.3424625511
  - # 5
    frequency:    3.4515696462
  - # 6
    frequency:    3.7061238177
  - # 7
    frequency:    4.3062041576
  - # 8
    frequency:    5.4576454902
  - # 9
    frequency:    5.7966792763
  - # 10
    frequency:    6.3197975256
  - # 11
    frequency:    7.8714849239
  - # 12
    frequency:    9.8514368395
  - # 13
    frequency:   10.1247196811
  - # 14
    frequency:   15.0271844891
  - # 15
    frequency:   15.7035669558

- q-position: [    0.2121212,    0.0000000,    0.0000000 ]
  distance:    0.0694742
  band:
  - # 1
    frequency:    1.7942283193