nqpoint: 300    
npath: 3      
segment_nqpoint:
- 100
- 100
- 100
labels:
- [ 'G', 'M' ]
- [ 'M', 'K' ]
- [ 'K', 'G' ]
reciprocal_lattice:
- [   0.29027061,   0.16758781,   0.00000000 ] # a*
- [   0.00000000,   0.33517563,   0.00000000 ] # b*
- [   0.00000000,   0.00000000,   0.03877767 ] # c*
natom: 6      
lattice:
- [     3.445061187632320,     0.000000000000000,     0.000000000000000 ] # a
- [    -1.722530593816160,     2.983510506078785,     0.000000000000000 ] # b
- [     0.000000000000000,     0.000000000000000,    25.788038155800916 ] # c
points:
- symbol: Br # 1
  coordinates: [  0.666666984744047,  0.333332985985145,  0.348999018290016 ]
  mass: 79.904000
- symbol: C # 2
  coordinates: [  0.000000000000000,  0.000000000000000,  0.469137321282873 ]
  mass: 12.010700
- symbol: O # 3
  coordinates: [  0.333332985432215,  0.666666983183674,  0.651000981709984 ]
  mass: 15.999400
- symbol: P # 4
  coordinates: [  0.333332985432215,  0.666666983183674,  0.593007945972266 ]
  mass: 30.973762
- symbol: Sc # 5
  coordinates: [  0.333332985432215,  0.666666983183674,  0.421242125271091 ]
  mass: 44.955912
- symbol: Sc # 6
  coordinates: [  0.666666984744047,  0.333332985985145,  0.515336989454961 ]
  mass: 44.955912

phonon:
- q-position: [    0.0000000,    0.0000000,    0.0000000 ]
  distance:    0.0000000
  band:
  - # 1
    frequency:   -0.0000078995
  - # 2
    frequency:   -0.0000002965
  - # 3
    frequency:    0.0000073241
  - # 4
    frequency:    1.6867413831
  - # 5
    frequency:    1.6867413831
  - # 6
    frequency:    3.6060837835
  - # 7
    frequency:    3.6060837835
  - # 8
    frequency:    4.1469401028
  - # 9
    frequency:    4.8315441994
  - # 10
    frequency:    4.8315441994
  - # 11
    frequency:    6.0540747225
  - # 12
    frequency:    6.0540747225
  - # 13
    frequency:    6.6736011333
  - # 14
    frequency:   10.6072606108
  - # 15
    frequency:   11.6191505164
  - # 16
    frequency:   11.6191505165
  - # 17
    frequency:   16.1167080467
  - # 18
    frequency:   33.9874542872

- q-position: [    0.0050505,    0.0000000,    0.0000000 ]
  distance:    0.0016928
  band:
  - # 1
    frequency:    0.0020904406
  - # 2
    frequency:    0.0712873442
  - # 3
    frequency:    0.1043275148
  - # 4
    frequency:    1.6869697935
  - # 5
    frequency:    1.6887344466
  - # 6
    frequency:    3.6064593473
  - # 7
    frequency:    3.6067786244
  - # 8
    frequency:    4.1474231091
  - # 9
    frequency:    4.8313057992
  - # 10
    frequency:    4.8313410535
  - # 11
    frequency:    6.0524368402
  - # 12
    frequency:    6.0543453138
  - # 13
    frequency:    6.6757626622
  - # 14
    frequency:   10.6064388342
  - # 15
    frequency:   11.6192854623
  - # 16
    frequency:   11.6215699907
  - # 17
    frequency:   16.1158384796
  - # 18
    frequency:   33.9872563773

- q-position: [    0.0101010,    0.0000000,    0.0000000 ]
  distance:    0.0033856
  band:
  - # 1
    frequency:    0.0083322920
  - # 2
    frequency:    0.1424947236
  - # 3
    frequency:    0.2084982733
  - # 4
    frequency:    1.6876508336
  - # 5
    frequency:    1.6946830500
  - # 6
    frequency:    3.6075869673
  - # 7
    frequency:    3.6088461214
  - # 8
    frequency:    4.1488855577
  - # 9
    frequency:    4.8305914455
  - # 10
    frequency:    4.8307321754
  - # 11
    frequency:    6.0476029559
  - # 12
    frequency:    6.0551566010
  - # 13
    frequency:    6.6821664529
  - # 14
    frequency:   10.6039868315
  - # 15
    frequency:   11.6196894591
  - # 16
    frequency:   11.6288072111
  - # 17
    frequency:   16.1132321330
  - # 18
    frequency:   33.9866628777

- q-position: [    0.0151515,    0.0000000,    0.0000000 ]
  distance:    0.0050784
  band:
  - # 1
    frequency:    0.0186390129
  - # 2
    frequency:    0.2135419292
  - # 3
    frequency:    0.3123528981
  - # 4
    frequency:    1.6887720144
  - # 5
    frequency:    1.7044979514
  - # 6
    frequency:    3.6094694102
  - # 7
    frequency:    3.6122353396
  - # 8
    frequency:    4.1513675909
  - # 9
    frequency:    4.8294037478
  - # 10
    frequency:    4.8297192422
  - # 11
    frequency:    6.0397984282
  - # 12
    frequency:    6.0565071196
  - # 13
    frequency:    6.6925840331
  - # 14
    frequency:   10.5999432396
  - # 15
    frequency:   11.6203599943
  - # 16
    frequency:   11.6407999778
  - # 17
    frequency:   16.1088960663
  - # 18
    frequency:   33.9856744789

- q-position: [    0.0202020,    0.0000000,    0.0000000 ]
  distance:    0.0067712
  band:
  - # 1
    frequency:    0.0328731618
  - # 2
    frequency:    0.2843482388
  - # 3
    frequency:    0.4157266094
  - # 4
    frequency:    1.6903128046
  - # 5
    frequency:    1.7180384794
  - # 6
    frequency:    3.6121112248
  - # 7
    frequency:    3.6168619122
  - # 8
    frequency:    4.1549355686
  - # 9
    frequency:    4.8277472893
  - # 10
    frequency:    4.8283050423
  - # 11
    frequency:    6.0293577850
  - # 12
    frequency:    6.0583944136
  - # 13
    frequency:    6.7066756473
  - # 14
    frequency:   10.5943682411
  - # 15
    frequency:   11.6212929091
  - # 16
    frequency:   11.6574490472
  - # 17
    frequency:   16.1028420295
  - # 18
    frequency:   33.9842923309

- q-position: [    0.0252525,    0.0000000,    0.0000000 ]
  distance:    0.0084640
  band:
  - # 1
    frequency:    0.0508553718
  - # 2
    frequency:    0.3548321000
  - # 3
    frequency:    0.5184461085
  - # 4
    frequency:    1.6922450651
  - # 5
    frequency:    1.7351235689
  - # 6
    frequency:    3.6155186467
  - # 7
    frequency:    3.6226089989
  - # 8
    frequency:    4.1596810593
  - # 9
    frequency:    4.8256289840
  - # 10
    frequency:    4.8264934657
  - # 11
    frequency:    6.0166784429
  - # 12
    frequency:    6.0608150133
  - # 13
    frequency:    6.7240364844
  - # 14
    frequency:   10.5873380850
  - # 15
    frequency:   11.6224824424
  - # 16
    frequency:   11.6786239213
  - # 17
    frequency:   16.0950864412
  - # 18
    frequency:   33.9825180415

- q-position: [    0.0303030,    0.0000000,    0.0000000 ]
  distance:    0.0101568
  band:
  - # 1
    frequency:    0.0723750158
  - # 2
    frequency:    0.4249107313
  - # 3
    frequency:    0.6203259371
  - # 4
    frequency:    1.6945336766
  - # 5
    frequency:    1.7555454038
  - # 6
    frequency:    3.6196994658
  - # 7
    frequency:    3.6293289603
  - # 8
    frequency:    4.1657190501
  - # 9
    frequency:    4.8230585940
  - # 10
    frequency:    4.8242894914
  - # 11
    frequency:    6.0021773496
  - # 12
    frequency:    6.0637644066
  - # 13
    frequency:    6.7442399753
  - # 14
    frequency:   10.5789388282
  - # 15
    frequency:   11.6239212897
  - # 16
    frequency:   11.7041695306
  - # 17
    frequency:   16.0856503580
  - # 18
    frequency:   33.9803536751

- q-position: [    0.0353535,    0.0000000,    0.0000000 ]
  distance:    0.0118496
  band:
  - # 1
    frequency:    0.0972012028
  - # 2
    frequency:    0.4944996033
  - # 3
    frequency:    0.7211640953
  - # 4
    frequency:    1.6971373844
  - # 5
    frequency:    1.7790844633
  - # 6
    frequency:    3.6246628542
  - # 7
    frequency:    3.6368460572
  - # 8
    frequency:    4.1731850201
  - # 9
    frequency:    4.8200494284
  - # 10
    frequency:    4.8216991723
  - # 11
    frequency:    5.9862582649
  - # 12
    frequency:    6.0672370049
  - # 13
    frequency:    6.7668704544
  - # 14
    frequency:   10.5692602117
  - # 15
    frequency:   11.6256006778
  - # 16
    frequency:   11.7339128884
  - # 17
    frequency:   16.0745594386
  - # 18
    frequency:   33.9778017494

- q-position: [    0.0404040,    0.0000000,    0.0000000 ]
  distance:    0.0135424
  band:
  - # 1
    frequency:    0.1250929914
  - # 2
    frequency:    0.5635117426
  - # 3
    frequency:    0.8207366810
  - # 4
    frequency:    1.7000098982
  - # 5
    frequency:    1.8055250234
  - # 6
    frequency:    3.6304191541
  - # 7
    frequency:    3.6449605076
  - # 8
    frequency:    4.1822304770
  - # 9
    frequency:    4.8166192606
  - # 10
    frequency:    4.8187296193
  - # 11
    frequency:    5.9692915489
  - # 12
    frequency:    6.0712261053
  - # 13
    frequency:    6.7915433302
  - # 14
    frequency:   10.5583903679
  - # 15
    frequency:   11.6275104525
  - # 16
    frequency:   11.7676690069
  - # 17
    frequency:   16.0618439027
  - # 18
    frequency:   33.9748652334

- q-position: [    0.0454545,    0.0000000,    0.0000000 ]
  distance:    0.0152353
  band:
  - # 1
    frequency:    0.1558080711
  - # 2
    frequency:    0.6318567845
  - # 3
    frequency:    0.9187913120
  - # 4
    frequency:    1.7031013074
  - # 5
    frequency:    1.8346705355
  - # 6
    frequency:    3.6369796271
  - # 7
    frequency:    3.6534541772
  - # 8
    frequency:    4.1930165892
  - # 9
    frequency:    4.8127915260
  - # 10
    frequency:    4.8153889858
  - # 11
    frequency:    5.9516045447
  - # 12
    frequency:    6.0757238523
  - # 13
    frequency:    6.8179146930
  - # 14
    frequency:   10.5464117582
  - # 15
    frequency:   11.6296391781
  - # 16
    frequency:   11.8052456623
  - # 17
    frequency:   16.0475384880
  - # 18
    frequency:   33.9715475429

- q-position: [    0.0505051,    0.0000000,    0.0000000 ]
  distance:    0.0169281
  band:
  - # 1
    frequency:    0.1891095447
  - # 2
    frequency:    0.6994396653
  - # 3
    frequency:    1.0150391578
  - # 4
    frequency:    1.7063599022
  - # 5
    frequency:    1.8663586319
  - # 6
    frequency:    3.6443561614
  - # 7
    frequency:    3.6620980101
  - # 8
    frequency:    4.2057056778
  - # 9
    frequency:    4.8085968964
  - # 10
    frequency:    4.8116864541
  - # 11
    frequency:    5.9334793214
  - # 12
    frequency:    6.0807212009
  - # 13
    frequency:    6.8456836095
  - # 14
    frequency:   10.5333984564
  - # 15
    frequency:   11.6319742473
  - # 16
    frequency:   11.8464468805
  - # 17
    frequency:   16.0316824086
  - # 18
    frequency:   33.9678525370

- q-position: [    0.0555556,    0.0000000,    0.0000000 ]
  distance:    0.0186209
  band:
  - # 1
    frequency:    0.2247707717
  - # 2
    frequency:    0.7661587946
  - # 3
    frequency:    1.1091456095
  - # 4
    frequency:    1.7097345427
  - # 5
    frequency:    1.9004756354
  - # 6
    frequency:    3.6525609399
  - # 7
    frequency:    3.6706609958
  - # 8
    frequency:    4.2204505888
  - # 9
    frequency:    4.8040753881
  - # 10
    frequency:    4.8076322267
  - # 11
    frequency:    5.9151547623
  - # 12
    frequency:    6.0862078836
  - # 13
    frequency:    6.8745901323
  - # 14
    frequency:   10.5194146790
  - # 15
    frequency:   11.6345019980
  - # 16
    frequency:   11.8910752228
  - # 17
    frequency:   16.0143193166
  - # 18
    frequency:   33.9637845129

- q-position: [    0.0606061,    0.0000000,    0.0000000 ]
  distance:    0.0203137
  band:
  - # 1
    frequency:    0.2625784450
  - # 2
    frequency:    0.8319034780
  - # 3
    frequency:    1.2007201004
  - # 4
    frequency:    1.7131777895
  - # 5
    frequency:    1.9369701871
  - # 6
    frequency:    3.6616060678
  - # 7
    frequency:    3.6789200681
  - # 8
    frequency:    4.2373822798
  - # 9
    frequency:    4.7992792489
  - # 10
    frequency:    4.8032375247
  - # 11
    frequency:    5.8968307992
  - # 12
    frequency:    6.0921723839
  - # 13
    frequency:    6.9044112392
  - # 14
    frequency:   10.5045143453
  - # 15
    frequency:   11.6372078370
  - # 16
    frequency:   11.9389330742
  - # 17
    frequency:   15.9954972729
  - # 18
    frequency:   33.9593482008

- q-position: [    0.0656566,    0.0000000,    0.0000000 ]
  distance:    0.0220065
  band:
  - # 1
    frequency:    0.3023341970
  - # 2
    frequency:    0.8965502412
  - # 3
    frequency:    1.2893065483
  - # 4
    frequency:    1.7166501239
  - # 5
    frequency:    1.9758647747
  - # 6
    frequency:    3.6715031619
  - # 7
    frequency:    3.6866699295
  - # 8
    frequency:    4.2565962165
  - # 9
    frequency:    4.7942770189
  - # 10
    frequency:    4.7985145965
  - # 11
    frequency:    5.8786734079
  - # 12
    frequency:    6.0986019182
  - # 13
    frequency:    6.9349560952
  - # 14
    frequency:   10.4887414066
  - # 15
    frequency:   11.6400763664
  - # 16
    frequency:   11.9898231750
  - # 17
    frequency:   15.9752687314
  - # 18
    frequency:   33.9545487577

- q-position: [    0.0707071,    0.0000000,    0.0000000 ]
  distance:    0.0236993
  band:
  - # 1
    frequency:    0.3438550594
  - # 2
    frequency:    0.9599575353
  - # 3
    frequency:    1.3743775283
  - # 4
    frequency:    1.7201257601
  - # 5
    frequency:    2.0172623353
  - # 6
    frequency:    3.6822629012
  - # 7
    frequency:    3.6937315583
  - # 8
    frequency:    4.2781381863
  - # 9
    frequency:    4.7891593947
  - # 10
    frequency:    4.7934767400
  - # 11
    frequency:    5.8608196074
  - # 12
    frequency:    6.1054824293
  - # 13
    frequency:    6.9660614027
  - # 14
    frequency:   10.4721306930
  - # 15
    frequency:   11.6430915116
  - # 16
    frequency:   12.0435486293
  - # 17
    frequency:   15.9536905426
  - # 18
    frequency:   33.9493917607

- q-position: [    0.0757576,    0.0000000,    0.0000000 ]
  distance:    0.0253921
  band:
  - # 1
    frequency:    0.3869730864
  - # 2
    frequency:    1.0219580422
  - # 3
    frequency:    1.4553375578
  - # 4
    frequency:    1.7236008114
  - # 5
    frequency:    2.0613428260
  - # 6
    frequency:    3.6938945434
  - # 7
    frequency:    3.6999582107
  - # 8
    frequency:    4.3019896972
  - # 9
    frequency:    4.7840479173
  - # 10
    frequency:    4.7881383443
  - # 11
    frequency:    5.8433821018
  - # 12
    frequency:    6.1127985916
  - # 13
    frequency:    6.9975872059
  - # 14
    frequency:   10.4547090678
  - # 15
    frequency:   11.6462366485
  - # 16
    frequency:   12.0999125818
  - # 17
    frequency:   15.9308239836
  - # 18
    frequency:   33.9438831999

- q-position: [    0.0808081,    0.0000000,    0.0000000 ]
  distance:    0.0270849
  band:
  - # 1
    frequency:    0.4315344021
  - # 2
    frequency:    1.0823474099
  - # 3
    frequency:    1.5315428831
  - # 4
    frequency:    1.7271049568
  - # 5
    frequency:    2.1083425915
  - # 6
    frequency:    3.7052381354
  - # 7
    frequency:    3.7064054073
  - # 8
    frequency:    4.3280521031
  - # 9
    frequency:    4.7791081385
  - # 10
    frequency:    4.7825149530
  - # 11
    frequency:    5.8264534398
  - # 12
    frequency:    6.1205338305
  - # 13
    frequency:    7.0294132739
  - # 14
    frequency:   10.4364967270
  - # 15
    frequency:   11.6494947284
  - # 16
    frequency:   12.1587177065
  - # 17
    frequency:   15.9067348229
  - # 18
    frequency:   33.9380294699

- q-position: [    0.0858586,    0.0000000,    0.0000000 ]
  distance:    0.0287777
  band:
  - # 1
    frequency:    0.4773978737
  - # 2
    frequency:    1.1408677265
  - # 3
    frequency:    1.6023444939
  - # 4
    frequency:    1.7307182780
  - # 5
    frequency:    2.1585099704
  - # 6
    frequency:    3.7094938463
  - # 7
    frequency:    3.7198003264
  - # 8
    frequency:    4.3561269636
  - # 9
    frequency:    4.7745699389
  - # 10
    frequency:    4.7766233576
  - # 11
    frequency:    5.8101096830
  - # 12
    frequency:    6.1286703573
  - # 13
    frequency:    7.0614360676
  - # 14
    frequency:   10.4175085268
  - # 15
    frequency:   11.6528483971
  - # 16
    frequency:   12.2197656050
  - # 17
    frequency:   15.8814934299
  - # 18
    frequency:   33.9318373613

- q-position: [    0.0909091,    0.0000000,    0.0000000 ]
  distance:    0.0304705
  band:
  - # 1
    frequency:    0.5244335558
  - # 2
    frequency:    1.1971834593
  - # 3
    frequency:    1.6671542076
  - # 4
    frequency:    1.7345955149
  - # 5
    frequency:    2.2120373986
  - # 6
    frequency:    3.7126784594
  - # 7
    frequency:    3.7340810752
  - # 8
    frequency:    4.3858880130
  - # 9
    frequency:    4.7704817247
  - # 10
    frequency:    4.7707591517
  - # 11
    frequency:    5.7944136334
  - # 12
    frequency:    6.1371892193
  - # 13
    frequency:    7.0935662376
  - # 14
    frequency:   10.3977552655
  - # 15
    frequency:   11.6562801094
  - # 16
    frequency:   12.2828561680
  - # 17
    frequency:   15.8551749397
  - # 18
    frequency:   33.9253140514

- q-position: [    0.0959596,    0.0000000,    0.0000000 ]
  distance:    0.0321633
  band:
  - # 1
    frequency:    0.5725209952
  - # 2
    frequency:    1.2508473591
  - # 3
    frequency:    1.7255196368
  - # 4
    frequency:    1.7390002106
  - # 5
    frequency:    2.2689842492
  - # 6
    frequency:    3.7147700648
  - # 7
    frequency:    3.7492457717
  - # 8
    frequency:    4.4168380236
  - # 9
    frequency:    4.7641097663
  - # 10
    frequency:    4.7681462846
  - # 11
    frequency:    5.7794176880
  - # 12
    frequency:    6.1460703651
  - # 13
    frequency:    7.1257265787
  - # 14
    frequency:   10.3772448732
  - # 15
    frequency:   11.6597722342
  - # 16
    frequency:   12.3477869279
  - # 17
    frequency:   15.8278594874
  - # 18
    frequency:   33.9184670939

- q-position: [    0.1010101,    0.0000000,    0.0000000 ]
  distance:    0.0338561
  band:
  - # 1
    frequency:    0.6215474401
  - # 2
    frequency:    1.3012553504
  - # 3
    frequency:    1.7443496935
  - # 4
    frequency:    1.7771801376
  - # 5
    frequency:    2.3292183102
  - # 6
    frequency:    3.7157652805
  - # 7
    frequency:    3.7652882592
  - # 8
    frequency:    4.4482440228
  - # 9
    frequency:    4.7575289602
  - # 10
    frequency:    4.7674177870
  - # 11
    frequency:    5.7651663933
  - # 12
    frequency:    6.1552927268
  - # 13
    frequency:    7.1578503662
  - # 14
    frequency:   10.3559834883
  - # 15
    frequency:   11.6633071514
  - # 16
    frequency:   12.4143524014
  - # 17
    frequency:   15.7996325271
  - # 18
    frequency:   33.9113044080

- q-position: [    0.1060606,    0.0000000,    0.0000000 ]
  distance:    0.0355489
  band:
  - # 1
    frequency:    0.6714059497
  - # 2
    frequency:    1.3475962456
  - # 3
    frequency:    1.7512650216
  - # 4
    frequency:    1.8220767176
  - # 5
    frequency:    2.3924028905
  - # 6
    frequency:    3.7156730413
  - # 7
    frequency:    3.7821974675
  - # 8
    frequency:    4.4790546277
  - # 9
    frequency:    4.7507628309
  - # 10
    frequency:    4.7695651097
  - # 11
    frequency:    5.7516987736
  - # 12
    frequency:    6.1648343154
  - # 13
    frequency:    7.1898800053
  - # 14
    frequency:   10.3339764112
  - # 15
    frequency:   11.6668673392
  - # 16
    frequency:   12.4823434110
  - # 17
    frequency:   15.7705852532
  - # 18
    frequency:   33.9038342671

- q-position: [    0.1111111,    0.0000000,    0.0000000 ]
  distance:    0.0372417
  band:
  - # 1
    frequency:    0.7219933581
  - # 2
    frequency:    1.3888207461
  - # 3
    frequency:    1.7606013812
  - # 4
    frequency:    1.8603098233
  - # 5
    frequency:    2.4580355674
  - # 6
    frequency:    3.7145094218
  - # 7
    frequency:    3.7999567532
  - # 8
    frequency:    4.5078434235
  - # 9
    frequency:    4.7438373012
  - # 10
    frequency:    4.7759468897
  - # 11
    frequency:    5.7390505053
  - # 12
    frequency:    6.1746723310
  - # 13
    frequency:    7.2217659337
  - # 14
    frequency:   10.3112289378
  - # 15
    frequency:   11.6704354499
  - # 16
    frequency:   12.5515463580
  - # 17
    frequency:   15.7408151453
  - # 18
    frequency:   33.8960652863

- q-position: [    0.1161616,    0.0000000,    0.0000000 ]
  distance:    0.0389345
  band:
  - # 1
    frequency:    0.7732079840
  - # 2
    frequency:    1.4236876494
  - # 3
    frequency:    1.7734009670
  - # 4
    frequency:    1.8920648181
  - # 5
    frequency:    2.5255186929
  - # 6
    frequency:    3.7122940085
  - # 7
    frequency:    3.8185432158
  - # 8
    frequency:    4.5329101187
  - # 9
    frequency:    4.7367811290
  - # 10
    frequency:    4.7881920749
  - # 11
    frequency:    5.7272560202
  - # 12
    frequency:    6.1847832854
  - # 13
    frequency:    7.2534657285
  - # 14
    frequency:   10.2877470804
  - # 15
    frequency:   11.6739943755
  - # 16
    frequency:   12.6217424162
  - # 17
    frequency:   15.7104266595
  - # 18
    frequency:   33.8880064097

- q-position: [    0.1212121,    0.0000000,    0.0000000 ]
  distance:    0.0406273
  band:
  - # 1
    frequency:    0.8249469031
  - # 2
    frequency:    1.4509649748
  - # 3
    frequency:    1.7906905660
  - # 4
    frequency:    1.9175350244
  - # 5
    frequency:    2.5942317093
  - # 6
    frequency:    3.7090481003
  - # 7
    frequency:    3.8379269808
  - # 8
    frequency:    4.5527169860
  - # 9
    frequency:    4.7296264444
  - # 10
    frequency:    4.8077662377
  - # 11
    frequency:    5.7163506394
  - # 12
    frequency:    6.1951431346
  - # 13
    frequency:    7.2849433760
  - # 14
    frequency:   10.2635381836
  - # 15
    frequency:   11.6775273019
  - # 16
    frequency:   12.6927066098
  - # 17
    frequency:   15.6795320937
  - # 18
    frequency:   33.8796668966

- q-position: [    0.1262626,    0.0000000,    0.0000000 ]
  distance:    0.0423202
  band:
  - # 1
    frequency:    0.8771024685
  - # 2
    frequency:    1.4697838799
  - # 3
    frequency:    1.8131258839
  - # 4
    frequency:    1.9368632281
  - # 5
    frequency:    2.6635843407
  - # 6
    frequency:    3.7047948716
  - # 7
    frequency:    3.8580704401
  - # 8
    frequency:    4.5665558549
  - # 9
    frequency:    4.7224094043
  - # 10
    frequency:    4.8353057017
  - # 11
    frequency:    5.7063728745
  - # 12
    frequency:    6.2057274207
  - # 13
    frequency:    7.3161686718
  - # 14
    frequency:   10.2386114479
  - # 15
    frequency:   11.6810177525
  - # 16
    frequency:   12.7642067355
  - # 17
    frequency:   15.6482526562
  - # 18
    frequency:   33.8710563078

- q-position: [    0.1313131,    0.0000000,    0.0000000 ]
  distance:    0.0440130
  band:
  - # 1
    frequency:    0.9295575464
  - # 2
    frequency:    1.4799416925
  - # 3
    frequency:    1.8406861817
  - # 4
    frequency:    1.9501074085
  - # 5
    frequency:    2.7330449569
  - # 6
    frequency:    3.6995615766
  - # 7
    frequency:    3.8789274303
  - # 8
    frequency:    4.5748505791
  - # 9
    frequency:    4.7151709878
  - # 10
    frequency:    4.8703144578
  - # 11
    frequency:    5.6973670962
  - # 12
    frequency:    6.2165114203
  - # 13
    frequency:    7.3471167244
  - # 14
    frequency:   10.2129783700
  - # 15
    frequency:   11.6844496208
  - # 16
    frequency:   12.8360020886
  - # 17
    frequency:   15.6167197679
  - # 18
    frequency:   33.8621844903

- q-position: [    0.1363636,    0.0000000,    0.0000000 ]
  distance:    0.0457058
  band:
  - # 1
    frequency:    0.9821785326
  - # 2
    frequency:    1.4818882426
  - # 3
    frequency:    1.8726848833
  - # 4
    frequency:    1.9572266163
  - # 5
    frequency:    2.8021484547
  - # 6
    frequency:    3.6933838968
  - # 7
    frequency:    3.9004423258
  - # 8
    frequency:    4.5787671506
  - # 9
    frequency:    4.7079579573
  - # 10
    frequency:    4.9115515255
  - # 11
    frequency:    5.6893868732
  - # 12
    frequency:    6.2274702972
  - # 13
    frequency:    7.3777675398
  - # 14
    frequency:   10.1866531095
  - # 15
    frequency:   11.6878071940
  - # 16
    frequency:   12.9078419552
  - # 17
    frequency:   15.5850766299
  - # 18
    frequency:   33.8530615623

- q-position: [    0.1414141,    0.0000000,    0.0000000 ]
  distance:    0.0473986
  band:
  - # 1
    frequency:    1.0348044429
  - # 2
    frequency:    1.4764124922
  - # 3
    frequency:    1.9080789493
  - # 4
    frequency:    1.9580806104
  - # 5
    frequency:    2.8704907796
  - # 6
    frequency:    3.6863126371
  - # 7
    frequency:    3.9225490181
  - # 8
    frequency:    4.5796098052
  - # 9
    frequency:    4.7008240120
  - # 10
    frequency:    4.9576300730
  - # 11
    frequency:    5.6824994571
  - # 12
    frequency:    6.2385792569
  - # 13
    frequency:    7.4081056697
  - # 14
    frequency:   10.1596527906
  - # 15
    frequency:   11.6910751675
  - # 16
    frequency:   12.9794638351
  - # 17
    frequency:   15.5534800854
  - # 18
    frequency:   33.8436978973

- q-position: [    0.1464646,    0.0000000,    0.0000000 ]
  distance:    0.0490914
  band:
  - # 1
    frequency:    1.0872288151
  - # 2
    frequency:    1.4642997064
  - # 3
    frequency:    1.9458064771
  - # 4
    frequency:    1.9524393991
  - # 5
    frequency:    2.9377157024
  - # 6
    frequency:    3.6784231980
  - # 7
    frequency:    3.9451697457
  - # 8
    frequency:    4.5784833395
  - # 9
    frequency:    4.6938311664
  - # 10
    frequency:    5.0073474457
  - # 11
    frequency:    5.6767921791
  - # 12
    frequency:    6.2498137006
  - # 13
    frequency:    7.4381199096
  - # 14
    frequency:   10.1319977469
  - # 15
    frequency:   11.6942386515
  - # 16
    frequency:   13.0505913726
  - # 17
    frequency:   15.5221027927
  - # 18
    frequency:   33.8341041078

- q-position: [    0.1515152,    0.0000000,    0.0000000 ]
  distance:    0.0507842
  band:
  - # 1
    frequency:    1.1391678381
  - # 2
    frequency:    1.4461383993
  - # 3
    frequency:    1.9400040404
  - # 4
    frequency:    1.9849728641
  - # 5
    frequency:    3.0034966389
  - # 6
    frequency:    3.6698286850
  - # 7
    frequency:    3.9682137400
  - # 8
    frequency:    4.5762263153
  - # 9
    frequency:    4.6870513809
  - # 10
    frequency:    5.0597403195
  - # 11
    frequency:    5.6723820136
  - # 12
    frequency:    6.2611493763
  - # 13
    frequency:    7.4678030318
  - # 14
    frequency:   10.1037117144
  - # 15
    frequency:   11.6972831717
  - # 16
    frequency:   13.1209319928
  - # 17
    frequency:   15.4911357106
  - # 18
    frequency:   33.8242910285

- q-position: [    0.1565657,    0.0000000,    0.0000000 ]
  distance:    0.0524770
  band:
  - # 1
    frequency:    1.1902006084
  - # 2
    frequency:    1.4222671715
  - # 3
    frequency:    1.9204487634
  - # 4
    frequency:    2.0248947772
  - # 5
    frequency:    3.0675133968
  - # 6
    frequency:    3.6606984029
  - # 7
    frequency:    3.9915756576
  - # 8
    frequency:    4.5734563372
  - # 9
    frequency:    4.6805684649
  - # 10
    frequency:    5.1140218895
  - # 11
    frequency:    5.6694303958
  - # 12
    frequency:    6.2725625246
  - # 13
    frequency:    7.4971515459
  - # 14
    frequency:   10.0748219804
  - # 15
    frequency:   11.7001946646
  - # 16
    frequency:   13.1901742746
  - # 17
    frequency:   15.4607908604
  - # 18
    frequency:   33.8142696995

- q-position: [    0.1616162,    0.0000000,    0.0000000 ]
  distance:    0.0541698
  band:
  - # 1
    frequency:    1.2396492955
  - # 2
    frequency:    1.3927874215
  - # 3
    frequency:    1.8935125044
  - # 4
    frequency:    2.0650749651
  - # 5
    frequency:    3.1294206539
  - # 6
    frequency:    3.6512852472
  - # 7
    frequency:    4.0151337872
  - # 8
    frequency:    4.5706317566
  - # 9
    frequency:    4.6744802529
  - # 10
    frequency:    5.1694934981
  - # 11
    frequency:    5.6681667507
  - # 12
    frequency:    6.2840300163
  - # 13
    frequency:    7.5261654750
  - # 14
    frequency:   10.0453594919
  - # 15
    frequency:   11.7029594697
  - # 16
    frequency:   13.2579851539
  - # 17
    frequency:   15.4313042704
  - # 18
    frequency:   33.8040513488

- q-position: [    0.1666667,    0.0000000,    0.0000000 ]
  distance:    0.0558626
  band:
  - # 1
    frequency:    1.2863206297
  - # 2
    frequency:    1.3575889035
  - # 3
    frequency:    1.8592125407
  - # 4
    frequency:    2.1051593923
  - # 5
    frequency:    3.1888007980
  - # 6
    frequency:    3.6419689704
  - # 7
    frequency:    4.0387480660
  - # 8
    frequency:    4.5681001017
  - # 9
    frequency:    4.6689010056
  - # 10
    frequency:    5.2254551131
  - # 11
    frequency:    5.6689262814
  - # 12
    frequency:    6.2955294808
  - # 13
    frequency:    7.5548481410
  - # 14
    frequency:   10.0153589299
  - # 15
    frequency:   11.7055643196
  - # 16
    frequency:   13.3240071395
  - # 17
    frequency:   15.4029389191
  - # 18
    frequency:   33.7936473746

- q-position: [    0.1717172,    0.0000000,    0.0000000 ]
  distance:    0.0575554
  band:
  - # 1
    frequency:    1.3163641106
  - # 2
    frequency:    1.3279081937
  - # 3
    frequency:    1.8183705038
  - # 4
    frequency:    2.1448981894
  - # 5
    frequency:    3.2450872332
  - # 6
    frequency:    3.6333285542
  - # 7
    frequency:    4.0622580165
  - # 8
    frequency:    4.5661305795
  - # 9
    frequency:    4.6639639096
  - # 10
    frequency:    5.2811096901
  - # 11
    frequency:    5.6722099109
  - # 12
    frequency:    6.3070394217
  - # 13
    frequency:    7.5832059485
  - # 14
    frequency:    9.9848587531
  - # 15
    frequency:   11.7079963296
  - # 16
    frequency:   13.3878558654
  - # 17
    frequency:   15.3759873519
  - # 18
    frequency:   33.7830693279

- q-position: [    0.1767677,    0.0000000,    0.0000000 ]
  distance:    0.0592482
  band:
  - # 1
    frequency:    1.2686018833
  - # 2
    frequency:    1.3595702213
  - # 3
    frequency:    1.7739166101
  - # 4
    frequency:    2.1841157139
  - # 5
    frequency:    3.2974358006
  - # 6
    frequency:    3.6262654019
  - # 7
    frequency:    4.0854808584
  - # 8
    frequency:    4.5649346880
  - # 9
    frequency:    4.6598234092
  - # 10
    frequency:    5.3354506421
  - # 11
    frequency:    5.6787733781
  - # 12
    frequency:    6.3185393193
  - # 13
    frequency:    7.6112481620
  - # 14