nqpoint: 300    
npath: 3      
segment_nqpoint:
- 100
- 100
- 100
labels:
- [ 'G', 'M' ]
- [ 'M', 'K' ]
- [ 'K', 'G' ]
reciprocal_lattice:
- [   0.30258679,   0.17469857,   0.00000000 ] # a*
- [   0.00000000,   0.34939713,   0.00000000 ] # b*
- [   0.00000000,   0.00000000,   0.04123125 ] # c*
natom: 6      
lattice:
- [     3.304836902092080,     0.000000000000000,     0.000000000000000 ] # a
- [    -1.652418451046040,     2.862072712563556,     0.000000000000000 ] # b
- [     0.000000000000000,     0.000000000000000,    24.253451332875642 ] # c
points:
- symbol: Cl # 1
  coordinates: [  0.333332985432215,  0.666666983183674,  0.628918792774022 ]
  mass: 35.453000
- symbol: N # 2
  coordinates: [  0.000000000000000,  0.000000000000000,  0.465447470426757 ]
  mass: 14.006700
- symbol: O # 3
  coordinates: [  0.333332985432215,  0.666666983183674,  0.558206411161542 ]
  mass: 15.999400
- symbol: O # 4
  coordinates: [  0.666666984744047,  0.333332985985145,  0.371081207225978 ]
  mass: 15.999400
- symbol: Sc # 5
  coordinates: [  0.333332985432215,  0.666666983183674,  0.399809621963683 ]
  mass: 44.955912
- symbol: Sc # 6
  coordinates: [  0.666666984744047,  0.333332985985145,  0.508154506364336 ]
  mass: 44.955912

phonon:
- q-position: [    0.0000000,    0.0000000,    0.0000000 ]
  distance:    0.0000000
  band:
  - # 1
    frequency:   -1.9832770740
  - # 2
    frequency:   -1.9832770740
  - # 3
    frequency:   -0.0000035337
  - # 4
    frequency:   -0.0000011550
  - # 5
    frequency:    0.0000037114
  - # 6
    frequency:    3.3103845891
  - # 7
    frequency:    3.3103845891
  - # 8
    frequency:    5.6128362764
  - # 9
    frequency:    7.4126834948
  - # 10
    frequency:    7.4126834948
  - # 11
    frequency:    9.8275669486
  - # 12
    frequency:   11.3913643982
  - # 13
    frequency:   11.3913643982
  - # 14
    frequency:   14.0138609541
  - # 15
    frequency:   14.0138609541
  - # 16
    frequency:   14.9340492190
  - # 17
    frequency:   17.5052623661
  - # 18
    frequency:   21.1745574480

- q-position: [    0.0050505,    0.0000000,    0.0000000 ]
  distance:    0.0017646
  band:
  - # 1
    frequency:   -1.9821770580
  - # 2
    frequency:   -1.9794712148
  - # 3
    frequency:   -0.0221593608
  - # 4
    frequency:    0.0711621820
  - # 5
    frequency:    0.1316498991
  - # 6
    frequency:    3.3115336893
  - # 7
    frequency:    3.3138868841
  - # 8
    frequency:    5.6123885664
  - # 9
    frequency:    7.4128365926
  - # 10
    frequency:    7.4149414172
  - # 11
    frequency:    9.8268474003
  - # 12
    frequency:   11.3918424965
  - # 13
    frequency:   11.4000082751
  - # 14
    frequency:   14.0122073244
  - # 15
    frequency:   14.0138066587
  - # 16
    frequency:   14.9345164469
  - # 17
    frequency:   17.5052524716
  - # 18
    frequency:   21.1744317297

- q-position: [    0.0101010,    0.0000000,    0.0000000 ]
  distance:    0.0035293
  band:
  - # 1
    frequency:   -1.9788759487
  - # 2
    frequency:   -1.9680334059
  - # 3
    frequency:   -0.0428445394
  - # 4
    frequency:    0.1423667628
  - # 5
    frequency:    0.2633513143
  - # 6
    frequency:    3.3149748095
  - # 7
    frequency:    3.3243524156
  - # 8
    frequency:    5.6110549175
  - # 9
    frequency:    7.4132951507
  - # 10
    frequency:    7.4216630692
  - # 11
    frequency:    9.8246925450
  - # 12
    frequency:   11.3932716034
  - # 13
    frequency:   11.4258317497
  - # 14
    frequency:   14.0072965539
  - # 15
    frequency:   14.0136428395
  - # 16
    frequency:   14.9358981153
  - # 17
    frequency:   17.5052327261
  - # 18
    frequency:   21.1740550243

- q-position: [    0.0151515,    0.0000000,    0.0000000 ]
  distance:    0.0052939
  band:
  - # 1
    frequency:   -1.9733705393
  - # 2
    frequency:   -1.9489024093
  - # 3
    frequency:   -0.0608796662
  - # 4
    frequency:    0.2136550913
  - # 5
    frequency:    0.3952244250
  - # 6
    frequency:    3.3206895280
  - # 7
    frequency:    3.3416592705
  - # 8
    frequency:    5.6088631190
  - # 9
    frequency:    7.4140569669
  - # 10
    frequency:    7.4326964543
  - # 11
    frequency:    9.8211132686
  - # 12
    frequency:   11.3956362257
  - # 13
    frequency:   11.4685077777
  - # 14
    frequency:   13.9992805139
  - # 15
    frequency:   14.0133667041
  - # 16
    frequency:   14.9381355945
  - # 17
    frequency:   17.5052329839
  - # 18
    frequency:   21.1734286750

- q-position: [    0.0202020,    0.0000000,    0.0000000 ]
  distance:    0.0070585
  band:
  - # 1
    frequency:   -1.9656554065
  - # 2
    frequency:   -1.9219743520
  - # 3
    frequency:   -0.0744948888
  - # 4
    frequency:    0.2850664445
  - # 5
    frequency:    0.5273368281
  - # 6
    frequency:    3.3286475346
  - # 7
    frequency:    3.3656111678
  - # 8
    frequency:    5.6058574305
  - # 9
    frequency:    7.4151183828
  - # 10
    frequency:    7.4478020774
  - # 11
    frequency:    9.8161262680
  - # 12
    frequency:   11.3989107739
  - # 13
    frequency:   11.5274823474
  - # 14
    frequency:   13.9884180747
  - # 15
    frequency:   14.0129736183
  - # 16
    frequency:   14.9411356424
  - # 17
    frequency:   17.5053031411
  - # 18
    frequency:   21.1725549044

- q-position: [    0.0252525,    0.0000000,    0.0000000 ]
  distance:    0.0088232
  band:
  - # 1
    frequency:   -1.9557227848
  - # 2
    frequency:   -1.8871000739
  - # 3
    frequency:   -0.0811843253
  - # 4
    frequency:    0.3566370578
  - # 5
    frequency:    0.6597497370
  - # 6
    frequency:    3.3388072026
  - # 7
    frequency:    3.3959469928
  - # 8
    frequency:    5.6020958906
  - # 9
    frequency:    7.4164743011
  - # 10
    frequency:    7.4666715099
  - # 11
    frequency:    9.8097523702
  - # 12
    frequency:   11.4030599060
  - # 13
    frequency:   11.6019597668
  - # 14
    frequency:   13.9750862063
  - # 15
    frequency:   14.0124571371
  - # 16
    frequency:   14.9447763248
  - # 17
    frequency:   17.5055133562
  - # 18
    frequency:   21.1714367897

- q-position: [    0.0303030,    0.0000000,    0.0000000 ]
  distance:    0.0105878
  band:
  - # 1
    frequency:   -1.9435623777
  - # 2
    frequency:   -1.8440817182
  - # 3
    frequency:   -0.0763477343
  - # 4
    frequency:    0.4283992339
  - # 5
    frequency:    0.7925112830
  - # 6
    frequency:    3.3511163589
  - # 7
    frequency:    3.4323526520
  - # 8
    frequency:    5.5976472230
  - # 9
    frequency:    7.4181182106
  - # 10
    frequency:    7.4889495319
  - # 11
    frequency:    9.8020149106
  - # 12
    frequency:   11.4080390008
  - # 13
    frequency:   11.6908790726
  - # 14
    frequency:   13.9598005798
  - # 15
    frequency:   14.0118090476
  - # 16
    frequency:   14.9489139659
  - # 17
    frequency:   17.5059543846
  - # 18
    frequency:   21.1700782297

- q-position: [    0.0353535,    0.0000000,    0.0000000 ]
  distance:    0.0123524
  band:
  - # 1
    frequency:   -1.9291610915
  - # 2
    frequency:   -1.7926693796
  - # 3
    frequency:   -0.0448812681
  - # 4
    frequency:    0.5003805463
  - # 5
    frequency:    0.9256532632
  - # 6
    frequency:    3.3655132218
  - # 7
    frequency:    3.4744740860
  - # 8
    frequency:    5.5925877921
  - # 9
    frequency:    7.4200422179
  - # 10
    frequency:    7.5142570220
  - # 11
    frequency:    9.7929385000
  - # 12
    frequency:   11.4137947497
  - # 13
    frequency:   11.7928775745
  - # 14
    frequency:   13.9432511375
  - # 15
    frequency:   14.0110194242
  - # 16
    frequency:   14.9533902383
  - # 17
    frequency:   17.5067380529
  - # 18
    frequency:   21.1684839039

- q-position: [    0.0404040,    0.0000000,    0.0000000 ]
  distance:    0.0141171
  band:
  - # 1
    frequency:   -1.9125026733
  - # 2
    frequency:   -1.7325598997
  - # 3
    frequency:    0.0799748227
  - # 4
    frequency:    0.5726031559
  - # 5
    frequency:    1.0591886582
  - # 6
    frequency:    3.3819274734
  - # 7
    frequency:    3.5219303141
  - # 8
    frequency:    5.5869989739
  - # 9
    frequency:    7.4222370864
  - # 10
    frequency:    7.5422120852
  - # 11
    frequency:    9.7825483055
  - # 12
    frequency:   11.4202658584
  - # 13
    frequency:   11.9062348502
  - # 14
    frequency:   13.9263604944
  - # 15
    frequency:   14.0100766980
  - # 16
    frequency:   14.9580386941
  - # 17
    frequency:   17.5079979074
  - # 18
    frequency:   21.1666592249

- q-position: [    0.0454545,    0.0000000,    0.0000000 ]
  distance:    0.0158817
  band:
  - # 1
    frequency:   -1.8935672316
  - # 2
    frequency:   -1.6634026816
  - # 3
    frequency:    0.1460390475
  - # 4
    frequency:    0.6450832491
  - # 5
    frequency:    1.1931096542
  - # 6
    frequency:    3.4002814303
  - # 7
    frequency:    3.5743255680
  - # 8
    frequency:    5.5809651740
  - # 9
    frequency:    7.4246922828
  - # 10
    frequency:    7.5724475854
  - # 11
    frequency:    9.7708698080
  - # 12
    frequency:   11.4273838447
  - # 13
    frequency:   12.0287869030
  - # 14
    frequency:   13.9103760461
  - # 15
    frequency:   14.0089677379
  - # 16
    frequency:   14.9626903071
  - # 17
    frequency:   17.5098900800
  - # 18
    frequency:   21.1646102841

- q-position: [    0.0505051,    0.0000000,    0.0000000 ]
  distance:    0.0176463
  band:
  - # 1
    frequency:   -1.8723306138
  - # 2
    frequency:   -1.5848232998
  - # 3
    frequency:    0.2127193227
  - # 4
    frequency:    0.7178306057
  - # 5
    frequency:    1.3273861688
  - # 6
    frequency:    3.4204912769
  - # 7
    frequency:    3.6312598292
  - # 8
    frequency:    5.5745725852
  - # 9
    frequency:    7.4273960304
  - # 10
    frequency:    7.6046241003
  - # 11
    frequency:    9.7579289024
  - # 12
    frequency:   11.4350739191
  - # 13
    frequency:   12.1577970042
  - # 14
    frequency:   13.8970091374
  - # 15
    frequency:   14.0076779471
  - # 16
    frequency:   14.9671778749
  - # 17
    frequency:   17.5125944234
  - # 18
    frequency:   21.1623437943

- q-position: [    0.0555556,    0.0000000,    0.0000000 ]
  distance:    0.0194110
  band:
  - # 1
    frequency:   -1.8487636069
  - # 2
    frequency:   -1.4964877402
  - # 3
    frequency:    0.2854036482
  - # 4
    frequency:    0.7908482983
  - # 5
    frequency:    1.4619649374
  - # 6
    frequency:    3.4424683235
  - # 7
    frequency:    3.6923373725
  - # 8
    frequency:    5.5679086739
  - # 9
    frequency:    7.4303353699
  - # 10
    frequency:    7.6384381143
  - # 11
    frequency:    9.7437521979
  - # 12
    frequency:   11.4432559336
  - # 13
    frequency:   12.2897723733
  - # 14
    frequency:   13.8886313726
  - # 15
    frequency:   14.0061913711
  - # 16
    frequency:   14.9713393486
  - # 17
    frequency:   17.5163159729
  - # 18
    frequency:   21.1598670289

- q-position: [    0.0606061,    0.0000000,    0.0000000 ]
  distance:    0.0211756
  band:
  - # 1
    frequency:   -1.8228309234
  - # 2
    frequency:   -1.3982525039
  - # 3
    frequency:    0.3667682978
  - # 4
    frequency:    0.8641325226
  - # 5
    frequency:    1.5967692353
  - # 6
    frequency:    3.4661202595
  - # 7
    frequency:    3.7571731656
  - # 8
    frequency:    5.5610623236
  - # 9
    frequency:    7.4334962274
  - # 10
    frequency:    7.6736258930
  - # 11
    frequency:    9.7283674003
  - # 12
    frequency:   11.4518453837
  - # 13
    frequency:   12.4202405394
  - # 14
    frequency:   13.8885130209
  - # 15
    frequency:   14.0044908221
  - # 16
    frequency:   14.9750203041
  - # 17
    frequency:   17.5212867955
  - # 18
    frequency:   21.1571877588

- q-position: [    0.0656566,    0.0000000,    0.0000000 ]
  distance:    0.0229402
  band:
  - # 1
    frequency:   -1.7944899257
  - # 2
    frequency:   -1.2904768689
  - # 3
    frequency:    0.4593161809
  - # 4
    frequency:    0.9376725566
  - # 5
    frequency:    1.7316992901
  - # 6
    frequency:    3.4913523718
  - # 7
    frequency:    3.8253971701
  - # 8
    frequency:    5.5541245473
  - # 9
    frequency:    7.4368634898
  - # 10
    frequency:    7.7099638556
  - # 11
    frequency:    9.7118037004
  - # 12
    frequency:   11.4607544472
  - # 13
    frequency:   12.5435824208
  - # 14
    frequency:   13.9010050820
  - # 15
    frequency:   14.0025580151
  - # 16
    frequency:   14.9780758604
  - # 17
    frequency:   17.5277682804
  - # 18
    frequency:   21.1543141897

- q-position: [    0.0707071,    0.0000000,    0.0000000 ]
  distance:    0.0247048
  band:
  - # 1
    frequency:   -1.7636890273
  - # 2
    frequency:   -1.1745696854
  - # 3
    frequency:    0.5657137474
  - # 4
    frequency:    1.0114508424
  - # 5
    frequency:    1.8666333825
  - # 6
    frequency:    3.5180687046
  - # 7
    frequency:    3.8966567052
  - # 8
    frequency:    5.5471896992
  - # 9
    frequency:    7.4404210870
  - # 10
    frequency:    7.7472664112
  - # 11
    frequency:    9.6940921317
  - # 12
    frequency:   11.4698930471
  - # 13
    frequency:   12.6531995279
  - # 14
    frequency:   13.9313862129
  - # 15
    frequency:   14.0003737191
  - # 16
    frequency:   14.9803724309
  - # 17
    frequency:   17.5360539054
  - # 18
    frequency:   21.1512549006

- q-position: [    0.0757576,    0.0000000,    0.0000000 ]
  distance:    0.0264695
  band:
  - # 1
    frequency:   -1.7303656955
  - # 2
    frequency:   -1.0536256638
  - # 3
    frequency:    0.6881821939
  - # 4
    frequency:    1.0854431844
  - # 5
    frequency:    2.0014295584
  - # 6
    frequency:    3.5461731425
  - # 7
    frequency:    3.9706170891
  - # 8
    frequency:    5.5403571577
  - # 9
    frequency:    7.4441520815
  - # 10
    frequency:    7.7853821908
  - # 11
    frequency:    9.6752658874
  - # 12
    frequency:   11.4791699211
  - # 13
    frequency:   12.7424651677
  - # 14
    frequency:   13.9849233328
  - # 15
    frequency:   13.9979179207
  - # 16
    frequency:   14.9817898369
  - # 17
    frequency:   17.5464724611
  - # 18
    frequency:   21.1480187834

- q-position: [    0.0808081,    0.0000000,    0.0000000 ]
  distance:    0.0282341
  band:
  - # 1
    frequency:   -1.6944439496
  - # 2
    frequency:   -0.9323278927
  - # 3
    frequency:    0.8268878228
  - # 4
    frequency:    1.1596190563
  - # 5
    frequency:    2.1359277926
  - # 6
    frequency:    3.5755704027
  - # 7
    frequency:    4.0469607585
  - # 8
    frequency:    5.5337335124
  - # 9
    frequency:    7.4480387649
  - # 10
    frequency:    7.8241894589
  - # 11
    frequency:    9.6553606036
  - # 12
    frequency:   11.4884936870
  - # 13
    frequency:   12.8065812721
  - # 14
    frequency:   13.9951700013
  - # 15
    frequency:   14.0650229274
  - # 16
    frequency:   14.9822247059
  - # 17
    frequency:   17.5593916291
  - # 18
    frequency:   21.1446149867

- q-position: [    0.0858586,    0.0000000,    0.0000000 ]
  distance:    0.0299987
  band:
  - # 1
    frequency:   -1.6558312123
  - # 2
    frequency:   -0.8149010775
  - # 3
    frequency:    0.9784261948
  - # 4
    frequency:    1.2339420071
  - # 5
    frequency:    2.2699523798
  - # 6
    frequency:    3.6061669268
  - # 7
    frequency:    4.1253850093
  - # 8
    frequency:    5.5274353588
  - # 9
    frequency:    7.4520627613
  - # 10
    frequency:    7.8635912981
  - # 11
    frequency:    9.6344146237
  - # 12
    frequency:   11.4977738893
  - # 13
    frequency:   12.8443065648
  - # 14
    frequency:   13.9921089255
  - # 15
    frequency:   14.1715052363
  - # 16
    frequency:   14.9815972284
  - # 17
    frequency:   17.5752216439
  - # 18
    frequency:   21.1410528634

- q-position: [    0.0909091,    0.0000000,    0.0000000 ]
  distance:    0.0317634
  band:
  - # 1
    frequency:   -1.6144143106
  - # 2
    frequency:   -0.7018983027
  - # 3
    frequency:    1.1366959357
  - # 4
    frequency:    1.3083701557
  - # 5
    frequency:    2.4033142958
  - # 6
    frequency:    3.6378716659
  - # 7
    frequency:    4.2055983974
  - # 8
    frequency:    5.5215928989
  - # 9
    frequency:    7.4562051371
  - # 10
    frequency:    7.9035109626
  - # 11
    frequency:    9.6124692673
  - # 12
    frequency:   11.5069220164
  - # 13
    frequency:   12.8579881043
  - # 14
    frequency:   13.9887134401
  - # 15
    frequency:   14.3005639299
  - # 16
    frequency:   14.9798670848
  - # 17
    frequency:   17.5944185148
  - # 18
    frequency:   21.1373419227

- q-position: [    0.0959596,    0.0000000,    0.0000000 ]
  distance:    0.0335280
  band:
  - # 1
    frequency:   -1.5700543298
  - # 2
    frequency:   -0.5886120317
  - # 3
    frequency:    1.2958257653
  - # 4
    frequency:    1.3828567617
  - # 5
    frequency:    2.5358132820
  - # 6
    frequency:    3.6705967577
  - # 7
    frequency:    4.2873156900
  - # 8
    frequency:    5.5163546706
  - # 9
    frequency:    7.4604465178
  - # 10
    frequency:    7.9438876274
  - # 11
    frequency:    9.5895691259
  - # 12
    frequency:   11.5158524789
  - # 13
    frequency:   12.8519306864
  - # 14
    frequency:   13.9849622826
  - # 15
    frequency:   14.4463575964
  - # 16
    frequency:   14.9770787472
  - # 17
    frequency:   17.6174858842
  - # 18
    frequency:   21.1334917881

- q-position: [    0.1010101,    0.0000000,    0.0000000 ]
  distance:    0.0352926
  band:
  - # 1
    frequency:   -1.5225798798
  - # 2
    frequency:   -0.4643699764
  - # 3
    frequency:    1.4520464369
  - # 4
    frequency:    1.4573508598
  - # 5
    frequency:    2.6672394424
  - # 6
    frequency:    3.7042580950
  - # 7
    frequency:    4.3702510554
  - # 8
    frequency:    5.5118939015
  - # 9
    frequency:    7.4647672108
  - # 10
    frequency:    7.9846726265
  - # 11
    frequency:    9.5657624165
  - # 12
    frequency:   11.5244835386
  - # 13
    frequency:   12.8306494229
  - # 14
    frequency:   13.9808343969
  - # 15
    frequency:   14.6025962430
  - # 16
    frequency:   14.9735293126
  - # 17
    frequency:   17.6449740513
  - # 18
    frequency:   21.1295121609

- q-position: [    0.1060606,    0.0000000,    0.0000000 ]
  distance:    0.0370573
  band:
  - # 1
    frequency:   -1.4717781032
  - # 2
    frequency:   -0.3035945040
  - # 3
    frequency:    1.5317979422
  - # 4
    frequency:    1.6036081050
  - # 5
    frequency:    2.7973742045
  - # 6
    frequency:    3.7387757875
  - # 7
    frequency:    4.4541088946
  - # 8
    frequency:    5.5084172382
  - # 9
    frequency:    7.4691473338
  - # 10
    frequency:    8.0258261728
  - # 11
    frequency:    9.5411014241
  - # 12
    frequency:   11.5327381833
  - # 13
    frequency:   12.7979634519
  - # 14
    frequency:   13.9763091546
  - # 15
    frequency:   14.7624805609
  - # 16
    frequency:   14.9707455911
  - # 17
    frequency:   17.6774739954
  - # 18
    frequency:   21.1254127902

- q-position: [    0.1111111,    0.0000000,    0.0000000 ]
  distance:    0.0388219
  band:
  - # 1
    frequency:   -1.4173823747
  - # 2
    frequency:    0.1721583633
  - # 3
    frequency:    1.6061406745
  - # 4
    frequency:    1.7499947769
  - # 5
    frequency:    2.9259905583
  - # 6
    frequency:    3.7740745210
  - # 7
    frequency:    4.5385713134
  - # 8
    frequency:    5.5061769844
  - # 9
    frequency:    7.4735669496
  - # 10
    frequency:    8.0673144866
  - # 11
    frequency:    9.5156430792
  - # 12
    frequency:   11.5405449383
  - # 13
    frequency:   12.7568107991
  - # 14
    frequency:   13.9713665792
  - # 15
    frequency:   14.9043962659
  - # 16
    frequency:   14.9859912833
  - # 17
    frequency:   17.7156035123
  - # 18
    frequency:   21.1212034487

- q-position: [    0.1161616,    0.0000000,    0.0000000 ]
  distance:    0.0405865
  band:
  - # 1
    frequency:   -1.3590550010
  - # 2
    frequency:    0.3919705142
  - # 3
    frequency:    1.6803196290
  - # 4
    frequency:    1.8912874737
  - # 5
    frequency:    3.0528525411
  - # 6
    frequency:    3.8100838168
  - # 7
    frequency:    4.6232806697
  - # 8
    frequency:    5.5054885233
  - # 9
    frequency:    7.4780062053
  - # 10
    frequency:    8.1091072110
  - # 11
    frequency:    9.4894497269
  - # 12
    frequency:   11.5478386118
  - # 13
    frequency:   12.7093779916
  - # 14
    frequency:   13.9659875706
  - # 15
    frequency:   14.9360197399
  - # 16
    frequency:   15.1080580344
  - # 17
    frequency:   17.7599821349
  - # 18
    frequency:   21.1168939152

- q-position: [    0.1212121,    0.0000000,    0.0000000 ]
  distance:    0.0423512
  band:
  - # 1
    frequency:   -1.2963620971
  - # 2
    frequency:    0.5314462427
  - # 3
    frequency:    1.7542740207
  - # 4
    frequency:    2.0278063645
  - # 5
    frequency:    3.1777139789
  - # 6
    frequency:    3.8467381974
  - # 7
    frequency:    4.7078148894
  - # 8
    frequency:    5.5067553219
  - # 9
    frequency:    7.4824454774
  - # 10
    frequency:    8.1511749515
  - # 11
    frequency:    9.4625901683
  - # 12
    frequency:   11.5545609700
  - # 13
    frequency:   12.6572937370
  - # 14
    frequency:   13.9601541287
  - # 15
    frequency:   14.9298748750
  - # 16
    frequency:   15.2615543768
  - # 17
    frequency:   17.8111918637
  - # 18
    frequency:   21.1124939627

- q-position: [    0.1262626,    0.0000000,    0.0000000 ]
  distance:    0.0441158
  band:
  - # 1
    frequency:   -1.2287357123
  - # 2
    frequency:    0.6463673336
  - # 3
    frequency:    1.8279424304
  - # 4
    frequency:    2.1599387471
  - # 5
    frequency:    3.3003165241
  - # 6
    frequency:    3.8839772624
  - # 7
    frequency:    4.7916525283
  - # 8
    frequency:    5.5105046156
  - # 9
    frequency:    7.4868655197
  - # 10
    frequency:    8.1934867417
  - # 11
    frequency:    9.4351410902
  - # 12
    frequency:   11.5606613379
  - # 13
    frequency:   12.6017952689
  - # 14
    frequency:   13.9538495707
  - # 15
    frequency:   14.9188629217
  - # 16
    frequency:   15.4112634760
  - # 17
    frequency:   17.8697226174
  - # 18
    frequency:   21.1080133528

- q-position: [    0.1313131,    0.0000000,    0.0000000 ]
  distance:    0.0458804
  band:
  - # 1
    frequency:   -1.1554141485
  - # 2
    frequency:    0.7489533075
  - # 3
    frequency:    1.9012635048
  - # 4
    frequency:    2.2880641420
  - # 5
    frequency:    3.4203870574
  - # 6
    frequency:    3.9217456802
  - # 7
    frequency:    4.8741247165
  - # 8
    frequency:    5.5174366795
  - # 9
    frequency:    7.4912476161
  - # 10
    frequency:    8.2360071857
  - # 11
    frequency:    9.4071890539
  - # 12
    frequency:   11.5660971237
  - # 13
    frequency:   12.5438504376
  - # 14
    frequency:   13.9470587424
  - # 15
    frequency:   14.9054295641
  - # 16
    frequency:   15.5529196987
  - # 17
    frequency:   17.9359052711
  - # 18
    frequency:   21.1034618347

- q-position: [    0.1363636,    0.0000000,    0.0000000 ]
  distance:    0.0476451
  band:
  - # 1
    frequency:   -1.0753426825
  - # 2
    frequency:    0.8442221474
  - # 3
    frequency:    1.9741766207
  - # 4
    frequency:    2.4125254463
  - # 5
    frequency:    3.5376345630
  - # 6
    frequency:    3.9599930999
  - # 7
    frequency:    4.9543549676
  - # 8
    frequency:    5.5284867022
  - # 9
    frequency:    7.4955737354
  - # 10
    frequency:    8.2786929452
  - # 11
    frequency:    9.3788332978
  - # 12
    frequency:   11.5708342668
  - # 13
    frequency:   12.4842421002
  - # 14
    frequency:   13.9397682186
  - # 15
    frequency:   14.8900780363
  - # 16
    frequency:   15.6846802151
  - # 17
    frequency:   18.0098408597
  - # 18
    frequency:   21.0988491492

- q-position: [    0.1414141,    0.0000000,    0.0000000 ]
  distance:    0.0494097
  band:
  - # 1
    frequency:   -0.9869967419
  - # 2
    frequency:    0.9347349140
  - # 3
    frequency:    2.0466225073
  - # 4
    frequency:    2.5336207897
  - # 5
    frequency:    3.6517466632
  - # 6
    frequency:    3.9986739894
  - # 7
    frequency:    5.0312025290
  - # 8
    frequency:    5.5448834888
  - # 9
    frequency:    7.4998266883
  - # 10
    frequency:    8.3214881209
  - # 11
    frequency:    9.3501897436
  - # 12
    frequency:   11.5748476051
  - # 13
    frequency:   12.4236251885
  - # 14
    frequency:   13.9319664910
  - # 15
    frequency:   14.8729904213
  - # 16
    frequency:   15.8055050927
  - # 17
    frequency:   18.0913400946
  - # 18
    frequency:   21.0941850364

- q-position: [    0.1464646,    0.0000000,    0.0000000 ]
  distance:    0.0511743
  band:
  - # 1
    frequency:   -0.8880372958
  - # 2
    frequency:    1.0219589590
  - # 3
    frequency:    2.1185438198
  - # 4
    frequency:    2.6516041857
  - # 5
    frequency:    3.7623861454
  - # 6
    frequency:    4.0377474040
  - # 7
    frequency:    5.1032626684
  - # 8
    frequency:    5.5681513455
  - # 9
    frequency:    7.5039902850
  - # 10
    frequency:    8.3643178652
  - # 11
    frequency:    9.3213968091
  - # 12
    frequency:   11.5781211635
  - # 13
    frequency:   12.3625651117
  - # 14
    frequency:   13.9236441418
  - # 15
    frequency:   14.8542648108
  - # 16
    frequency:   15.9149133641
  - # 17
    frequency:   18.1798894743
  - # 18
    frequency:   21.0894792449

- q-position: [    0.1515152,    0.0000000,    0.0000000 ]
  distance:    0.0529390
  band:
  - # 1
    frequency:   -0.7745494840
  - # 2
    frequency:    1.1067969317
  - # 3
    frequency:    2.1898856619
  - # 4
    frequency:    2.7666895295
  - # 5
    frequency:    3.8691880637
  - # 6
    frequency:    4.0771766923
  - # 7
    frequency:    5.1690366712
  - # 8
    frequency:    5.5999418523
  - # 9
    frequency:    7.5080494926
  - # 10
    frequency:    8.4070792363
  - # 11
    frequency:    9.2926239717
  - # 12
    frequency:   11.5806483606
  - # 13
    frequency:   12.3015636583
  - # 14
    frequency:   13.9147939996
  - # 15
    frequency:   14.8339734304
  - # 16
    frequency:   16.0128917148
  - # 17
    frequency:   18.2746561466
  - # 18
    frequency:   21.0847415430

- q-position: [    0.1565657,    0.0000000,    0.0000000 ]
  distance:    0.0547036
  band:
  - # 1
    frequency:   -0.6390075693
  - # 2
    frequency:    1.1898305353
  - # 3
    frequency:    2.2605960555
  - # 4
    frequency:    2.8790555082
  - # 5
    frequency:    3.9717583930
  - # 6
    frequency:    4.1169291442
  - # 7
    frequency:    5.2273839903
  - # 8
    frequency:    5.6415821601
  - # 9
    frequency:    7.5119905909
  - # 10
    frequency:    8.4496277627
  - # 11
    frequency:    9.2640845727
  - # 12
    frequency:   11.5824321338
  - # 13
    frequency:   12.2410765453
  - # 14
    frequency:   13.9054112778
  - # 15
    frequency:   14.8121811352
  - # 16
    frequency:   16.0998102063
  - # 17
    frequency:   18.3745336132
  - # 18
    frequency:   21.0799817271

- q-position: [    0.1616162,    0.0000000,    0.0000000 ]
  distance:    0.0564682
  band:
  - # 1
    frequency:   -0.4626404863
  - # 2
    frequency:    1.2714462805
  - # 3
    frequency:    2.3306263570
  - # 4
    frequency:    2.9888503782
  - # 5
    frequency:    4.0696757607
  - # 6
    frequency:    4.1569755893
  - # 7
    frequency:    5.2781343836
  - # 8
    frequency:    5.6934604980
  - # 9
    frequency:    7.5158013241
  - # 10
    frequency:    8.4917573478
  - # 11
    frequency:    9.2360551994
  - # 12
    frequency:   11.5834849821
  - # 13
    frequency:   12.1815253430
  - # 14
    frequency:   13.8954936923
  - # 15
    frequency:   14.7889520920
  - # 16
    frequency:   16.1763241255
  - # 17
    frequency:   18.4782186797
  - # 18
    frequency:   21.0752096269

- q-position: [    0.1666667,    0.0000000,    0.0000000 ]
  distance:    0.0582329
  band:
  - # 1
    frequency:   -0.1313591183
  - # 2
    frequency:    1.3519058012
  - # 3
    frequency:    2.3999316229
  - # 4
    frequency:    3.0961961961
  - # 5
    frequency:    4.1624984221
  - # 6
    frequency:    4.1972899514
  - # 7
    frequency:    5.3223782100
  - # 8
    frequency:    5.7547285956
  - # 9
    frequency:    7.5194710481
  - # 10
    frequency:    8.5331699091
  - # 11
    frequency:    9.2089052274
  - # 12
    frequency:   11.5838289249
  - # 13
    frequency:   12.1233055674
  - # 14
    frequency:   13.8850415598
  - # 15
    frequency:   14.7643522013
  - # 16
    frequency:   16.2432698618
  - # 17
    frequency:   18.5843024335
  - # 18
    frequency:   21.0704351018

- q-position: [    0.1717172,    0.0000000,    0.0000000 ]
  distance:    0.0599975
  band:
  - # 1
    frequency:    0.4263838946
  - # 2
    frequency:    1.4313876311
  - # 3
    frequency:    2.4684709234
  - # 4
    frequency:    3.2011923715
  - # 5
    frequency:    4.2378487694
  - # 6
    frequency:    4.2497791402
  - # 7
    frequency:    5.3621082175
  - # 8
    frequency:    5.8236450622
  - # 9
    frequency:    7.5229908707
  - # 10
    frequency:    8.5734296607
  - # 11
    frequency:    9.1831415992
  - # 12
    frequency:   11.5834953771
  - # 13
    frequency:   12.0667921196
  - # 14
    frequency:   13.8740578741
  - # 15
    frequency:   14.7384497781
  - # 16
    frequency:   16.3015688730
  - # 17
    frequency:   18.6913575070
  - # 18
    frequency:   21.0656680259

- q-position: [    0.1767677,    0.0000000,    0.0000000 ]
  distance:    0.0617621
  band:
  - # 1
    frequency:    0.6188151595
  - # 2
    frequency:    1.5100132290
  - # 3
    frequency:    2.5362076067
  - # 4
    frequency:    3.3039185254
  - # 5
    frequency:    4.2786306926
  - # 6
    frequency:    4.3310905033
  - # 7
    frequency:    5.3995406106
  - # 8
    frequency:    5.8982294421
  - # 9
    frequency:    7.5263537816
  - # 10
    frequency:    8.6118963164
  - # 11
    frequency:    9.1594745589
  - # 12
    frequency:   11.5825249389
  - # 13
    frequency:   12.0123428564
  - # 14