nqpoint: 300    
npath: 3      
segment_nqpoint:
- 100
- 100
- 100
labels:
- [ 'G', 'M' ]
- [ 'M', 'K' ]
- [ 'K', 'G' ]
reciprocal_lattice:
- [   0.26819361,   0.15484165,   0.00000000 ] # a*
- [   0.00000000,   0.30968331,   0.00000000 ] # b*
- [   0.00000000,   0.00000000,   0.03465147 ] # c*
natom: 8      
lattice:
- [     3.728649608466504,     0.000000000000000,     0.000000000000000 ] # a
- [    -1.864324804233252,     3.229105282873349,     0.000000000000000 ] # b
- [     0.000000000000000,     0.000000000000000,    28.858804163461283 ] # c
points:
- symbol: C # 1
  coordinates: [  0.000000000000000,  0.000000000000000,  0.481559304553389 ]
  mass: 12.010700
- symbol: C # 2
  coordinates: [  0.333332985432215,  0.666666983183674,  0.646886424531364 ]
  mass: 12.010700
- symbol: N # 3
  coordinates: [  0.333332985432215,  0.666666983183674,  0.688136765854107 ]
  mass: 14.006700
- symbol: O # 4
  coordinates: [  0.666666984744047,  0.333332985985144,  0.311863234145893 ]
  mass: 15.999400
- symbol: P # 5
  coordinates: [  0.666666984744047,  0.333332985985144,  0.363762050673883 ]
  mass: 30.973762
- symbol: S # 6
  coordinates: [  0.333332985432215,  0.666666983183674,  0.588857452792300 ]
  mass: 32.065000
- symbol: Y # 7
  coordinates: [  0.333332985432215,  0.666666983183674,  0.436177346671418 ]
  mass: 88.905850
- symbol: Y # 8
  coordinates: [  0.666666984744047,  0.333332985985144,  0.528405819609138 ]
  mass: 88.905850

phonon:
- q-position: [    0.0000000,    0.0000000,    0.0000000 ]
  distance:    0.0000000
  band:
  - # 1
    frequency:   -1.0120436761
  - # 2
    frequency:   -1.0120436756
  - # 3
    frequency:   -0.0000401414
  - # 4
    frequency:   -0.0000000679
  - # 5
    frequency:    0.0000415396
  - # 6
    frequency:    0.9604264139
  - # 7
    frequency:    0.9604264148
  - # 8
    frequency:    3.6169755606
  - # 9
    frequency:    3.6169755610
  - # 10
    frequency:    3.7982018634
  - # 11
    frequency:    4.2329035785
  - # 12
    frequency:    4.2329035786
  - # 13
    frequency:    4.8273313411
  - # 14
    frequency:    4.8273313413
  - # 15
    frequency:    5.3217794484
  - # 16
    frequency:    7.5979075859
  - # 17
    frequency:    9.0739650641
  - # 18
    frequency:    9.0739650648
  - # 19
    frequency:   10.3713050581
  - # 20
    frequency:   10.3713050585
  - # 21
    frequency:   14.0950039334
  - # 22
    frequency:   21.0509284945
  - # 23
    frequency:   33.6860334160
  - # 24
    frequency:   65.1291187998

- q-position: [    0.0050505,    0.0000000,    0.0000000 ]
  distance:    0.0015641
  band:
  - # 1
    frequency:   -1.0116897774
  - # 2
    frequency:   -1.0107028842
  - # 3
    frequency:    0.0012832054
  - # 4
    frequency:    0.0485143777
  - # 5
    frequency:    0.0778656262
  - # 6
    frequency:    0.9574638415
  - # 7
    frequency:    0.9601428030
  - # 8
    frequency:    3.6168418704
  - # 9
    frequency:    3.6168898640
  - # 10
    frequency:    3.7983024761
  - # 11
    frequency:    4.2313750896
  - # 12
    frequency:    4.2321229709
  - # 13
    frequency:    4.8269677797
  - # 14
    frequency:    4.8276074728
  - # 15
    frequency:    5.3227774502
  - # 16
    frequency:    7.5972117681
  - # 17
    frequency:    9.0739295399
  - # 18
    frequency:    9.0767169625
  - # 19
    frequency:   10.3713610990
  - # 20
    frequency:   10.3715626365
  - # 21
    frequency:   14.0941414887
  - # 22
    frequency:   21.0508804579
  - # 23
    frequency:   33.6858529759
  - # 24
    frequency:   65.1290568009

- q-position: [    0.0101010,    0.0000000,    0.0000000 ]
  distance:    0.0031281
  band:
  - # 1
    frequency:   -1.0106281493
  - # 2
    frequency:   -1.0066943302
  - # 3
    frequency:    0.0051226858
  - # 4
    frequency:    0.0967759091
  - # 5
    frequency:    0.1552450932
  - # 6
    frequency:    0.9485515686
  - # 7
    frequency:    0.9593071141
  - # 8
    frequency:    3.6164457483
  - # 9
    frequency:    3.6166314960
  - # 10
    frequency:    3.7985970446
  - # 11
    frequency:    4.2268102519
  - # 12
    frequency:    4.2297876048
  - # 13
    frequency:    4.8258888758
  - # 14
    frequency:    4.8284331662
  - # 15
    frequency:    5.3257563080
  - # 16
    frequency:    7.5951336824
  - # 17
    frequency:    9.0738225662
  - # 18
    frequency:    9.0849503020
  - # 19
    frequency:   10.3715290949
  - # 20
    frequency:   10.3723365097
  - # 21
    frequency:   14.0915553624
  - # 22
    frequency:   21.0507364230
  - # 23
    frequency:   33.6853118795
  - # 24
    frequency:   65.1288708945

- q-position: [    0.0151515,    0.0000000,    0.0000000 ]
  distance:    0.0046922
  band:
  - # 1
    frequency:   -1.0088590996
  - # 2
    frequency:   -1.0000582081
  - # 3
    frequency:    0.0114766463
  - # 4
    frequency:    0.1445193634
  - # 5
    frequency:    0.2314702262
  - # 6
    frequency:    0.9336565106
  - # 7
    frequency:    0.9579665407
  - # 8
    frequency:    3.6158017038
  - # 9
    frequency:    3.6161966002
  - # 10
    frequency:    3.7990631080
  - # 11
    frequency:    4.2192713878
  - # 12
    frequency:    4.2259167573
  - # 13
    frequency:    4.8241292697
  - # 14
    frequency:    4.8298004397
  - # 15
    frequency:    5.3306717038
  - # 16
    frequency:    7.5917007272
  - # 17
    frequency:    9.0736429500
  - # 18
    frequency:    9.0985988119
  - # 19
    frequency:   10.3718086673
  - # 20
    frequency:   10.3736301626
  - # 21
    frequency:   14.0872491810
  - # 22
    frequency:   21.0504966140
  - # 23
    frequency:   33.6844107980
  - # 24
    frequency:   65.1285613517

- q-position: [    0.0202020,    0.0000000,    0.0000000 ]
  distance:    0.0062562
  band:
  - # 1
    frequency:   -1.0063834846
  - # 2
    frequency:   -0.9908578381
  - # 3
    frequency:    0.0202744250
  - # 4
    frequency:    0.1914534468
  - # 5
    frequency:    0.3053962531
  - # 6
    frequency:    0.9129014103
  - # 7
    frequency:    0.9562057669
  - # 8
    frequency:    3.6149327925
  - # 9
    frequency:    3.6155786736
  - # 10
    frequency:    3.7996609495
  - # 11
    frequency:    4.2088640020
  - # 12
    frequency:    4.2205422576
  - # 13
    frequency:    4.8217444804
  - # 14
    frequency:    4.8316963871
  - # 15
    frequency:    5.3374533288
  - # 16
    frequency:    7.5869563221
  - # 17
    frequency:    9.0733887307
  - # 18
    frequency:    9.1175545581
  - # 19
    frequency:   10.3721991860
  - # 20
    frequency:   10.3754496371
  - # 21
    frequency:   14.0812289989
  - # 22
    frequency:   21.0501614045
  - # 23
    frequency:   33.6831508494
  - # 24
    frequency:   65.1281286231

- q-position: [    0.0252525,    0.0000000,    0.0000000 ]
  distance:    0.0078203
  band:
  - # 1
    frequency:   -1.0032031993
  - # 2
    frequency:   -0.9791761942
  - # 3
    frequency:    0.0314081989
  - # 4
    frequency:    0.2372442883
  - # 5
    frequency:    0.3747602557
  - # 6
    frequency:    0.8870359800
  - # 7
    frequency:    0.9541566139
  - # 8
    frequency:    3.6138689351
  - # 9
    frequency:    3.6147684500
  - # 10
    frequency:    3.8003297710
  - # 11
    frequency:    4.1957398739
  - # 12
    frequency:    4.2137080853
  - # 13
    frequency:    4.8188079761
  - # 14
    frequency:    4.8341037266
  - # 15
    frequency:    5.3460095795
  - # 16
    frequency:    7.5809568929
  - # 17
    frequency:    9.0730572213
  - # 18
    frequency:    9.1416713328
  - # 19
    frequency:   10.3726997709
  - # 20
    frequency:   10.3778038999
  - # 21
    frequency:   14.0735033143
  - # 22
    frequency:   21.0497313157
  - # 23
    frequency:   33.6815335966
  - # 24
    frequency:   65.1275733387

- q-position: [    0.0303030,    0.0000000,    0.0000000 ]
  distance:    0.0093843
  band:
  - # 1
    frequency:   -0.9993218239
  - # 2
    frequency:   -0.9651155548
  - # 3
    frequency:    0.0447127995
  - # 4
    frequency:    0.2814947670
  - # 5
    frequency:    0.4345791452
  - # 6
    frequency:    0.8587528595
  - # 7
    frequency:    0.9520125949
  - # 8
    frequency:    3.6126445531
  - # 9
    frequency:    3.6137537351
  - # 10
    frequency:    3.8009815151
  - # 11
    frequency:    4.1801026576
  - # 12
    frequency:    4.2054698950
  - # 13
    frequency:    4.8154077268
  - # 14
    frequency:    4.8370014841
  - # 15
    frequency:    5.3562330583
  - # 16
    frequency:    7.5737682650
  - # 17
    frequency:    9.0726450648
  - # 18
    frequency:    9.1707687106
  - # 19
    frequency:   10.3733092948
  - # 20
    frequency:   10.3807053953
  - # 21
    frequency:   14.0640830914
  - # 22
    frequency:   21.0492070164
  - # 23
    frequency:   33.6795610451
  - # 24
    frequency:   65.1268963056

- q-position: [    0.0353535,    0.0000000,    0.0000000 ]
  distance:    0.0109484
  band:
  - # 1
    frequency:   -0.9947454031
  - # 2
    frequency:   -0.9488065377
  - # 3
    frequency:    0.0599030858
  - # 4
    frequency:    0.3237185823
  - # 5
    frequency:    0.4733888422
  - # 6
    frequency:    0.8358733512
  - # 7
    frequency:    0.9500488957
  - # 8
    frequency:    3.6112954505
  - # 9
    frequency:    3.6125191895
  - # 10
    frequency:    3.8014914767
  - # 11
    frequency:    4.1622172271
  - # 12
    frequency:    4.1958945320
  - # 13
    frequency:    4.8116426487
  - # 14
    frequency:    4.8403657467
  - # 15
    frequency:    5.3680061612
  - # 16
    frequency:    7.5654619061
  - # 17
    frequency:    9.0721483048
  - # 18
    frequency:    9.2046362533
  - # 19
    frequency:   10.3740263858
  - # 20
    frequency:   10.3841708239
  - # 21
    frequency:   14.0529817907
  - # 22
    frequency:   21.0485893203
  - # 23
    frequency:   33.6772356409
  - # 24
    frequency:   65.1260985070

- q-position: [    0.0404040,    0.0000000,    0.0000000 ]
  distance:    0.0125125
  band:
  - # 1
    frequency:   -0.9894833486
  - # 2
    frequency:   -0.9304399426
  - # 3
    frequency:    0.0763309444
  - # 4
    frequency:    0.3633092429
  - # 5
    frequency:    0.4692628727
  - # 6
    frequency:    0.8339439197
  - # 7
    frequency:    0.9486470948
  - # 8
    frequency:    3.6098547594
  - # 9
    frequency:    3.6110460575
  - # 10
    frequency:    3.8016846640
  - # 11
    frequency:    4.1424242572
  - # 12
    frequency:    4.1850596025
  - # 13
    frequency:    4.8076192530
  - # 14
    frequency:    4.8441704232
  - # 15
    frequency:    5.3812061831
  - # 16
    frequency:    7.5561114082
  - # 17
    frequency:    9.0715624683
  - # 18
    frequency:    9.2430373731
  - # 19
    frequency:   10.3748494313
  - # 20
    frequency:   10.3882222094
  - # 21
    frequency:   14.0402154072
  - # 22
    frequency:   21.0478791852
  - # 23
    frequency:   33.6745602662
  - # 24
    frequency:   65.1251810992

- q-position: [    0.0454545,    0.0000000,    0.0000000 ]
  distance:    0.0140765
  band:
  - # 1
    frequency:   -0.9835494799
  - # 2
    frequency:   -0.9103562937
  - # 3
    frequency:    0.0914916656
  - # 4
    frequency:    0.3980604333
  - # 5
    frequency:    0.3995074758
  - # 6
    frequency:    0.8637208567
  - # 7
    frequency:    0.9483205925
  - # 8
    frequency:    3.6083475679
  - # 9
    frequency:    3.6093118424
  - # 10
    frequency:    3.8013170635
  - # 11
    frequency:    4.1211614477
  - # 12
    frequency:    4.1730531480
  - # 13
    frequency:    4.8034486749
  - # 14
    frequency:    4.8483879583
  - # 15
    frequency:    5.3957095826
  - # 16
    frequency:    7.5457894877
  - # 17
    frequency:    9.0708826591
  - # 18
    frequency:    9.2857124410
  - # 19
    frequency:   10.3757765822
  - # 20
    frequency:   10.3928883420
  - # 21
    frequency:   14.0258025190
  - # 22
    frequency:   21.0470777103
  - # 23
    frequency:   33.6715382361
  - # 24
    frequency:   65.1241454099

- q-position: [    0.0505051,    0.0000000,    0.0000000 ]
  distance:    0.0156406
  band:
  - # 1
    frequency:   -0.9769632497
  - # 2
    frequency:   -0.8893030145
  - # 3
    frequency:    0.0607310767
  - # 4
    frequency:    0.2330147227
  - # 5
    frequency:    0.4313774041
  - # 6
    frequency:    0.9176355487
  - # 7
    frequency:    0.9497297463
  - # 8
    frequency:    3.6067835062
  - # 9
    frequency:    3.6072899322
  - # 10
    frequency:    3.8000524228
  - # 11
    frequency:    4.0989915776
  - # 12
    frequency:    4.1599734541
  - # 13
    frequency:    4.7992441458
  - # 14
    frequency:    4.8529899652
  - # 15
    frequency:    5.4113952566
  - # 16
    frequency:    7.5345656607
  - # 17
    frequency:    9.0701036601
  - # 18
    frequency:    9.3323808145
  - # 19
    frequency:   10.3768057579
  - # 20
    frequency:   10.3982067233
  - # 21
    frequency:   14.0097643453
  - # 22
    frequency:   21.0461861337
  - # 23
    frequency:   33.6681732931
  - # 24
    frequency:   65.1229929344

- q-position: [    0.0555556,    0.0000000,    0.0000000 ]
  distance:    0.0172046
  band:
  - # 1
    frequency:   -0.9697512492
  - # 2
    frequency:   -0.8692823030
  - # 3
    frequency:   -0.3331310103
  - # 4
    frequency:    0.1640026574
  - # 5
    frequency:    0.4578120942
  - # 6
    frequency:    0.9536651940
  - # 7
    frequency:    0.9842440295
  - # 8
    frequency:    3.6049491841
  - # 9
    frequency:    3.6051459539
  - # 10
    frequency:    3.7974399650
  - # 11
    frequency:    4.0766332852
  - # 12
    frequency:    4.1459290004
  - # 13
    frequency:    4.7951188950
  - # 14
    frequency:    4.8579477531
  - # 15
    frequency:    5.4281468422
  - # 16
    frequency:    7.5225046321
  - # 17
    frequency:    9.0692200424
  - # 18
    frequency:    9.3827415214
  - # 19
    frequency:   10.3779346521
  - # 20
    frequency:   10.4042261914
  - # 21
    frequency:   13.9921248187
  - # 22
    frequency:   21.0452058301
  - # 23
    frequency:   33.6644696022
  - # 24
    frequency:   65.1217253330

- q-position: [    0.0606061,    0.0000000,    0.0000000 ]
  distance:    0.0187687
  band:
  - # 1
    frequency:   -0.9619491467
  - # 2
    frequency:   -0.8569717314
  - # 3
    frequency:   -0.5242018529
  - # 4
    frequency:    0.1821489415
  - # 5
    frequency:    0.4775957654
  - # 6
    frequency:    0.9609706522
  - # 7
    frequency:    1.0570680565
  - # 8
    frequency:    3.6022534902
  - # 9
    frequency:    3.6033754359
  - # 10
    frequency:    3.7929102066
  - # 11
    frequency:    4.0549797371
  - # 12
    frequency:    4.1310385316
  - # 13
    frequency:    4.7911844265
  - # 14
    frequency:    4.8632327451
  - # 15
    frequency:    5.4458541645
  - # 16
    frequency:    7.5096653530
  - # 17
    frequency:    9.0682262783
  - # 18
    frequency:    9.4364723539
  - # 19
    frequency:   10.3791607389
  - # 20
    frequency:   10.4110104770
  - # 21
    frequency:   13.9729106710
  - # 22
    frequency:   21.0441383073
  - # 23
    frequency:   33.6604317445
  - # 24
    frequency:   65.1203444267

- q-position: [    0.0656566,    0.0000000,    0.0000000 ]
  distance:    0.0203327
  band:
  - # 1
    frequency:   -0.9536043035
  - # 2
    frequency:   -0.8769950630
  - # 3
    frequency:   -0.6430418202
  - # 4
    frequency:    0.2071415384
  - # 5
    frequency:    0.4895344909
  - # 6
    frequency:    0.9723909868
  - # 7
    frequency:    1.1330216945
  - # 8
    frequency:    3.5991613584
  - # 9
    frequency:    3.6013428223
  - # 10
    frequency:    3.7858267787
  - # 11
    frequency:    4.0350715177
  - # 12
    frequency:    4.1154312030
  - # 13
    frequency:    4.7875491104
  - # 14
    frequency:    4.8688167906
  - # 15
    frequency:    5.4644139979
  - # 16
    frequency:    7.4961006458
  - # 17
    frequency:    9.0671168574
  - # 18
    frequency:    9.4932270834
  - # 19
    frequency:   10.3804812799
  - # 20
    frequency:   10.4186430412
  - # 21
    frequency:   13.9521515368
  - # 22
    frequency:   21.0429852031
  - # 23
    frequency:   33.6560647100
  - # 24
    frequency:   65.1188521940

- q-position: [    0.0707071,    0.0000000,    0.0000000 ]
  distance:    0.0218968
  band:
  - # 1
    frequency:   -0.9645021283
  - # 2
    frequency:   -0.9447794431
  - # 3
    frequency:   -0.6751107991
  - # 4
    frequency:    0.2348061587
  - # 5
    frequency:    0.4926137007
  - # 6
    frequency:    0.9883830344
  - # 7
    frequency:    1.2105639538
  - # 8
    frequency:    3.5956255688
  - # 9
    frequency:    3.5988047603
  - # 10
    frequency:    3.7756489560
  - # 11
    frequency:    4.0179764423
  - # 12
    frequency:    4.0992467220
  - # 13
    frequency:    4.7843170270
  - # 14
    frequency:    4.8746723851
  - # 15
    frequency:    5.4837303130
  - # 16
    frequency:    7.4818572722
  - # 17
    frequency:    9.0658864017
  - # 18
    frequency:    9.5526304015
  - # 19
    frequency:   10.3818933317
  - # 20
    frequency:   10.4272336813
  - # 21
    frequency:   13.9298800778
  - # 22
    frequency:   21.0417482817
  - # 23
    frequency:   33.6513738906
  - # 24
    frequency:   65.1172507655

- q-position: [    0.0757576,    0.0000000,    0.0000000 ]
  distance:    0.0234609
  band:
  - # 1
    frequency:   -1.0911263124
  - # 2
    frequency:   -0.9355579628
  - # 3
    frequency:   -0.6556048522
  - # 4
    frequency:    0.2642622447
  - # 5
    frequency:    0.4860788496
  - # 6
    frequency:    1.0089847774
  - # 7
    frequency:    1.2888499419
  - # 8
    frequency:    3.5915929902
  - # 9
    frequency:    3.5953300372
  - # 10
    frequency:    3.7622286602
  - # 11
    frequency:    4.0045636805
  - # 12
    frequency:    4.0826353725
  - # 13
    frequency:    4.7815870167
  - # 14
    frequency:    4.8807728137
  - # 15
    frequency:    5.5037141678
  - # 16
    frequency:    7.4669763194
  - # 17
    frequency:    9.0645297801
  - # 18
    frequency:    9.6142700301
  - # 19
    frequency:   10.3833937544
  - # 20
    frequency:   10.4369275578
  - # 21
    frequency:   13.9061321314
  - # 22
    frequency:   21.0404294296
  - # 23
    frequency:   33.6463650709
  - # 24
    frequency:   65.1155424202

- q-position: [    0.0808081,    0.0000000,    0.0000000 ]
  distance:    0.0250249
  band:
  - # 1
    frequency:   -1.2276150059
  - # 2
    frequency:   -0.9260518213
  - # 3
    frequency:   -0.6164804038
  - # 4
    frequency:    0.2951473822
  - # 5
    frequency:    0.4693398257
  - # 6
    frequency:    1.0338256653
  - # 7
    frequency:    1.3673710855
  - # 8
    frequency:    3.5870046831
  - # 9
    frequency:    3.5901884740
  - # 10
    frequency:    3.7461537995
  - # 11
    frequency:    3.9952686245
  - # 12
    frequency:    4.0657577714
  - # 13
    frequency:    4.7794518914
  - # 14
    frequency:    4.8870922354
  - # 15
    frequency:    5.5242833701
  - # 16
    frequency:    7.4514937928
  - # 17
    frequency:    9.0630422171
  - # 18
    frequency:    9.6776852681
  - # 19
    frequency:   10.3849792200
  - # 20
    frequency:   10.4479174622
  - # 21
    frequency:   13.8809468885
  - # 22
    frequency:   21.0390306520
  - # 23
    frequency:   33.6410444195
  - # 24
    frequency:   65.1137295802

- q-position: [    0.0858586,    0.0000000,    0.0000000 ]
  distance:    0.0265890
  band:
  - # 1
    frequency:   -1.3666607985
  - # 2
    frequency:   -0.9164135124
  - # 3
    frequency:   -0.5657154929
  - # 4
    frequency:    0.3272451749
  - # 5
    frequency:    0.4416747105
  - # 6
    frequency:    1.0622642258
  - # 7
    frequency:    1.4457945331
  - # 8
    frequency:    3.5817964508
  - # 9
    frequency:    3.5822337270
  - # 10
    frequency:    3.7289373599
  - # 11
    frequency:    3.9900176768
  - # 12
    frequency:    4.0487841664
  - # 13
    frequency:    4.7779977728
  - # 14
    frequency:    4.8936057251
  - # 15
    frequency:    5.5453620112
  - # 16
    frequency:    7.4354413220
  - # 17
    frequency:    9.0614193972
  - # 18
    frequency:    9.7423511480
  - # 19
    frequency:   10.3866462221
  - # 20
    frequency:   10.4604602288
  - # 21
    frequency:   13.8543671064
  - # 22
    frequency:   21.0375540677
  - # 23
    frequency:   33.6354184789
  - # 24
    frequency:   65.1118148050

- q-position: [    0.0909091,    0.0000000,    0.0000000 ]
  distance:    0.0281530
  band:
  - # 1
    frequency:   -1.5067164362
  - # 2
    frequency:   -0.9068545947
  - # 3
    frequency:   -0.5039050956
  - # 4
    frequency:    0.3603958020
  - # 5
    frequency:    0.4017233103
  - # 6
    frequency:    1.0935613458
  - # 7
    frequency:    1.5238857904
  - # 8
    frequency:    3.5699495427
  - # 9
    frequency:    3.5759000343
  - # 10
    frequency:    3.7128296506
  - # 11
    frequency:    3.9883660673
  - # 12
    frequency:    4.0318930537
  - # 13
    frequency:    4.7773035268
  - # 14
    frequency:    4.9002892873
  - # 15
    frequency:    5.5668799403
  - # 16
    frequency:    7.4188469112
  - # 17
    frequency:    9.0596575607
  - # 18
    frequency:    9.8076576383
  - # 19
    frequency:   10.3883910858
  - # 20
    frequency:   10.4748979041
  - # 21
    frequency:   13.8264393639
  - # 22
    frequency:   21.0360019052
  - # 23
    frequency:   33.6294941548
  - # 24
    frequency:   65.1098007870

- q-position: [    0.0959596,    0.0000000,    0.0000000 ]
  distance:    0.0297171
  band:
  - # 1
    frequency:   -1.6474889560
  - # 2
    frequency:   -0.8976748351
  - # 3
    frequency:   -0.4281676759
  - # 4
    frequency:    0.3465218748
  - # 5
    frequency:    0.3944670156
  - # 6
    frequency:    1.1270103847
  - # 7
    frequency:    1.6014684934
  - # 8
    frequency:    3.5519735124
  - # 9
    frequency:    3.5692451599
  - # 10
    frequency:    3.7000677430
  - # 11
    frequency:    3.9897207704
  - # 12
    frequency:    4.0152688820
  - # 13
    frequency:    4.7774402652
  - # 14
    frequency:    4.9071198522
  - # 15
    frequency:    5.5887722289
  - # 16
    frequency:    7.4017356818
  - # 17
    frequency:    9.0577535914
  - # 18
    frequency:    9.8728845813
  - # 19
    frequency:   10.3902099778
  - # 20
    frequency:   10.4916830254
  - # 21
    frequency:   13.7972143673
  - # 22
    frequency:   21.0343764976
  - # 23
    frequency:   33.6232787042
  - # 24
    frequency:   65.1076903446

- q-position: [    0.1010101,    0.0000000,    0.0000000 ]
  distance:    0.0312811
  band:
  - # 1
    frequency:   -1.7889602646
  - # 2
    frequency:   -0.8893084779
  - # 3
    frequency:   -0.3302080951
  - # 4
    frequency:    0.2686297878
  - # 5
    frequency:    0.4293427785
  - # 6
    frequency:    1.1620027013
  - # 7
    frequency:    1.6784019280
  - # 8
    frequency:    3.5279629235
  - # 9
    frequency:    3.5617626144
  - # 10
    frequency:    3.6918393072
  - # 11
    frequency:    3.9935069733
  - # 12
    frequency:    3.9990986494
  - # 13
    frequency:    4.7784708958
  - # 14
    frequency:    4.9140752649
  - # 15
    frequency:    5.6109786546
  - # 16
    frequency:    7.3841305775
  - # 17
    frequency:    9.0557050932
  - # 18
    frequency:    9.9371765159
  - # 19
    frequency:   10.3920989177
  - # 20
    frequency:   10.5114038780
  - # 21
    frequency:   13.7667473184
  - # 22
    frequency:   21.0326802774
  - # 23
    frequency:   33.6167797238
  - # 24
    frequency:   65.1054864171

- q-position: [    0.1060606,    0.0000000,    0.0000000 ]
  distance:    0.0328452
  band:
  - # 1
    frequency:   -1.9311427361
  - # 2
    frequency:   -0.8823973195
  - # 3
    frequency:   -0.1774763884
  - # 4
    frequency:    0.1372036303
  - # 5
    frequency:    0.4649182319
  - # 6
    frequency:    1.1980448540
  - # 7
    frequency:    1.7545675719
  - # 8
    frequency:    3.4988145746
  - # 9
    frequency:    3.5533884195
  - # 10
    frequency:    3.6879857052
  - # 11
    frequency:    3.9835672999
  - # 12
    frequency:    3.9992416903
  - # 13
    frequency:    4.7804497051
  - # 14
    frequency:    4.9211342708
  - # 15
    frequency:    5.6334432217
  - # 16
    frequency:    7.3660530092
  - # 17
    frequency:    9.0535104558
  - # 18
    frequency:    9.9995290068
  - # 19
    frequency:   10.3940537888
  - # 20
    frequency:   10.5347981186
  - # 21
    frequency:   13.7350983583
  - # 22
    frequency:   21.0309157716
  - # 23
    frequency:   33.6100051360
  - # 24
    frequency:   65.1031920580

- q-position: [    0.1111111,    0.0000000,    0.0000000 ]
  distance:    0.0344093
  band:
  - # 1
    frequency:   -2.0740157340
  - # 2
    frequency:   -0.8779016937
  - # 3
    frequency:   -0.1958612205
  - # 4
    frequency:    0.2213441970
  - # 5
    frequency:    0.5010974516
  - # 6
    frequency:    1.2347506150
  - # 7
    frequency:    1.8298604632
  - # 8
    frequency:    3.4659812711
  - # 9
    frequency:    3.5440689900
  - # 10
    frequency:    3.6876708771
  - # 11
    frequency:    3.9688520254
  - # 12
    frequency:    4.0065456316
  - # 13
    frequency:    4.7834219701
  - # 14
    frequency:    4.9282765041
  - # 15
    frequency:    5.6561137256
  - # 16
    frequency:    7.3475234327
  - # 17
    frequency:    9.0511689092
  - # 18
    frequency:   10.0588101537
  - # 19
    frequency:   10.3960703502
  - # 20
    frequency:   10.5627310887
  - # 21
    frequency:   13.7023331019
  - # 22
    frequency:   21.0290855964
  - # 23
    frequency:   33.6029631762
  - # 24
    frequency:   65.1008104287

- q-position: [    0.1161616,    0.0000000,    0.0000000 ]
  distance:    0.0359733
  band:
  - # 1
    frequency:   -2.2175138103
  - # 2
    frequency:   -0.8772493102
  - # 3
    frequency:   -0.3116814722
  - # 4
    frequency:    0.3636075243
  - # 5
    frequency:    0.5377931431
  - # 6
    frequency:    1.2718239523
  - # 7
    frequency:    1.9041832390
  - # 8
    frequency:    3.4308135880
  - # 9
    frequency:    3.5337668939
  - # 10
    frequency:    3.6900517581
  - # 11
    frequency:    3.9551158417
  - # 12
    frequency:    4.0151293489
  - # 13
    frequency:    4.7874236010
  - # 14
    frequency:    4.9354824799
  - # 15
    frequency:    5.6789413644
  - # 16
    frequency:    7.3285618565
  - # 17
    frequency:    9.0486805644
  - # 18
    frequency:   10.1138510865
  - # 19
    frequency:   10.3981442486
  - # 20
    frequency:   10.5961049975
  - # 21
    frequency:   13.6685232863
  - # 22
    frequency:   21.0271924512
  - # 23
    frequency:   33.5956623773
  - # 24
    frequency:   65.0983447919

- q-position: [    0.1212121,    0.0000000,    0.0000000 ]
  distance:    0.0375374
  band:
  - # 1
    frequency:   -2.3615308660
  - # 2
    frequency:   -0.8824657464
  - # 3
    frequency:   -0.3927666923
  - # 4
    frequency:    0.4668607596
  - # 5
    frequency:    0.5749298735
  - # 6
    frequency:    1.3090411923
  - # 7
    frequency:    1.9774416529
  - # 8
    frequency:    3.3943501668
  - # 9
    frequency:    3.5224665515
  - # 10
    frequency:    3.6945069636
  - # 11
    frequency:    3.9425011004
  - # 12
    frequency:    4.0247739424
  - # 13
    frequency:    4.7924808315
  - # 14
    frequency:    4.9427335908
  - # 15
    frequency:    5.7018803938
  - # 16
    frequency:    7.3091882820
  - # 17
    frequency:    9.0460464426
  - # 18
    frequency:   10.1636261536
  - # 19
    frequency:   10.4002710304
  - # 20
    frequency:   10.6356782486
  - # 21
    frequency:   13.6337475564
  - # 22
    frequency:   21.0252391134
  - # 23
    frequency:   33.5881115550
  - # 24
    frequency:   65.0957985049

- q-position: [    0.1262626,    0.0000000,    0.0000000 ]
  distance:    0.0391014
  band:
  - # 1
    frequency:   -2.5059290432
  - # 2
    frequency:   -0.8960811834
  - # 3
    frequency:   -0.4532019867
  - # 4
    frequency:    0.5531996657
  - # 5
    frequency:    0.6124634303
  - # 6
    frequency:    1.3462355399
  - # 7
    frequency:    2.0495408387
  - # 8
    frequency:    3.3573493206
  - # 9
    frequency:    3.5101790082
  - # 10
    frequency:    3.7006233743
  - # 11
    frequency:    3.9311238012
  - # 12
    frequency:    4.0353141332
  - # 13
    frequency:    4.7986099752
  - # 14
    frequency:    4.9500121099
  - # 15
    frequency:    5.7248878220
  - # 16
    frequency:    7.2894230820
  - # 17
    frequency:    9.0432684907
  - # 18
    frequency:   10.2074833448
  - # 19
    frequency:   10.4024461545
  - # 20
    frequency:   10.6818343376
  - # 21
    frequency:   13.5980924205
  - # 22
    frequency:   21.0232284322
  - # 23
    frequency:   33.5803197922
  - # 24
    frequency:   65.0931750127

- q-position: [    0.1313131,    0.0000000,    0.0000000 ]
  distance:    0.0406655
  band:
  - # 1
    frequency:   -2.6505484272
  - # 2
    frequency:   -0.9204639785
  - # 3
    frequency:   -0.4959129435
  - # 4
    frequency:    0.6292163954
  - # 5
    frequency:    0.6505851717
  - # 6
    frequency:    1.3832846634
  - # 7
    frequency:    2.1203817984
  - # 8
    frequency:    3.3203686661
  - # 9
    frequency:    3.4969449079
  - # 10
    frequency:    3.7081322555
  - # 11
    frequency:    3.9210695878
  - # 12
    frequency:    4.0466254774
  - # 13
    frequency:    4.8058172769
  - # 14
    frequency:    4.9573011968
  - # 15
    frequency:    5.7479231378
  - # 16
    frequency:    7.2692873243
  - # 17
    frequency:    9.0403495848
  - # 18
    frequency:   10.2453074243
  - # 19
    frequency:   10.4046650049
  - # 20
    frequency:   10.7344178082
  - # 21
    frequency:   13.5616534153
  - # 22
    frequency:   21.0211633228
  - # 23
    frequency:   33.5722964221
  - # 24
    frequency:   65.0904778410

- q-position: [    0.1363636,    0.0000000,    0.0000000 ]
  distance:    0.0422295
  band:
  - # 1
    frequency:   -2.7952160700
  - # 2
    frequency:   -0.9566322701
  - # 3
    frequency:   -0.5223479865
  - # 4
    frequency:    0.6867152249
  - # 5
    frequency:    0.7006004730
  - # 6
    frequency:    1.4201010684
  - # 7