nqpoint: 300    
npath: 3      
segment_nqpoint:
- 100
- 100
- 100
labels:
- [ 'G', 'M' ]
- [ 'M', 'K' ]
- [ 'K', 'G' ]
reciprocal_lattice:
- [   0.31494668,   0.18183455,   0.00000000 ] # a*
- [   0.00000000,   0.36366911,   0.00000000 ] # b*
- [   0.00000000,   0.00000000,   0.03614304 ] # c*
natom: 9      
lattice:
- [     3.175140582821232,     0.000000000000000,     0.000000000000000 ] # a
- [    -1.587570291410616,     2.749752405314391,     0.000000000000000 ] # b
- [     0.000000000000000,     0.000000000000000,    27.667840727419854 ] # c
points:
- symbol: C # 1
  coordinates: [  0.333332985432215,  0.666666983183674,  0.631219120264162 ]
  mass: 12.010700
- symbol: C # 2
  coordinates: [  0.666666984744047,  0.333332985985144,  0.368208162715136 ]
  mass: 12.010700
- symbol: N # 3
  coordinates: [  0.000000000000000,  0.000000000000000,  0.500002729868144 ]
  mass: 14.006700
- symbol: N # 4
  coordinates: [  0.333332985432215,  0.666666983183674,  0.586139719314487 ]
  mass: 14.006700
- symbol: N # 5
  coordinates: [  0.666666984744047,  0.333332985985144,  0.325287400945628 ]
  mass: 14.006700
- symbol: O # 6
  coordinates: [  0.333332985432215,  0.666666983183674,  0.674712599054372 ]
  mass: 15.999400
- symbol: O # 7
  coordinates: [  0.666666984744047,  0.333332985985144,  0.416492917734221 ]
  mass: 15.999400
- symbol: Ti # 8
  coordinates: [  0.333332985432215,  0.666666983183674,  0.462841161963016 ]
  mass: 47.867000
- symbol: Ti # 9
  coordinates: [  0.666666984744047,  0.333332985985144,  0.538017977086660 ]
  mass: 47.867000

phonon:
- q-position: [    0.0000000,    0.0000000,    0.0000000 ]
  distance:    0.0000000
  band:
  - # 1
    frequency:   -1.1153306342
  - # 2
    frequency:   -1.1153306342
  - # 3
    frequency:   -0.0000126666
  - # 4
    frequency:   -0.0000000007
  - # 5
    frequency:    0.0000163433
  - # 6
    frequency:    0.2532019415
  - # 7
    frequency:    0.2532019418
  - # 8
    frequency:    5.1551732945
  - # 9
    frequency:    5.1551732945
  - # 10
    frequency:    6.1968738186
  - # 11
    frequency:    7.7351789781
  - # 12
    frequency:    7.7351789781
  - # 13
    frequency:    8.1836336989
  - # 14
    frequency:    8.1836336990
  - # 15
    frequency:    9.7891100269
  - # 16
    frequency:   12.7255953003
  - # 17
    frequency:   14.0858991531
  - # 18
    frequency:   14.0858991531
  - # 19
    frequency:   16.2149557084
  - # 20
    frequency:   17.2568344359
  - # 21
    frequency:   17.2568344360
  - # 22
    frequency:   18.0402890908
  - # 23
    frequency:   18.0402890908
  - # 24
    frequency:   31.9441524216
  - # 25
    frequency:   38.5531485617
  - # 26
    frequency:   67.8360474949
  - # 27
    frequency:   69.2420883778

- q-position: [    0.0050505,    0.0000000,    0.0000000 ]
  distance:    0.0018367
  band:
  - # 1
    frequency:   -1.1144785698
  - # 2
    frequency:   -1.1122685438
  - # 3
    frequency:    0.0026299829
  - # 4
    frequency:    0.0832863717
  - # 5
    frequency:    0.1306333491
  - # 6
    frequency:    0.2586341616
  - # 7
    frequency:    0.2736680812
  - # 8
    frequency:    5.1554551074
  - # 9
    frequency:    5.1562556056
  - # 10
    frequency:    6.1963823029
  - # 11
    frequency:    7.7349488319
  - # 12
    frequency:    7.7360807321
  - # 13
    frequency:    8.1834587463
  - # 14
    frequency:    8.1841302118
  - # 15
    frequency:    9.7888419419
  - # 16
    frequency:   12.7242687761
  - # 17
    frequency:   14.0859314240
  - # 18
    frequency:   14.0862188801
  - # 19
    frequency:   16.2147703535
  - # 20
    frequency:   17.2568579786
  - # 21
    frequency:   17.2572173302
  - # 22
    frequency:   18.0402884581
  - # 23
    frequency:   18.0404265996
  - # 24
    frequency:   31.9437202359
  - # 25
    frequency:   38.5531352318
  - # 26
    frequency:   67.8358299127
  - # 27
    frequency:   69.2407883917

- q-position: [    0.0101010,    0.0000000,    0.0000000 ]
  distance:    0.0036734
  band:
  - # 1
    frequency:   -1.1119407470
  - # 2
    frequency:   -1.1031344627
  - # 3
    frequency:    0.0102604592
  - # 4
    frequency:    0.1631101395
  - # 5
    frequency:    0.2523542528
  - # 6
    frequency:    0.2764027493
  - # 7
    frequency:    0.3345934007
  - # 8
    frequency:    5.1562996802
  - # 9
    frequency:    5.1594960105
  - # 10
    frequency:    6.1949153064
  - # 11
    frequency:    7.7342596618
  - # 12
    frequency:    7.7387759199
  - # 13
    frequency:    8.1829335516
  - # 14
    frequency:    8.1856199237
  - # 15
    frequency:    9.7880391955
  - # 16
    frequency:   12.7202928627
  - # 17
    frequency:   14.0860283121
  - # 18
    frequency:   14.0871768523
  - # 19
    frequency:   16.2142141496
  - # 20
    frequency:   17.2569287250
  - # 21
    frequency:   17.2583647778
  - # 22
    frequency:   18.0402864156
  - # 23
    frequency:   18.0408387071
  - # 24
    frequency:   31.9424247331
  - # 25
    frequency:   38.5530952746
  - # 26
    frequency:   67.8351776002
  - # 27
    frequency:   69.2368911239

- q-position: [    0.0151515,    0.0000000,    0.0000000 ]
  distance:    0.0055101
  band:
  - # 1
    frequency:   -1.1077694871
  - # 2
    frequency:   -1.0880637598
  - # 3
    frequency:    0.0226091988
  - # 4
    frequency:    0.2304474203
  - # 5
    frequency:    0.3139998104
  - # 6
    frequency:    0.3497476967
  - # 7
    frequency:    0.4395134929
  - # 8
    frequency:    5.1577044210
  - # 9
    frequency:    5.1648750595
  - # 10
    frequency:    6.1924952416
  - # 11
    frequency:    7.7331152578
  - # 12
    frequency:    7.7432346418
  - # 13
    frequency:    8.1820571194
  - # 14
    frequency:    8.1881032773
  - # 15
    frequency:    9.7867063145
  - # 16
    frequency:   12.7136784917
  - # 17
    frequency:   14.0861900426
  - # 18
    frequency:   14.0887694781
  - # 19
    frequency:   16.2132866909
  - # 20
    frequency:   17.2570470287
  - # 21
    frequency:   17.2602730823
  - # 22
    frequency:   18.0402825266
  - # 23
    frequency:   18.0415241565
  - # 24
    frequency:   31.9402690727
  - # 25
    frequency:   38.5530287874
  - # 26
    frequency:   67.8340918591
  - # 27
    frequency:   69.2304046375

- q-position: [    0.0202020,    0.0000000,    0.0000000 ]
  distance:    0.0073469
  band:
  - # 1
    frequency:   -1.1020433117
  - # 2
    frequency:   -1.0672198515
  - # 3
    frequency:    0.0396551220
  - # 4
    frequency:    0.2760781136
  - # 5
    frequency:    0.3791987896
  - # 6
    frequency:    0.4340707868
  - # 7
    frequency:    0.5688277061
  - # 8
    frequency:    5.1596650307
  - # 9
    frequency:    5.1723607807
  - # 10
    frequency:    6.1891586841
  - # 11
    frequency:    7.7315218887
  - # 12
    frequency:    7.7494081243
  - # 13
    frequency:    8.1808278407
  - # 14
    frequency:    8.1915807540
  - # 15
    frequency:    9.7848508478
  - # 16
    frequency:   12.7044437314
  - # 17
    frequency:   14.0864169881
  - # 18
    frequency:   14.0909908847
  - # 19
    frequency:   16.2119873400
  - # 20
    frequency:   17.2572134743
  - # 21
    frequency:   17.2629361128
  - # 22
    frequency:   18.0402760520
  - # 23
    frequency:   18.0424808495
  - # 24
    frequency:   31.9372585082
  - # 25
    frequency:   38.5529359318
  - # 26
    frequency:   67.8325748543
  - # 27
    frequency:   69.2213423463

- q-position: [    0.0252525,    0.0000000,    0.0000000 ]
  distance:    0.0091836
  band:
  - # 1
    frequency:   -1.0948559158
  - # 2
    frequency:   -1.0407260680
  - # 3
    frequency:    0.0614840451
  - # 4
    frequency:    0.3111101183
  - # 5
    frequency:    0.4595896610
  - # 6
    frequency:    0.5183223291
  - # 7
    frequency:    0.7048309783
  - # 8
    frequency:    5.1621755338
  - # 9
    frequency:    5.1819093255
  - # 10
    frequency:    6.1849552700
  - # 11
    frequency:    7.7294882319
  - # 12
    frequency:    7.7572302444
  - # 13
    frequency:    8.1792435664
  - # 14
    frequency:    8.1960524884
  - # 15
    frequency:    9.7824833720
  - # 16
    frequency:   12.6926135691
  - # 17
    frequency:   14.0867096642
  - # 18
    frequency:   14.0938330785
  - # 19
    frequency:   16.2103152845
  - # 20
    frequency:   17.2574288707
  - # 21
    frequency:   17.2663453478
  - # 22
    frequency:   18.0402659343
  - # 23
    frequency:   18.0437058412
  - # 24
    frequency:   31.9334003693
  - # 25
    frequency:   38.5528169333
  - # 26
    frequency:   67.8306296077
  - # 27
    frequency:   69.2097229766

- q-position: [    0.0303030,    0.0000000,    0.0000000 ]
  distance:    0.0110203
  band:
  - # 1
    frequency:   -1.0863041191
  - # 2
    frequency:   -1.0086069255
  - # 3
    frequency:    0.0882145653
  - # 4
    frequency:    0.3447128997
  - # 5
    frequency:    0.5449097178
  - # 6
    frequency:    0.6042548662
  - # 7
    frequency:    0.8431312368
  - # 8
    frequency:    5.1652283217
  - # 9
    frequency:    5.1934658340
  - # 10
    frequency:    6.1799462744
  - # 11
    frequency:    7.7270252771
  - # 12
    frequency:    7.7666195418
  - # 13
    frequency:    8.1773017064
  - # 14
    frequency:    8.2015177317
  - # 15
    frequency:    9.7796174972
  - # 16
    frequency:   12.6782196264
  - # 17
    frequency:   14.0870687239
  - # 18
    frequency:   14.0972861536
  - # 19
    frequency:   16.2082696147
  - # 20
    frequency:   17.2576942413
  - # 21
    frequency:   17.2704899353
  - # 22
    frequency:   18.0402507761
  - # 23
    frequency:   18.0451953337
  - # 24
    frequency:   31.9287040369
  - # 25
    frequency:   38.5526720802
  - # 26
    frequency:   67.8282599880
  - # 27
    frequency:   69.1955705150

- q-position: [    0.0353535,    0.0000000,    0.0000000 ]
  distance:    0.0128570
  band:
  - # 1
    frequency:   -1.0764769700
  - # 2
    frequency:   -0.9707522192
  - # 3
    frequency:    0.1200029958
  - # 4
    frequency:    0.3790979212
  - # 5
    frequency:    0.6320665976
  - # 6
    frequency:    0.6915799169
  - # 7
    frequency:    0.9824202340
  - # 8
    frequency:    5.1688142072
  - # 9
    frequency:    5.2069654837
  - # 10
    frequency:    6.1742029724
  - # 11
    frequency:    7.7241462093
  - # 12
    frequency:    7.7774816148
  - # 13
    frequency:    8.1749993509
  - # 14
    frequency:    8.2079741660
  - # 15
    frequency:    9.7762698723
  - # 16
    frequency:   12.6612998200
  - # 17
    frequency:   14.0874949501
  - # 18
    frequency:   14.1013385345
  - # 19
    frequency:   16.2058494194
  - # 20
    frequency:   17.2580108127
  - # 21
    frequency:   17.2753567676
  - # 22
    frequency:   18.0402288149
  - # 23
    frequency:   18.0469446670
  - # 24
    frequency:   31.9231809111
  - # 25
    frequency:   38.5525017225
  - # 26
    frequency:   67.8254707000
  - # 27
    frequency:   69.1789141411

- q-position: [    0.0404040,    0.0000000,    0.0000000 ]
  distance:    0.0146937
  band:
  - # 1
    frequency:   -1.0654475411
  - # 2
    frequency:   -0.9269054744
  - # 3
    frequency:    0.1570709596
  - # 4
    frequency:    0.4145957169
  - # 5
    frequency:    0.7200299545
  - # 6
    frequency:    0.7798688550
  - # 7
    frequency:    1.1220726783
  - # 8
    frequency:    5.1729224918
  - # 9
    frequency:    5.2223346798
  - # 10
    frequency:    6.1678048923
  - # 11
    frequency:    7.7208662724
  - # 12
    frequency:    7.7897117854
  - # 13
    frequency:    8.1723334106
  - # 14
    frequency:    8.2154170800
  - # 15
    frequency:    9.7724601879
  - # 16
    frequency:   12.6418979888
  - # 17
    frequency:   14.0879892465
  - # 18
    frequency:   14.1059772362
  - # 19
    frequency:   16.2030538972
  - # 20
    frequency:   17.2583799994
  - # 21
    frequency:   17.2809305686
  - # 22
    frequency:   18.0401978955
  - # 23
    frequency:   18.0489483089
  - # 24
    frequency:   31.9168443720
  - # 25
    frequency:   38.5523062706
  - # 26
    frequency:   67.8222672694
  - # 27
    frequency:   69.1597881452

- q-position: [    0.0454545,    0.0000000,    0.0000000 ]
  distance:    0.0165304
  band:
  - # 1
    frequency:   -1.0532680357
  - # 2
    frequency:   -0.8766718951
  - # 3
    frequency:    0.1997418346
  - # 4
    frequency:    0.4511173462
  - # 5
    frequency:    0.8083313780
  - # 6
    frequency:    0.8687815091
  - # 7
    frequency:    1.2616822675
  - # 8
    frequency:    5.1775410436
  - # 9
    frequency:    5.2394923467
  - # 10
    frequency:    6.1608380627
  - # 11
    frequency:    7.7172026177
  - # 12
    frequency:    7.8031979152
  - # 13
    frequency:    8.1693007704
  - # 14
    frequency:    8.2238384230
  - # 15
    frequency:    9.7682111727
  - # 16
    frequency:   12.6200635020
  - # 17
    frequency:   14.0885526267
  - # 18
    frequency:   14.1111881292
  - # 19
    frequency:   16.1998824809
  - # 20
    frequency:   17.2588033881
  - # 21
    frequency:   17.2871939925
  - # 22
    frequency:   18.0401554420
  - # 23
    frequency:   18.0511998439
  - # 24
    frequency:   31.9097097343
  - # 25
    frequency:   38.5520861938
  - # 26
    frequency:   67.8186560263
  - # 27
    frequency:   69.1382318323

- q-position: [    0.0505051,    0.0000000,    0.0000000 ]
  distance:    0.0183671
  band:
  - # 1
    frequency:   -1.0399679653
  - # 2
    frequency:   -0.8195426451
  - # 3
    frequency:    0.2484821536
  - # 4
    frequency:    0.4884928855
  - # 5
    frequency:    0.8966923608
  - # 6
    frequency:    0.9580667837
  - # 7
    frequency:    1.4009438740
  - # 8
    frequency:    5.1826563859
  - # 9
    frequency:    5.2583512734
  - # 10
    frequency:    6.1533933435
  - # 11
    frequency:    7.7131741418
  - # 12
    frequency:    7.8178232619
  - # 13
    frequency:    8.1658984533
  - # 14
    frequency:    8.2332257635
  - # 15
    frequency:    9.7635485814
  - # 16
    frequency:   12.5958508650
  - # 17
    frequency:   14.0891862026
  - # 18
    frequency:   14.1169561944
  - # 19
    frequency:   16.1963349714
  - # 20
    frequency:   17.2592827190
  - # 21
    frequency:   17.2941277313
  - # 22
    frequency:   18.0400984313
  - # 23
    frequency:   18.0536919598
  - # 24
    frequency:   31.9017941951
  - # 25
    frequency:   38.5518420182
  - # 26
    frequency:   67.8146440858
  - # 27
    frequency:   69.1142894114

- q-position: [    0.0555556,    0.0000000,    0.0000000 ]
  distance:    0.0202038
  band:
  - # 1
    frequency:   -1.0255546136
  - # 2
    frequency:   -0.7549369826
  - # 3
    frequency:    0.3039338466
  - # 4
    frequency:    0.5265561718
  - # 5
    frequency:    0.9849138655
  - # 6
    frequency:    1.0475382540
  - # 7
    frequency:    1.5396134849
  - # 8
    frequency:    5.1882537976
  - # 9
    frequency:    5.2788194746
  - # 10
    frequency:    6.1455649117
  - # 11
    frequency:    7.7088013166
  - # 12
    frequency:    7.8334692691
  - # 13
    frequency:    8.1621237879
  - # 14
    frequency:    8.2435611941
  - # 15
    frequency:    9.7585011697
  - # 16
    frequency:   12.5693193359
  - # 17
    frequency:   14.0898911703
  - # 18
    frequency:   14.1232657581
  - # 19
    frequency:   16.1924116766
  - # 20
    frequency:   17.2598198658
  - # 21
    frequency:   17.3017106276
  - # 22
    frequency:   18.0400233700
  - # 23
    frequency:   18.0564164353
  - # 24
    frequency:   31.8931167758
  - # 25
    frequency:   38.5515743252
  - # 26
    frequency:   67.8102393263
  - # 27
    frequency:   69.0880098717

- q-position: [    0.0606061,    0.0000000,    0.0000000 ]
  distance:    0.0220406
  band:
  - # 1
    frequency:   -1.0100148188
  - # 2
    frequency:   -0.6822528150
  - # 3
    frequency:    0.3668899814
  - # 4
    frequency:    0.5651643955
  - # 5
    frequency:    1.0728378609
  - # 6
    frequency:    1.1370538437
  - # 7
    frequency:    1.6774892309
  - # 8
    frequency:    5.1943174221
  - # 9
    frequency:    5.3008015302
  - # 10
    frequency:    6.1374489498
  - # 11
    frequency:    7.7041060156
  - # 12
    frequency:    7.8500181950
  - # 13
    frequency:    8.1579745770
  - # 14
    frequency:    8.2548202338
  - # 15
    frequency:    9.7531006512
  - # 16
    frequency:   12.5405325642
  - # 17
    frequency:   14.0906687952
  - # 18
    frequency:   14.1301007001
  - # 19
    frequency:   16.1881135544
  - # 20
    frequency:   17.2604168140
  - # 21
    frequency:   17.3099197924
  - # 22
    frequency:   18.0399262781
  - # 23
    frequency:   18.0593641257
  - # 24
    frequency:   31.8836982574
  - # 25
    frequency:   38.5512837488
  - # 26
    frequency:   67.8054503660
  - # 27
    frequency:   69.0594468440

- q-position: [    0.0656566,    0.0000000,    0.0000000 ]
  distance:    0.0238773
  band:
  - # 1
    frequency:   -0.9933171979
  - # 2
    frequency:   -0.6008302821
  - # 3
    frequency:    0.4381054099
  - # 4
    frequency:    0.6041995596
  - # 5
    frequency:    1.1603320186
  - # 6
    frequency:    1.2265018186
  - # 7
    frequency:    1.8143995440
  - # 8
    frequency:    5.2008303867
  - # 9
    frequency:    5.3241998703
  - # 10
    frequency:    6.1291425671
  - # 11
    frequency:    7.6991113401
  - # 12
    frequency:    7.8673554894
  - # 13
    frequency:    8.1534492622
  - # 14
    frequency:    8.2669707982
  - # 15
    frequency:    9.7473816300
  - # 16
    frequency:   12.5095582566
  - # 17
    frequency:   14.0915203958
  - # 18
    frequency:   14.1374446283
  - # 19
    frequency:   16.1834423526
  - # 20
    frequency:   17.2610756382
  - # 21
    frequency:   17.3187307233
  - # 22
    frequency:   18.0398026797
  - # 23
    frequency:   18.0625249495
  - # 24
    frequency:   31.8735611106
  - # 25
    frequency:   38.5509709738
  - # 26
    frequency:   67.8002865365
  - # 27
    frequency:   69.0286584506

- q-position: [    0.0707071,    0.0000000,    0.0000000 ]
  distance:    0.0257140
  band:
  - # 1
    frequency:   -0.9754141669
  - # 2
    frequency:   -0.5094248436
  - # 3
    frequency:    0.5178129296
  - # 4
    frequency:    0.6435651592
  - # 5
    frequency:    1.2472826998
  - # 6
    frequency:    1.3157915018
  - # 7
    frequency:    1.9501946543
  - # 8
    frequency:    5.2077749302
  - # 9
    frequency:    5.3489159817
  - # 10
    frequency:    6.1207429641
  - # 11
    frequency:    7.6938414467
  - # 12
    frequency:    7.8853718396
  - # 13
    frequency:    8.1485470801
  - # 14
    frequency:    8.2799723137
  - # 15
    frequency:    9.7413815027
  - # 16
    frequency:   12.4764678765
  - # 17
    frequency:   14.0924473261
  - # 18
    frequency:   14.1452810215
  - # 19
    frequency:   16.1784007466
  - # 20
    frequency:   17.2617984786
  - # 21
    frequency:   17.3281174221
  - # 22
    frequency:   18.0396476057
  - # 23
    frequency:   18.0658878750
  - # 24
    frequency:   31.8627294201
  - # 25
    frequency:   38.5506367330
  - # 26
    frequency:   67.7947578549
  - # 27
    frequency:   68.9957071411

- q-position: [    0.0757576,    0.0000000,    0.0000000 ]
  distance:    0.0275507
  band:
  - # 1
    frequency:   -0.9562433444
  - # 2
    frequency:   -0.4039579051
  - # 3
    frequency:    0.6050722524
  - # 4
    frequency:    0.6831821126
  - # 5
    frequency:    1.3335911496
  - # 6
    frequency:    1.4048471235
  - # 7
    frequency:    2.0847402125
  - # 8
    frequency:    5.2151325387
  - # 9
    frequency:    5.3748515136
  - # 10
    frequency:    6.1123468404
  - # 11
    frequency:    7.6883213794
  - # 12
    frequency:    7.9039648138
  - # 13
    frequency:    8.1432682075
  - # 14
    frequency:    8.2937750608
  - # 15
    frequency:    9.7351403207
  - # 16
    frequency:   12.4413363773
  - # 17
    frequency:   14.0934509571
  - # 18
    frequency:   14.1535933369
  - # 19
    frequency:   16.1729924675
  - # 20
    frequency:   17.2625875165
  - # 21
    frequency:   17.3380525088
  - # 22
    frequency:   18.0394556081
  - # 23
    frequency:   18.0694409086
  - # 24
    frequency:   31.8512288039
  - # 25
    frequency:   38.5502818051
  - # 26
    frequency:   67.7888749938
  - # 27
    frequency:   68.9606595166

- q-position: [    0.0808081,    0.0000000,    0.0000000 ]
  distance:    0.0293874
  band:
  - # 1
    frequency:   -0.9357281076
  - # 2
    frequency:   -0.2684141475
  - # 3
    frequency:    0.6976126810
  - # 4
    frequency:    0.7229851130
  - # 5
    frequency:    1.4191710431
  - # 6
    frequency:    1.4936036969
  - # 7
    frequency:    2.2179124736
  - # 8
    frequency:    5.2228840884
  - # 9
    frequency:    5.4019092666
  - # 10
    frequency:    6.1040500334
  - # 11
    frequency:    7.6825769066
  - # 12
    frequency:    7.9230400457
  - # 13
    frequency:    8.1376138927
  - # 14
    frequency:    8.3083198289
  - # 15
    frequency:    9.7287006041
  - # 16
    frequency:   12.4042419703
  - # 17
    frequency:   14.0945326571
  - # 18
    frequency:   14.1623650885
  - # 19
    frequency:   16.1672224211
  - # 20
    frequency:   17.2634449496
  - # 21
    frequency:   17.3485073293
  - # 22
    frequency:   18.0392207896
  - # 23
    frequency:   18.0731710836
  - # 24
    frequency:   31.8390863276
  - # 25
    frequency:   38.5499070113
  - # 26
    frequency:   67.7826492495
  - # 27
    frequency:   68.9235861423

- q-position: [    0.0858586,    0.0000000,    0.0000000 ]
  distance:    0.0312241
  band:
  - # 1
    frequency:   -0.9137771666
  - # 2
    frequency:    0.1269720877
  - # 3
    frequency:    0.7629196505
  - # 4
    frequency:    0.7926284192
  - # 5
    frequency:    1.5039466866
  - # 6
    frequency:    1.5820042060
  - # 7
    frequency:    2.3495946622
  - # 8
    frequency:    5.2310099951
  - # 9
    frequency:    5.4299940508
  - # 10
    frequency:    6.0959473772
  - # 11
    frequency:    7.6766343664
  - # 12
    frequency:    7.9425119207
  - # 13
    frequency:    8.1315865706
  - # 14
    frequency:    8.3235379527
  - # 15
    frequency:    9.7221070961
  - # 16
    frequency:   12.3652659245
  - # 17
    frequency:   14.0956937714
  - # 18
    frequency:   14.1715798975
  - # 19
    frequency:   16.1610967937
  - # 20
    frequency:   17.2643729674
  - # 21
    frequency:   17.3594520562
  - # 22
    frequency:   18.0389368508
  - # 23
    frequency:   18.0770644519
  - # 24
    frequency:   31.8263304144
  - # 25
    frequency:   38.5495132133
  - # 26
    frequency:   67.7760925086
  - # 27
    frequency:   68.8845613484

- q-position: [    0.0909091,    0.0000000,    0.0000000 ]
  distance:    0.0330608
  band:
  - # 1
    frequency:   -0.8902830419
  - # 2
    frequency:    0.3235463256
  - # 3
    frequency:    0.8029396696
  - # 4
    frequency:    0.8878106184
  - # 5
    frequency:    1.5878516053
  - # 6
    frequency:    1.6699976541
  - # 7
    frequency:    2.4796742216
  - # 8
    frequency:    5.2394903681
  - # 9
    frequency:    5.4590133954
  - # 10
    frequency:    6.0881327682
  - # 11
    frequency:    7.6705205173
  - # 12
    frequency:    7.9623037484
  - # 13
    frequency:    8.1251899588
  - # 14
    frequency:    8.3393517822
  - # 15
    frequency:    9.7154064464
  - # 16
    frequency:   12.3244923975
  - # 17
    frequency:   14.0969356014
  - # 18
    frequency:   14.1812215197
  - # 19
    frequency:   16.1546231426
  - # 20
    frequency:   17.2653737264
  - # 21
    frequency:   17.3708557780
  - # 22
    frequency:   18.0385971542
  - # 23
    frequency:   18.0811060782
  - # 24
    frequency:   31.8129907510
  - # 25
    frequency:   38.5491013103
  - # 26
    frequency:   67.7692172126
  - # 27
    frequency:   68.8436630204

- q-position: [    0.0959596,    0.0000000,    0.0000000 ]
  distance:    0.0348975
  band:
  - # 1
    frequency:   -0.8651192785
  - # 2
    frequency:    0.4437723343
  - # 3
    frequency:    0.8430057534
  - # 4
    frequency:    0.9817487419
  - # 5
    frequency:    1.6708274056
  - # 6
    frequency:    1.7575376856
  - # 7
    frequency:    2.6080407096
  - # 8
    frequency:    5.2483051687
  - # 9
    frequency:    5.4888780912
  - # 10
    frequency:    6.0806994331
  - # 11
    frequency:    7.6642623971
  - # 12
    frequency:    7.9823474357
  - # 13
    frequency:    8.1184291353
  - # 14
    frequency:    8.3556756113
  - # 15
    frequency:    9.7086468112
  - # 16
    frequency:   12.2820082922
  - # 17
    frequency:   14.0982593833
  - # 18
    frequency:   14.1912738554
  - # 19
    frequency:   16.1478104696
  - # 20
    frequency:   17.2664493260
  - # 21
    frequency:   17.3826865782
  - # 22
    frequency:   18.0381948102
  - # 23
    frequency:   18.0852800376
  - # 24
    frequency:   31.7990981895
  - # 25
    frequency:   38.5486722356
  - # 26
    frequency:   67.7620363216
  - # 27
    frequency:   68.8009723795

- q-position: [    0.1010101,    0.0000000,    0.0000000 ]
  distance:    0.0367343
  band:
  - # 1
    frequency:   -0.8381361087
  - # 2
    frequency:    0.5436857511
  - # 3
    frequency:    0.8830837217
  - # 4
    frequency:    1.0737718505
  - # 5
    frequency:    1.7528228603
  - # 6
    frequency:    1.8445815961
  - # 7
    frequency:    2.7345841626
  - # 8
    frequency:    5.2574343716
  - # 9
    frequency:    5.5195025306
  - # 10
    frequency:    6.0737404095
  - # 11
    frequency:    7.6578871886
  - # 12
    frequency:    8.0025826985
  - # 13
    frequency:    8.1113105956
  - # 14
    frequency:    8.3724170613
  - # 15
    frequency:    9.7018773569
  - # 16
    frequency:   12.2379031385
  - # 17
    frequency:   14.0996662659
  - # 18
    frequency:   14.2017209438
  - # 19
    frequency:   16.1406692771
  - # 20
    frequency:   17.2676017848
  - # 21
    frequency:   17.3949115993
  - # 22
    frequency:   18.0377227836
  - # 23
    frequency:   18.0895694167
  - # 24
    frequency:   31.7846846464
  - # 25
    frequency:   38.5482269546
  - # 26
    frequency:   67.7545632765
  - # 27
    frequency:   68.7565737539

- q-position: [    0.1060606,    0.0000000,    0.0000000 ]
  distance:    0.0385710
  band:
  - # 1
    frequency:   -0.8091540587
  - # 2
    frequency:    0.6346387789
  - # 3
    frequency:    0.9231435479
  - # 4
    frequency:    1.1636555708
  - # 5
    frequency:    1.8337931796
  - # 6
    frequency:    1.9310896116
  - # 7
    frequency:    2.8591937951
  - # 8
    frequency:    5.2668581276
  - # 9
    frequency:    5.5508047903
  - # 10
    frequency:    6.0673492713
  - # 11
    frequency:    7.6514220905
  - # 12
    frequency:    8.0229558797
  - # 13
    frequency:    8.1038422892
  - # 14
    frequency:    8.3894788877
  - # 15
    frequency:    9.6951476562
  - # 16
    frequency:   12.1922689958
  - # 17
    frequency:   14.1011572897
  - # 18
    frequency:   14.2125469488
  - # 19
    frequency:   16.1332116043
  - # 20
    frequency:   17.2688330179
  - # 21
    frequency:   17.4074970921
  - # 22
    frequency:   18.0371740232
  - # 23
    frequency:   18.0939563203
  - # 24
    frequency:   31.7697829981
  - # 25
    frequency:   38.5477664611
  - # 26
    frequency:   67.7468119600
  - # 27
    frequency:   68.7105543403

- q-position: [    0.1111111,    0.0000000,    0.0000000 ]
  distance:    0.0404077
  band:
  - # 1
    frequency:   -0.7779546383
  - # 2
    frequency:    0.7211581997
  - # 3
    frequency:    0.9631585193
  - # 4
    frequency:    1.2514018449
  - # 5
    frequency:    1.9136994378
  - # 6
    frequency:    2.0170243557
  - # 7
    frequency:    2.9817569487
  - # 8
    frequency:    5.2765569258
  - # 9
    frequency:    5.5827063636
  - # 10
    frequency:    6.0616211697
  - # 11
    frequency:    7.6448941939
  - # 12
    frequency:    8.0434184558
  - # 13
    frequency:    8.0960336359
  - # 14
    frequency:    8.4067611557
  - # 15
    frequency:    9.6885069639
  - # 16
    frequency:   12.1452003750
  - # 17
    frequency:   14.1027333646
  - # 18
    frequency:   14.2237361373
  - # 19
    frequency:   16.1254510445
  - # 20
    frequency:   17.2701448150
  - # 21
    frequency:   17.4204084469
  - # 22
    frequency:   18.0365416159
  - # 23
    frequency:   18.0984218828
  - # 24
    frequency:   31.7544269739
  - # 25
    frequency:   38.5472917747
  - # 26
    frequency:   67.7387966566
  - # 27
    frequency:   68.6630039588

- q-position: [    0.1161616,    0.0000000,    0.0000000 ]
  distance:    0.0422444
  band:
  - # 1
    frequency:   -0.7442666364
  - # 2
    frequency:    0.8054633695
  - # 3
    frequency:    1.0031045824
  - # 4
    frequency:    1.3371118114
  - # 5
    frequency:    1.9925081320
  - # 6
    frequency:    2.1023504514
  - # 7
    frequency:    3.1021582313
  - # 8
    frequency:    5.2865117552
  - # 9
    frequency:    5.6151313824
  - # 10
    frequency:    6.0566543253
  - # 11
    frequency:    7.6383303619
  - # 12
    frequency:    8.0639253246
  - # 13
    frequency:    8.0878955225
  - # 14
    frequency:    8.4241637157
  - # 15
    frequency:    9.6820033670
  - # 16
    frequency:   12.0967941766
  - # 17
    frequency:   14.1043952493
  - # 18
    frequency:   14.2352728543
  - # 19
    frequency:   16.1174027421
  - # 20
    frequency:   17.2715388203
  - # 21
    frequency:   17.4336102066
  - # 22
    frequency:   18.0358189649
  - # 23
    frequency:   18.1029462853
  - # 24
    frequency:   31.7386510477
  - # 25
    frequency:   38.5468039379
  - # 26
    frequency:   67.7305320119
  - # 27
    frequency:   68.6140147993

- q-position: [    0.1212121,    0.0000000,    0.0000000 ]
  distance:    0.0440811
  band:
  - # 1
    frequency:   -0.7077454204
  - # 2
    frequency:    0.8887583020
  - # 3
    frequency:    1.0429598298
  - # 4
    frequency:    1.4209209172
  - # 5
    frequency:    2.0701908457
  - # 6
    frequency:    2.1870342209
  - # 7
    frequency:    3.2202788235
  - # 8
    frequency:    5.2967042619
  - # 9
    frequency:    5.6480050626
  - # 10
    frequency:    6.0525522065