nqpoint: 300    
npath: 3      
segment_nqpoint:
- 100
- 100
- 100
labels:
- [ 'G', 'M' ]
- [ 'M', 'K' ]
- [ 'K', 'G' ]
reciprocal_lattice:
- [   0.29315258,   0.16925172,   0.00000000 ] # a*
- [   0.00000000,   0.33850344,   0.00000000 ] # b*
- [   0.00000000,   0.00000000,   0.03502615 ] # c*
natom: 9      
lattice:
- [     3.411192948524385,     0.000000000000000,     0.000000000000000 ] # a
- [    -1.705596474262192,     2.954179750598914,     0.000000000000000 ] # b
- [     0.000000000000000,     0.000000000000000,    28.550100032502751 ] # c
points:
- symbol: C # 1
  coordinates: [  0.000000000000000,  0.000000000000000,  0.493886271699162 ]
  mass: 12.010700
- symbol: C # 2
  coordinates: [  0.333332985432215,  0.666666983183674,  0.630356729205156 ]
  mass: 12.010700
- symbol: C # 3
  coordinates: [  0.666666984744047,  0.333332985985145,  0.356855132682947 ]
  mass: 12.010700
- symbol: N # 4
  coordinates: [  0.333332985432215,  0.666666983183674,  0.586461865770933 ]
  mass: 14.006700
- symbol: N # 5
  coordinates: [  0.666666984744047,  0.333332985985145,  0.315235322809867 ]
  mass: 14.006700
- symbol: O # 6
  coordinates: [  0.666666984744047,  0.333332985985145,  0.403592650419705 ]
  mass: 15.999400
- symbol: S # 7
  coordinates: [  0.333332985432215,  0.666666983183674,  0.684764677190133 ]
  mass: 32.065000
- symbol: Zr # 8
  coordinates: [  0.333332985432215,  0.666666983183674,  0.452119610091835 ]
  mass: 91.224000
- symbol: Zr # 9
  coordinates: [  0.666666984744047,  0.333332985985145,  0.537723425383830 ]
  mass: 91.224000

phonon:
- q-position: [    0.0000000,    0.0000000,    0.0000000 ]
  distance:    0.0000000
  band:
  - # 1
    frequency:   -0.8324178920
  - # 2
    frequency:   -0.8324178919
  - # 3
    frequency:   -0.0000047738
  - # 4
    frequency:   -0.0000012157
  - # 5
    frequency:    0.0000049917
  - # 6
    frequency:    0.6591189054
  - # 7
    frequency:    0.6591189054
  - # 8
    frequency:    4.5349397376
  - # 9
    frequency:    4.5349397376
  - # 10
    frequency:    5.1103713362
  - # 11
    frequency:    5.5708395440
  - # 12
    frequency:    5.5708395440
  - # 13
    frequency:    6.6962752285
  - # 14
    frequency:    6.6962752285
  - # 15
    frequency:    7.3369068425
  - # 16
    frequency:    9.2612553230
  - # 17
    frequency:   14.0124212604
  - # 18
    frequency:   14.0124212604
  - # 19
    frequency:   14.0867678580
  - # 20
    frequency:   14.0867678580
  - # 21
    frequency:   15.7625927467
  - # 22
    frequency:   16.6156242272
  - # 23
    frequency:   16.6156242272
  - # 24
    frequency:   27.1583729951
  - # 25
    frequency:   31.9996471226
  - # 26
    frequency:   57.8689902839
  - # 27
    frequency:   67.8305923424

- q-position: [    0.0050505,    0.0000000,    0.0000000 ]
  distance:    0.0017096
  band:
  - # 1
    frequency:   -0.8315670808
  - # 2
    frequency:   -0.8291256786
  - # 3
    frequency:   -0.1485829257
  - # 4
    frequency:    0.0660101276
  - # 5
    frequency:    0.1757552548
  - # 6
    frequency:    0.6608427980
  - # 7
    frequency:    0.6656581338
  - # 8
    frequency:    4.5352805910
  - # 9
    frequency:    4.5355394778
  - # 10
    frequency:    5.1102987146
  - # 11
    frequency:    5.5715006188
  - # 12
    frequency:    5.5718362611
  - # 13
    frequency:    6.6964449506
  - # 14
    frequency:    6.6969730807
  - # 15
    frequency:    7.3367671704
  - # 16
    frequency:    9.2607608551
  - # 17
    frequency:   14.0125498681
  - # 18
    frequency:   14.0127091248
  - # 19
    frequency:   14.0868847312
  - # 20
    frequency:   14.0870919615
  - # 21
    frequency:   15.7625848112
  - # 22
    frequency:   16.6167841617
  - # 23
    frequency:   16.6170409369
  - # 24
    frequency:   27.1582949295
  - # 25
    frequency:   31.9990887758
  - # 26
    frequency:   57.8678540678
  - # 27
    frequency:   67.8303220395

- q-position: [    0.0101010,    0.0000000,    0.0000000 ]
  distance:    0.0034192
  band:
  - # 1
    frequency:   -0.8290193391
  - # 2
    frequency:   -0.8191987334
  - # 3
    frequency:   -0.1949278089
  - # 4
    frequency:    0.1319808976
  - # 5
    frequency:    0.2709907741
  - # 6
    frequency:    0.6660042000
  - # 7
    frequency:    0.6848166862
  - # 8
    frequency:    4.5363000860
  - # 9
    frequency:    4.5373342834
  - # 10
    frequency:    5.1100814267
  - # 11
    frequency:    5.5734794928
  - # 12
    frequency:    5.5748189158
  - # 13
    frequency:    6.6969525263
  - # 14
    frequency:    6.6990618921
  - # 15
    frequency:    7.3363489212
  - # 16
    frequency:    9.2592772526
  - # 17
    frequency:   14.0129341124
  - # 18
    frequency:   14.0135694248
  - # 19
    frequency:   14.0872355784
  - # 20
    frequency:   14.0880645934
  - # 21
    frequency:   15.7625601290
  - # 22
    frequency:   16.6202541849
  - # 23
    frequency:   16.6212799998
  - # 24
    frequency:   27.1580607958
  - # 25
    frequency:   31.9974157583
  - # 26
    frequency:   57.8644482348
  - # 27
    frequency:   67.8295119380

- q-position: [    0.0151515,    0.0000000,    0.0000000 ]
  distance:    0.0051288
  band:
  - # 1
    frequency:   -0.8247877378
  - # 2
    frequency:   -0.8024777614
  - # 3
    frequency:   -0.2229451671
  - # 4
    frequency:    0.1978578357
  - # 5
    frequency:    0.3606289465
  - # 6
    frequency:    0.6745760138
  - # 7
    frequency:    0.7153989551
  - # 8
    frequency:    4.5379890653
  - # 9
    frequency:    4.5403109775
  - # 10
    frequency:    5.1097212458
  - # 11
    frequency:    5.5767631424
  - # 12
    frequency:    5.5797651090
  - # 13
    frequency:    6.6977932141
  - # 14
    frequency:    6.7025274354
  - # 15
    frequency:    7.3356544205
  - # 16
    frequency:    9.2568039300
  - # 17
    frequency:   14.0135692908
  - # 18
    frequency:   14.0149924038
  - # 19
    frequency:   14.0878210651
  - # 20
    frequency:   14.0896866439
  - # 21
    frequency:   15.7625160980
  - # 22
    frequency:   16.6260050567
  - # 23
    frequency:   16.6283082883
  - # 24
    frequency:   27.1576707834
  - # 25
    frequency:   31.9946341274
  - # 26
    frequency:   57.8587812179
  - # 27
    frequency:   67.8281644553

- q-position: [    0.0202020,    0.0000000,    0.0000000 ]
  distance:    0.0068385
  band:
  - # 1
    frequency:   -0.8188909030
  - # 2
    frequency:   -0.7786684604
  - # 3
    frequency:   -0.2414593075
  - # 4
    frequency:    0.2635550889
  - # 5
    frequency:    0.4498779876
  - # 6
    frequency:    0.6865256925
  - # 7
    frequency:    0.7558803073
  - # 8
    frequency:    4.5403323939
  - # 9
    frequency:    4.5444478208
  - # 10
    frequency:    5.1092212627
  - # 11
    frequency:    5.5813299531
  - # 12
    frequency:    5.5866378120
  - # 13
    frequency:    6.6989592122
  - # 14
    frequency:    6.7073460248
  - # 15
    frequency:    7.3346876237
  - # 16
    frequency:    9.2533399469
  - # 17
    frequency:   14.0144476780
  - # 18
    frequency:   14.0169622093
  - # 19
    frequency:   14.0886422414
  - # 20
    frequency:   14.0919593496
  - # 21
    frequency:   15.7624484634
  - # 22
    frequency:   16.6339883738
  - # 23
    frequency:   16.6380708267
  - # 24
    frequency:   27.1571252102
  - # 25
    frequency:   31.9907539409
  - # 26
    frequency:   57.8508670291
  - # 27
    frequency:   67.8262836057

- q-position: [    0.0252525,    0.0000000,    0.0000000 ]
  distance:    0.0085481
  band:
  - # 1
    frequency:   -0.8113488857
  - # 2
    frequency:   -0.7472947681
  - # 3
    frequency:   -0.2534198736
  - # 4
    frequency:    0.3289362600
  - # 5
    frequency:    0.5397149464
  - # 6
    frequency:    0.7018349442
  - # 7
    frequency:    0.8047898576
  - # 8
    frequency:    4.5433091460
  - # 9
    frequency:    4.5497148350
  - # 10
    frequency:    5.1085860716
  - # 11
    frequency:    5.5871498586
  - # 12
    frequency:    5.5953858256
  - # 13
    frequency:    6.7004398067
  - # 14
    frequency:    6.7134845529
  - # 15
    frequency:    7.3334542396
  - # 16
    frequency:    9.2488840615
  - # 17
    frequency:   14.0155586958
  - # 18
    frequency:   14.0194574954
  - # 19
    frequency:   14.0897004507
  - # 20
    frequency:   14.0948839252
  - # 21
    frequency:   15.7623514306
  - # 22
    frequency:   16.6441370633
  - # 23
    frequency:   16.6504911558
  - # 24
    frequency:   27.1564245248
  - # 25
    frequency:   31.9857892006
  - # 26
    frequency:   57.8407251958
  - # 27
    frequency:   67.8238749785

- q-position: [    0.0303030,    0.0000000,    0.0000000 ]
  distance:    0.0102577
  band:
  - # 1
    frequency:   -0.8021784093
  - # 2
    frequency:   -0.7076249932
  - # 3
    frequency:   -0.2596810770
  - # 4
    frequency:    0.3937895051
  - # 5
    frequency:    0.6299791047
  - # 6
    frequency:    0.7205292826
  - # 7
    frequency:    0.8609381488
  - # 8
    frequency:    4.5468928604
  - # 9
    frequency:    4.5560742350
  - # 10
    frequency:    5.1078219974
  - # 11
    frequency:    5.5941845359
  - # 12
    frequency:    5.6059444263
  - # 13
    frequency:    6.7022215740
  - # 14
    frequency:    6.7209005342
  - # 15
    frequency:    7.3319619080
  - # 16
    frequency:    9.2434348036
  - # 17
    frequency:   14.0168891528
  - # 18
    frequency:   14.0224522420
  - # 19
    frequency:   14.0909971961
  - # 20
    frequency:   14.0984610582
  - # 21
    frequency:   15.7622178074
  - # 22
    frequency:   16.6563660623
  - # 23
    frequency:   16.6654718588
  - # 24
    frequency:   27.1555693114
  - # 25
    frequency:   31.9797577741
  - # 26
    frequency:   57.8283806711
  - # 27
    frequency:   67.8209457079

- q-position: [    0.0353535,    0.0000000,    0.0000000 ]
  distance:    0.0119673
  band:
  - # 1
    frequency:   -0.7913881557
  - # 2
    frequency:   -0.6585620847
  - # 3
    frequency:   -0.2599187633
  - # 4
    frequency:    0.4577931557
  - # 5
    frequency:    0.7201157782
  - # 6
    frequency:    0.7427196650
  - # 7
    frequency:    0.9234984475
  - # 8
    frequency:    4.5510518589
  - # 9
    frequency:    4.5634809506
  - # 10
    frequency:    5.1069373463
  - # 11
    frequency:    5.6023876598
  - # 12
    frequency:    5.6182361960
  - # 13
    frequency:    6.7042886335
  - # 14
    frequency:    6.7295421506
  - # 15
    frequency:    7.3302204380
  - # 16
    frequency:    9.2369905667
  - # 17
    frequency:   14.0184235545
  - # 18
    frequency:   14.0259167585
  - # 19
    frequency:   14.0925339612
  - # 20
    frequency:   14.1026902873
  - # 21
    frequency:   15.7620391625
  - # 22
    frequency:   16.6705731783
  - # 23
    frequency:   16.6828952603
  - # 24
    frequency:   27.1545602939
  - # 25
    frequency:   31.9726812942
  - # 26
    frequency:   57.8138637209
  - # 27
    frequency:   67.8175044337

- q-position: [    0.0404040,    0.0000000,    0.0000000 ]
  distance:    0.0136769
  band:
  - # 1
    frequency:   -0.7789745577
  - # 2
    frequency:   -0.5985067572
  - # 3
    frequency:   -0.2525039886
  - # 4
    frequency:    0.5204698177
  - # 5
    frequency:    0.7686567883
  - # 6
    frequency:    0.8094125843
  - # 7
    frequency:    0.9919851734
  - # 8
    frequency:    4.5557496204
  - # 9
    frequency:    4.5718832151
  - # 10
    frequency:    5.1059426601
  - # 11
    frequency:    5.6117052163
  - # 12
    frequency:    5.6321720224
  - # 13
    frequency:    6.7066229423
  - # 14
    frequency:    6.7393482883
  - # 15
    frequency:    7.3282421162
  - # 16
    frequency:    9.2295497178
  - # 17
    frequency:   14.0201444823
  - # 18
    frequency:   14.0298188187
  - # 19
    frequency:   14.0943119843
  - # 20
    frequency:   14.1075693011
  - # 21
    frequency:   15.7618059865
  - # 22
    frequency:   16.6866401189
  - # 23
    frequency:   16.7026243063
  - # 24
    frequency:   27.1533983424
  - # 25
    frequency:   31.9645850387
  - # 26
    frequency:   57.7972097857
  - # 27
    frequency:   67.8135612553

- q-position: [    0.0454545,    0.0000000,    0.0000000 ]
  distance:    0.0153865
  band:
  - # 1
    frequency:   -0.7649182783
  - # 2
    frequency:   -0.5253748073
  - # 3
    frequency:   -0.2327939238
  - # 4
    frequency:    0.5811386254
  - # 5
    frequency:    0.7987871080
  - # 6
    frequency:    0.8971397347
  - # 7
    frequency:    1.0661409937
  - # 8
    frequency:    4.5609452029
  - # 9
    frequency:    4.5812231955
  - # 10
    frequency:    5.1048509690
  - # 11
    frequency:    5.6220758768
  - # 12
    frequency:    5.6476522470
  - # 13
    frequency:    6.7092046279
  - # 14
    frequency:    6.7502485556
  - # 15
    frequency:    7.3260420922
  - # 16
    frequency:    9.2211107224
  - # 17
    frequency:   14.0220330355
  - # 18
    frequency:   14.0341248544
  - # 19
    frequency:   14.0963319865
  - # 20
    frequency:   14.1130932158
  - # 21
    frequency:   15.7615078464
  - # 22
    frequency:   16.7044336764
  - # 23
    frequency:   16.7245036316
  - # 24
    frequency:   27.1520844802
  - # 25
    frequency:   31.9554977889
  - # 26
    frequency:   57.7784593208
  - # 27
    frequency:   67.8091276771

- q-position: [    0.0505051,    0.0000000,    0.0000000 ]
  distance:    0.0170961
  band:
  - # 1
    frequency:   -0.7491812611
  - # 2
    frequency:   -0.4382189636
  - # 3
    frequency:   -0.1838791931
  - # 4
    frequency:    0.6389120685
  - # 5
    frequency:    0.8337632720
  - # 6
    frequency:    0.9827283548
  - # 7
    frequency:    1.1457322610
  - # 8
    frequency:    4.5665937073
  - # 9
    frequency:    4.5914376363
  - # 10
    frequency:    5.1036780393
  - # 11
    frequency:    5.6334314315
  - # 12
    frequency:    5.6645679289
  - # 13
    frequency:    6.7120123483
  - # 14
    frequency:    6.7621632705
  - # 15
    frequency:    7.3236388543
  - # 16
    frequency:    9.2116722842
  - # 17
    frequency:   14.0240693259
  - # 18
    frequency:   14.0388011222
  - # 19
    frequency:   14.0985938606
  - # 20
    frequency:   14.1192539011
  - # 21
    frequency:   15.7611335264
  - # 22
    frequency:   16.7238070540
  - # 23
    frequency:   16.7483608137
  - # 24
    frequency:   27.1506198910
  - # 25
    frequency:   31.9454516694
  - # 26
    frequency:   57.7576576138
  - # 27
    frequency:   67.8042165473

- q-position: [    0.0555556,    0.0000000,    0.0000000 ]
  distance:    0.0188057
  band:
  - # 1
    frequency:   -0.7317039941
  - # 2
    frequency:   -0.3469806262
  - # 3
    frequency:    0.1082304643
  - # 4
    frequency:    0.6928442500
  - # 5
    frequency:    0.8743016150
  - # 6
    frequency:    1.0659570027
  - # 7
    frequency:    1.2303265797
  - # 8
    frequency:    4.5726467746
  - # 9
    frequency:    4.6024584903
  - # 10
    frequency:    5.1024426287
  - # 11
    frequency:    5.6456972828
  - # 12
    frequency:    5.6828021851
  - # 13
    frequency:    6.7150236718
  - # 14
    frequency:    6.7750034015
  - # 15
    frequency:    7.3210548078
  - # 16
    frequency:    9.2012334953
  - # 17
    frequency:   14.0262330086
  - # 18
    frequency:   14.0438147490
  - # 19
    frequency:   14.1010963351
  - # 20
    frequency:   14.1260394352
  - # 21
    frequency:   15.7606711501
  - # 22
    frequency:   16.7446013168
  - # 23
    frequency:   16.7740078062
  - # 24
    frequency:   27.1490059279
  - # 25
    frequency:   31.9344819699
  - # 26
    frequency:   57.7348545807
  - # 27
    frequency:   67.7988419893

- q-position: [    0.0606061,    0.0000000,    0.0000000 ]
  distance:    0.0205154
  band:
  - # 1
    frequency:   -0.7124024561
  - # 2
    frequency:   -0.2739212011
  - # 3
    frequency:    0.3107203409
  - # 4
    frequency:    0.7423099145
  - # 5
    frequency:    0.9208072334
  - # 6
    frequency:    1.1470014523
  - # 7
    frequency:    1.3192104725
  - # 8
    frequency:    4.5790531103
  - # 9
    frequency:    4.6142135083
  - # 10
    frequency:    5.1011667602
  - # 11
    frequency:    5.6587929958
  - # 12
    frequency:    5.7022315650
  - # 13
    frequency:    6.7182154686
  - # 14
    frequency:    6.7886704497
  - # 15
    frequency:    7.3183169692
  - # 16
    frequency:    9.1897939960
  - # 17
    frequency:   14.0285038242
  - # 18
    frequency:   14.0491345754
  - # 19
    frequency:   14.1038366326
  - # 20
    frequency:   14.1334337546
  - # 21
    frequency:   15.7601082855
  - # 22
    frequency:   16.7666469489
  - # 23
    frequency:   16.8012425382
  - # 24
    frequency:   27.1472441221
  - # 25
    frequency:   31.9226269495
  - # 26
    frequency:   57.7101045439
  - # 27
    frequency:   67.7930193280

- q-position: [    0.0656566,    0.0000000,    0.0000000 ]
  distance:    0.0222250
  band:
  - # 1
    frequency:   -0.6911640679
  - # 2
    frequency:   -0.2088171144
  - # 3
    frequency:    0.4567213350
  - # 4
    frequency:    0.7873989231
  - # 5
    frequency:    0.9729820749
  - # 6
    frequency:    1.2262900169
  - # 7
    frequency:    1.4115075624
  - # 8
    frequency:    4.5857590294
  - # 9
    frequency:    4.6266267644
  - # 10
    frequency:    5.0998760328
  - # 11
    frequency:    5.6726329025
  - # 12
    frequency:    5.7227274179
  - # 13
    frequency:    6.7215643022
  - # 14
    frequency:    6.8030562565
  - # 15
    frequency:    7.3154577889
  - # 16
    frequency:    9.1773541414
  - # 17
    frequency:   14.0308621253
  - # 18
    frequency:   14.0547317415
  - # 19
    frequency:   14.1068101480
  - # 20
    frequency:   14.1414165469
  - # 21
    frequency:   15.7594320333
  - # 22
    frequency:   16.7897654987
  - # 23
    frequency:   16.8298506623
  - # 24
    frequency:   27.1453361927
  - # 25
    frequency:   31.9099276260
  - # 26
    frequency:   57.6834659900
  - # 27
    frequency:   67.7867650091

- q-position: [    0.0707071,    0.0000000,    0.0000000 ]
  distance:    0.0239346
  band:
  - # 1
    frequency:   -0.6678417943
  - # 2
    frequency:   -0.1171504364
  - # 3
    frequency:    0.5794175937
  - # 4
    frequency:    0.8288885305
  - # 5
    frequency:    1.0298539431
  - # 6
    frequency:    1.3042964371
  - # 7
    frequency:    1.5063648478
  - # 8
    frequency:    4.5927090179
  - # 9
    frequency:    4.6396190943
  - # 10
    frequency:    5.0985999885
  - # 11
    frequency:    5.6871267582
  - # 12
    frequency:    5.7441572132
  - # 13
    frequency:    6.7250468123
  - # 14
    frequency:    6.8180427283
  - # 15
    frequency:    7.3125161113
  - # 16
    frequency:    9.1639151709
  - # 17
    frequency:   14.0332893541
  - # 18
    frequency:   14.0605799944
  - # 19
    frequency:   14.1100101767
  - # 20
    frequency:   14.1499633953
  - # 21
    frequency:   15.7586291034
  - # 22
    frequency:   16.8137712916
  - # 23
    frequency:   16.8596074285
  - # 24
    frequency:   27.1432840560
  - # 25
    frequency:   31.8964275498
  - # 26
    frequency:   57.6550013122
  - # 27
    frequency:   67.7800965146

- q-position: [    0.0757576,    0.0000000,    0.0000000 ]
  distance:    0.0256442
  band:
  - # 1
    frequency:   -0.6422452100
  - # 2
    frequency:    0.1382394200
  - # 3
    frequency:    0.6882490761
  - # 4
    frequency:    0.8678095745
  - # 5
    frequency:    1.0902106128
  - # 6
    frequency:    1.3814105072
  - # 7
    frequency:    1.6030658281
  - # 8
    frequency:    4.5998463046
  - # 9
    frequency:    4.6531084300
  - # 10
    frequency:    5.0973725488
  - # 11
    frequency:    5.7021804428
  - # 12
    frequency:    5.7663857815
  - # 13
    frequency:    6.7286400797
  - # 14
    frequency:    6.8335014768
  - # 15
    frequency:    7.3095382709
  - # 16
    frequency:    9.1494793795
  - # 17
    frequency:   14.0357684422
  - # 18
    frequency:   14.0666557352
  - # 19
    frequency:   14.1134277200
  - # 20
    frequency:   14.1590461533
  - # 21
    frequency:   15.7576858832
  - # 22
    frequency:   16.8384731912
  - # 23
    frequency:   16.8902796574
  - # 24
    frequency:   27.1410898359
  - # 25
    frequency:   31.8821725662
  - # 26
    frequency:   57.6247765368
  - # 27
    frequency:   67.7730322731

- q-position: [    0.0808081,    0.0000000,    0.0000000 ]
  distance:    0.0273538
  band:
  - # 1
    frequency:   -0.6141266995
  - # 2
    frequency:    0.2381429826
  - # 3
    frequency:    0.7879731488
  - # 4
    frequency:    0.9050630997
  - # 5
    frequency:    1.1529828325
  - # 6
    frequency:    1.4579040255
  - # 7
    frequency:    1.7010518665
  - # 8
    frequency:    4.6071134406
  - # 9
    frequency:    4.6670100202
  - # 10
    frequency:    5.0962325330
  - # 11
    frequency:    5.7176967049
  - # 12
    frequency:    5.7892764493
  - # 13
    frequency:    6.7323219612
  - # 14
    frequency:    6.8492933936
  - # 15
    frequency:    7.3065793046
  - # 16
    frequency:    9.1340502873
  - # 17
    frequency:   14.0382841080
  - # 18
    frequency:   14.0729378546
  - # 19
    frequency:   14.1170513913
  - # 20
    frequency:   14.1686334955
  - # 21
    frequency:   15.7565885035
  - # 22
    frequency:   16.8636763892
  - # 23
    frequency:   16.9216277862
  - # 24
    frequency:   27.1387558737
  - # 25
    frequency:   31.8672105653
  - # 26
    frequency:   57.5928610362
  - # 27
    frequency:   67.7655915664

- q-position: [    0.0858586,    0.0000000,    0.0000000 ]
  distance:    0.0290634
  band:
  - # 1
    frequency:   -0.5831596582
  - # 2
    frequency:    0.3163340747
  - # 3
    frequency:    0.8812459008
  - # 4
    frequency:    0.9412929490
  - # 5
    frequency:    1.2173709307
  - # 6
    frequency:    1.5339464725
  - # 7
    frequency:    1.7998965550
  - # 8
    frequency:    4.6144528818
  - # 9
    frequency:    4.6812365377
  - # 10
    frequency:    5.0952242603
  - # 11
    frequency:    5.7335759431
  - # 12
    frequency:    5.8126920471
  - # 13
    frequency:    6.7360713876
  - # 14
    frequency:    6.8652682078
  - # 15
    frequency:    7.3037042298
  - # 16
    frequency:    9.1176328044
  - # 17
    frequency:   14.0408230367
  - # 18
    frequency:   14.0794074217
  - # 19
    frequency:   14.1208674345
  - # 20
    frequency:   14.1786915801
  - # 21
    frequency:   15.7553229055
  - # 22
    frequency:   16.8891842031
  - # 23
    frequency:   16.9534079600
  - # 24
    frequency:   27.1362847378
  - # 25
    frequency:   31.8515912233
  - # 26
    frequency:   57.5593272302
  - # 27
    frequency:   67.7577944336

- q-position: [    0.0909091,    0.0000000,    0.0000000 ]
  distance:    0.0307730
  band:
  - # 1
    frequency:   -0.5489028838
  - # 2
    frequency:    0.3871031190
  - # 3
    frequency:    0.9696757509
  - # 4
    frequency:    0.9769141675
  - # 5
    frequency:    1.2828153804
  - # 6
    frequency:    1.6096330667
  - # 7
    frequency:    1.8992697952
  - # 8
    frequency:    4.6218075730
  - # 9
    frequency:    4.6956980856
  - # 10
    frequency:    5.0943982245
  - # 11
    frequency:    5.7497170189
  - # 12
    frequency:    5.8364957790
  - # 13
    frequency:    6.7398686132
  - # 14
    frequency:    6.8812641317
  - # 15
    frequency:    7.3009892777
  - # 16
    frequency:    9.1002333892
  - # 17
    frequency:   14.0433739417
  - # 18
    frequency:   14.0860472941
  - # 19
    frequency:   14.1248598593
  - # 20
    frequency:   14.1891847524
  - # 21
    frequency:   15.7538749127
  - # 22
    frequency:   16.9147998656
  - # 23
    frequency:   16.9853741399
  - # 24
    frequency:   27.1336792330
  - # 25
    frequency:   31.8353657348
  - # 26
    frequency:   57.5242502768
  - # 27
    frequency:   67.7496615721

- q-position: [    0.0959596,    0.0000000,    0.0000000 ]
  distance:    0.0324827
  band:
  - # 1
    frequency:   -0.5107394517
  - # 2
    frequency:    0.4545124475
  - # 3
    frequency:    1.0121795269
  - # 4
    frequency:    1.0543008204
  - # 5
    frequency:    1.3489291524
  - # 6
    frequency:    1.6850094848
  - # 7
    frequency:    1.9989068199
  - # 8
    frequency:    4.6291215283
  - # 9
    frequency:    4.7103021373
  - # 10
    frequency:    5.0938118148
  - # 11
    frequency:    5.7660180982
  - # 12
    frequency:    5.8605519468
  - # 13
    frequency:    6.7436954102
  - # 14
    frequency:    6.8971077846
  - # 15
    frequency:    7.2985228912
  - # 16
    frequency:    9.0818601974
  - # 17
    frequency:   14.0459275149
  - # 18
    frequency:   14.0928417077
  - # 19
    frequency:   14.1290106800
  - # 20
    frequency:   14.2000762340
  - # 21
    frequency:   15.7522303099
  - # 22
    frequency:   16.9403282853
  - # 23
    frequency:   17.0172802022
  - # 24
    frequency:   27.1309424093
  - # 25
    frequency:   31.8185865400
  - # 26
    frequency:   57.4877077555
  - # 27
    frequency:   67.7412142372

- q-position: [    0.1010101,    0.0000000,    0.0000000 ]
  distance:    0.0341923
  band:
  - # 1
    frequency:   -0.4677641958
  - # 2
    frequency:    0.5202902396
  - # 3
    frequency:    1.0472364444
  - # 4
    frequency:    1.1358248703
  - # 5
    frequency:    1.4154396827
  - # 6
    frequency:    1.7600898084
  - # 7
    frequency:    2.0985852260
  - # 8
    frequency:    4.6363404065
  - # 9
    frequency:    4.7249534723
  - # 10
    frequency:    5.0935300232
  - # 11
    frequency:    5.7823775161
  - # 12
    frequency:    5.8847265297
  - # 13
    frequency:    6.7475351988
  - # 14
    frequency:    6.9126147045
  - # 15
    frequency:    7.2964061692
  - # 16
    frequency:    9.0625232204
  - # 17
    frequency:   14.0484762880
  - # 18
    frequency:   14.0997758918
  - # 19
    frequency:   14.1333002404
  - # 20
    frequency:   14.2113287549
  - # 21
    frequency:   15.7503749322
  - # 22
    frequency:   16.9655777644
  - # 23
    frequency:   17.0488820042
  - # 24
    frequency:   27.1280775698
  - # 25
    frequency:   31.8013070469
  - # 26
    frequency:   57.4497793438
  - # 27
    frequency:   67.7324741407

- q-position: [    0.1060606,    0.0000000,    0.0000000 ]
  distance:    0.0359019
  band:
  - # 1
    frequency:   -0.4185552327
  - # 2
    frequency:    0.5853056360
  - # 3
    frequency:    1.0821662135
  - # 4
    frequency:    1.2147435088
  - # 5
    frequency:    1.4821485945
  - # 6
    frequency:    1.8348685506
  - # 7
    frequency:    2.1981088801
  - # 8
    frequency:    4.6434120774
  - # 9
    frequency:    4.7395542084
  - # 10
    frequency:    5.0936260476
  - # 11
    frequency:    5.7986946606
  - # 12
    frequency:    5.9088876231
  - # 13
    frequency:    6.7513731085
  - # 14
    frequency:    6.9275909146
  - # 15
    frequency:    7.2947522848
  - # 16
    frequency:    9.0422344095
  - # 17
    frequency:   14.0510144267
  - # 18
    frequency:   14.1068357342
  - # 19
    frequency:   14.1377075982
  - # 20
    frequency:   14.2229051041
  - # 21
    frequency:   15.7482947629
  - # 22
    frequency:   16.9903616575
  - # 23
    frequency:   17.0799393941
  - # 24
    frequency:   27.1250882773
  - # 25
    frequency:   31.7835813516
  - # 26
    frequency:   57.4105464893
  - # 27
    frequency:   67.7234633490

- q-position: [    0.1111111,    0.0000000,    0.0000000 ]
  distance:    0.0376115
  band:
  - # 1
    frequency:   -0.3606386663
  - # 2
    frequency:    0.6500337174
  - # 3
    frequency:    1.1170090928
  - # 4
    frequency:    1.2914163598
  - # 5
    frequency:    1.5489056620
  - # 6
    frequency:    1.9093284294
  - # 7
    frequency:    2.2972968106
  - # 8
    frequency:    4.6502871761
  - # 9
    frequency:    4.7540040825
  - # 10
    frequency:    5.0941816463
  - # 11
    frequency:    5.8148708715
  - # 12
    frequency:    5.9329057498
  - # 13
    frequency:    6.7551959649
  - # 14
    frequency:    6.9418361703
  - # 15
    frequency:    7.2936842419
  - # 16
    frequency:    9.0210077869
  - # 17
    frequency:   14.0535374870
  - # 18
    frequency:   14.1140075122
  - # 19
    frequency:   14.1422109426
  - # 20
    frequency:   14.2347685893
  - # 21
    frequency:   15.7459760425
  - # 22
    frequency:   17.0144999576
  - # 23
    frequency:   17.1102181438
  - # 24
    frequency:   27.1219783604
  - # 25
    frequency:   31.7654639573
  - # 26
    frequency:   57.3700920802
  - # 27
    frequency:   67.7142041817

- q-position: [    0.1161616,    0.0000000,    0.0000000 ]
  distance:    0.0393211
  band:
  - # 1
    frequency:   -0.2889121954
  - # 2
    frequency:    0.7147433148
  - # 3
    frequency:    1.1517799728
  - # 4
    frequency:    1.3661106744
  - # 5
    frequency:    1.6155923127
  - # 6
    frequency:    1.9834453088
  - # 7
    frequency:    2.3959754969
  - # 8
    frequency:    4.6569196404
  - # 9
    frequency:    4.7682011869
  - # 10
    frequency:    5.0952870435
  - # 11
    frequency:    5.8308103486
  - # 12
    frequency:    5.9566540564
  - # 13
    frequency:    6.7589922011
  - # 14
    frequency:    6.9551496007
  - # 15
    frequency:    7.2933302442
  - # 16
    frequency:    8.9988595409
  - # 17
    frequency:   14.0560421569
  - # 18
    frequency:   14.1212776880
  - # 19
    frequency:   14.1467880190
  - # 20
    frequency:   14.2468834074
  - # 21
    frequency:   15.7434053863
  - # 22
    frequency:   17.0378207984
  - # 23
    frequency:   17.1394917885
  - # 24
    frequency:   27.1187519175
  - # 25
    frequency:   31.7470094954
  - # 26
    frequency:   57.3285001141
  - # 27
    frequency:   67.7047191113

- q-position: [    0.1212121,    0.0000000,    0.0000000 ]
  distance:    0.0410307
  band:
  - # 1
    frequency:   -0.1883391051
  - # 2
    frequency:    0.7795854782
  - # 3
    frequency:    1.1864781329
  - # 4
    frequency:    1.4390289221
  - # 5
    frequency:    1.6821111591
  - # 6
    frequency:    2.0571913127
  - # 7
    frequency:    2.4939734176
  - # 8
    frequency:    4.6632672288
  - # 9
    frequency:    4.7820434237
  - # 10
    frequency:    5.0970401329