nqpoint: 300    
npath: 3      
segment_nqpoint:
- 100
- 100
- 100
labels:
- [ 'G', 'M' ]
- [ 'M', 'K' ]
- [ 'K', 'G' ]
reciprocal_lattice:
- [   0.29553396,   0.17062661,   0.00000000 ] # a*
- [   0.00000000,   0.34125323,   0.00000000 ] # b*
- [   0.00000000,   0.00000000,   0.03796862 ] # c*
natom: 7      
lattice:
- [     3.383705830141030,     0.000000000000000,     0.000000000000000 ] # a
- [    -1.691852915070515,     2.930375207825135,     0.000000000000000 ] # b
- [     0.000000000000000,     0.000000000000000,    26.337541538955715 ] # c
points:
- symbol: C # 1
  coordinates: [  0.000000000000000,  0.000000000000000,  0.454181542940733 ]
  mass: 12.010700
- symbol: C # 2
  coordinates: [  0.333332985432215,  0.666666983183674,  0.599350580093154 ]
  mass: 12.010700
- symbol: Cl # 3
  coordinates: [  0.666666984744047,  0.333332985985145,  0.341717543632087 ]
  mass: 35.453000
- symbol: Hf # 4
  coordinates: [  0.333332985432215,  0.666666983183674,  0.409727197754757 ]
  mass: 178.490000
- symbol: Hf # 5
  coordinates: [  0.666666984744047,  0.333332985985145,  0.500210653474834 ]
  mass: 178.490000
- symbol: N # 6
  coordinates: [  0.333332985432215,  0.666666983183674,  0.551549569140661 ]
  mass: 14.006700
- symbol: S # 7
  coordinates: [  0.333332985432215,  0.666666983183674,  0.658282456367913 ]
  mass: 32.065000

phonon:
- q-position: [    0.0000000,    0.0000000,    0.0000000 ]
  distance:    0.0000000
  band:
  - # 1
    frequency:   -0.0000153698
  - # 2
    frequency:   -0.0000001675
  - # 3
    frequency:    0.0000128493
  - # 4
    frequency:    1.4056009781
  - # 5
    frequency:    1.4056009781
  - # 6
    frequency:    3.6273405525
  - # 7
    frequency:    3.6273405525
  - # 8
    frequency:    4.9016265933
  - # 9
    frequency:    4.9016265933
  - # 10
    frequency:    4.9099567618
  - # 11
    frequency:    6.6845424035
  - # 12
    frequency:    6.7465719565
  - # 13
    frequency:    6.7465719565
  - # 14
    frequency:    8.4554852698
  - # 15
    frequency:   13.9046466849
  - # 16
    frequency:   13.9046466849
  - # 17
    frequency:   16.1739024416
  - # 18
    frequency:   18.1549470302
  - # 19
    frequency:   18.1549470302
  - # 20
    frequency:   26.9698475502
  - # 21
    frequency:   56.6837784681

- q-position: [    0.0050505,    0.0000000,    0.0000000 ]
  distance:    0.0017235
  band:
  - # 1
    frequency:    0.0018508989
  - # 2
    frequency:    0.0503870266
  - # 3
    frequency:    0.0919028598
  - # 4
    frequency:    1.4058660444
  - # 5
    frequency:    1.4080931671
  - # 6
    frequency:    3.6272663874
  - # 7
    frequency:    3.6279161064
  - # 8
    frequency:    4.8954673209
  - # 9
    frequency:    4.9018458870
  - # 10
    frequency:    4.9166224925
  - # 11
    frequency:    6.6820346940
  - # 12
    frequency:    6.7465309592
  - # 13
    frequency:    6.7489274327
  - # 14
    frequency:    8.4550341551
  - # 15
    frequency:   13.9047211105
  - # 16
    frequency:   13.9048753272
  - # 17
    frequency:   16.1738119266
  - # 18
    frequency:   18.1547239189
  - # 19
    frequency:   18.1550974656
  - # 20
    frequency:   26.9697142991
  - # 21
    frequency:   56.6829946083

- q-position: [    0.0101010,    0.0000000,    0.0000000 ]
  distance:    0.0034470
  band:
  - # 1
    frequency:    0.0073738788
  - # 2
    frequency:    0.1007743271
  - # 3
    frequency:    0.1837498590
  - # 4
    frequency:    1.4066620639
  - # 5
    frequency:    1.4155319619
  - # 6
    frequency:    3.6270441999
  - # 7
    frequency:    3.6296381597
  - # 8
    frequency:    4.8868667345
  - # 9
    frequency:    4.9025035330
  - # 10
    frequency:    4.9267431816
  - # 11
    frequency:    6.6753897704
  - # 12
    frequency:    6.7464081751
  - # 13
    frequency:    6.7551162498
  - # 14
    frequency:    8.4536814111
  - # 15
    frequency:   13.9049442038
  - # 16
    frequency:   13.9055607500
  - # 17
    frequency:   16.1735403405
  - # 18
    frequency:   18.1540557006
  - # 19
    frequency:   18.1555473781
  - # 20
    frequency:   26.9693148726
  - # 21
    frequency:   56.6806443082

- q-position: [    0.0151515,    0.0000000,    0.0000000 ]
  distance:    0.0051705
  band:
  - # 1
    frequency:    0.0164822315
  - # 2
    frequency:    0.1511619703
  - # 3
    frequency:    0.2754849995
  - # 4
    frequency:    1.4079914928
  - # 5
    frequency:    1.4278070495
  - # 6
    frequency:    3.6266749178
  - # 7
    frequency:    3.6324929820
  - # 8
    frequency:    4.8784018825
  - # 9
    frequency:    4.9035988244
  - # 10
    frequency:    4.9377439371
  - # 11
    frequency:    6.6661527958
  - # 12
    frequency:    6.7462042267
  - # 13
    frequency:    6.7635950142
  - # 14
    frequency:    8.4514288401
  - # 15
    frequency:   13.9053154149
  - # 16
    frequency:   13.9067014442
  - # 17
    frequency:   16.1730875612
  - # 18
    frequency:   18.1529457181
  - # 19
    frequency:   18.1562925966
  - # 20
    frequency:   26.9686502495
  - # 21
    frequency:   56.6767314022

- q-position: [    0.0202020,    0.0000000,    0.0000000 ]
  distance:    0.0068940
  band:
  - # 1
    frequency:    0.0290401076
  - # 2
    frequency:    0.2015496082
  - # 3
    frequency:    0.3670520142
  - # 4
    frequency:    1.4098584084
  - # 5
    frequency:    1.4447440133
  - # 6
    frequency:    3.6261601024
  - # 7
    frequency:    3.6364579988
  - # 8
    frequency:    4.8702217136
  - # 9
    frequency:    4.9051305783
  - # 10
    frequency:    4.9494793150
  - # 11
    frequency:    6.6554074649
  - # 12
    frequency:    6.7459201467
  - # 13
    frequency:    6.7732829405
  - # 14
    frequency:    8.4482794515
  - # 15
    frequency:   13.9058338303
  - # 16
    frequency:   13.9082949053
  - # 17
    frequency:   16.1724533897
  - # 18
    frequency:   18.1513995295
  - # 19
    frequency:   18.1573262002
  - # 20
    frequency:   26.9677220576
  - # 21
    frequency:   56.6712622710

- q-position: [    0.0252525,    0.0000000,    0.0000000 ]
  distance:    0.0086175
  band:
  - # 1
    frequency:    0.0448736536
  - # 2
    frequency:    0.2519362708
  - # 3
    frequency:    0.4583942328
  - # 4
    frequency:    1.4122684849
  - # 5
    frequency:    1.4661166814
  - # 6
    frequency:    3.6255019708
  - # 7
    frequency:    3.6415022458
  - # 8
    frequency:    4.8623242015
  - # 9
    frequency:    4.9070971287
  - # 10
    frequency:    4.9619560634
  - # 11
    frequency:    6.6437384771
  - # 12
    frequency:    6.7455573711
  - # 13
    frequency:    6.7835993216
  - # 14
    frequency:    8.4442374703
  - # 15
    frequency:   13.9064981777
  - # 16
    frequency:   13.9103376484
  - # 17
    frequency:   16.1716375566
  - # 18
    frequency:   18.1494248874
  - # 19
    frequency:   18.1586385657
  - # 20
    frequency:   26.9665325675
  - # 21
    frequency:   56.6642458259

- q-position: [    0.0303030,    0.0000000,    0.0000000 ]
  distance:    0.0103410
  band:
  - # 1
    frequency:    0.0637837251
  - # 2
    frequency:    0.3023201577
  - # 3
    frequency:    0.5494544510
  - # 4
    frequency:    1.4152289618
  - # 5
    frequency:    1.4916613827
  - # 6
    frequency:    3.6247034250
  - # 7
    frequency:    3.6475869829
  - # 8
    frequency:    4.8546831432
  - # 9
    frequency:    4.9094963162
  - # 10
    frequency:    4.9752061467
  - # 11
    frequency:    6.6314500255
  - # 12
    frequency:    6.7451177293
  - # 13
    frequency:    6.7942449622
  - # 14
    frequency:    8.4393083480
  - # 15
    frequency:   13.9073068315
  - # 16
    frequency:   13.9128252299
  - # 17
    frequency:   16.1706397324
  - # 18
    frequency:   18.1470317112
  - # 19
    frequency:   18.1602174318
  - # 20
    frequency:   26.9650846848
  - # 21
    frequency:   56.6556934872

- q-position: [    0.0353535,    0.0000000,    0.0000000 ]
  distance:    0.0120645
  band:
  - # 1
    frequency:    0.0855583021
  - # 2
    frequency:    0.3526984290
  - # 3
    frequency:    0.6401748035
  - # 4
    frequency:    1.4187486083
  - # 5
    frequency:    1.5210911685
  - # 6
    frequency:    3.6237680892
  - # 7
    frequency:    3.6546664478
  - # 8
    frequency:    4.8472685443
  - # 9
    frequency:    4.9123254762
  - # 10
    frequency:    4.9892661425
  - # 11
    frequency:    6.6187062134
  - # 12
    frequency:    6.7446034319
  - # 13
    frequency:    6.8050616673
  - # 14
    frequency:    8.4334987759
  - # 15
    frequency:   13.9082578212
  - # 16
    frequency:   13.9157522733
  - # 17
    frequency:   16.1694595398
  - # 18
    frequency:   18.1442320505
  - # 19
    frequency:   18.1620479809
  - # 20
    frequency:   26.9633819398
  - # 21
    frequency:   56.6456191568

- q-position: [    0.0404040,    0.0000000,    0.0000000 ]
  distance:    0.0137880
  band:
  - # 1
    frequency:    0.1099832321
  - # 2
    frequency:    0.4030669946
  - # 3
    frequency:    0.7304966417
  - # 4
    frequency:    1.4228376849
  - # 5
    frequency:    1.5541085246
  - # 6
    frequency:    3.6227003521
  - # 7
    frequency:    3.6626887256
  - # 8
    frequency:    4.8400521530
  - # 9
    frequency:    4.9155814246
  - # 10
    frequency:    5.0041714569
  - # 11
    frequency:    6.6056000887
  - # 12
    frequency:    6.7440170559
  - # 13
    frequency:    6.8159630981
  - # 14
    frequency:    8.4268167004
  - # 15
    frequency:   13.9093488407
  - # 16
    frequency:   13.9191125004
  - # 17
    frequency:   16.1680965710
  - # 18
    frequency:   18.1410400413
  - # 19
    frequency:   18.1641129365
  - # 20
    frequency:   26.9614284753
  - # 21
    frequency:   56.6340391845

- q-position: [    0.0454545,    0.0000000,    0.0000000 ]
  distance:    0.0155115
  band:
  - # 1
    frequency:    0.1368505523
  - # 2
    frequency:    0.4534202985
  - # 3
    frequency:    0.8203604175
  - # 4
    frequency:    1.4275079086
  - # 5
    frequency:    1.5904157168
  - # 6
    frequency:    3.6215054134
  - # 7
    frequency:    3.6715967067
  - # 8
    frequency:    4.8330094964
  - # 9
    frequency:    4.9192604416
  - # 10
    frequency:    5.0199540125
  - # 11
    frequency:    6.5921867551
  - # 12
    frequency:    6.7433615277
  - # 13
    frequency:    6.8269015409
  - # 14
    frequency:    8.4192713385
  - # 15
    frequency:   13.9105772596
  - # 16
    frequency:   13.9228987667
  - # 17
    frequency:   16.1665504076
  - # 18
    frequency:   18.1374718541
  - # 19
    frequency:   18.1663926755
  - # 20
    frequency:   26.9592290318
  - # 21
    frequency:   56.6209723285

- q-position: [    0.0505051,    0.0000000,    0.0000000 ]
  distance:    0.0172350
  band:
  - # 1
    frequency:    0.1659642182
  - # 2
    frequency:    0.5037510959
  - # 3
    frequency:    0.9097055754
  - # 4
    frequency:    1.4327724244
  - # 5
    frequency:    1.6297225021
  - # 6
    frequency:    3.6201893335
  - # 7
    frequency:    3.6813291056
  - # 8
    frequency:    4.8261207742
  - # 9
    frequency:    4.9233582544
  - # 10
    frequency:    5.0366410651
  - # 11
    frequency:    6.5784998468
  - # 12
    frequency:    6.7426401038
  - # 13
    frequency:    6.8378513066
  - # 14
    frequency:    8.4108731940
  - # 15
    frequency:   13.9119401351
  - # 16
    frequency:   13.9271030992
  - # 17
    frequency:   16.1648206455
  - # 18
    frequency:   18.1335456346
  - # 19
    frequency:   18.1688653536
  - # 20
    frequency:   26.9567889317
  - # 21
    frequency:   56.6064397106

- q-position: [    0.0555556,    0.0000000,    0.0000000 ]
  distance:    0.0189585
  band:
  - # 1
    frequency:    0.1971434662
  - # 2
    frequency:    0.5540502196
  - # 3
    frequency:    0.9984704542
  - # 4
    frequency:    1.4386457926
  - # 5
    frequency:    1.6717513512
  - # 6
    frequency:    3.6187590842
  - # 7
    frequency:    3.6918215108
  - # 8
    frequency:    4.8193712745
  - # 9
    frequency:    4.9278700189
  - # 10
    frequency:    5.0542544925
  - # 11
    frequency:    6.5645601614
  - # 12
    frequency:    6.7418563502
  - # 13
    frequency:    6.8487999695
  - # 14
    frequency:    8.4016340726
  - # 15
    frequency:   13.9134342268
  - # 16
    frequency:   13.9317167375
  - # 17
    frequency:   16.1629069239
  - # 18
    frequency:   18.1292814369
  - # 19
    frequency:   18.1715070430
  - # 20
    frequency:   26.9541140606
  - # 21
    frequency:   56.5904647646

- q-position: [    0.0606061,    0.0000000,    0.0000000 ]
  distance:    0.0206820
  band:
  - # 1
    frequency:    0.2302242593
  - # 2
    frequency:    0.6043063286
  - # 3
    frequency:    1.0865922009
  - # 4
    frequency:    1.4451439979
  - # 5
    frequency:    1.7162405682
  - # 6
    frequency:    3.6172225983
  - # 7
    frequency:    3.7030074384
  - # 8
    frequency:    4.8127515436
  - # 9
    frequency:    4.9327903008
  - # 10
    frequency:    5.0728103360
  - # 11
    frequency:    6.5503804377
  - # 12
    frequency:    6.7410141195
  - # 13
    frequency:    6.8597434652
  - # 14
    frequency:    8.3915670960
  - # 15
    frequency:   13.9150560112
  - # 16
    frequency:   13.9367301761
  - # 17
    frequency:   16.1608089589
  - # 18
    frequency:   18.1247011492
  - # 19
    frequency:   18.1742918796
  - # 20
    frequency:   26.9512108474
  - # 21
    frequency:   56.5730731807

- q-position: [    0.0656566,    0.0000000,    0.0000000 ]
  distance:    0.0224055
  band:
  - # 1
    frequency:    0.2650593243
  - # 2
    frequency:    0.6545056318
  - # 3
    frequency:    1.1740066979
  - # 4
    frequency:    1.4522844911
  - # 5
    frequency:    1.7629457720
  - # 6
    frequency:    3.6155888173
  - # 7
    frequency:    3.7148193630
  - # 8
    frequency:    4.8062574092
  - # 9
    frequency:    4.9381130567
  - # 10
    frequency:    5.0923185026
  - # 11
    frequency:    6.5359681516
  - # 12
    frequency:    6.7401175271
  - # 13
    frequency:    6.8706831787
  - # 14
    frequency:    8.3806867122
  - # 15
    frequency:   13.9168016983
  - # 16
    frequency:   13.9421332077
  - # 17
    frequency:   16.1585265823
  - # 18
    frequency:   18.1198284131
  - # 19
    frequency:   18.1771922198
  - # 20
    frequency:   26.9480862432
  - # 21
    frequency:   56.5542928435

- q-position: [    0.0707071,    0.0000000,    0.0000000 ]
  distance:    0.0241290
  band:
  - # 1
    frequency:    0.3015172542
  - # 2
    frequency:    0.7046315764
  - # 3
    frequency:    1.2606485067
  - # 4
    frequency:    1.4600862778
  - # 5
    frequency:    1.8116401902
  - # 6
    frequency:    3.6138677335
  - # 7
    frequency:    3.7271897032
  - # 8
    frequency:    4.7998899094
  - # 9
    frequency:    4.9438316158
  - # 10
    frequency:    5.1127825872
  - # 11
    frequency:    6.5213272487
  - # 12
    frequency:    6.7391709269
  - # 13
    frequency:    6.8816241084
  - # 14
    frequency:    8.3690087037
  - # 15
    frequency:   13.9186672491
  - # 16
    frequency:   13.9479149664
  - # 17
    frequency:   16.1560597844
  - # 18
    frequency:   18.1146885350
  - # 19
    frequency:   18.1801788036
  - # 20
    frequency:   26.9447476973
  - # 21
    frequency:   56.5341537651

- q-position: [    0.0757576,    0.0000000,    0.0000000 ]
  distance:    0.0258525
  band:
  - # 1
    frequency:    0.3394810653
  - # 2
    frequency:    0.7546644868
  - # 3
    frequency:    1.3464508265
  - # 4
    frequency:    1.4685700683
  - # 5
    frequency:    1.8621141474
  - # 6
    frequency:    3.6120704267
  - # 7
    frequency:    3.7400517405
  - # 8
    frequency:    4.7936551553
  - # 9
    frequency:    4.9499386618
  - # 10
    frequency:    5.1341997912
  - # 11
    frequency:    6.5064592912
  - # 12
    frequency:    6.7381788854
  - # 13
    frequency:    6.8925736360
  - # 14
    frequency:    8.3565501910
  - # 15
    frequency:   13.9206483942
  - # 16
    frequency:   13.9540639699
  - # 17
    frequency:   16.1534087620
  - # 18
    frequency:   18.1093083919
  - # 19
    frequency:   18.1832209241
  - # 20
    frequency:   26.9412031336
  - # 21
    frequency:   56.5126880133

- q-position: [    0.0808081,    0.0000000,    0.0000000 ]
  distance:    0.0275760
  band:
  - # 1
    frequency:    0.3788464999
  - # 2
    frequency:    0.8045811351
  - # 3
    frequency:    1.4313454683
  - # 4
    frequency:    1.4777585109
  - # 5
    frequency:    1.9141740502
  - # 6
    frequency:    3.6102090914
  - # 7
    frequency:    3.7533404575
  - # 8
    frequency:    4.7875641500
  - # 9
    frequency:    4.9564262169
  - # 10
    frequency:    5.1565609231
  - # 11
    frequency:    6.4913642721
  - # 12
    frequency:    6.7371461564
  - # 13
    frequency:    6.9035406517
  - # 14
    frequency:    8.3433296307
  - # 15
    frequency:   13.9227406526
  - # 16
    frequency:   13.9605681608
  - # 17
    frequency:   16.1505739711
  - # 18
    frequency:   18.1037163298
  - # 19
    frequency:   18.1862866000
  - # 20
    frequency:   26.9374609241
  - # 21
    frequency:   56.4899296353

- q-position: [    0.0858586,    0.0000000,    0.0000000 ]
  distance:    0.0292995
  band:
  - # 1
    frequency:    0.4195202767
  - # 2
    frequency:    0.8543542198
  - # 3
    frequency:    1.4876765350
  - # 4
    frequency:    1.5152628393
  - # 5
    frequency:    1.9676410929
  - # 6
    frequency:    3.6082970552
  - # 7
    frequency:    3.7669932799
  - # 8
    frequency:    4.7816325743
  - # 9
    frequency:    4.9632856266
  - # 10
    frequency:    5.1798504702
  - # 11
    frequency:    6.4760412409
  - # 12
    frequency:    6.7360776557
  - # 13
    frequency:    6.9145348981
  - # 14
    frequency:    8.3293668084
  - # 15
    frequency:   13.9249393520
  - # 16
    frequency:   13.9674149448
  - # 17
    frequency:   16.1475561821
  - # 18
    frequency:   18.0979420564
  - # 19
    frequency:   18.1893427520
  - # 20
    frequency:   26.9335298620
  - # 21
    frequency:   56.4659145764

- q-position: [    0.0909091,    0.0000000,    0.0000000 ]
  distance:    0.0310230
  band:
  - # 1
    frequency:    0.4614184168
  - # 2
    frequency:    0.9039517204
  - # 3
    frequency:    1.4983518357
  - # 4
    frequency:    1.5981319295
  - # 5
    frequency:    2.0223498483
  - # 6
    frequency:    3.6063487837
  - # 7
    frequency:    3.7809507177
  - # 8
    frequency:    4.7758805499
  - # 9
    frequency:    4.9705075469
  - # 10
    frequency:    5.2040467308
  - # 11
    frequency:    6.4604888220
  - # 12
    frequency:    6.7349784360
  - # 13
    frequency:    6.9255664549
  - # 14
    frequency:    8.3146828254
  - # 15
    frequency:   13.9272396496
  - # 16
    frequency:   13.9745912268
  - # 17
    frequency:   16.1443565396
  - # 18
    frequency:   18.0920165280
  - # 19
    frequency:   18.1923553794
  - # 20
    frequency:   26.9294191340
  - # 21
    frequency:   56.4406805946

- q-position: [    0.0959596,    0.0000000,    0.0000000 ]
  distance:    0.0327465
  band:
  - # 1
    frequency:    0.5044647188
  - # 2
    frequency:    0.9533360887
  - # 3
    frequency:    1.5098155439
  - # 4
    frequency:    1.6798802855
  - # 5
    frequency:    2.0781468629
  - # 6
    frequency:    3.6043798731
  - # 7
    frequency:    3.7951568975
  - # 8
    frequency:    4.7703323844
  - # 9
    frequency:    4.9780819342
  - # 10
    frequency:    5.2291219990
  - # 11
    frequency:    6.4447056766
  - # 12
    frequency:    6.7338536628
  - # 13
    frequency:    6.9366453228
  - # 14
    frequency:    8.2993000786
  - # 15
    frequency:   13.9296365527
  - # 16
    frequency:   13.9820834437
  - # 17
    frequency:   16.1409766237
  - # 18
    frequency:   18.0859718299
  - # 19
    frequency:   18.1952897381
  - # 20
    frequency:   26.9251382905
  - # 21
    frequency:   56.4142671712

- q-position: [    0.1010101,    0.0000000,    0.0000000 ]
  distance:    0.0344700
  band:
  - # 1
    frequency:    0.5485894172
  - # 2
    frequency:    1.0024632245
  - # 3
    frequency:    1.5221031330
  - # 4
    frequency:    1.7604339492
  - # 5
    frequency:    2.1348893477
  - # 6
    frequency:    3.6024070276
  - # 7
    frequency:    3.8095599861
  - # 8
    frequency:    4.7650162993
  - # 9
    frequency:    4.9859980371
  - # 10
    frequency:    5.2550427883
  - # 11
    frequency:    6.4286909377
  - # 12
    frequency:    6.7327085922
  - # 13
    frequency:    6.9477810782
  - # 14
    frequency:    8.2832422327
  - # 15
    frequency:   13.9321249405
  - # 16
    frequency:   13.9898775934
  - # 17
    frequency:   16.1374185134
  - # 18
    frequency:   18.0798410525
  - # 19
    frequency:   18.1981105162
  - # 20
    frequency:   26.9206972166
  - # 21
    frequency:   56.3867154176

- q-position: [    0.1060606,    0.0000000,    0.0000000 ]
  distance:    0.0361935
  band:
  - # 1
    frequency:    0.5937280315
  - # 2
    frequency:    1.0512811767
  - # 3
    frequency:    1.5352556239
  - # 4
    frequency:    1.8397173306
  - # 5
    frequency:    2.1924440404
  - # 6
    frequency:    3.6004480203
  - # 7
    frequency:    3.8241125048
  - # 8
    frequency:    4.7599641420
  - # 9
    frequency:    4.9942443918
  - # 10
    frequency:    5.2817700838
  - # 11
    frequency:    6.4124446407
  - # 12
    frequency:    6.7315485496
  - # 13
    frequency:    6.9589825887
  - # 14
    frequency:    8.2665341865
  - # 15
    frequency:   13.9346995856
  - # 16
    frequency:   13.9979592607
  - # 17
    frequency:   16.1336848494
  - # 18
    frequency:   18.0736581611
  - # 19
    frequency:   18.2007820099
  - # 20
    frequency:   26.9161061003
  - # 21
    frequency:   56.3580679788

- q-position: [    0.1111111,    0.0000000,    0.0000000 ]
  distance:    0.0379170
  band:
  - # 1
    frequency:    0.6398204013
  - # 2
    frequency:    1.0997284998
  - # 3
    frequency:    1.5493211582
  - # 4
    frequency:    1.9176529744
  - # 5
    frequency:    2.2506863093
  - # 6
    frequency:    3.5985216377
  - # 7
    frequency:    3.8387715373
  - # 8
    frequency:    4.7552110759
  - # 9
    frequency:    5.0028088202
  - # 10
    frequency:    5.3092596048
  - # 11
    frequency:    6.3959681657
  - # 12
    frequency:    6.7303789107
  - # 13
    frequency:    6.9702577783
  - # 14
    frequency:    8.2492020307
  - # 15
    frequency:   13.9373551763
  - # 16
    frequency:   14.0063136389
  - # 17
    frequency:   16.1297788961
  - # 18
    frequency:   18.0674578618
  - # 19
    frequency:   18.2032682948
  - # 20
    frequency:   26.9113754017
  - # 21
    frequency:   56.3283689328

- q-position: [    0.1161616,    0.0000000,    0.0000000 ]
  distance:    0.0396405
  band:
  - # 1
    frequency:    0.6868098897
  - # 2
    frequency:    1.1477322004
  - # 3
    frequency:    1.5643570058
  - # 4
    frequency:    1.9941611782
  - # 5
    frequency:    2.3094995637
  - # 6
    frequency:    3.5966476067
  - # 7
    frequency:    3.8534988328
  - # 8
    frequency:    4.7507952461
  - # 9
    frequency:    5.0116784324
  - # 10
    frequency:    5.3374620596
  - # 11
    frequency:    6.3792647065
  - # 12
    frequency:    6.7292050850
  - # 13
    frequency:    6.9816134406
  - # 14
    frequency:    8.2312729988
  - # 15
    frequency:   13.9400863379
  - # 16
    frequency:   14.0149255488
  - # 17
    frequency:   16.1257046016
  - # 18
    frequency:   18.0612754623
  - # 19
    frequency:   18.2055333959
  - # 20
    frequency:   26.9065158208
  - # 21
    frequency:   56.2976636885

- q-position: [    0.1212121,    0.0000000,    0.0000000 ]
  distance:    0.0413640
  band:
  - # 1
    frequency:    0.7346427369
  - # 2
    frequency:    1.1952052376
  - # 3
    frequency:    1.5804320439
  - # 4
    frequency:    2.0691594229
  - # 5
    frequency:    2.3687750264
  - # 6
    frequency:    3.5948465027
  - # 7
    frequency:    3.8682608077
  - # 8
    frequency:    4.7467574107
  - # 9
    frequency:    5.0208396317
  - # 10
    frequency:    5.3663233677
  - # 11
    frequency:    6.3623397851
  - # 12
    frequency:    6.7280325017
  - # 13
    frequency:    6.9930550964
  - # 14
    frequency:    8.2127754111
  - # 15
    frequency:   13.9428876549
  - # 16
    frequency:   14.0237794529
  - # 17
    frequency:   16.1214666526
  - # 18
    frequency:   18.0551467287
  - # 19
    frequency:   18.2075414529
  - # 20
    frequency:   26.9015382647
  - # 21
    frequency:   56.2659988799

- q-position: [    0.1262626,    0.0000000,    0.0000000 ]
  distance:    0.0430875
  band:
  - # 1
    frequency:    0.7832675419
  - # 2
    frequency:    1.2420436243
  - # 3
    frequency:    1.5976296588
  - # 4
    frequency:    2.1425615973
  - # 5
    frequency:    2.4284119068
  - # 6
    frequency:    3.5931396403
  - # 7
    frequency:    3.8830284460
  - # 8
    frequency:    4.7431405308
  - # 9
    frequency:    5.0302781238
  - # 10
    frequency:    5.3957848177
  - # 11
    frequency:    6.3452018329
  - # 12
    frequency:    6.7268665980
  - # 13
    frequency:    7.0045868933
  - # 14
    frequency:    8.1937386117
  - # 15
    frequency:   13.9457536926
  - # 16
    frequency:   14.0328594690
  - # 17
    frequency:   16.1170705240
  - # 18
    frequency:   18.0491077388
  - # 19
    frequency:   18.2092568821
  - # 20
    frequency:   26.8964538141
  - # 21
    frequency:   56.2334222582

- q-position: [    0.1313131,    0.0000000,    0.0000000 ]
  distance:    0.0448110
  band:
  - # 1
    frequency:    0.8326348534
  - # 2
    frequency:    1.2881233703
  - # 3
    frequency:    1.6160508307
  - # 4
    frequency:    2.2142770391
  - # 5
    frequency:    2.4883179672
  - # 6
    frequency:    3.5915489461
  - # 7
    frequency:    3.8977770996
  - # 8
    frequency:    4.7399893061
  - # 9
    frequency:    5.0399789310
  - # 10
    frequency:    5.4257831198
  - # 11
    frequency:    6.3278628728
  - # 12
    frequency:    6.7257128112
  - # 13
    frequency:    7.0162115474
  - # 14
    frequency:    8.1741928993
  - # 15
    frequency:   13.9486790182
  - # 16
    frequency:   14.0421493796
  - # 17
    frequency:   16.1125225213
  - # 18
    frequency:   18.0431947315
  - # 19
    frequency:   18.2106445343
  - # 20
    frequency:   26.8912736903
  - # 21
    frequency:   56.1999825824

- q-position: [    0.1363636,    0.0000000,    0.0000000 ]
  distance:    0.0465345
  band:
  - # 1
    frequency:    0.8826968509
  - # 2
    frequency:    1.3332978926
  - # 3
    frequency:    1.6358167739
  - # 4
    frequency:    2.2842094865
  - # 5
    frequency:    2.5484104114
  - # 6
    frequency:    3.5900968139
  - # 7
    frequency:    3.9124861869
  - # 8
    frequency:    4.7373496457
  - # 9
    frequency:    5.0499264088
  - # 10
    frequency:    5.4562502986
  - # 11
    frequency:    6.3103393461
  - # 12
    frequency:    6.7245765726
  - # 13
    frequency:    7.0279303239
  - # 14
    frequency:    8.1541694520
  - # 15
    frequency:   13.9516582221
  - # 16
    frequency:   14.0516326410
  - # 17
    frequency:   16.1078298136
  - # 18
    frequency:   18.0374439536
  - # 19
    frequency:   18.2116698479
  - # 20
    frequency:   26.8860092205
  - # 21
    frequency:   56.1657295079

- q-position: [    0.1414141,    0.0000000,    0.0000000 ]
  distance:    0.0482580
  band:
  - # 1
    frequency:    0.9334070986
  - # 2
    frequency:    1.3773971759
  - # 3
    frequency:    1.6570698496
  - # 4
    frequency:    2.3522561249
  - # 5
    frequency:    2.6086169299
  - # 6
    frequency:    3.5888059437
  - # 7
    frequency:    3.9271387864
  - # 8
    frequency:    4.7352680601
  - # 9
    frequency:    5.0601042681
  - # 10
    frequency:    5.4871133470
  - # 11
    frequency:    6.2926531540
  - # 12
    frequency:    6.7234633055
  - # 13
    frequency:    7.0397430545
  - # 14
    frequency:    8.1337002470
  - # 15
    frequency:   13.9546859379
  - # 16
    frequency:   14.0612923913
  - # 17
    frequency:   16.1030004556
  - # 18
    frequency:   18.0318915040
  - # 19
    frequency:   18.2122989986
  - # 20
    frequency:   26.8806718040
  - # 21
    frequency:   56.1307134736

- q-position: [    0.1464646,    0.0000000,    0.0000000 ]
  distance:    0.0499815
  band:
  - # 1
    frequency:    0.9847203595
  - # 2
    frequency:    1.4202309091
  - # 3
    frequency:    1.6799705228
  - # 4
    frequency:    2.4183070158
  - # 5
    frequency:    2.6688766357
  - # 6
    frequency:    3.5876991655
  - # 7
    frequency:    3.9417211245
  - # 8
    frequency:    4.7337909597
  - # 9
    frequency:    5.0704956010
  - # 10
    frequency:    5.5182935327
  - # 11
    frequency:    6.2748330168
  - # 12
    frequency:    6.7223784248
  - # 13
    frequency:    7.0516481887
  - # 14
    frequency:    8.1128179762
  - # 15
    frequency:   13.9577568626
  - # 16
    frequency:   14.0711114590
  - # 17
    frequency:   16.0980433975
  - # 18
    frequency:   18.0265731761
  - # 19
    frequency:   18.2124990439
  - # 20
    frequency:   26.8752728771
  - # 21
    frequency:   56.0949855888

- q-position: [    0.1515152,    0.0000000,    0.0000000 ]
  distance:    0.0517050
  band:
  - # 1
    frequency:    1.0365924548
  - # 2
    frequency:    1.4615987148
  - # 3
    frequency:    1.7046872464
  - # 4
    frequency:    2.4822452754
  - # 5
    frequency:    2.7291405434
  - # 6
    frequency:    3.5867992497
  - # 7
    frequency:    3.9562219574
  - # 8
    frequency:    4.7329638456
  - # 9
    frequency:    5.0810829111
  - # 10
    frequency:    5.5497051909
  - # 11
    frequency:    6.2569163084
  - # 12
    frequency:    6.7213273405
  - # 13
    frequency:    7.0636428744
  - # 14
    frequency:    8.0915559581
  - # 15
    frequency:   13.9608657752
  - # 16
    frequency:   14.0810723727
  - # 17
    frequency:   16.0929684810
  - # 18
    frequency:   18.0215242983
  - # 19
    frequency:   18.2122380640
  - # 20
    frequency:   26.8698238783
  - # 21