nqpoint: 300    
npath: 3      
segment_nqpoint:
- 100
- 100
- 100
labels:
- [ 'G', 'M' ]
- [ 'M', 'K' ]
- [ 'K', 'G' ]
reciprocal_lattice:
- [   0.30363316,   0.17530269,   0.00000000 ] # a*
- [   0.00000000,   0.35060538,   0.00000000 ] # b*
- [   0.00000000,   0.00000000,   0.03948475 ] # c*
natom: 7      
lattice:
- [     3.293447871283901,     0.000000000000000,     0.000000000000000 ] # a
- [    -1.646723935641950,     2.852209522564429,     0.000000000000000 ] # b
- [     0.000000000000000,     0.000000000000000,    25.326231862518835 ] # c
points:
- symbol: C # 1
  coordinates: [  0.000000000000000,  0.000000000000000,  0.443952565427698 ]
  mass: 12.010700
- symbol: C # 2
  coordinates: [  0.333332985432215,  0.666666983183674,  0.597062686235742 ]
  mass: 12.010700
- symbol: H # 3
  coordinates: [  0.666666984744047,  0.333332985985145,  0.355362773619688 ]
  mass: 1.007940
- symbol: Hf # 4
  coordinates: [  0.333332985432215,  0.666666983183674,  0.394687159171210 ]
  mass: 178.490000
- symbol: Hf # 5
  coordinates: [  0.666666984744047,  0.333332985985145,  0.491015834564149 ]
  mass: 178.490000
- symbol: N # 6
  coordinates: [  0.333332985432215,  0.666666983183674,  0.547764281340581 ]
  mass: 14.006700
- symbol: O # 7
  coordinates: [  0.333332985432215,  0.666666983183674,  0.644637226380312 ]
  mass: 15.999400

phonon:
- q-position: [    0.0000000,    0.0000000,    0.0000000 ]
  distance:    0.0000000
  band:
  - # 1
    frequency:   -0.0000140685
  - # 2
    frequency:   -0.0000004437
  - # 3
    frequency:    0.0000118274
  - # 4
    frequency:    1.1023234833
  - # 5
    frequency:    1.1023234833
  - # 6
    frequency:    3.9666296236
  - # 7
    frequency:    3.9666296236
  - # 8
    frequency:    5.2621768577
  - # 9
    frequency:    6.2945964013
  - # 10
    frequency:    6.2945964013
  - # 11
    frequency:    7.9374934994
  - # 12
    frequency:   16.9092649730
  - # 13
    frequency:   16.9092649731
  - # 14
    frequency:   17.2804833657
  - # 15
    frequency:   18.5414906113
  - # 16
    frequency:   18.5414906113
  - # 17
    frequency:   27.8540731993
  - # 18
    frequency:   30.8870890155
  - # 19
    frequency:   30.8870890156
  - # 20
    frequency:   38.0761419451
  - # 21
    frequency:   68.9116433575

- q-position: [    0.0050505,    0.0000000,    0.0000000 ]
  distance:    0.0017707
  band:
  - # 1
    frequency:    0.0012176497
  - # 2
    frequency:    0.0433609242
  - # 3
    frequency:    0.0891783500
  - # 4
    frequency:    1.1018042630
  - # 5
    frequency:    1.1037162939
  - # 6
    frequency:    3.9665513795
  - # 7
    frequency:    3.9671277329
  - # 8
    frequency:    5.2619058586
  - # 9
    frequency:    6.2950048933
  - # 10
    frequency:    6.2954934233
  - # 11
    frequency:    7.9372299808
  - # 12
    frequency:   16.9094480754
  - # 13
    frequency:   16.9095467315
  - # 14
    frequency:   17.2801601889
  - # 15
    frequency:   18.5411920992
  - # 16
    frequency:   18.5413496478
  - # 17
    frequency:   27.8536582719
  - # 18
    frequency:   30.8861607404
  - # 19
    frequency:   30.8863854094
  - # 20
    frequency:   38.0761309768
  - # 21
    frequency:   68.9105206310

- q-position: [    0.0101010,    0.0000000,    0.0000000 ]
  distance:    0.0035415
  band:
  - # 1
    frequency:    0.0048675563
  - # 2
    frequency:    0.0867737607
  - # 3
    frequency:    0.1782751024
  - # 4
    frequency:    1.1002479411
  - # 5
    frequency:    1.1078887371
  - # 6
    frequency:    3.9663173982
  - # 7
    frequency:    3.9686193784
  - # 8
    frequency:    5.2610965345
  - # 9
    frequency:    6.2962293103
  - # 10
    frequency:    6.2981798073
  - # 11
    frequency:    7.9364400741
  - # 12
    frequency:   16.9099966941
  - # 13
    frequency:   16.9103910861
  - # 14
    frequency:   17.2791917932
  - # 15
    frequency:   18.5402976279
  - # 16
    frequency:   18.5409272196
  - # 17
    frequency:   27.8524150308
  - # 18
    frequency:   30.8833782721
  - # 19
    frequency:   30.8842764114
  - # 20
    frequency:   38.0760981383
  - # 21
    frequency:   68.9071544329

- q-position: [    0.0151515,    0.0000000,    0.0000000 ]
  distance:    0.0053122
  band:
  - # 1
    frequency:    0.0109404128
  - # 2
    frequency:    0.1302901070
  - # 3
    frequency:    0.2672051387
  - # 4
    frequency:    1.0976585441
  - # 5
    frequency:    1.1148239096
  - # 6
    frequency:    3.9659299301
  - # 7
    frequency:    3.9710965508
  - # 8
    frequency:    5.2597597733
  - # 9
    frequency:    6.2982664764
  - # 10
    frequency:    6.3026416199
  - # 11
    frequency:    7.9351257312
  - # 12
    frequency:   16.9109087656
  - # 13
    frequency:   16.9117952784
  - # 14
    frequency:   17.2775815751
  - # 15
    frequency:   18.5388103906
  - # 16
    frequency:   18.5402247149
  - # 17
    frequency:   27.8503480903
  - # 18
    frequency:   30.8787486812
  - # 19
    frequency:   30.8807674759
  - # 20
    frequency:   38.0760436290
  - # 21
    frequency:   68.9015507016

- q-position: [    0.0202020,    0.0000000,    0.0000000 ]
  distance:    0.0070829
  band:
  - # 1
    frequency:    0.0194209894
  - # 2
    frequency:    0.1739609263
  - # 3
    frequency:    0.3558757634
  - # 4
    frequency:    1.0940428165
  - # 5
    frequency:    1.1244972671
  - # 6
    frequency:    3.9653927208
  - # 7
    frequency:    3.9745460258
  - # 8
    frequency:    5.2579132958
  - # 9
    frequency:    6.3011111045
  - # 10
    frequency:    6.3088560059
  - # 11
    frequency:    7.9332902206
  - # 12
    frequency:   16.9121808574
  - # 13
    frequency:   16.9137547227
  - # 14
    frequency:   17.2753351719
  - # 15
    frequency:   18.5367357056
  - # 16
    frequency:   18.5392444529
  - # 17
    frequency:   27.8474651101
  - # 18
    frequency:   30.8722837491
  - # 19
    frequency:   30.8758676736
  - # 20
    frequency:   38.0759677796
  - # 21
    frequency:   68.8937193180

- q-position: [    0.0252525,    0.0000000,    0.0000000 ]
  distance:    0.0088537
  band:
  - # 1
    frequency:    0.0302884376
  - # 2
    frequency:    0.2178362347
  - # 3
    frequency:    0.4441814246
  - # 4
    frequency:    1.0894102713
  - # 5
    frequency:    1.1368824066
  - # 6
    frequency:    3.9647110009
  - # 7
    frequency:    3.9789495494
  - # 8
    frequency:    5.2555810508
  - # 9
    frequency:    6.3047558050
  - # 10
    frequency:    6.3167917061
  - # 11
    frequency:    7.9309381512
  - # 12
    frequency:   16.9138081777
  - # 13
    frequency:   16.9162630242
  - # 14
    frequency:   17.2724604278
  - # 15
    frequency:   18.5340810099
  - # 16
    frequency:   18.5379896913
  - # 17
    frequency:   27.8437767487
  - # 18
    frequency:   30.8639999629
  - # 19
    frequency:   30.8695896598
  - # 20
    frequency:   38.0758710507
  - # 21
    frequency:   68.8836740801

- q-position: [    0.0303030,    0.0000000,    0.0000000 ]
  distance:    0.0106244
  band:
  - # 1
    frequency:    0.0435166987
  - # 2
    frequency:    0.2619647890
  - # 3
    frequency:    0.5319962174
  - # 4
    frequency:    1.0837732607
  - # 5
    frequency:    1.1519600162
  - # 6
    frequency:    3.9638914737
  - # 7
    frequency:    3.9842840893
  - # 8
    frequency:    5.2527924318
  - # 9
    frequency:    6.3091910986
  - # 10
    frequency:    6.3264097203
  - # 11
    frequency:    7.9280755063
  - # 12
    frequency:   16.9157845890
  - # 13
    frequency:   16.9193120037
  - # 14
    frequency:   17.2689673457
  - # 15
    frequency:   18.5308558507
  - # 16
    frequency:   18.5364646375
  - # 17
    frequency:   27.8392965992
  - # 18
    frequency:   30.8539185091
  - # 19
    frequency:   30.8619496325
  - # 20
    frequency:   38.0757540307
  - # 21
    frequency:   68.8714326677

- q-position: [    0.0353535,    0.0000000,    0.0000000 ]
  distance:    0.0123951
  band:
  - # 1
    frequency:    0.0590749526
  - # 2
    frequency:    0.3063937770
  - # 3
    frequency:    0.6191625588
  - # 4
    frequency:    1.0771470691
  - # 5
    frequency:    1.1697312888
  - # 6
    frequency:    3.9629422964
  - # 7
    frequency:    3.9905221488
  - # 8
    frequency:    5.2495813695
  - # 9
    frequency:    6.3144054339
  - # 10
    frequency:    6.3376640649
  - # 11
    frequency:    7.9247096895
  - # 12
    frequency:   16.9181026262
  - # 13
    frequency:   16.9228917281
  - # 14
    frequency:   17.2648680280
  - # 15
    frequency:   18.5270718746
  - # 16
    frequency:   18.5346744610
  - # 17
    frequency:   27.8340411066
  - # 18
    frequency:   30.8420652627
  - # 19
    frequency:   30.8529672767
  - # 20
    frequency:   38.0756174320
  - # 21
    frequency:   68.8570165982

- q-position: [    0.0404040,    0.0000000,    0.0000000 ]
  distance:    0.0141659
  band:
  - # 1
    frequency:    0.0769280725
  - # 2
    frequency:    0.3511685118
  - # 3
    frequency:    0.7054733276
  - # 4
    frequency:    1.0695500270
  - # 5
    frequency:    1.1902382235
  - # 6
    frequency:    3.9618730559
  - # 7
    frequency:    3.9976321353
  - # 8
    frequency:    5.2459853568
  - # 9
    frequency:    6.3203852100
  - # 10
    frequency:    6.3505025692
  - # 11
    frequency:    7.9208495831
  - # 12
    frequency:   16.9207535185
  - # 13
    frequency:   16.9269905481
  - # 14
    frequency:   17.2601766051
  - # 15
    frequency:   18.5227428137
  - # 16
    frequency:   18.5326253087
  - # 17
    frequency:   27.8280294673
  - # 18
    frequency:   30.8284707745
  - # 19
    frequency:   30.8426656979
  - # 20
    frequency:   38.0754620878
  - # 21
    frequency:   68.8404511713

- q-position: [    0.0454545,    0.0000000,    0.0000000 ]
  distance:    0.0159366
  band:
  - # 1
    frequency:    0.0970370575
  - # 2
    frequency:    0.3963321279
  - # 3
    frequency:    0.7906429136
  - # 4
    frequency:    1.0610036504
  - # 5
    frequency:    1.2135951339
  - # 6
    frequency:    3.9606947387
  - # 7
    frequency:    4.0055787757
  - # 8
    frequency:    5.2420444613
  - # 9
    frequency:    6.3271148034
  - # 10
    frequency:    6.3648676587
  - # 11
    frequency:    7.9165056217
  - # 12
    frequency:   16.9237272156
  - # 13
    frequency:   16.9315951391
  - # 14
    frequency:   17.2549091547
  - # 15
    frequency:   18.5178844697
  - # 16
    frequency:   18.5303243210
  - # 17
    frequency:   27.8212835112
  - # 18
    frequency:   30.8131702532
  - # 19
    frequency:   30.8310713441
  - # 20
    frequency:   38.0752889477
  - # 21
    frequency:   68.8217654050

- q-position: [    0.0505051,    0.0000000,    0.0000000 ]
  distance:    0.0177073
  band:
  - # 1
    frequency:    0.1193594282
  - # 2
    frequency:    0.4419252769
  - # 3
    frequency:    0.8742599238
  - # 4
    frequency:    1.0515328078
  - # 5
    frequency:    1.2400384284
  - # 6
    frequency:    3.9594196924
  - # 7
    frequency:    4.0143235701
  - # 8
    frequency:    5.2378003727
  - # 9
    frequency:    6.3345766030
  - # 10
    frequency:    6.3806970811
  - # 11
    frequency:    7.9116898824
  - # 12
    frequency:   16.9270124181
  - # 13
    frequency:   16.9366905483
  - # 14
    frequency:   17.2490836135
  - # 15
    frequency:   18.5125146948
  - # 16
    frequency:   18.5277796490
  - # 17
    frequency:   27.8138275672
  - # 18
    frequency:   30.7962035425
  - # 19
    frequency:   30.8182139154
  - # 20
    frequency:   38.0750990726
  - # 21
    frequency:   68.8009919618

- q-position: [    0.0555556,    0.0000000,    0.0000000 ]
  distance:    0.0194781
  band:
  - # 1
    frequency:    0.1438495771
  - # 2
    frequency:    0.4879858200
  - # 3
    frequency:    0.9557122493
  - # 4
    frequency:    1.0411659218
  - # 5
    frequency:    1.2700038240
  - # 6
    frequency:    3.9580615788
  - # 7
    frequency:    4.0238252761
  - # 8
    frequency:    5.2332955240
  - # 9
    frequency:    6.3427510497
  - # 10
    frequency:    6.3979245376
  - # 11
    frequency:    7.9064161948
  - # 12
    frequency:   16.9305966132
  - # 13
    frequency:   16.9422602418
  - # 14
    frequency:   17.2427196823
  - # 15
    frequency:   18.5066533701
  - # 16
    frequency:   18.5250004709
  - # 17
    frequency:   27.8056883115
  - # 18
    frequency:   30.7776150928
  - # 19
    frequency:   30.8041262637
  - # 20
    frequency:   38.0748936293
  - # 21
    frequency:   68.7781670662

- q-position: [    0.0606061,    0.0000000,    0.0000000 ]
  distance:    0.0212488
  band:
  - # 1
    frequency:    0.1704590746
  - # 2
    frequency:    0.5345485033
  - # 3
    frequency:    1.0299352199
  - # 4
    frequency:    1.0340825529
  - # 5
    frequency:    1.3042328461
  - # 6
    frequency:    3.9566353176
  - # 7
    frequency:    4.0340404144
  - # 8
    frequency:    5.2285723128
  - # 9
    frequency:    6.3516166849
  - # 10
    frequency:    6.4164801965
  - # 11
    frequency:    7.9007002733
  - # 12
    frequency:   16.9344661136
  - # 13
    frequency:   16.9482861542
  - # 14
    frequency:   17.2358387292
  - # 15
    frequency:   18.5003223804
  - # 16
    frequency:   18.5219970087
  - # 17
    frequency:   27.7968946004
  - # 18
    frequency:   30.7574539256
  - # 19
    frequency:   30.7888442813
  - # 20
    frequency:   38.0746738848
  - # 21
    frequency:   68.7533304123

- q-position: [    0.0656566,    0.0000000,    0.0000000 ]
  distance:    0.0230195
  band:
  - # 1
    frequency:    0.1991369355
  - # 2
    frequency:    0.5816445914
  - # 3
    frequency:    1.0178770617
  - # 4
    frequency:    1.1080597891
  - # 5
    frequency:    1.3438629628
  - # 6
    frequency:    3.9551570196
  - # 7
    frequency:    4.0449237881
  - # 8
    frequency:    5.2236724389
  - # 9
    frequency:    6.3611502052
  - # 10
    frequency:    6.4362910728
  - # 11
    frequency:    7.8945598767
  - # 12
    frequency:   16.9386061030
  - # 13
    frequency:   16.9547487330
  - # 14
    frequency:   17.2284636950
  - # 15
    frequency:   18.4935455862
  - # 16
    frequency:   18.5187805421
  - # 17
    frequency:   27.7874772878
  - # 18
    frequency:   30.7357735901
  - # 19
    frequency:   30.7724067786
  - # 20
    frequency:   38.0744411992
  - # 21
    frequency:   68.7265250636

- q-position: [    0.0707071,    0.0000000,    0.0000000 ]
  distance:    0.0247903
  band:
  - # 1
    frequency:    0.2298298524
  - # 2
    frequency:    0.6293013938
  - # 3
    frequency:    1.0050324122
  - # 4
    frequency:    1.1760514829
  - # 5
    frequency:    1.3903166131
  - # 6
    frequency:    3.9536439083
  - # 7
    frequency:    4.0564290086
  - # 8
    frequency:    5.2186363646
  - # 9
    frequency:    6.3713265256
  - # 10
    frequency:    6.4572812701
  - # 11
    frequency:    7.8880149982
  - # 12
    frequency:   16.9430006851
  - # 13
    frequency:   16.9616269751
  - # 14
    frequency:   17.2206190059
  - # 15
    frequency:   18.4863487918
  - # 16
    frequency:   18.5153634201
  - # 17
    frequency:   27.7774690280
  - # 18
    frequency:   30.7126321108
  - # 19
    frequency:   30.7548553526
  - # 20
    frequency:   38.0741970196
  - # 21
    frequency:   68.6977973435

- q-position: [    0.0757576,    0.0000000,    0.0000000 ]
  distance:    0.0265610
  band:
  - # 1
    frequency:    0.2624824040
  - # 2
    frequency:    0.6775415100
  - # 3
    frequency:    0.9914476357
  - # 4
    frequency:    1.2367957406
  - # 5
    frequency:    1.4446901734
  - # 6
    frequency:    3.9521142298
  - # 7
    frequency:    4.0685090216
  - # 8
    frequency:    5.2135028964
  - # 9
    frequency:    6.3821188514
  - # 10
    frequency:    6.4793720830
  - # 11
    frequency:    7.8810880919
  - # 12
    frequency:   16.9476329388
  - # 13
    frequency:   16.9688984466
  - # 14
    frequency:   17.2123305053
  - # 15
    frequency:   18.4787597091
  - # 16
    frequency:   18.5117590694
  - # 17
    frequency:   27.7669040645
  - # 18
    frequency:   30.6880919253
  - # 19
    frequency:   30.7362342457
  - # 20
    frequency:   38.0739428724
  - # 21
    frequency:   68.6671967186

- q-position: [    0.0808081,    0.0000000,    0.0000000 ]
  distance:    0.0283317
  band:
  - # 1
    frequency:    0.2970372443
  - # 2
    frequency:    0.7263812486
  - # 3
    frequency:    0.9771761617
  - # 4
    frequency:    1.2902721046
  - # 5
    frequency:    1.5068437765
  - # 6
    frequency:    3.9505871495
  - # 7
    frequency:    4.0811166264
  - # 8
    frequency:    5.2083088807
  - # 9
    frequency:    6.3934987577
  - # 10
    frequency:    6.5024819679
  - # 11
    frequency:    7.8738043413
  - # 12
    frequency:   16.9524849785
  - # 13
    frequency:   16.9765392692
  - # 14
    frequency:   17.2036254181
  - # 15
    frequency:   18.4708079174
  - # 16
    frequency:   18.5079819977
  - # 17
    frequency:   27.7558180063
  - # 18
    frequency:   30.6622198110
  - # 19
    frequency:   30.7165901952
  - # 20
    frequency:   38.0736803557
  - # 21
    frequency:   68.6347756731

- q-position: [    0.0858586,    0.0000000,    0.0000000 ]
  distance:    0.0301025
  band:
  - # 1
    frequency:    0.3334352780
  - # 2
    frequency:    0.7758261145
  - # 3
    frequency:    0.9622831293
  - # 4
    frequency:    1.3378397862
  - # 5
    frequency:    1.5752634897
  - # 6
    frequency:    3.9490826371
  - # 7
    frequency:    4.0942049850
  - # 8
    frequency:    5.2030890026
  - # 9
    frequency:    6.4054362771
  - # 10
    frequency:    6.5265263879
  - # 11
    frequency:    7.8661919774
  - # 12
    frequency:   16.9575380201
  - # 13
    frequency:   16.9845240514
  - # 14
    frequency:   17.1945323758
  - # 15
    frequency:   18.4625248175
  - # 16
    frequency:   18.5040477913
  - # 17
    frequency:   27.7442475925
  - # 18
    frequency:   30.6350867996
  - # 19
    frequency:   30.6959722749
  - # 20
    frequency:   38.0734111316
  - # 21
    frequency:   68.6005895765

- q-position: [    0.0909091,    0.0000000,    0.0000000 ]
  distance:    0.0318732
  band:
  - # 1
    frequency:    0.3716158255
  - # 2
    frequency:    0.8258519311
  - # 3
    frequency:    0.9468644468
  - # 4
    frequency:    1.3813573373
  - # 5
    frequency:    1.6479418296
  - # 6
    frequency:    3.9476213370
  - # 7
    frequency:    4.1077281159
  - # 8
    frequency:    5.1978756743
  - # 9
    frequency:    6.4178999961
  - # 10
    frequency:    6.5514175413
  - # 11
    frequency:    7.8582826532
  - # 12
    frequency:   16.9627724530
  - # 13
    frequency:   16.9928257142
  - # 14
    frequency:   17.1850815483
  - # 15
    frequency:   18.4539435804
  - # 16
    frequency:   18.4999731066
  - # 17
    frequency:   27.7322304452
  - # 18
    frequency:   30.6067680786
  - # 19
    frequency:   30.6744317281
  - # 20
    frequency:   38.0731369179
  - # 21
    frequency:   68.5646965440

- q-position: [    0.0959596,    0.0000000,    0.0000000 ]
  distance:    0.0336440
  band:
  - # 1
    frequency:    0.4115167800
  - # 2
    frequency:    0.8762480643
  - # 3
    frequency:    0.9312038024
  - # 4
    frequency:    1.4223870764
  - # 5
    frequency:    1.7231733414
  - # 6
    frequency:    3.9462244279
  - # 7
    frequency:    4.1216413688
  - # 8
    frequency:    5.1926989995
  - # 9
    frequency:    6.4308571585
  - # 10
    frequency:    6.5770639806
  - # 11
    frequency:    7.8501118847
  - # 12
    frequency:   16.9681679186
  - # 13
    frequency:   17.0014151263
  - # 14
    frequency:   17.1753049735
  - # 15
    frequency:   18.4450990890
  - # 16
    frequency:   18.4957756531
  - # 17
    frequency:   27.7198048141
  - # 18
    frequency:   30.5773428792
  - # 19
    frequency:   30.6520217941
  - # 20
    frequency:   38.0728594800
  - # 21
    frequency:   68.5271572898

- q-position: [    0.1010101,    0.0000000,    0.0000000 ]
  distance:    0.0354147
  band:
  - # 1
    frequency:    0.4530747579
  - # 2
    frequency:    0.9116923151
  - # 3
    frequency:    0.9306980602
  - # 4
    frequency:    1.4619906706
  - # 5
    frequency:    1.7997588788
  - # 6
    frequency:    3.9449134687
  - # 7
    frequency:    4.1359018787
  - # 8
    frequency:    5.1875867990
  - # 9
    frequency:    6.4442737765
  - # 10
    frequency:    6.6033701268
  - # 11
    frequency:    7.8417195663
  - # 12
    frequency:   16.9737033945
  - # 13
    frequency:   17.0102603620
  - # 14
    frequency:   17.1652372686
  - # 15
    frequency:   18.4360278731
  - # 16
    frequency:   18.4914741681
  - # 17
    frequency:   27.7070093124
  - # 18
    frequency:   30.5468943492
  - # 19
    frequency:   30.6287975270
  - # 20
    frequency:   38.0725806222
  - # 21
    frequency:   68.4880349747

- q-position: [    0.1060606,    0.0000000,    0.0000000 ]
  distance:    0.0371854
  band:
  - # 1
    frequency:    0.4962252445
  - # 2
    frequency:    0.8966634922
  - # 3
    frequency:    0.9809450270
  - # 4
    frequency:    1.5008284705
  - # 5
    frequency:    1.8769060214
  - # 6
    frequency:    3.9437102335
  - # 7
    frequency:    4.1504689942
  - # 8
    frequency:    5.1825646861
  - # 9
    frequency:    6.4581147484
  - # 10
    frequency:    6.6302356846
  - # 11
    frequency:    7.8331505718
  - # 12
    frequency:   16.9793572862
  - # 13
    frequency:   17.0193251811
  - # 14
    frequency:   17.1549171270
  - # 15
    frequency:   18.4267680351
  - # 16
    frequency:   18.4870883817
  - # 17
    frequency:   27.6938826454
  - # 18
    frequency:   30.5155094103
  - # 19
    frequency:   30.6048156094
  - # 20
    frequency:   38.0723021791
  - # 21
    frequency:   68.4473950474

- q-position: [    0.1111111,    0.0000000,    0.0000000 ]
  distance:    0.0389562
  band:
  - # 1
    frequency:    0.5409027328
  - # 2
    frequency:    0.8797116332
  - # 3
    frequency:    1.0334736198
  - # 4
    frequency:    1.5392989179
  - # 5
    frequency:    1.9540893423
  - # 6
    frequency:    3.9426365369
  - # 7
    frequency:    4.1653046787
  - # 8
    frequency:    5.1776561776
  - # 9
    frequency:    6.4723439819
  - # 10
    frequency:    6.6575549593
  - # 11
    frequency:    7.8244554490
  - # 12
    frequency:   16.9851075260
  - # 13
    frequency:   17.0285657573
  - # 14
    frequency:   17.1443905750
  - # 15
    frequency:   18.4173591668
  - # 16
    frequency:   18.4826389709
  - # 17
    frequency:   27.6804633355
  - # 18
    frequency:   30.4832785992
  - # 19
    frequency:   30.5801341602
  - # 20
    frequency:   38.0720260074
  - # 21
    frequency:   68.4053050810

- q-position: [    0.1161616,    0.0000000,    0.0000000 ]
  distance:    0.0407269
  band:
  - # 1
    frequency:    0.5870408588
  - # 2
    frequency:    0.8624344004
  - # 3
    frequency:    1.0867678979
  - # 4
    frequency:    1.5776405479
  - # 5
    frequency:    2.0309480307
  - # 6
    frequency:    3.9417140491
  - # 7
    frequency:    4.1803738819
  - # 8
    frequency:    5.1728828324
  - # 9
    frequency:    6.4869245232
  - # 10
    frequency:    6.6852160770
  - # 11
    frequency:    7.8156912161
  - # 12
    frequency:   16.9909316777
  - # 13
    frequency:   17.0379230305
  - # 14
    frequency:   17.1337186122
  - # 15
    frequency:   18.4078422558
  - # 16
    frequency:   18.4781475027
  - # 17
    frequency:   27.6667894426
  - # 18
    frequency:   30.4502958917
  - # 19
    frequency:   30.5548125376
  - # 20
    frequency:   38.0717539767
  - # 21
    frequency:   68.3618346037

- q-position: [    0.1212121,    0.0000000,    0.0000000 ]
  distance:    0.0424976
  band:
  - # 1
    frequency:    0.6345725303
  - # 2
    frequency:    0.8450232575
  - # 3
    frequency:    1.1407213382
  - # 4
    frequency:    1.6159955921
  - # 5
    frequency:    2.1072218847
  - # 6
    frequency:    3.9409641056
  - # 7
    frequency:    4.1956448757
  - # 8
    frequency:    5.1682644068
  - # 9
    frequency:    6.5018186896
  - # 10
    frequency:    6.7131001131
  - # 11
    frequency:    7.8069222633
  - # 12
    frequency:   16.9968070510
  - # 13
    frequency:   17.0473025157
  - # 14
    frequency:   17.1229974057
  - # 15
    frequency:   18.3982595802
  - # 16
    frequency:   18.4736363646
  - # 17
    frequency:   27.6528982843
  - # 18
    frequency:   30.4166585097
  - # 19
    frequency:   30.5289111390
  - # 20
    frequency:   38.0714879612
  - # 21
    frequency:   68.3170549259

- q-position: [    0.1262626,    0.0000000,    0.0000000 ]
  distance:    0.0442684
  band:
  - # 1
    frequency:    0.6834300509
  - # 2
    frequency:    0.8276077792
  - # 3
    frequency:    1.1952929800
  - # 4
    frequency:    1.6544478921
  - # 5
    frequency:    2.1827129896
  - # 6
    frequency:    3.9404075100
  - # 7
    frequency:    4.2110895524
  - # 8
    frequency:    5.1638190211
  - # 9
    frequency:    6.5169882058
  - # 10
    frequency:    6.7410801363
  - # 11
    frequency:    7.7982213561
  - # 12
    frequency:   17.0027108211
  - # 13
    frequency:   17.0565108755
  - # 14
    frequency:   17.1124217300
  - # 15
    frequency:   18.3886545901
  - # 16
    frequency:   18.4691286823
  - # 17
    frequency:   27.6388261564
  - # 18
    frequency:   30.3824667099
  - # 19
    frequency:   30.5024911966
  - # 20
    frequency:   38.0712298310
  - # 21
    frequency:   68.2710389636

- q-position: [    0.1313131,    0.0000000,    0.0000000 ]
  distance:    0.0460391
  band:
  - # 1
    frequency:    0.7335452382
  - # 2
    frequency:    0.8103124258
  - # 3
    frequency:    1.2504510739
  - # 4
    frequency:    1.6930454095
  - # 5
    frequency:    2.2572628103
  - # 6
    frequency:    3.9400643345
  - # 7
    frequency:    4.2266836774
  - # 8
    frequency:    5.1595633295
  - # 9
    frequency:    6.5323943433
  - # 10
    frequency:    6.7690201883
  - # 11
    frequency:    7.7896707231
  - # 12
    frequency:   17.0086201577
  - # 13
    frequency:   17.0650035853
  - # 14
    frequency:   17.1025373237
  - # 15
    frequency:   18.3790717761
  - # 16
    frequency:   18.4646482250
  - # 17
    frequency:   27.6246080575
  - # 18
    frequency:   30.3478235538
  - # 19
    frequency:   30.4756145715
  - # 20
    frequency:   38.0709814440
  - # 21
    frequency:   68.2238610575

- q-position: [    0.1363636,    0.0000000,    0.0000000 ]
  distance:    0.0478098
  band:
  - # 1
    frequency:    0.7848495375
  - # 2
    frequency:    0.7932664063
  - # 3
    frequency:    1.3061635664
  - # 4
    frequency:    1.7318137455
  - # 5
    frequency:    2.3307383039
  - # 6
    frequency:    3.9399537203
  - # 7
    frequency:    4.2424070913
  - # 8
    frequency:    5.1555126907
  - # 9
    frequency:    6.5479980597
  - # 10
    frequency:    6.7967742373
  - # 11
    frequency:    7.7813631936
  - # 12
    frequency:   17.0145123602
  - # 13
    frequency:   17.0706931779
  - # 14
    frequency:   17.0954326782
  - # 15
    frequency:   18.3695565223
  - # 16
    frequency:   18.4602192969
  - # 17
    frequency:   27.6102774186
  - # 18
    frequency:   30.3128346595
  - # 19
    frequency:   30.4483435461
  - # 20
    frequency:   38.0707446370
  - # 21
    frequency:   68.1755967902

- q-position: [    0.1414141,    0.0000000,    0.0000000 ]
  distance:    0.0495806
  band:
  - # 1
    frequency:    0.7766063757
  - # 2
    frequency:    0.8372741279
  - # 3
    frequency:    1.3623956145
  - # 4
    frequency:    1.7707643907
  - # 5
    frequency:    2.4030233483
  - # 6
    frequency:    3.9400936784
  - # 7
    frequency:    4.2582438506
  - # 8
    frequency:    5.1516813348
  - # 9
    frequency:    6.5637601404
  - # 10
    frequency:    6.8241851706
  - # 11
    frequency:    7.7734033167
  - # 12
    frequency:   17.0203650008
  - # 13
    frequency:   17.0685532174
  - # 14
    frequency:   17.0961351056
  - # 15
    frequency:   18.3601549445
  - # 16
    frequency:   18.4558666158
  - # 17
    frequency:   27.5958658430
  - # 18
    frequency:   30.2776079337
  - # 19
    frequency:   30.4207406151
  - # 20
    frequency:   38.0705212181
  - # 21
    frequency:   68.1263228012

- q-position: [    0.1464646,    0.0000000,    0.0000000 ]
  distance:    0.0513513
  band:
  - # 1
    frequency:    0.7604772011
  - # 2
    frequency:    0.8907500248
  - # 3
    frequency:    1.4191088195
  - # 4
    frequency:    1.8098998376
  - # 5
    frequency:    2.4740133684
  - # 6
    frequency:    3.9405008965
  - # 7
    frequency:    4.2741822990
  - # 8
    frequency:    5.1480825239
  - # 9
    frequency:    6.5796413387
  - # 10
    frequency:    6.8510839391
  - # 11
    frequency:    7.7659083516
  - # 12
    frequency:   17.0261560742
  - # 13
    frequency:   17.0599880395
  - # 14
    frequency:   17.1032410497
  - # 15
    frequency:   18.3509137116
  - # 16
    frequency:   18.4516151787
  - # 17
    frequency:   27.5814028570
  - # 18
    frequency:   30.2422532837
  - # 19
    frequency:   30.3928682772
  - # 20
    frequency:   38.0703129586
  - # 21
    frequency:   68.0761165998

- q-position: [    0.1515152,    0.0000000,    0.0000000 ]
  distance:    0.0531220
  band:
  - # 1
    frequency:    0.7450318619
  - # 2
    frequency:    0.9452081747
  - # 3
    frequency:    1.4762610239
  - # 4
    frequency:    1.8492167879
  - # 5
    frequency:    2.5436119464
  - # 6
    frequency:    3.9411905517
  - # 7
    frequency:    4.2902150543
  - # 8
    frequency:    5.1447287070
  - # 9
    frequency:    6.5956025150
  - # 10
    frequency:    6.8772890177
  - # 11
    frequency:    7.7590089592
  - # 12
    frequency:   17.0318641521
  - # 13
    frequency:   17.0494530981
  - # 14
    frequency:   17.1122958002
  - # 15
    frequency:   18.3418798510
  - # 16
    frequency:   18.4474901160
  - # 17
    frequency:   27.5669156767
  - # 18
    frequency:   30.2068823095
  - # 19
    frequency:   30.3647888279
  - # 20
    frequency:   38.0701215853
  - # 21