nqpoint: 300    
npath: 3      
segment_nqpoint:
- 100
- 100
- 100
labels:
- [ 'G', 'M' ]
- [ 'M', 'K' ]
- [ 'K', 'G' ]
reciprocal_lattice:
- [   0.29860097,   0.17239735,   0.00000000 ] # a*
- [   0.00000000,   0.34479470,   0.00000000 ] # b*
- [   0.00000000,   0.00000000,   0.03957730 ] # c*
natom: 7      
lattice:
- [     3.348950963767534,     0.000000000000000,     0.000000000000000 ] # a
- [    -1.674475481883767,     2.900276610645546,     0.000000000000000 ] # b
- [     0.000000000000000,     0.000000000000000,    25.267011537522098 ] # c
points:
- symbol: C # 1
  coordinates: [  0.666666984744047,  0.333332985985145,  0.403206035413770 ]
  mass: 12.010700
- symbol: H # 2
  coordinates: [  0.333332985432215,  0.666666983183674,  0.643804334096464 ]
  mass: 1.007940
- symbol: N # 3
  coordinates: [  0.000000000000000,  0.000000000000000,  0.556684112178062 ]
  mass: 14.006700
- symbol: N # 4
  coordinates: [  0.666666984744047,  0.333332985985145,  0.356195665903536 ]
  mass: 14.006700
- symbol: O # 5
  coordinates: [  0.666666984744047,  0.333332985985145,  0.456081158153306 ]
  mass: 15.999400
- symbol: Zr # 6
  coordinates: [  0.333332985432215,  0.666666983183674,  0.511389476700350 ]
  mass: 91.224000
- symbol: Zr # 7
  coordinates: [  0.666666984744047,  0.333332985985145,  0.603875374614722 ]
  mass: 91.224000

phonon:
- q-position: [    0.0000000,    0.0000000,    0.0000000 ]
  distance:    0.0000000
  band:
  - # 1
    frequency:   -0.0000129367
  - # 2
    frequency:   -0.0000001254
  - # 3
    frequency:    0.0000110901
  - # 4
    frequency:    0.5956383048
  - # 5
    frequency:    0.5956383049
  - # 6
    frequency:    0.9661397968
  - # 7
    frequency:    3.3372594032
  - # 8
    frequency:    3.3372594032
  - # 9
    frequency:    6.2399904753
  - # 10
    frequency:    6.2399904753
  - # 11
    frequency:    7.7480585342
  - # 12
    frequency:   12.5197463658
  - # 13
    frequency:   13.5824664583
  - # 14
    frequency:   13.5824664584
  - # 15
    frequency:   15.4127540955
  - # 16
    frequency:   15.4127540955
  - # 17
    frequency:   27.2419380739
  - # 18
    frequency:   28.6748403993
  - # 19
    frequency:   28.6748403993
  - # 20
    frequency:   31.9075224023
  - # 21
    frequency:   67.9393176550

- q-position: [    0.0050505,    0.0000000,    0.0000000 ]
  distance:    0.0017414
  band:
  - # 1
    frequency:   -0.5858462953
  - # 2
    frequency:   -0.2146596411
  - # 3
    frequency:   -0.0029314584
  - # 4
    frequency:    0.5129349889
  - # 5
    frequency:    0.6312916109
  - # 6
    frequency:    1.1671688960
  - # 7
    frequency:    3.3367235429
  - # 8
    frequency:    3.3368803699
  - # 9
    frequency:    6.2401506228
  - # 10
    frequency:    6.2408560942
  - # 11
    frequency:    7.7479094241
  - # 12
    frequency:   12.5210931278
  - # 13
    frequency:   13.5825724887
  - # 14
    frequency:   13.5829107330
  - # 15
    frequency:   15.4122558210
  - # 16
    frequency:   15.4131925420
  - # 17
    frequency:   27.2417853339
  - # 18
    frequency:   28.6741355225
  - # 19
    frequency:   28.6744282009
  - # 20
    frequency:   31.9070238099
  - # 21
    frequency:   67.9390653279

- q-position: [    0.0101010,    0.0000000,    0.0000000 ]
  distance:    0.0034828
  band:
  - # 1
    frequency:   -1.0006894052
  - # 2
    frequency:   -0.3853001516
  - # 3
    frequency:   -0.0119132328
  - # 4
    frequency:    0.4867975532
  - # 5
    frequency:    0.7027841434
  - # 6
    frequency:    1.4242361599
  - # 7
    frequency:    3.3351187717
  - # 8
    frequency:    3.3358043646
  - # 9
    frequency:    6.2406303960
  - # 10
    frequency:    6.2434468034
  - # 11
    frequency:    7.7474627762
  - # 12
    frequency:   12.5251160940
  - # 13
    frequency:   13.5828897513
  - # 14
    frequency:   13.5842404045
  - # 15
    frequency:   15.4107630969
  - # 16
    frequency:   15.4145040069
  - # 17
    frequency:   27.2413275564
  - # 18
    frequency:   28.6720255938
  - # 19
    frequency:   28.6731934144
  - # 20
    frequency:   31.9055292582
  - # 21
    frequency:   67.9383089083

- q-position: [    0.0151515,    0.0000000,    0.0000000 ]
  distance:    0.0052242
  band:
  - # 1
    frequency:   -1.3077320976
  - # 2
    frequency:   -0.5212145272
  - # 3
    frequency:   -0.0275038568
  - # 4
    frequency:    0.4740760045
  - # 5
    frequency:    0.7781097323
  - # 6
    frequency:    1.6490112301
  - # 7
    frequency:    3.3324537049
  - # 8
    frequency:    3.3342175025
  - # 9
    frequency:    6.2414277973
  - # 10
    frequency:    6.2477441676
  - # 11
    frequency:    7.7467206380
  - # 12
    frequency:   12.5317637740
  - # 13
    frequency:   13.5834157677
  - # 14
    frequency:   13.5864460214
  - # 15
    frequency:   15.4082821697
  - # 16
    frequency:   15.4166768688
  - # 17
    frequency:   27.2405660595
  - # 18
    frequency:   28.6685246926
  - # 19
    frequency:   28.6711414576
  - # 20
    frequency:   31.9030424210
  - # 21
    frequency:   67.9370500797

- q-position: [    0.0202020,    0.0000000,    0.0000000 ]
  distance:    0.0069655
  band:
  - # 1
    frequency:   -1.5597071921
  - # 2
    frequency:   -0.6353868144
  - # 3
    frequency:   -0.0506010251
  - # 4
    frequency:    0.4623207118
  - # 5
    frequency:    0.8492351475
  - # 6
    frequency:    1.8467495885
  - # 7
    frequency:    3.3287433131
  - # 8
    frequency:    3.3324400806
  - # 9
    frequency:    6.2425395292
  - # 10
    frequency:    6.2537174856
  - # 11
    frequency:    7.7456864226
  - # 12
    frequency:   12.5409518913
  - # 13
    frequency:   13.5841464294
  - # 14
    frequency:   13.5895118514
  - # 15
    frequency:   15.4048232799
  - # 16
    frequency:   15.4196917656
  - # 17
    frequency:   27.2395030072
  - # 18
    frequency:   28.6636561965
  - # 19
    frequency:   28.6682813329
  - # 20
    frequency:   31.8995694094
  - # 21
    frequency:   67.9352916416

- q-position: [    0.0252525,    0.0000000,    0.0000000 ]
  distance:    0.0087069
  band:
  - # 1
    frequency:   -1.7777731309
  - # 2
    frequency:   -0.7351743759
  - # 3
    frequency:   -0.0822822181
  - # 4
    frequency:    0.4507815293
  - # 5
    frequency:    0.9148893412
  - # 6
    frequency:    2.0234921553
  - # 7
    frequency:    3.3240098100
  - # 8
    frequency:    3.3309441232
  - # 9
    frequency:    6.2439610418
  - # 10
    frequency:    6.2613238349
  - # 11
    frequency:    7.7443649072
  - # 12
    frequency:   12.5525656198
  - # 13
    frequency:   13.5850760311
  - # 14
    frequency:   13.5934159189
  - # 15
    frequency:   15.4004004085
  - # 16
    frequency:   15.4235216080
  - # 17
    frequency:   27.2381413623
  - # 18
    frequency:   28.6574526497
  - # 19
    frequency:   28.6646255861
  - # 20
    frequency:   31.8951187548
  - # 21
    frequency:   67.9330375002

- q-position: [    0.0303030,    0.0000000,    0.0000000 ]
  distance:    0.0104483
  band:
  - # 1
    frequency:   -1.9723083351
  - # 2
    frequency:   -0.8247132219
  - # 3
    frequency:   -0.1233534696
  - # 4
    frequency:    0.4411812814
  - # 5
    frequency:    0.9752532845
  - # 6
    frequency:    2.1831801173
  - # 7
    frequency:    3.3182838359
  - # 8
    frequency:    3.3303827869
  - # 9
    frequency:    6.2456865963
  - # 10
    frequency:    6.2705081469
  - # 11
    frequency:    7.7427622274
  - # 12
    frequency:   12.5664625725
  - # 13
    frequency:   13.5861973163
  - # 14
    frequency:   13.5981300719
  - # 15
    frequency:   15.3950309246
  - # 16
    frequency:   15.4281316035
  - # 17
    frequency:   27.2364848241
  - # 18
    frequency:   28.6499555762
  - # 19
    frequency:   28.6601902492
  - # 20
    frequency:   31.8897013846
  - # 21
    frequency:   67.9302926552

- q-position: [    0.0353535,    0.0000000,    0.0000000 ]
  distance:    0.0121897
  band:
  - # 1
    frequency:   -2.1491955994
  - # 2
    frequency:   -0.9064944110
  - # 3
    frequency:   -0.1735720578
  - # 4
    frequency:    0.4363241832
  - # 5
    frequency:    1.0307707726
  - # 6
    frequency:    2.3281971816
  - # 7
    frequency:    3.3116058774
  - # 8
    frequency:    3.3316359652
  - # 9
    frequency:    6.2477093442
  - # 10
    frequency:    6.2812033267
  - # 11
    frequency:    7.7408858641
  - # 12
    frequency:   12.5824764112
  - # 13
    frequency:   13.5875015344
  - # 14
    frequency:   13.6036200905
  - # 15
    frequency:   15.3887351389
  - # 16
    frequency:   15.4334792970
  - # 17
    frequency:   27.2345377527
  - # 18
    frequency:   28.6412152369
  - # 19
    frequency:   28.6549947662
  - # 20
    frequency:   31.8833305911
  - # 21
    frequency:   67.9270631827

- q-position: [    0.0404040,    0.0000000,    0.0000000 ]
  distance:    0.0139311
  band:
  - # 1
    frequency:   -2.3120990941
  - # 2
    frequency:   -0.9821193164
  - # 3
    frequency:   -0.2311150715
  - # 4
    frequency:    0.4388727576
  - # 5
    frequency:    1.0818711096
  - # 6
    frequency:    2.4597970107
  - # 7
    frequency:    3.3040278454
  - # 8
    frequency:    3.3358743533
  - # 9
    frequency:    6.2500214173
  - # 10
    frequency:    6.2933304302
  - # 11
    frequency:    7.7387446192
  - # 12
    frequency:   12.6004209238
  - # 13
    frequency:   13.5889785088
  - # 14
    frequency:   13.6098458551
  - # 15
    frequency:   15.3815357676
  - # 16
    frequency:   15.4395146326
  - # 17
    frequency:   27.2323050870
  - # 18
    frequency:   28.6312903290
  - # 19
    frequency:   28.6490619019
  - # 20
    frequency:   31.8760219937
  - # 21
    frequency:   67.9233562156

- q-position: [    0.0454545,    0.0000000,    0.0000000 ]
  distance:    0.0156725
  band:
  - # 1
    frequency:   -2.4634513292
  - # 2
    frequency:   -1.0526741389
  - # 3
    frequency:   -0.2931521923
  - # 4
    frequency:    0.4501075369
  - # 5
    frequency:    1.1289096831
  - # 6
    frequency:    2.5783263534
  - # 7
    frequency:    3.2956147162
  - # 8
    frequency:    3.3446321573
  - # 9
    frequency:    6.2526140288
  - # 10
    frequency:    6.3067989152
  - # 11
    frequency:    7.7363485770
  - # 12
    frequency:   12.6200944051
  - # 13
    frequency:   13.5906167137
  - # 14
    frequency:   13.6167615912
  - # 15
    frequency:   15.3734573158
  - # 16
    frequency:   15.4461800452
  - # 17
    frequency:   27.2297922576
  - # 18
    frequency:   28.6202476262
  - # 19
    frequency:   28.6424176349
  - # 20
    frequency:   31.8677934943
  - # 21
    frequency:   67.9191799189

- q-position: [    0.0505051,    0.0000000,    0.0000000 ]
  distance:    0.0174139
  band:
  - # 1
    frequency:   -2.6049404722
  - # 2
    frequency:   -1.1189293968
  - # 3
    frequency:   -0.3571033592
  - # 4
    frequency:    0.4697589654
  - # 5
    frequency:    1.1721647037
  - # 6
    frequency:    2.6833655503
  - # 7
    frequency:    3.2864461204
  - # 8
    frequency:    3.3598411858
  - # 9
    frequency:    6.2554775793
  - # 10
    frequency:    6.3215069811
  - # 11
    frequency:    7.7337090483
  - # 12
    frequency:   12.6412841730
  - # 13
    frequency:   13.5924033604
  - # 14
    frequency:   13.6243162109
  - # 15
    frequency:   15.3645253885
  - # 16
    frequency:   15.4534105888
  - # 17
    frequency:   27.2270051027
  - # 18
    frequency:   28.6081615562
  - # 19
    frequency:   28.6350910325
  - # 20
    frequency:   31.8586652259
  - # 21
    frequency:   67.9145434631

- q-position: [    0.0555556,    0.0000000,    0.0000000 ]
  distance:    0.0191553
  band:
  - # 1
    frequency:   -2.7377754872
  - # 2
    frequency:   -1.1814538720
  - # 3
    frequency:   -0.4213064871
  - # 4
    frequency:    0.4967730325
  - # 5
    frequency:    1.2118481317
  - # 6
    frequency:    2.7739623295
  - # 7
    frequency:    3.2766177453
  - # 8
    frequency:    3.3837020761
  - # 9
    frequency:    6.2586017671
  - # 10
    frequency:    6.3373420119
  - # 11
    frequency:    7.7308384948
  - # 12
    frequency:   12.6637710572
  - # 13
    frequency:   13.5943244889
  - # 14
    frequency:   13.6324537679
  - # 15
    frequency:   15.3547659450
  - # 16
    frequency:   15.4611341083
  - # 17
    frequency:   27.2239497910
  - # 18
    frequency:   28.5951137147
  - # 19
    frequency:   28.6271141097
  - # 20
    frequency:   31.8486594950
  - # 21
    frequency:   67.9094569935

- q-position: [    0.0606061,    0.0000000,    0.0000000 ]
  distance:    0.0208966
  band:
  - # 1
    frequency:   -2.8628416666
  - # 2
    frequency:   -1.2406838804
  - # 3
    frequency:   -0.4849010631
  - # 4
    frequency:    0.5300075674
  - # 5
    frequency:    1.2481193326
  - # 6
    frequency:    2.8491738965
  - # 7
    frequency:    3.2662423999
  - # 8
    frequency:    3.4182068749
  - # 9
    frequency:    6.2619756976
  - # 10
    frequency:    6.3541811358
  - # 11
    frequency:    7.7277504330
  - # 12
    frequency:   12.6873337117
  - # 13
    frequency:   13.5963650663
  - # 14
    frequency:   13.6411140422
  - # 15
    frequency:   15.3442045111
  - # 16
    frequency:   15.4692714634
  - # 17
    frequency:   27.2206327584
  - # 18
    frequency:   28.5811923148
  - # 19
    frequency:   28.6185216706
  - # 20
    frequency:   31.8378007170
  - # 21
    frequency:   67.9039315964

- q-position: [    0.0656566,    0.0000000,    0.0000000 ]
  distance:    0.0226380
  band:
  - # 1
    frequency:   -2.9807975376
  - # 2
    frequency:   -1.2969677567
  - # 3
    frequency:   -0.5474823112
  - # 4
    frequency:    0.5685070369
  - # 5
    frequency:    1.2810985514
  - # 6
    frequency:    2.9089364991
  - # 7
    frequency:    3.2554505721
  - # 8
    frequency:    3.4643102278
  - # 9
    frequency:    6.2655879910
  - # 10
    frequency:    6.3718919116
  - # 11
    frequency:    7.7244593158
  - # 12
    frequency:   12.7117526229
  - # 13
    frequency:   13.5985090884
  - # 14
    frequency:   13.6502332635
  - # 15
    frequency:   15.3328653722
  - # 16
    frequency:   15.4777368100
  - # 17
    frequency:   27.2170606633
  - # 18
    frequency:   28.5664915702
  - # 19
    frequency:   28.6093511339
  - # 20
    frequency:   31.8261153454
  - # 21
    frequency:   67.8979792627

- q-position: [    0.0707071,    0.0000000,    0.0000000 ]
  distance:    0.0243794
  band:
  - # 1
    frequency:   -3.0921382973
  - # 2
    frequency:   -1.3505958241
  - # 3
    frequency:   -0.6088429614
  - # 4
    frequency:    0.6115267218
  - # 5
    frequency:    1.3108797837
  - # 6
    frequency:    2.9547345618
  - # 7
    frequency:    3.2443903048
  - # 8
    frequency:    3.5212866316
  - # 9
    frequency:    6.2694268834
  - # 10
    frequency:    6.3903331507
  - # 11
    frequency:    7.7209803932
  - # 12
    frequency:   12.7368137050
  - # 13
    frequency:   13.6007396843
  - # 14
    frequency:   13.6597449744
  - # 15
    frequency:   15.3207707702
  - # 16
    frequency:   15.4864379468
  - # 17
    frequency:   27.2132403656
  - # 18
    frequency:   28.5511110116
  - # 19
    frequency:   28.5996423410
  - # 20
    frequency:   31.8136317951
  - # 21
    frequency:   67.8916128485

- q-position: [    0.0757576,    0.0000000,    0.0000000 ]
  distance:    0.0261208
  band:
  - # 1
    frequency:   -3.1972390728
  - # 2
    frequency:   -1.4018214217
  - # 3
    frequency:   -0.6688351892
  - # 4
    frequency:    0.6584815196
  - # 5
    frequency:    1.3375433044
  - # 6
    frequency:    2.9893892728
  - # 7
    frequency:    3.2332262185
  - # 8
    frequency:    3.5869596279
  - # 9
    frequency:    6.2734803211
  - # 10
    frequency:    6.4093558801
  - # 11
    frequency:    7.7173295529
  - # 12
    frequency:   12.7623114055
  - # 13
    frequency:   13.6030392219
  - # 14
    frequency:   13.6695810262
  - # 15
    frequency:   15.3079401328
  - # 16
    frequency:   15.4952767290
  - # 17
    frequency:   27.2091789351
  - # 18
    frequency:   28.5351547405
  - # 19
    frequency:   28.5894373488
  - # 20
    frequency:   31.8003803592
  - # 21
    frequency:   67.8848460329

- q-position: [    0.0808081,    0.0000000,    0.0000000 ]
  distance:    0.0278622
  band:
  - # 1
    frequency:   -3.2963854367
  - # 2
    frequency:   -1.4508761274
  - # 3
    frequency:   -0.7273087902
  - # 4
    frequency:    0.7088919270
  - # 5
    frequency:    1.3611682140
  - # 6
    frequency:    3.0161496963
  - # 7
    frequency:    3.2221375322
  - # 8
    frequency:    3.6586234467
  - # 9
    frequency:    6.2777360441
  - # 10
    frequency:    6.4288044472
  - # 11
    frequency:    7.7135231413
  - # 12
    frequency:   12.7880512699
  - # 13
    frequency:   13.6053894141
  - # 14
    frequency:   13.6796726856
  - # 15
    frequency:   15.2943893676
  - # 16
    frequency:   15.5041495548
  - # 17
    frequency:   27.2048836898
  - # 18
    frequency:   28.5187306193
  - # 19
    frequency:   28.5787802068
  - # 20
    frequency:   31.7863931200
  - # 21
    frequency:   67.8776932735

- q-position: [    0.0858586,    0.0000000,    0.0000000 ]
  distance:    0.0296036
  band:
  - # 1
    frequency:   -3.3897955377
  - # 2
    frequency:   -1.4979809745
  - # 3
    frequency:   -0.7840885632
  - # 4
    frequency:    0.7623447339
  - # 5
    frequency:    1.3818452520
  - # 6
    frequency:    3.0378977882
  - # 7
    frequency:    3.2113149846
  - # 8
    frequency:    3.7338479776
  - # 9
    frequency:    6.2821816604
  - # 10
    frequency:    6.4485177655
  - # 11
    frequency:    7.7095777691
  - # 12
    frequency:   12.8138519406
  - # 13
    frequency:   13.6077714228
  - # 14
    frequency:   13.6899518207
  - # 15
    frequency:   15.2801302522
  - # 16
    frequency:   15.5129479254
  - # 17
    frequency:   27.2003622688
  - # 18
    frequency:   28.5019494069
  - # 19
    frequency:   28.5677167194
  - # 20
    frequency:   31.7717038542
  - # 21
    frequency:   67.8701697593

- q-position: [    0.0909091,    0.0000000,    0.0000000 ]
  distance:    0.0313450
  band:
  - # 1
    frequency:   -3.4776365146
  - # 2
    frequency:   -1.5433546849
  - # 3
    frequency:   -0.8389701479
  - # 4
    frequency:    0.8184680602
  - # 5
    frequency:    1.3996899234
  - # 6
    frequency:    3.0568429402
  - # 7
    frequency:    3.2009566387
  - # 8
    frequency:    3.8107928344
  - # 9
    frequency:    6.2868047078
  - # 10
    frequency:    6.4683306960
  - # 11
    frequency:    7.7055101026
  - # 12
    frequency:   12.8395465941
  - # 13
    frequency:   13.6101659615
  - # 14
    frequency:   13.7003521209
  - # 15
    frequency:   15.2651699578
  - # 16
    frequency:   15.5215590775
  - # 17
    frequency:   27.1956227365
  - # 18
    frequency:   28.4849238441
  - # 19
    frequency:   28.5562941949
  - # 20
    frequency:   31.7563479323
  - # 21
    frequency:   67.8622913623

- q-position: [    0.0959596,    0.0000000,    0.0000000 ]
  distance:    0.0330864
  band:
  - # 1
    frequency:   -3.5600368900
  - # 2
    frequency:   -1.5872194650
  - # 3
    frequency:   -0.8917239452
  - # 4
    frequency:    0.8769167472
  - # 5
    frequency:    1.4148557118
  - # 6
    frequency:    3.0745533342
  - # 7
    frequency:    3.1912626596
  - # 8
    frequency:    3.8881840400
  - # 9
    frequency:    6.2915927046
  - # 10
    frequency:    6.4880755530
  - # 11
    frequency:    7.7013366449
  - # 12
    frequency:   12.8649838417
  - # 13
    frequency:   13.6125533937
  - # 14
    frequency:   13.7108102966
  - # 15
    frequency:   15.2495107364
  - # 16
    frequency:   15.5298666880
  - # 17
    frequency:   27.1906737170
  - # 18
    frequency:   28.4677677004
  - # 19
    frequency:   28.5445611814
  - # 20
    frequency:   31.7403622133
  - # 21
    frequency:   67.8540745860

- q-position: [    0.1010101,    0.0000000,    0.0000000 ]
  distance:    0.0348277
  band:
  - # 1
    frequency:   -3.6370960655
  - # 2
    frequency:   -1.6298046019
  - # 3
    frequency:   -0.9421020632
  - # 4
    frequency:    0.9373644772
  - # 5
    frequency:    1.4275468325
  - # 6
    frequency:    3.0920980716
  - # 7
    frequency:    3.1824292930
  - # 8
    frequency:    3.9651797635
  - # 9
    frequency:    6.2965331893
  - # 10
    frequency:    6.5075837232
  - # 11
    frequency:    7.6970735105
  - # 12
    frequency:   12.8900281369
  - # 13
    frequency:   13.6149138283
  - # 14
    frequency:   13.7212671968
  - # 15
    frequency:   15.2331498056
  - # 16
    frequency:   15.5377516447
  - # 17
    frequency:   27.1855245525
  - # 18
    frequency:   28.4505947952
  - # 19
    frequency:   28.5325671930
  - # 20
    frequency:   31.7237849334
  - # 21
    frequency:   67.8455365132

- q-position: [    0.1060606,    0.0000000,    0.0000000 ]
  distance:    0.0365691
  band:
  - # 1
    frequency:   -3.7088916891
  - # 2
    frequency:   -1.6713479067
  - # 3
    frequency:   -0.9898458159
  - # 4
    frequency:    0.9995000501
  - # 5
    frequency:    1.4380296356
  - # 6
    frequency:    3.1101867141
  - # 7
    frequency:    3.1746424051
  - # 8
    frequency:    4.0412385990
  - # 9
    frequency:    6.3016137499
  - # 10
    frequency:    6.5266873802
  - # 11
    frequency:    7.6927361978
  - # 12
    frequency:   12.9145597489
  - # 13
    frequency:   13.6172272090
  - # 14
    frequency:   13.7316687814
  - # 15
    frequency:   15.2160794546
  - # 16
    frequency:   15.5450928807
  - # 17
    frequency:   27.1801854768
  - # 18
    frequency:   28.4335180090
  - # 19
    frequency:   28.5203624260
  - # 20
    frequency:   31.7066555905
  - # 21
    frequency:   67.8366947521

- q-position: [    0.1111111,    0.0000000,    0.0000000 ]
  distance:    0.0383105
  band:
  - # 1
    frequency:   -3.7754854411
  - # 2
    frequency:   -1.7120949451
  - # 3
    frequency:   -1.0346925628
  - # 4
    frequency:    1.0630261362
  - # 5
    frequency:    1.4466414409
  - # 6
    frequency:    3.1292757626
  - # 7
    frequency:    3.1680710607
  - # 8
    frequency:    4.1160208130
  - # 9
    frequency:    6.3068220444
  - # 10
    frequency:    6.5452212747
  - # 11
    frequency:    7.6883393629
  - # 12
    frequency:   12.9384743657
  - # 13
    frequency:   13.6194733985
  - # 14
    frequency:   13.7419668904
  - # 15
    frequency:   15.1982873924
  - # 16
    frequency:   15.5517682622
  - # 17
    frequency:   27.1746677940
  - # 18
    frequency:   28.4166483048
  - # 19
    frequency:   28.5079974686
  - # 20
    frequency:   31.6890148235
  - # 21
    frequency:   67.8275673808

- q-position: [    0.1161616,    0.0000000,    0.0000000 ]
  distance:    0.0400519
  band:
  - # 1
    frequency:   -3.8369276449
  - # 2
    frequency:   -1.7522959732
  - # 3
    frequency:   -1.0763813332
  - # 4
    frequency:    1.1276594605
  - # 5
    frequency:    1.4537953444
  - # 6
    frequency:    3.1496433982
  - # 7
    frequency:    3.1628616798
  - # 8
    frequency:    4.1893211036
  - # 9
    frequency:    6.3121458134
  - # 10
    frequency:    6.5630245781
  - # 11
    frequency:    7.6838966014
  - # 12
    frequency:   12.9616823942
  - # 13
    frequency:   13.6216322571
  - # 14
    frequency:   13.7521197571
  - # 15
    frequency:   15.1797573473
  - # 16
    frequency:   15.5576555225
  - # 17
    frequency:   27.1689840470
  - # 18
    frequency:   28.4000937795
  - # 19
    frequency:   28.4955230060
  - # 20
    frequency:   31.6709042881
  - # 21
    frequency:   67.8181728914

- q-position: [    0.1212121,    0.0000000,    0.0000000 ]
  distance:    0.0417933
  band:
  - # 1
    frequency:   -3.8932610110
  - # 2
    frequency:   -1.7922005729
  - # 3
    frequency:   -1.1146570291
  - # 4
    frequency:    1.1931317750
  - # 5
    frequency:    1.4599794628
  - # 6
    frequency:    3.1591332989
  - # 7
    frequency:    3.1714408227
  - # 8
    frequency:    4.2610243786
  - # 9
    frequency:    6.3175728865
  - # 10
    frequency:    6.5799427538
  - # 11
    frequency:    7.6794202421
  - # 12
    frequency:   12.9841080204
  - # 13
    frequency:   13.6236837135
  - # 14
    frequency:   13.7620922330
  - # 15
    frequency:   15.1604699219
  - # 16
    frequency:   15.5626332333
  - # 17
    frequency:   27.1631481605
  - # 18
    frequency:   28.3839587721
  - # 19
    frequency:   28.4829895240
  - # 20
    frequency:   31.6523665274
  - # 21
    frequency:   67.8085301325

- q-position: [    0.1262626,    0.0000000,    0.0000000 ]
  distance:    0.0435347
  band:
  - # 1
    frequency:   -3.9445237599
  - # 2
    frequency:   -1.8320501467
  - # 3
    frequency:   -1.1492731920
  - # 4
    frequency:    1.2591912382
  - # 5
    frequency:    1.4657492635
  - # 6
    frequency:    3.1569743635
  - # 7
    frequency:    3.1947277589
  - # 8
    frequency:    4.3310768562
  - # 9
    frequency:    6.3230911847
  - # 10
    frequency:    6.5958294318
  - # 11
    frequency:    7.6749211578
  - # 12
    frequency:   13.0056880847
  - # 13
    frequency:   13.6256078294
  - # 14
    frequency:   13.7718557054
  - # 15
    frequency:   15.1404036920
  - # 16
    frequency:   15.5665817999
  - # 17
    frequency:   27.1571755417
  - # 18
    frequency:   28.3683430505
  - # 19
    frequency:   28.4704470129
  - # 20
    frequency:   31.6334448399
  - # 21
    frequency:   67.7986582517

- q-position: [    0.1313131,    0.0000000,    0.0000000 ]
  distance:    0.0452761
  band:
  - # 1
    frequency:   -3.9907523214
  - # 2
    frequency:   -1.8720686900
  - # 3
    frequency:   -1.1799934164
  - # 4
    frequency:    1.3256039774
  - # 5
    frequency:    1.4717121451
  - # 6
    frequency:    3.1564413058
  - # 7
    frequency:    3.2194974938
  - # 8
    frequency:    4.3994670121
  - # 9
    frequency:    6.3286887192
  - # 10
    frequency:    6.6105482587
  - # 11
    frequency:    7.6704085991
  - # 12
    frequency:   13.0263708134
  - # 13
    frequency:   13.6273848558
  - # 14
    frequency:   13.7813877128
  - # 15
    frequency:   15.1195365349
  - # 16
    frequency:   15.5693844707
  - # 17
    frequency:   27.1510831186
  - # 18
    frequency:   28.3533411048
  - # 19
    frequency:   28.4579446765
  - # 20
    frequency:   31.6141831437
  - # 21
    frequency:   67.7885766378

- q-position: [    0.1363636,    0.0000000,    0.0000000 ]
  distance:    0.0470175
  band:
  - # 1
    frequency:   -4.0319837784
  - # 2
    frequency:   -1.9124525663
  - # 3
    frequency:   -1.2065915207
  - # 4
    frequency:    1.3921557060
  - # 5
    frequency:    1.4785042974
  - # 6
    frequency:    3.1575589467
  - # 7
    frequency:    3.2456950041
  - # 8
    frequency:    4.4662127864
  - # 9
    frequency:    6.3343535889
  - # 10
    frequency:    6.6239746971
  - # 11
    frequency:    7.6658900555
  - # 12
    frequency:   13.0461144364
  - # 13
    frequency:   13.6289952817
  - # 14
    frequency:   13.7906712839
  - # 15
    frequency:   15.0978471577
  - # 16
    frequency:   15.5709283489
  - # 17
    frequency:   27.1448893024
  - # 18
    frequency:   28.3390415686
  - # 19
    frequency:   28.4455306474
  - # 20
    frequency:   31.5946258377
  - # 21
    frequency:   67.7783048624

- q-position: [    0.1414141,    0.0000000,    0.0000000 ]
  distance:    0.0487588
  band:
  - # 1
    frequency:   -4.0682581942
  - # 2
    frequency:   -1.9533602967
  - # 3
    frequency:   -1.2288505741
  - # 4
    frequency:    1.4586533308
  - # 5
    frequency:    1.4867610282
  - # 6
    frequency:    3.1603225460
  - # 7
    frequency:    3.2732304454
  - # 8
    frequency:    4.5313527710
  - # 9
    frequency:    6.3400739774
  - # 10
    frequency:    6.6359977482
  - # 11
    frequency:    7.6613711468
  - # 12
    frequency:   13.0648857048
  - # 13
    frequency:   13.6304198733
  - # 14
    frequency:   13.7996940455
  - # 15
    frequency:   15.0753167950
  - # 16
    frequency:   15.5711053918
  - # 17
    frequency:   27.1386138566
  - # 18
    frequency:   28.3255267908
  - # 19
    frequency:   28.4332517146
  - # 20
    frequency:   31.5748176607
  - # 21
    frequency:   67.7678626220

- q-position: [    0.1464646,    0.0000000,    0.0000000 ]
  distance:    0.0505002
  band:
  - # 1
    frequency:   -4.0996209476
  - # 2
    frequency:   -1.9949035647
  - # 3
    frequency:   -1.2465608246
  - # 4
    frequency:    1.4970830037
  - # 5
    frequency:    1.5249265166
  - # 6
    frequency:    3.1647011548
  - # 7
    frequency:    3.3019894713
  - # 8
    frequency:    4.5949399436
  - # 9
    frequency:    6.3458381505
  - # 10
    frequency:    6.6465215746
  - # 11
    frequency:    7.6568555488
  - # 12
    frequency:   13.0826583098
  - # 13
    frequency:   13.6316397047
  - # 14
    frequency:   13.8084471615
  - # 15
    frequency:   15.0519310364
  - # 16
    frequency:   15.5698133880
  - # 17
    frequency:   27.1322776637
  - # 18
    frequency:   28.3128725725
  - # 19
    frequency:   28.4211530638
  - # 20
    frequency:   31.5548035479
  - # 21
    frequency:   67.7572696799

- q-position: [    0.1515152,    0.0000000,    0.0000000 ]
  distance:    0.0522416
  band:
  - # 1
    frequency:   -4.1261251825
  - # 2
    frequency:   -2.0371406251
  - # 3
    frequency:   -1.2595164968
  - # 4
    frequency:    1.5100019222
  - # 5
    frequency:    1.5908291975
  - # 6
    frequency:    3.1706418238
  - # 7
    frequency:    3.3318413404
  - # 8
    frequency:    4.6570370423
  - # 9
    frequency:    6.3516344555
  - # 10
    frequency:    6.6554669986
  - # 11
    frequency:    7.6523449530
  - # 12
    frequency:   13.0994111942
  - # 13
    frequency:   13.6326361784
  - # 14
    frequency:   13.8169241766
  - # 15
    frequency:   15.0276817442
  - # 16
    frequency:   15.5669568992
  - # 17
    frequency:   27.1259023831
  - # 18
    frequency:   28.3011480810
  - # 19
    frequency:   28.4092780359
  - # 20
    frequency:   31.5346284861
  - # 21
    frequency:   67.7465458095
