nqpoint: 300    
npath: 3      
segment_nqpoint:
- 100
- 100
- 100
labels:
- [ 'G', 'M' ]
- [ 'M', 'K' ]
- [ 'K', 'G' ]
reciprocal_lattice:
- [   0.27983292,   0.16156161,   0.00000000 ] # a*
- [   0.00000000,   0.32312323,   0.00000000 ] # b*
- [   0.00000000,   0.00000000,   0.03488217 ] # c*
natom: 9      
lattice:
- [     3.573560915135165,     0.000000000000000,     0.000000000000000 ] # a
- [    -1.786780457567583,     3.094794534471693,     0.000000000000000 ] # b
- [     0.000000000000000,     0.000000000000000,    28.667939398293253 ] # c
points:
- symbol: C # 1
  coordinates: [  0.333332985432215,  0.666666983183674,  0.631770352496742 ]
  mass: 12.010700
- symbol: C # 2
  coordinates: [  0.666666984744047,  0.333332985985145,  0.355403397211239 ]
  mass: 12.010700
- symbol: N # 3
  coordinates: [  0.000000000000000,  0.000000000000000,  0.492490262344894 ]
  mass: 14.006700
- symbol: N # 4
  coordinates: [  0.333332985432215,  0.666666983183674,  0.588135463273061 ]
  mass: 14.006700
- symbol: N # 5
  coordinates: [  0.666666984744047,  0.333332985985145,  0.313939550204847 ]
  mass: 14.006700
- symbol: O # 6
  coordinates: [  0.666666984744047,  0.333332985985145,  0.401920974794668 ]
  mass: 15.999400
- symbol: S # 7
  coordinates: [  0.333332985432215,  0.666666983183674,  0.686060449795153 ]
  mass: 32.065000
- symbol: Y # 8
  coordinates: [  0.333332985432215,  0.666666983183674,  0.448015307193936 ]
  mass: 88.905850
- symbol: Y # 9
  coordinates: [  0.666666984744047,  0.333332985985145,  0.540342315404331 ]
  mass: 88.905850

phonon:
- q-position: [    0.0000000,    0.0000000,    0.0000000 ]
  distance:    0.0000000
  band:
  - # 1
    frequency:   -1.7232916131
  - # 2
    frequency:   -1.7232916131
  - # 3
    frequency:   -0.4436425084
  - # 4
    frequency:   -0.4436425082
  - # 5
    frequency:   -0.0000112869
  - # 6
    frequency:   -0.0000004545
  - # 7
    frequency:    0.0000098576
  - # 8
    frequency:    3.5275411064
  - # 9
    frequency:    3.5275411064
  - # 10
    frequency:    4.5506764787
  - # 11
    frequency:    6.2706887037
  - # 12
    frequency:    6.2706887037
  - # 13
    frequency:    6.5595189445
  - # 14
    frequency:    6.7857126848
  - # 15
    frequency:    6.7857126848
  - # 16
    frequency:    8.0536817274
  - # 17
    frequency:   11.5636476402
  - # 18
    frequency:   11.7212982756
  - # 19
    frequency:   11.7212982756
  - # 20
    frequency:   13.9524996174
  - # 21
    frequency:   13.9524996174
  - # 22
    frequency:   14.1694419632
  - # 23
    frequency:   14.1694419632
  - # 24
    frequency:   26.8225339994
  - # 25
    frequency:   32.2500760335
  - # 26
    frequency:   57.9888440492
  - # 27
    frequency:   67.9895345836

- q-position: [    0.0050505,    0.0000000,    0.0000000 ]
  distance:    0.0016319
  band:
  - # 1
    frequency:   -1.7230856109
  - # 2
    frequency:   -1.7222908139
  - # 3
    frequency:   -0.4547468102
  - # 4
    frequency:   -0.4517917036
  - # 5
    frequency:    0.0017194117
  - # 6
    frequency:    0.1323775320
  - # 7
    frequency:    0.1349559332
  - # 8
    frequency:    3.5273767818
  - # 9
    frequency:    3.5278794068
  - # 10
    frequency:    4.5505130137
  - # 11
    frequency:    6.2705537986
  - # 12
    frequency:    6.2707365914
  - # 13
    frequency:    6.5586226761
  - # 14
    frequency:    6.7857059543
  - # 15
    frequency:    6.7860343843
  - # 16
    frequency:    8.0529443201
  - # 17
    frequency:   11.5634320606
  - # 18
    frequency:   11.7208955237
  - # 19
    frequency:   11.7209872929
  - # 20
    frequency:   13.9524901241
  - # 21
    frequency:   13.9525777407
  - # 22
    frequency:   14.1695143934
  - # 23
    frequency:   14.1696680906
  - # 24
    frequency:   26.8224836871
  - # 25
    frequency:   32.2495739916
  - # 26
    frequency:   57.9879238545
  - # 27
    frequency:   67.9892543959

- q-position: [    0.0101010,    0.0000000,    0.0000000 ]
  distance:    0.0032639
  band:
  - # 1
    frequency:   -1.7224666479
  - # 2
    frequency:   -1.7192873303
  - # 3
    frequency:   -0.4786288450
  - # 4
    frequency:   -0.4686306245
  - # 5
    frequency:    0.0069062080
  - # 6
    frequency:    0.2523572301
  - # 7
    frequency:    0.2553059432
  - # 8
    frequency:    3.5268866294
  - # 9
    frequency:    3.5288930977
  - # 10
    frequency:    4.5500236543
  - # 11
    frequency:    6.2701493412
  - # 12
    frequency:    6.2708751063
  - # 13
    frequency:    6.5559580620
  - # 14
    frequency:    6.7856851584
  - # 15
    frequency:    6.7869814078
  - # 16
    frequency:    8.0507341054
  - # 17
    frequency:   11.5627779763
  - # 18
    frequency:   11.7196937610
  - # 19
    frequency:   11.7200546224
  - # 20
    frequency:   13.9524618727
  - # 21
    frequency:   13.9528122561
  - # 22
    frequency:   14.1697313195
  - # 23
    frequency:   14.1703458379
  - # 24
    frequency:   26.8223327871
  - # 25
    frequency:   32.2480691398
  - # 26
    frequency:   57.9851650447
  - # 27
    frequency:   67.9884144904

- q-position: [    0.0151515,    0.0000000,    0.0000000 ]
  distance:    0.0048958
  band:
  - # 1
    frequency:   -1.7214319116
  - # 2
    frequency:   -1.7142778996
  - # 3
    frequency:   -0.5034593396
  - # 4
    frequency:   -0.4838958408
  - # 5
    frequency:    0.0156395454
  - # 6
    frequency:    0.3595294842
  - # 7
    frequency:    0.3613607831
  - # 8
    frequency:    3.5260790986
  - # 9
    frequency:    3.5305785527
  - # 10
    frequency:    4.5492115062
  - # 11
    frequency:    6.2694761038
  - # 12
    frequency:    6.2710886325
  - # 13
    frequency:    6.5515946714
  - # 14
    frequency:    6.7856484932
  - # 15
    frequency:    6.7885026997
  - # 16
    frequency:    8.0470570979
  - # 17
    frequency:   11.5616632122
  - # 18
    frequency:   11.7177126279
  - # 19
    frequency:   11.7185010936
  - # 20
    frequency:   13.9524155446
  - # 21
    frequency:   13.9532035911
  - # 22
    frequency:   14.1700916527
  - # 23
    frequency:   14.1714733085
  - # 24
    frequency:   26.8220814109
  - # 25
    frequency:   32.2455652962
  - # 26
    frequency:   57.9805729384
  - # 27
    frequency:   67.9870168378

- q-position: [    0.0202020,    0.0000000,    0.0000000 ]
  distance:    0.0065277
  band:
  - # 1
    frequency:   -1.7199769000
  - # 2
    frequency:   -1.7072570671
  - # 3
    frequency:   -0.5245090078
  - # 4
    frequency:   -0.4928415236
  - # 5
    frequency:    0.0280704277
  - # 6
    frequency:    0.4574941841
  - # 7
    frequency:    0.4576057926
  - # 8
    frequency:    3.5249682254
  - # 9
    frequency:    3.5329297475
  - # 10
    frequency:    4.5480817438
  - # 11
    frequency:    6.2685353676
  - # 12
    frequency:    6.2713505644
  - # 13
    frequency:    6.5456395184
  - # 14
    frequency:    6.7855929841
  - # 15
    frequency:    6.7905226618
  - # 16
    frequency:    8.0419232973
  - # 17
    frequency:   11.5600503779
  - # 18
    frequency:   11.7149853647
  - # 19
    frequency:   11.7163280738
  - # 20
    frequency:   13.9523522617
  - # 21
    frequency:   13.9537524317
  - # 22
    frequency:   14.1705935942
  - # 23
    frequency:   14.1730473663
  - # 24
    frequency:   26.8217297450
  - # 25
    frequency:   32.2420688106
  - # 26
    frequency:   57.9741563834
  - # 27
    frequency:   67.9850647145

- q-position: [    0.0252525,    0.0000000,    0.0000000 ]
  distance:    0.0081597
  band:
  - # 1
    frequency:   -1.7180956774
  - # 2
    frequency:   -1.6982171523
  - # 3
    frequency:   -0.5405697220
  - # 4
    frequency:   -0.4937518710
  - # 5
    frequency:    0.0444521761
  - # 6
    frequency:    0.5473808204
  - # 7
    frequency:    0.5491664433
  - # 8
    frequency:    3.5235735615
  - # 9
    frequency:    3.5359382874
  - # 10
    frequency:    4.5466416080
  - # 11
    frequency:    6.2673289151
  - # 12
    frequency:    6.2716224068
  - # 13
    frequency:    6.5382268346
  - # 14
    frequency:    6.7855145333
  - # 15
    frequency:    6.7929522545
  - # 16
    frequency:    8.0353466529
  - # 17
    frequency:   11.5578863372
  - # 18
    frequency:   11.7115594526
  - # 19
    frequency:   11.7135374472
  - # 20
    frequency:   13.9522735662
  - # 21
    frequency:   13.9544596835
  - # 22
    frequency:   14.1712346582
  - # 23
    frequency:   14.1750636729
  - # 24
    frequency:   26.8212780521
  - # 25
    frequency:   32.2375885442
  - # 26
    frequency:   57.9659277329
  - # 27
    frequency:   67.9825626916

- q-position: [    0.0303030,    0.0000000,    0.0000000 ]
  distance:    0.0097916
  band:
  - # 1
    frequency:   -1.7157811944
  - # 2
    frequency:   -1.6871481842
  - # 3
    frequency:   -0.5515484762
  - # 4
    frequency:   -0.4858784610
  - # 5
    frequency:    0.0651987168
  - # 6
    frequency:    0.6327470989
  - # 7
    frequency:    0.6364290489
  - # 8
    frequency:    3.5219200747
  - # 9
    frequency:    3.5395934444
  - # 10
    frequency:    4.5449004036
  - # 11
    frequency:    6.2658590191
  - # 12
    frequency:    6.2718524505
  - # 13
    frequency:    6.5295084125
  - # 14
    frequency:    6.7854079847
  - # 15
    frequency:    6.7956999435
  - # 16
    frequency:    8.0273450145
  - # 17
    frequency:   11.5551017288
  - # 18
    frequency:   11.7074972445
  - # 19
    frequency:   11.7101315852
  - # 20
    frequency:   13.9521813937
  - # 21
    frequency:   13.9553264211
  - # 22
    frequency:   14.1720117037
  - # 23
    frequency:   14.1775167350
  - # 24
    frequency:   26.8207266733
  - # 25
    frequency:   32.2321358411
  - # 26
    frequency:   57.9559028112
  - # 27
    frequency:   67.9795166183

- q-position: [    0.0353535,    0.0000000,    0.0000000 ]
  distance:    0.0114235
  band:
  - # 1
    frequency:   -1.7130256417
  - # 2
    frequency:   -1.6740377897
  - # 3
    frequency:   -0.5576524831
  - # 4
    frequency:   -0.4686790316
  - # 5
    frequency:    0.0909896550
  - # 6
    frequency:    0.7149623569
  - # 7
    frequency:    0.7204778398
  - # 8
    frequency:    3.5200380173
  - # 9
    frequency:    3.5438822024
  - # 10
    frequency:    4.5428694968
  - # 11
    frequency:    6.2641284287
  - # 12
    frequency:    6.2719739695
  - # 13
    frequency:    6.5196465241
  - # 14
    frequency:    6.7852672060
  - # 15
    frequency:    6.7986805468
  - # 16
    frequency:    8.0179400720
  - # 17
    frequency:   11.5516108580
  - # 18
    frequency:   11.7028762620
  - # 19
    frequency:   11.7061133087
  - # 20
    frequency:   13.9520780394
  - # 21
    frequency:   13.9563538278
  - # 22
    frequency:   14.1729209730
  - # 23
    frequency:   14.1803999621
  - # 24
    frequency:   26.8200760298
  - # 25
    frequency:   32.2257244919
  - # 26
    frequency:   57.9441008707
  - # 27
    frequency:   67.9759336016

- q-position: [    0.0404040,    0.0000000,    0.0000000 ]
  distance:    0.0130555
  band:
  - # 1
    frequency:   -1.7098208071
  - # 2
    frequency:   -1.6588710090
  - # 3
    frequency:   -0.5591309663
  - # 4
    frequency:   -0.4416169739
  - # 5
    frequency:    0.1229532698
  - # 6
    frequency:    0.7948069822
  - # 7
    frequency:    0.8020919476
  - # 8
    frequency:    3.5179627633
  - # 9
    frequency:    3.5487893079
  - # 10
    frequency:    4.5405623143
  - # 11
    frequency:    6.2621403544
  - # 12
    frequency:    6.2719028872
  - # 13
    frequency:    6.5088102190
  - # 14
    frequency:    6.7850851862
  - # 15
    frequency:    6.8018212335
  - # 16
    frequency:    8.0071572853
  - # 17
    frequency:   11.5473124289
  - # 18
    frequency:   11.6977886875
  - # 19
    frequency:   11.7014858439
  - # 20
    frequency:   13.9519661197
  - # 21
    frequency:   13.9575431293
  - # 22
    frequency:   14.1739581371
  - # 23
    frequency:   14.1837057304
  - # 24
    frequency:   26.8193266259
  - # 25
    frequency:   32.2183706892
  - # 26
    frequency:   57.9305445390
  - # 27
    frequency:   67.9718219815

- q-position: [    0.0454545,    0.0000000,    0.0000000 ]
  distance:    0.0146874
  band:
  - # 1
    frequency:   -1.7061584101
  - # 2
    frequency:   -1.6416300096
  - # 3
    frequency:   -0.5561905597
  - # 4
    frequency:   -0.4043168728
  - # 5
    frequency:    0.1629401675
  - # 6
    frequency:    0.8727716595
  - # 7
    frequency:    0.8817952551
  - # 8
    frequency:    3.5157346095
  - # 9
    frequency:    3.5542973250
  - # 10
    frequency:    4.5379943429
  - # 11
    frequency:    6.2598984502
  - # 12
    frequency:    6.2715348997
  - # 13
    frequency:    6.4971748538
  - # 14
    frequency:    6.7848541470
  - # 15
    frequency:    6.8050648389
  - # 16
    frequency:    7.9950258046
  - # 17
    frequency:   11.5420916948
  - # 18
    frequency:   11.6923394666
  - # 19
    frequency:   11.6962527715
  - # 20
    frequency:   13.9518485304
  - # 21
    frequency:   13.9588955245
  - # 22
    frequency:   14.1751183456
  - # 23
    frequency:   14.1874254494
  - # 24
    frequency:   26.8184790516
  - # 25
    frequency:   32.2100929758
  - # 26
    frequency:   57.9152597566
  - # 27
    frequency:   67.9671913012

- q-position: [    0.0505051,    0.0000000,    0.0000000 ]
  distance:    0.0163194
  band:
  - # 1
    frequency:   -1.7020303971
  - # 2
    frequency:   -1.6222936583
  - # 3
    frequency:   -0.5489651223
  - # 4
    frequency:   -0.3572593477
  - # 5
    frequency:    0.2136823975
  - # 6
    frequency:    0.9491651335
  - # 7
    frequency:    0.9599500525
  - # 8
    frequency:    3.5133985407
  - # 9
    frequency:    3.5603866916
  - # 10
    frequency:    4.5351831323
  - # 11
    frequency:    6.2574067961
  - # 12
    frequency:    6.2707421703
  - # 13
    frequency:    6.4849241434
  - # 14
    frequency:    6.7845656664
  - # 15
    frequency:    6.8083710993
  - # 16
    frequency:    7.9815783845
  - # 17
    frequency:   11.5358245995
  - # 18
    frequency:   11.6866424460
  - # 19
    frequency:   11.6904179708
  - # 20
    frequency:   13.9517284010
  - # 21
    frequency:   13.9604121166
  - # 22
    frequency:   14.1763962807
  - # 23
    frequency:   14.1915496300
  - # 24
    frequency:   26.8175339863
  - # 25
    frequency:   32.2009121847
  - # 26
    frequency:   57.8982757065
  - # 27
    frequency:   67.9620522746

- q-position: [    0.0555556,    0.0000000,    0.0000000 ]
  distance:    0.0179513
  band:
  - # 1
    frequency:   -1.6974291833
  - # 2
    frequency:   -1.6008369039
  - # 3
    frequency:   -0.5375008697
  - # 4
    frequency:   -0.3030042245
  - # 5
    frequency:    0.2778235044
  - # 6
    frequency:    1.0241782160
  - # 7
    frequency:    1.0368124141
  - # 8
    frequency:    3.5110039539
  - # 9
    frequency:    3.5670357762
  - # 10
    frequency:    4.5321482986
  - # 11
    frequency:    6.2546698793
  - # 12
    frequency:    6.2693699855
  - # 13
    frequency:    6.4722536773
  - # 14
    frequency:    6.7842108119
  - # 15
    frequency:    6.8117164759
  - # 16
    frequency:    7.9668512924
  - # 17
    frequency:   11.5283841999
  - # 18
    frequency:   11.6808142501
  - # 19
    frequency:   11.6839855587
  - # 20
    frequency:   13.9516090484
  - # 21
    frequency:   13.9620938480
  - # 22
    frequency:   14.1777862140
  - # 23
    frequency:   14.1960679504
  - # 24
    frequency:   26.8164922021
  - # 25
    frequency:   32.1908513724
  - # 26
    frequency:   57.8796247335
  - # 27
    frequency:   67.9564167483

- q-position: [    0.0606061,    0.0000000,    0.0000000 ]
  distance:    0.0195832
  band:
  - # 1
    frequency:   -1.6923478397
  - # 2
    frequency:   -1.5772299058
  - # 3
    frequency:   -0.5217418215
  - # 4
    frequency:   -0.2455008194
  - # 5
    frequency:    0.3547177159
  - # 6
    frequency:    1.0979233371
  - # 7
    frequency:    1.1125659304
  - # 8
    frequency:    3.5086043402
  - # 9
    frequency:    3.5742209321
  - # 10
    frequency:    4.5289115306
  - # 11
    frequency:    6.2516925760
  - # 12
    frequency:    6.2672343175
  - # 13
    frequency:    6.4593744170
  - # 14
    frequency:    6.7837802829
  - # 15
    frequency:    6.8150931153
  - # 16
    frequency:    7.9508842124
  - # 17
    frequency:   11.5196490425
  - # 18
    frequency:   11.6749662190
  - # 19
    frequency:   11.6769598255
  - # 20
    frequency:   13.9514939297
  - # 21
    frequency:   13.9639414403
  - # 22
    frequency:   14.1792820647
  - # 23
    frequency:   14.2009693179
  - # 24
    frequency:   26.8153545680
  - # 25
    frequency:   32.1799357443
  - # 26
    frequency:   57.8593422562
  - # 27
    frequency:   67.9502976610

- q-position: [    0.0656566,    0.0000000,    0.0000000 ]
  distance:    0.0212152
  band:
  - # 1
    frequency:   -1.6867802262
  - # 2
    frequency:   -1.5514368327
  - # 3
    frequency:   -0.5015070163
  - # 4
    frequency:   -0.1839549110
  - # 5
    frequency:    0.4391268814
  - # 6
    frequency:    1.1704599134
  - # 7
    frequency:    1.1873428746
  - # 8
    frequency:    3.5062569196
  - # 9
    frequency:    3.5819165502
  - # 10
    frequency:    4.5254965964
  - # 11
    frequency:    6.2484801348
  - # 12
    frequency:    6.2641221428
  - # 13
    frequency:    6.4465139553
  - # 14
    frequency:    6.7832645576
  - # 15
    frequency:    6.8185073218
  - # 16
    frequency:    7.9337201459
  - # 17
    frequency:   11.5095123144
  - # 18
    frequency:   11.6691955819
  - # 19
    frequency:   11.6693451685
  - # 20
    frequency:   13.9513865963
  - # 21
    frequency:   13.9659553427
  - # 22
    frequency:   14.1808774577
  - # 23
    frequency:   14.2062419265
  - # 24
    frequency:   26.8141220535
  - # 25
    frequency:   32.1681925736
  - # 26
    frequency:   57.8374666695
  - # 27
    frequency:   67.9437089984

- q-position: [    0.0707071,    0.0000000,    0.0000000 ]
  distance:    0.0228471
  band:
  - # 1
    frequency:   -1.6807210760
  - # 2
    frequency:   -1.5234142275
  - # 3
    frequency:   -0.4764500449
  - # 4
    frequency:   -0.1007415019
  - # 5
    frequency:    0.5256073718
  - # 6
    frequency:    1.2418111676
  - # 7
    frequency:    1.2612378266
  - # 8
    frequency:    3.5040222261
  - # 9
    frequency:    3.5900951076
  - # 10
    frequency:    4.5219293495
  - # 11
    frequency:    6.2450381609
  - # 12
    frequency:    6.2597975163
  - # 13
    frequency:    6.4339123228
  - # 14
    frequency:    6.7826540441
  - # 15
    frequency:    6.8219777641
  - # 16
    frequency:    7.9154053087
  - # 17
    frequency:   11.4978898987
  - # 18
    frequency:   11.6611460242
  - # 19
    frequency:   11.6635777317
  - # 20
    frequency:   13.9512906482
  - # 21
    frequency:   13.9681356885
  - # 22
    frequency:   14.1825657824
  - # 23
    frequency:   14.2118733072
  - # 24
    frequency:   26.8127957327
  - # 25
    frequency:   32.1556511133
  - # 26
    frequency:   57.8140392401
  - # 27
    frequency:   67.9366657457

- q-position: [    0.0757576,    0.0000000,    0.0000000 ]
  distance:    0.0244790
  band:
  - # 1
    frequency:   -1.6741660409
  - # 2
    frequency:   -1.4931088062
  - # 3
    frequency:   -0.4459838807
  - # 4
    frequency:    0.1163290504
  - # 5
    frequency:    0.6113907906
  - # 6
    frequency:    1.3119756047
  - # 7
    frequency:    1.3343166239
  - # 8
    frequency:    3.5019636389
  - # 9
    frequency:    3.5987272147
  - # 10
    frequency:    4.5182377318
  - # 11
    frequency:    6.2413726040
  - # 12
    frequency:    6.2540170577
  - # 13
    frequency:    6.4218085766
  - # 14
    frequency:    6.7819392324
  - # 15
    frequency:    6.8255335288
  - # 16
    frequency:    7.8959890256
  - # 17
    frequency:   11.4847254334
  - # 18
    frequency:   11.6523668006
  - # 19
    frequency:   11.6581614960
  - # 20
    frequency:   13.9512096914
  - # 21
    frequency:   13.9704822626
  - # 22
    frequency:   14.1843402487
  - # 23
    frequency:   14.2178503728
  - # 24
    frequency:   26.8113767887
  - # 25
    frequency:   32.1423425018
  - # 26
    frequency:   57.7891039934
  - # 27
    frequency:   67.9291838358

- q-position: [    0.0808081,    0.0000000,    0.0000000 ]
  distance:    0.0261110
  band:
  - # 1
    frequency:   -1.6671117046
  - # 2
    frequency:   -1.4604545127
  - # 3
    frequency:   -0.4091324802
  - # 4
    frequency:    0.1979486002
  - # 5
    frequency:    0.6955988541
  - # 6
    frequency:    1.3809350430
  - # 7
    frequency:    1.4066223216
  - # 8
    frequency:    3.5001468567
  - # 9
    frequency:    3.6077816601
  - # 10
    frequency:    4.5144517696
  - # 11
    frequency:    6.2374897484
  - # 12
    frequency:    6.2465570237
  - # 13
    frequency:    6.4104159537
  - # 14
    frequency:    6.7811108448
  - # 15
    frequency:    6.8292120728
  - # 16
    frequency:    7.8755236207
  - # 17
    frequency:   11.4699913013
  - # 18
    frequency:   11.6430118106
  - # 19
    frequency:   11.6529684733
  - # 20
    frequency:   13.9511472979
  - # 21
    frequency:   13.9729944772
  - # 22
    frequency:   14.1861939428
  - # 23
    frequency:   14.2241594564
  - # 24
    frequency:   26.8098665174
  - # 25
    frequency:   32.1282996622
  - # 26
    frequency:   57.7627075929
  - # 27
    frequency:   67.9212800955

- q-position: [    0.0858586,    0.0000000,    0.0000000 ]
  distance:    0.0277429
  band:
  - # 1
    frequency:   -1.6595555740
  - # 2
    frequency:   -1.4253685902
  - # 3
    frequency:   -0.3642062154
  - # 4
    frequency:    0.2610646662
  - # 5
    frequency:    0.7781162367
  - # 6
    frequency:    1.4486603634
  - # 7
    frequency:    1.4781791878
  - # 8
    frequency:    3.4986393125
  - # 9
    frequency:    3.6172254588
  - # 10
    frequency:    4.5106035584
  - # 11
    frequency:    6.2333962076
  - # 12
    frequency:    6.2372488300
  - # 13
    frequency:    6.3998887074
  - # 14
    frequency:    6.7801599825
  - # 15
    frequency:    6.8330570942
  - # 16
    frequency:    7.8540643044
  - # 17
    frequency:   11.4536857822
  - # 18
    frequency:   11.6330852082
  - # 19
    frequency:   11.6479961991
  - # 20
    frequency:   13.9511069683
  - # 21
    frequency:   13.9756713586
  - # 22
    frequency:   14.1881198791
  - # 23
    frequency:   14.2307863437
  - # 24
    frequency:   26.8082663316
  - # 25
    frequency:   32.1135571959
  - # 26
    frequency:   57.7348992134
  - # 27
    frequency:   67.9129721884

- q-position: [    0.0909091,    0.0000000,    0.0000000 ]
  distance:    0.0293748
  band:
  - # 1
    frequency:   -1.6514960550
  - # 2
    frequency:   -1.3877463365
  - # 3
    frequency:   -0.3079617728
  - # 4
    frequency:    0.3184746374
  - # 5
    frequency:    0.8590590584
  - # 6
    frequency:    1.5151157150
  - # 7
    frequency:    1.5489953747
  - # 8
    frequency:    3.4975095251
  - # 9
    frequency:    3.6270239053
  - # 10
    frequency:    4.5067272293
  - # 11
    frequency:    6.2260120694
  - # 12
    frequency:    6.2290989234
  - # 13
    frequency:    6.3902915702
  - # 14
    frequency:    6.7790782663
  - # 15
    frequency:    6.8371163380
  - # 16
    frequency:    7.8316690540
  - # 17
    frequency:   11.4358276743
  - # 18
    frequency:   11.6225909284
  - # 19
    frequency:   11.6432238299
  - # 20
    frequency:   13.9510920981
  - # 21
    frequency:   13.9785115418
  - # 22
    frequency:   14.1901110506
  - # 23
    frequency:   14.2377163019
  - # 24
    frequency:   26.8065777644
  - # 25
    frequency:   32.0981512710
  - # 26
    frequency:   57.7057304062
  - # 27
    frequency:   67.9042785556

- q-position: [    0.0959596,    0.0000000,    0.0000000 ]
  distance:    0.0310068
  band:
  - # 1
    frequency:   -1.6429324194
  - # 2
    frequency:   -1.3474540783
  - # 3
    frequency:   -0.2326634778
  - # 4
    frequency:    0.3738540432
  - # 5
    frequency:    0.9385854329
  - # 6
    frequency:    1.5802616578
  - # 7
    frequency:    1.6190646816
  - # 8
    frequency:    3.4968263890
  - # 9
    frequency:    3.6371406378
  - # 10
    frequency:    4.5028588893
  - # 11
    frequency:    6.2128703212
  - # 12
    frequency:    6.2246051694
  - # 13
    frequency:    6.3815865173
  - # 14
    frequency:    6.7778579684
  - # 15
    frequency:    6.8414393673
  - # 16
    frequency:    7.8083984873
  - # 17
    frequency:   11.4164500540
  - # 18
    frequency:   11.6115326321
  - # 19
    frequency:   11.6386186749
  - # 20
    frequency:   13.9511059473
  - # 21
    frequency:   13.9815132732
  - # 22
    frequency:   14.1921604756
  - # 23
    frequency:   14.2449341038
  - # 24
    frequency:   26.8048024730
  - # 25
    frequency:   32.0821195050
  - # 26
    frequency:   57.6752549593
  - # 27
    frequency:   67.8952183543

- q-position: [    0.1010101,    0.0000000,    0.0000000 ]
  distance:    0.0326387
  band:
  - # 1
    frequency:   -1.6338647672
  - # 2
    frequency:   -1.3043196916
  - # 3
    frequency:   -0.1033178763
  - # 4
    frequency:    0.4287354890
  - # 5
    frequency:    1.0168370712
  - # 6
    frequency:    1.6440575637
  - # 7
    frequency:    1.6883676866
  - # 8
    frequency:    3.4966584006
  - # 9
    frequency:    3.6475377207
  - # 10
    frequency:    4.4990365261
  - # 11
    frequency:    6.1979418232
  - # 12
    frequency:    6.2199225612
  - # 13
    frequency:    6.3736447131
  - # 14
    frequency:    6.7764921341
  - # 15
    frequency:    6.8460753474
  - # 16
    frequency:    7.7843157293
  - # 17
    frequency:   11.3955945251
  - # 18
    frequency:   11.5999136570
  - # 19
    frequency:   11.6341422204
  - # 20
    frequency:   13.9511516139
  - # 21
    frequency:   13.9846744203
  - # 22
    frequency:   14.1942612414
  - # 23
    frequency:   14.2524240510
  - # 24
    frequency:   26.8029422416
  - # 25
    frequency:   32.0655008430
  - # 26
    frequency:   57.6435287505
  - # 27
    frequency:   67.8858113940

- q-position: [    0.1060606,    0.0000000,    0.0000000 ]
  distance:    0.0342706
  band:
  - # 1
    frequency:   -1.6242939875
  - # 2
    frequency:   -1.2581196692
  - # 3
    frequency:    0.1881109687
  - # 4
    frequency:    0.4838477177
  - # 5
    frequency:    1.0939257008
  - # 6
    frequency:    1.7064634931
  - # 7
    frequency:    1.7568724409
  - # 8
    frequency:    3.4970728255
  - # 9
    frequency:    3.6581757528
  - # 10
    frequency:    4.4952998648
  - # 11
    frequency:    6.1814106620
  - # 12
    frequency:    6.2150590707
  - # 13
    frequency:    6.3662779087
  - # 14
    frequency:    6.7749746902
  - # 15
    frequency:    6.8510709167
  - # 16
    frequency:    7.7594862676
  - # 17
    frequency:   11.3733066958
  - # 18
    frequency:   11.5877369765
  - # 19
    frequency:   11.6297549058
  - # 20
    frequency:   13.9512320101
  - # 21
    frequency:   13.9879924867
  - # 22
    frequency:   14.1964065452
  - # 23
    frequency:   14.2601699951
  - # 24
    frequency:   26.8009989839
  - # 25
    frequency:   32.0483354322
  - # 26
    frequency:   57.6106095962
  - # 27
    frequency:   67.8760780718

- q-position: [    0.1111111,    0.0000000,    0.0000000 ]
  distance:    0.0359026
  band:
  - # 1
    frequency:   -1.6142217204
  - # 2
    frequency:   -1.2085611857
  - # 3
    frequency:    0.2896663682
  - # 4
    frequency:    0.5395443266
  - # 5
    frequency:    1.1699337889
  - # 6
    frequency:    1.7674416957
  - # 7
    frequency:    1.8245348637
  - # 8
    frequency:    3.4981348126
  - # 9
    frequency:    3.6690140105
  - # 10
    frequency:    4.4916901632
  - # 11
    frequency:    6.1634926686
  - # 12
    frequency:    6.2100230476
  - # 13
    frequency:    6.3592750123
  - # 14
    frequency:    6.7733005393
  - # 15
    frequency:    6.8564682315
  - # 16
    frequency:    7.7339777997
  - # 17
    frequency:   11.3496330627
  - # 18
    frequency:   11.5750051656
  - # 19
    frequency:   11.6254194717
  - # 20
    frequency:   13.9513498428
  - # 21
    frequency:   13.9914646313
  - # 22
    frequency:   14.1985897315
  - # 23
    frequency:   14.2681553601
  - # 24
    frequency:   26.7989747457
  - # 25
    frequency:   32.0306644912
  - # 26
    frequency:   57.5765570943
  - # 27
    frequency:   67.8660393055

- q-position: [    0.1161616,    0.0000000,    0.0000000 ]
  distance:    0.0375345
  band:
  - # 1
    frequency:   -1.6036503203
  - # 2
    frequency:   -1.1552566435
  - # 3
    frequency:    0.3670829742
  - # 4
    frequency:    0.5959777947
  - # 5
    frequency:    1.2449191701
  - # 6
    frequency:    1.8269578369
  - # 7
    frequency:    1.8912989459
  - # 8
    frequency:    3.4999064636
  - # 9
    frequency:    3.6800106351
  - # 10
    frequency:    4.4882499310
  - # 11
    frequency:    6.1444080096
  - # 12
    frequency:    6.2048232464
  - # 13
    frequency:    6.3524317368
  - # 14
    frequency:    6.7714656385
  - # 15
    frequency:    6.8623032780
  - # 16
    frequency:    7.7078600698
  - # 17
    frequency:   11.3246191364
  - # 18
    frequency:   11.5617203774
  - # 19
    frequency:   11.6211030434
  - # 20
    frequency:   13.9515075968
  - # 21
    frequency:   13.9950876902
  - # 22
    frequency:   14.2008043255
  - # 23
    frequency:   14.2763631660
  - # 24
    frequency:   26.7968717062
  - # 25
    frequency:   32.0125301776
  - # 26
    frequency:   57.5414324633
  - # 27
    frequency:   67.8557164663

- q-position: [    0.1212121,    0.0000000,    0.0000000 ]
  distance:    0.0391665
  band:
  - # 1
    frequency:   -1.5925828222
  - # 2
    frequency:   -1.0976863624
  - # 3
    frequency:    0.4333367228
  - # 4
    frequency:    0.6531815036
  - # 5
    frequency:    1.3189201492
  - # 6
    frequency:    1.8849820177
  - # 7
    frequency:    1.9570968468
  - # 8
    frequency:    3.5024458729
  - # 9
    frequency:    3.6911228741
  - # 10
    frequency:    4.4850225547