nqpoint: 300    
npath: 3      
segment_nqpoint:
- 100
- 100
- 100
labels:
- [ 'G', 'M' ]
- [ 'M', 'K' ]
- [ 'K', 'G' ]
reciprocal_lattice:
- [   0.30019587,   0.17331816,   0.00000000 ] # a*
- [   0.00000000,   0.34663633,   0.00000000 ] # b*
- [   0.00000000,   0.00000000,   0.04205242 ] # c*
natom: 5      
lattice:
- [     3.331158457906598,     0.000000000000000,     0.000000000000000 ] # a
- [    -1.665579228953299,     2.884867848557066,     0.000000000000000 ] # b
- [     0.000000000000000,     0.000000000000000,    23.779842080895005 ] # c
points:
- symbol: Br # 1
  coordinates: [  0.333332985432215,  0.666666983183674,  0.621528184695949 ]
  mass: 79.904000
- symbol: Br # 2
  coordinates: [  0.666666984744047,  0.333332985985145,  0.378471815304051 ]
  mass: 79.904000
- symbol: C # 3
  coordinates: [  0.000000000000000,  0.000000000000000,  0.500000035401678 ]
  mass: 12.010700
- symbol: Ti # 4
  coordinates: [  0.333332985432215,  0.666666983183674,  0.455328021019167 ]
  mass: 47.867000
- symbol: Ti # 5
  coordinates: [  0.666666984744047,  0.333332985985145,  0.544671978452440 ]
  mass: 47.867000

phonon:
- q-position: [    0.0000000,    0.0000000,    0.0000000 ]
  distance:    0.0000000
  band:
  - # 1
    frequency:   -0.0000027621
  - # 2
    frequency:   -0.0000003075
  - # 3
    frequency:    0.0000027759
  - # 4
    frequency:    2.6680658872
  - # 5
    frequency:    2.6680658872
  - # 6
    frequency:    4.4010245465
  - # 7
    frequency:    4.8230720924
  - # 8
    frequency:    4.8230720924
  - # 9
    frequency:    7.3488448229
  - # 10
    frequency:    7.3488448229
  - # 11
    frequency:    7.6529399662
  - # 12
    frequency:   12.0460918451
  - # 13
    frequency:   16.0293796131
  - # 14
    frequency:   16.4400909158
  - # 15
    frequency:   16.4400909158

- q-position: [    0.0050505,    0.0000000,    0.0000000 ]
  distance:    0.0017507
  band:
  - # 1
    frequency:   -0.0228085616
  - # 2
    frequency:    0.0681652217
  - # 3
    frequency:    0.1057410886
  - # 4
    frequency:    2.6685805826
  - # 5
    frequency:    2.6701944772
  - # 6
    frequency:    4.3983777669
  - # 7
    frequency:    4.8232386342
  - # 8
    frequency:    4.8263153283
  - # 9
    frequency:    7.3462552370
  - # 10
    frequency:    7.3488514999
  - # 11
    frequency:    7.6555779815
  - # 12
    frequency:   12.0449289859
  - # 13
    frequency:   16.0290301161
  - # 14
    frequency:   16.4405426663
  - # 15
    frequency:   16.4411508730

- q-position: [    0.0101010,    0.0000000,    0.0000000 ]
  distance:    0.0035014
  band:
  - # 1
    frequency:   -0.0447413582
  - # 2
    frequency:    0.1363024082
  - # 3
    frequency:    0.2114515421
  - # 4
    frequency:    2.6701228645
  - # 5
    frequency:    2.6765536938
  - # 6
    frequency:    4.3906773783
  - # 7
    frequency:    4.8237385895
  - # 8
    frequency:    4.8358049702
  - # 9
    frequency:    7.3387472859
  - # 10
    frequency:    7.3488714086
  - # 11
    frequency:    7.6632311194
  - # 12
    frequency:   12.0414436575
  - # 13
    frequency:   16.0279820233
  - # 14
    frequency:   16.4418949476
  - # 15
    frequency:   16.4443240557

- q-position: [    0.0151515,    0.0000000,    0.0000000 ]
  distance:    0.0052521
  band:
  - # 1
    frequency:   -0.0648955130
  - # 2
    frequency:    0.2043836049
  - # 3
    frequency:    0.3171005390
  - # 4
    frequency:    2.6726873358
  - # 5
    frequency:    2.6870652646
  - # 6
    frequency:    4.3785570676
  - # 7
    frequency:    4.8245729461
  - # 8
    frequency:    4.8509069791
  - # 9
    frequency:    7.3269917725
  - # 10
    frequency:    7.3489041841
  - # 11
    frequency:    7.6752282819
  - # 12
    frequency:   12.0356455894
  - # 13
    frequency:   16.0262365964
  - # 14
    frequency:   16.4441388767
  - # 15
    frequency:   16.4495903905

- q-position: [    0.0202020,    0.0000000,    0.0000000 ]
  distance:    0.0070028
  band:
  - # 1
    frequency:   -0.0823026998
  - # 2
    frequency:    0.2723810166
  - # 3
    frequency:    0.4226568869
  - # 4
    frequency:    2.6762650522
  - # 5
    frequency:    2.7016031938
  - # 6
    frequency:    4.3628492906
  - # 7
    frequency:    4.8257433433
  - # 8
    frequency:    4.8707882942
  - # 9
    frequency:    7.3118306312
  - # 10
    frequency:    7.3489492220
  - # 11
    frequency:    7.6907270718
  - # 12
    frequency:   12.0275509378
  - # 13
    frequency:   16.0237961470
  - # 14
    frequency:   16.4472597352
  - # 15
    frequency:   16.4569164097

- q-position: [    0.0252525,    0.0000000,    0.0000000 ]
  distance:    0.0087534
  band:
  - # 1
    frequency:   -0.0958618958
  - # 2
    frequency:    0.3402670816
  - # 3
    frequency:    0.5280888385
  - # 4
    frequency:    2.6808435983
  - # 5
    frequency:    2.7199998902
  - # 6
    frequency:    4.3443996885
  - # 7
    frequency:    4.8272520613
  - # 8
    frequency:    4.8946023888
  - # 9
    frequency:    7.2940741037
  - # 10
    frequency:    7.3490056843
  - # 11
    frequency:    7.7089166592
  - # 12
    frequency:   12.0171821973
  - # 13
    frequency:   16.0206643028
  - # 14
    frequency:   16.4512371004
  - # 15
    frequency:   16.4662552771

- q-position: [    0.0303030,    0.0000000,    0.0000000 ]
  distance:    0.0105041
  band:
  - # 1
    frequency:   -0.1042042437
  - # 2
    frequency:    0.4080145410
  - # 3
    frequency:    0.6333639120
  - # 4
    frequency:    2.6864071917
  - # 5
    frequency:    2.7420537482
  - # 6
    frequency:    4.3239567116
  - # 7
    frequency:    4.8291020066
  - # 8
    frequency:    4.9215996085
  - # 9
    frequency:    7.2744023065
  - # 10
    frequency:    7.3490725071
  - # 11
    frequency:    7.7291162743
  - # 12
    frequency:   12.0045680800
  - # 13
    frequency:   16.0168463019
  - # 14
    frequency:   16.4560450257
  - # 15
    frequency:   16.4775468974

- q-position: [    0.0353535,    0.0000000,    0.0000000 ]
  distance:    0.0122548
  band:
  - # 1
    frequency:   -0.1053782685
  - # 2
    frequency:    0.4755964985
  - # 3
    frequency:    0.7384487138
  - # 4
    frequency:    2.6929368147
  - # 5
    frequency:    2.7675374225
  - # 6
    frequency:    4.3021335862
  - # 7
    frequency:    4.8312966918
  - # 8
    frequency:    4.9511651541
  - # 9
    frequency:    7.2533476318
  - # 10
    frequency:    7.3491484108
  - # 11
    frequency:    7.7507928825
  - # 12
    frequency:   11.9897433636
  - # 13
    frequency:   16.0123492624
  - # 14
    frequency:   16.4616522695
  - # 15
    frequency:   16.4907181515

- q-position: [    0.0404040,    0.0000000,    0.0000000 ]
  distance:    0.0140055
  band:
  - # 1
    frequency:   -0.0959194428
  - # 2
    frequency:    0.5429864732
  - # 3
    frequency:    0.8433087668
  - # 4
    frequency:    2.7004103704
  - # 5
    frequency:    2.7962060855
  - # 6
    frequency:    4.2794127302
  - # 7
    frequency:    4.8338402113
  - # 8
    frequency:    4.9828146048
  - # 9
    frequency:    7.2313144592
  - # 10
    frequency:    7.3492319120
  - # 11
    frequency:    7.7735415636
  - # 12
    frequency:   11.9727487131
  - # 13
    frequency:   16.0071823903
  - # 14
    frequency:   16.4680225713
  - # 15
    frequency:   16.5056832911

- q-position: [    0.0454545,    0.0000000,    0.0000000 ]
  distance:    0.0157562
  band:
  - # 1
    frequency:   -0.0662712013
  - # 2
    frequency:    0.6101584407
  - # 3
    frequency:    0.9479083433
  - # 4
    frequency:    2.7088028620
  - # 5
    frequency:    2.8278050899
  - # 6
    frequency:    4.2561669232
  - # 7
    frequency:    4.8367372114
  - # 8
    frequency:    5.0161726750
  - # 9
    frequency:    7.2086080579
  - # 10
    frequency:    7.3493213368
  - # 11
    frequency:    7.7970567169
  - # 12
    frequency:   11.9536304761
  - # 13
    frequency:   16.0013571034
  - # 14
    frequency:   16.4751149712
  - # 15
    frequency:   16.5223445039

- q-position: [    0.0505051,    0.0000000,    0.0000000 ]
  distance:    0.0175069
  band:
  - # 1
    frequency:    0.0638953645
  - # 2
    frequency:    0.6770868632
  - # 3
    frequency:    1.0522103036
  - # 4
    frequency:    2.7180865916
  - # 5
    frequency:    2.8620766423
  - # 6
    frequency:    4.2326831333
  - # 7
    frequency:    4.8399928549
  - # 8
    frequency:    5.0509493042
  - # 9
    frequency:    7.1854608228
  - # 10
    frequency:    7.3494148358
  - # 11
    frequency:    7.8211059464
  - # 12
    frequency:   11.9324404575
  - # 13
    frequency:   15.9948870689
  - # 14
    frequency:   16.4828841706
  - # 15
    frequency:   16.5405926425

- q-position: [    0.0555556,    0.0000000,    0.0000000 ]
  distance:    0.0192576
  band:
  - # 1
    frequency:    0.1302821697
  - # 2
    frequency:    0.7437467087
  - # 3
    frequency:    1.1561759407
  - # 4
    frequency:    2.7282313764
  - # 5
    frequency:    2.8987652784
  - # 6
    frequency:    4.2091833441
  - # 7
    frequency:    4.8436127797
  - # 8
    frequency:    5.0869187362
  - # 9
    frequency:    7.1620527410
  - # 10
    frequency:    7.3495104006
  - # 11
    frequency:    7.8455097286
  - # 12
    frequency:   11.9092356757
  - # 13
    frequency:   15.9877881617
  - # 14
    frequency:   16.4912809296
  - # 15
    frequency:   16.5603080978

- q-position: [    0.0606061,    0.0000000,    0.0000000 ]
  distance:    0.0210083
  band:
  - # 1
    frequency:    0.1871006751
  - # 2
    frequency:    0.8101134575
  - # 3
    frequency:    1.2597648303
  - # 4
    frequency:    2.7392047795
  - # 5
    frequency:    2.9376220883
  - # 6
    frequency:    4.1858410102
  - # 7
    frequency:    4.8476030516
  - # 8
    frequency:    5.1239029610
  - # 9
    frequency:    7.1385263774
  - # 10
    frequency:    7.3496058808
  - # 11
    frequency:    7.8701265751
  - # 12
    frequency:   11.8840781017
  - # 13
    frequency:   15.9800783607
  - # 14
    frequency:   16.5002524992
  - # 15
    frequency:   16.5813617916

- q-position: [    0.0656566,    0.0000000,    0.0000000 ]
  distance:    0.0227590
  band:
  - # 1
    frequency:    0.2426385972
  - # 2
    frequency:    0.8761630975
  - # 3
    frequency:    1.3629346870
  - # 4
    frequency:    2.7509723515
  - # 5
    frequency:    2.9784077569
  - # 6
    frequency:    4.1627934729
  - # 7
    frequency:    4.8519701107
  - # 8
    frequency:    5.1617591905
  - # 9
    frequency:    7.1149975602
  - # 10
    frequency:    7.3496990021
  - # 11
    frequency:    7.8948425070
  - # 12
    frequency:   11.8570343858
  - # 13
    frequency:   15.9717776006
  - # 14
    frequency:   16.5097430825
  - # 15
    frequency:   16.6036162575

- q-position: [    0.0707071,    0.0000000,    0.0000000 ]
  distance:    0.0245096
  band:
  - # 1
    frequency:    0.2987020512
  - # 2
    frequency:    0.9418721083
  - # 3
    frequency:    1.4656412232
  - # 4
    frequency:    2.7634978808
  - # 5
    frequency:    3.0208945573
  - # 6
    frequency:    4.1401511433
  - # 7
    frequency:    4.8567207116
  - # 8
    frequency:    5.2003705643
  - # 9
    frequency:    7.0915629374
  - # 10
    frequency:    7.3497873851
  - # 11
    frequency:    7.9195636696
  - # 12
    frequency:   11.8281755726
  - # 13
    frequency:   15.9629075948
  - # 14
    frequency:   16.5196943212
  - # 15
    frequency:   16.6269267856

- q-position: [    0.0757576,    0.0000000,    0.0000000 ]
  distance:    0.0262603
  band:
  - # 1
    frequency:    0.3558888080
  - # 2
    frequency:    1.0072174355
  - # 3
    frequency:    1.5678380110
  - # 4
    frequency:    2.7767436488
  - # 5
    frequency:    3.0648674690
  - # 6
    frequency:    4.1180042597
  - # 7
    frequency:    4.8618618565
  - # 8
    frequency:    5.2396392834
  - # 9
    frequency:    7.0683053272
  - # 10
    frequency:    7.3498685637
  - # 11
    frequency:    7.9442111651
  - # 12
    frequency:   11.7975768060
  - # 13
    frequency:   15.9534916418
  - # 14
    frequency:   16.5300458031
  - # 15
    frequency:   16.6511426058

- q-position: [    0.0808081,    0.0000000,    0.0000000 ]
  distance:    0.0280110
  band:
  - # 1
    frequency:    0.4143998169
  - # 2
    frequency:    1.0721764549
  - # 3
    frequency:    1.6694763425
  - # 4
    frequency:    2.7906706882
  - # 5
    frequency:    3.1101245981
  - # 6
    frequency:    4.0964278849
  - # 7
    frequency:    4.8674007227
  - # 8
    frequency:    5.2794815153
  - # 9
    frequency:    7.0452975292
  - # 10
    frequency:    7.3499400045
  - # 11
    frequency:    7.9687174323
  - # 12
    frequency:   11.7653170263
  - # 13
    frequency:   15.9435544252
  - # 14
    frequency:   16.5407355857
  - # 15
    frequency:   16.6761080917

- q-position: [    0.0858586,    0.0000000,    0.0000000 ]
  distance:    0.0297617
  band:
  - # 1
    frequency:    0.4742727195
  - # 2
    frequency:    1.1367269302
  - # 3
    frequency:    1.7705050828
  - # 4
    frequency:    2.8052390404
  - # 5
    frequency:    3.1564770649
  - # 6
    frequency:    4.0754856481
  - # 7
    frequency:    4.8733445834
  - # 8
    frequency:    5.3198235755
  - # 9
    frequency:    7.0226050645
  - # 10
    frequency:    7.3499991254
  - # 11
    frequency:    7.9930237088
  - # 12
    frequency:   11.7314786599
  - # 13
    frequency:   15.9331218123
  - # 14
    frequency:   16.5517007309
  - # 15
    frequency:   16.7016639699

- q-position: [    0.0909091,    0.0000000,    0.0000000 ]
  distance:    0.0315124
  band:
  - # 1
    frequency:    0.5354699362
  - # 2
    frequency:    1.2008469638
  - # 3
    frequency:    1.8708705105
  - # 4
    frequency:    2.8204080108
  - # 5
    frequency:    3.2037484991
  - # 6
    frequency:    4.0552326109
  - # 7
    frequency:    4.8797007229
  - # 8
    frequency:    5.3605990239
  - # 9
    frequency:    7.0002881647
  - # 10
    frequency:    7.3500433143
  - # 11
    frequency:    8.0170782514
  - # 12
    frequency:   11.6961473023
  - # 13
    frequency:   15.9222206555
  - # 14
    frequency:   16.5628778462
  - # 15
    frequency:   16.7276485211

- q-position: [    0.0959596,    0.0000000,    0.0000000 ]
  distance:    0.0332631
  band:
  - # 1
    frequency:    0.5979175395
  - # 2
    frequency:    1.2645149443
  - # 3
    frequency:    1.9705161321
  - # 4
    frequency:    2.8361364183
  - # 5
    frequency:    3.2517742527
  - # 6
    frequency:    4.0357175371
  - # 7
    frequency:    4.8864763462
  - # 8
    frequency:    5.4017464191
  - # 9
    frequency:    6.9784032322
  - # 10
    frequency:    7.3500699469
  - # 11
    frequency:    8.0408350934
  - # 12
    frequency:   11.6594113945
  - # 13
    frequency:   15.9108785963
  - # 14
    frequency:   16.5742036265
  - # 15
    frequency:   16.7538987647

- q-position: [    0.1010101,    0.0000000,    0.0000000 ]
  distance:    0.0350138
  band:
  - # 1
    frequency:    0.6615241909
  - # 2
    frequency:    1.3277094905
  - # 3
    frequency:    2.0693824567
  - # 4
    frequency:    2.8523828383
  - # 5
    frequency:    3.3004004100
  - # 6
    frequency:    4.0169847902
  - # 7
    frequency:    4.8936784839
  - # 8
    frequency:    5.4432075468
  - # 9
    frequency:    6.9570039241
  - # 10
    frequency:    7.3500764045
  - # 11
    frequency:    8.0642531836
  - # 12
    frequency:   11.6213618939
  - # 13
    frequency:   15.8991238755
  - # 14
    frequency:   16.5856153938
  - # 15
    frequency:   16.7802516180

- q-position: [    0.1060606,    0.0000000,    0.0000000 ]
  distance:    0.0367645
  band:
  - # 1
    frequency:    0.7261909530
  - # 2
    frequency:    1.3904093965
  - # 3
    frequency:    2.1674067067
  - # 4
    frequency:    2.8691058355
  - # 5
    frequency:    3.3494826339
  - # 6
    frequency:    3.9990760440
  - # 7
    frequency:    4.9013138925
  - # 8
    frequency:    5.4849259917
  - # 9
    frequency:    6.9361419665
  - # 10
    frequency:    7.3500600904
  - # 11
    frequency:    8.0872958014
  - # 12
    frequency:   11.5820919394
  - # 13
    frequency:   15.8869851469
  - # 14
    frequency:   16.5970516263
  - # 15
    frequency:   16.8065450222

- q-position: [    0.1111111,    0.0000000,    0.0000000 ]
  distance:    0.0385151
  band:
  - # 1
    frequency:    0.7918165483
  - # 2
    frequency:    1.4525935771
  - # 3
    frequency:    2.2645224324
  - # 4
    frequency:    2.8862641865
  - # 5
    frequency:    3.3988848437
  - # 6
    frequency:    3.9820320001
  - # 7
    frequency:    4.9093889522
  - # 8
    frequency:    5.5268459618
  - # 9
    frequency:    6.9158677744
  - # 10
    frequency:    7.3500184460
  - # 11
    frequency:    8.1099301697
  - # 12
    frequency:   11.5416965101
  - # 13
    frequency:   15.8744912966
  - # 14
    frequency:   16.6084524766
  - # 15
    frequency:   16.8326190312

- q-position: [    0.1161616,    0.0000000,    0.0000000 ]
  distance:    0.0402658
  band:
  - # 1
    frequency:    0.8583001966
  - # 2
    frequency:    1.5142410179
  - # 3
    frequency:    2.3606589806
  - # 4
    frequency:    2.9038170902
  - # 5
    frequency:    3.4484776450
  - # 6
    frequency:    3.9658943448
  - # 7
    frequency:    4.9179095613
  - # 8
    frequency:    5.5689112974
  - # 9
    frequency:    6.8962309293
  - # 10
    frequency:    7.3499489653
  - # 11
    frequency:    8.1321272109
  - # 12
    frequency:   11.5002720788
  - # 13
    frequency:   15.8616712669
  - # 14
    frequency:   16.6197602699
  - # 15
    frequency:   16.8583168553

- q-position: [    0.1212121,    0.0000000,    0.0000000 ]
  distance:    0.0420165
  band:
  - # 1
    frequency:    0.9255431081
  - # 2
    frequency:    1.5753307298
  - # 3
    frequency:    2.4557407472
  - # 4
    frequency:    2.9217243633
  - # 5
    frequency:    3.4981362994
  - # 6
    frequency:    3.9507083097
  - # 7
    frequency:    4.9268810300
  - # 8
    frequency:    5.6110646195
  - # 9
    frequency:    6.8772805528
  - # 10
    frequency:    7.3498492094
  - # 11
    frequency:    8.1538614072
  - # 12
    frequency:   11.4579162607
  - # 13
    frequency:   15.8485538856
  - # 14
    frequency:   16.6309199817
  - # 15
    frequency:   16.8834858566

- q-position: [    0.1262626,    0.0000000,    0.0000000 ]
  distance:    0.0437672
  band:
  - # 1
    frequency:    0.9934492101
  - # 2
    frequency:    1.6358417112
  - # 3
    frequency:    2.5496861037
  - # 4
    frequency:    2.9399466220
  - # 5
    frequency:    3.5477377244
  - # 6
    frequency:    3.9365265089
  - # 7
    frequency:    4.9363079737
  - # 8
    frequency:    5.6532465831
  - # 9
    frequency:    6.8590656036
  - # 10
    frequency:    7.3497168186
  - # 11
    frequency:    8.1751107336
  - # 12
    frequency:   11.4147274558
  - # 13
    frequency:   15.8351677011
  - # 14
    frequency:   16.6418796880
  - # 15
    frequency:   16.9079784911

- q-position: [    0.1313131,    0.0000000,    0.0000000 ]
  distance:    0.0455179
  band:
  - # 1
    frequency:    1.0619254294
  - # 2
    frequency:    1.6957529182
  - # 3
    frequency:    2.6424058350
  - # 4
    frequency:    2.9584454476
  - # 5
    frequency:    3.5971552711
  - # 6
    frequency:    3.9234155071
  - # 7
    frequency:    4.9461942071
  - # 8
    frequency:    5.6953952128
  - # 9
    frequency:    6.8416351156
  - # 10
    frequency:    7.3495495251
  - # 11
    frequency:    8.1958566415
  - # 12
    frequency:   11.3708044876
  - # 13
    frequency:   15.8215408241
  - # 14
    frequency:   16.6525909854
  - # 15
    frequency:   16.9316531925

- q-position: [    0.1363636,    0.0000000,    0.0000000 ]
  distance:    0.0472686
  band:
  - # 1
    frequency:    1.1308817203
  - # 2
    frequency:    1.7550432448
  - # 3
    frequency:    2.7338008343
  - # 4
    frequency:    2.9771835358
  - # 5
    frequency:    3.6462479038
  - # 6
    frequency:    3.9114687756
  - # 7
    frequency:    4.9565426404
  - # 8
    frequency:    5.7374453069
  - # 9
    frequency:    6.8250383892
  - # 10
    frequency:    7.3493451631
  - # 11
    frequency:    8.2160840761
  - # 12
    frequency:   11.3262462378
  - # 13
    frequency:   15.8077007767
  - # 14
    frequency:   16.6630093779
  - # 15
    frequency:   16.9543751957

- q-position: [    0.1414141,    0.0000000,    0.0000000 ]
  distance:    0.0490193
  band:
  - # 1
    frequency:    1.2002309496
  - # 2
    frequency:    1.8136915133
  - # 3
    frequency:    2.8237586532
  - # 4
    frequency:    2.9961248287
  - # 5
    frequency:    3.6948333095
  - # 6
    frequency:    3.9008369304
  - # 7
    frequency:    4.9673551791
  - # 8
    frequency:    5.7793278997
  - # 9
    frequency:    6.8093251441
  - # 10
    frequency:    7.3491016791
  - # 11
    frequency:    8.2357815114
  - # 12
    frequency:   11.2811512776
  - # 13
    frequency:   15.7936743499
  - # 14
    frequency:   16.6730946255
  - # 15
    frequency:   16.9760172949

- q-position: [    0.1464646,    0.0000000,    0.0000000 ]
  distance:    0.0507700
  band:
  - # 1
    frequency:    1.2698887082
  - # 2
    frequency:    1.8716764762
  - # 3
    frequency:    2.9121482652
  - # 4
    frequency:    3.0152346298
  - # 5
    frequency:    3.7426053108
  - # 6
    frequency:    3.8918155298
  - # 7
    frequency:    4.9786326278
  - # 8
    frequency:    5.8209697817
  - # 9
    frequency:    6.7945456334
  - # 10
    frequency:    7.3488171405
  - # 11
    frequency:    8.2549409943
  - # 12
    frequency:   11.2356174973
  - # 13
    frequency:   15.7794874717
  - # 14
    frequency:   16.6828110536
  - # 15
    frequency:   16.9964605338

- q-position: [    0.1515152,    0.0000000,    0.0000000 ]
  distance:    0.0525207
  band:
  - # 1
    frequency:    1.3397730909
  - # 2
    frequency:    1.9289768295
  - # 3
    frequency:    2.9988119862
  - # 4
    frequency:    3.0344797016
  - # 5
    frequency:    3.7887966164
  - # 6
    frequency:    3.8851904632
  - # 7
    frequency:    4.9903746004
  - # 8
    frequency:    5.8622930809
  - # 9
    frequency:    6.7807507152
  - # 10
    frequency:    7.3484897436
  - # 11
    frequency:    8.2735581853
  - # 12
    frequency:   11.1897417348
  - # 13
    frequency:   15.7651650853
  - # 14
    frequency:   16.6921278195
  - # 15
    frequency:   17.0155948264

- q-position: [    0.1565657,    0.0000000,    0.0000000 ]
  distance:    0.0542713
  band:
  - # 1
    frequency:    1.4098044694
  - # 2
    frequency:    1.9855712381
  - # 3
    frequency:    3.0538283454
  - # 4
    frequency:    3.0835528047
  - # 5
    frequency:    3.8301648026
  - # 6
    frequency:    3.8842647892
  - # 7
    frequency:    5.0025794361
  - # 8
    frequency:    5.9032149195
  - # 9
    frequency:    6.7679918721
  - # 10
    frequency:    7.3481178208
  - # 11
    frequency:    8.2916323900
  - # 12
    frequency:   11.1436194053
  - # 13
    frequency:   15.7507310404
  - # 14
    frequency:   16.7010191335
  - # 15
    frequency:   17.0333195037

- q-position: [    0.1616162,    0.0000000,    0.0000000 ]
  distance:    0.0560220
  band:
  - # 1
    frequency:    1.4799052757
  - # 2
    frequency:    2.0414383716
  - # 3
    frequency:    3.0732504641
  - # 4
    frequency:    3.1661141934
  - # 5
    frequency:    3.8529571869
  - # 6
    frequency:    3.9029142875
  - # 7
    frequency:    5.0152441240
  - # 8
    frequency:    5.9436471648
  - # 9
    frequency:    6.7563211571
  - # 10
    frequency:    7.3476998470
  - # 11
    frequency:    8.3091665736
  - # 12
    frequency:   11.0973441328
  - # 13
    frequency:   15.7362079983
  - # 14
    frequency:   16.7094644342
  - # 15
    frequency:   17.0495437868

- q-position: [    0.1666667,    0.0000000,    0.0000000 ]
  distance:    0.0577727
  band:
  - # 1
    frequency:    1.5499998025
  - # 2
    frequency:    2.0965569520
  - # 3
    frequency:    3.0927176077
  - # 4
    frequency:    3.2461475744
  - # 5
    frequency:    3.8567683135
  - # 6
    frequency:    3.9417628357
  - # 7
    frequency:    5.0283642362
  - # 8
    frequency:    5.9834963116
  - # 9
    frequency:    6.7457910359
  - # 10
    frequency:    7.3472344455
  - # 11
    frequency:    8.3261673510
  - # 12
    frequency:   11.0510073862
  - # 13
    frequency:   15.7216173512
  - # 14
    frequency:   16.7174485152
  - # 15
    frequency:   17.0641871829

- q-position: [    0.1717172,    0.0000000,    0.0000000 ]
  distance:    0.0595234
  band:
  - # 1
    frequency:    1.6200140283
  - # 2
    frequency:    2.1509058108
  - # 3
    frequency:    3.1122030027
  - # 4
    frequency:    3.3231599083
  - # 5
    frequency:    3.8577573043
  - # 6
    frequency:    3.9850178799
  - # 7
    frequency:    5.0419338703
  - # 8
    frequency:    6.0226635452
  - # 9
    frequency:    6.7364540784
  - # 10
    frequency:    7.3467203934
  - # 11
    frequency:    8.3426449493
  - # 12
    frequency:   11.0046981206
  - # 13
    frequency:   15.7069791579
  - # 14
    frequency:   16.7249616035
  - # 15
    frequency:   17.0771798036

- q-position: [    0.1767677,    0.0000000,    0.0000000 ]
  distance:    0.0612741
  band:
  - # 1
    frequency:    1.6898754671
  - # 2
    frequency:    2.2044639551
  - # 3
    frequency:    3.1316815649
  - # 4
    frequency:    3.3964317692
  - # 5
    frequency:    3.8605124836
  - # 6
    frequency:    4.0286882227
  - # 7
    frequency:    5.0559456020
  - # 8
    frequency:    6.0610450591
  - # 9
    frequency:    6.7283624312
  - # 10
    frequency:    7.3461566267
  - # 11
    frequency:    8.3586131352
  - # 12
    frequency:   10.9585024273
  - # 13
    frequency:   15.6923120967
  - # 14
    frequency:   16.7319993871
  - # 15
    frequency:   17.0884626052

- q-position: [    0.1818182,    0.0000000,    0.0000000 ]
  distance:    0.0630248
  band:
  - # 1
    frequency:    1.7595130444
  - # 2
    frequency:    2.2572106413
  - # 3
    frequency:    3.1511298977
  - # 4
    frequency:    3.4649022494
  - # 5
    frequency:    3.8668405721
  - # 6
    frequency:    4.0719104843
  - # 7
    frequency:    5.0703904492
  - # 8
    frequency:    6.0985327263
  - # 9
    frequency:    6.7215669790
  - # 10
    frequency:    7.3455422446
  - # 11
    frequency:    8.3740891045
  - # 12
    frequency:   10.9125031938
  - # 13
    frequency:   15.6776334350
  - # 14
    frequency:   16.7385629947
  - # 15
    frequency:   17.0979875479

- q-position: [    0.1868687,    0.0000000,    0.0000000 ]
  distance:    0.0647755
  band:
  - # 1
    frequency:    1.8288569992
  - # 2
    frequency:    2.3091254556
  - # 3
    frequency:    3.1705262751
  - # 4
    frequency:    3.5270571665
  - # 5
    frequency:    3.8784459758
  - # 6
    frequency:    4.1143822238
  - # 7
    frequency:    5.0852578460
  - # 8
    frequency:    6.1350152569
  - # 9
    frequency:    6.7161160699
  - # 10
    frequency:    7.3448765149
  - # 11
    frequency:    8.3890933294
  - # 12
    frequency:   10.8667797756
  - # 13
    frequency:   15.6629590180
  - # 14
    frequency:   16.7446589244
  - # 15
    frequency:   17.1057176774

- q-position: [    0.1919192,    0.0000000,    0.0000000 ]
  distance:    0.0665262
  band:
  - # 1
    frequency:    1.8978388107
  - # 2
    frequency:    2.3601883983
  - # 3
    frequency:    3.1898506122
  - # 4
    frequency:    3.5809820443
  - # 5
    frequency:    3.8972870624
  - # 6
    frequency:    4.1559533472
  - # 7
    frequency:    5.1005356297
  - # 8
    frequency:    6.1703800025
  - # 9
    frequency:    6.7120536530
  - # 10
    frequency:    7.3441588781
  - # 11
    frequency:    8.4036493598
  - # 12
    frequency:   10.8214076835
  - # 13
    frequency:   15.6483032747
  - # 14
    frequency:   16.7502989246
  - # 15
    frequency:   17.1116271247

- q-position: [    0.1969697,    0.0000000,    0.0000000 ]
  distance:    0.0682769
  band:
  - # 1
    frequency:    1.9663911494
  - # 2
    frequency:    2.4103799723
  - # 3
    frequency:    3.2090844225
  - # 4
    frequency:    3.6249031638
  - # 5
    frequency:    3.9251307270
  - # 6
    frequency:    4.1965311874
  - # 7
    frequency:    5.1162100384
  - # 8
    frequency:    6.2045155882
  - # 9
    frequency:    6.7094166569
  - # 10
    frequency:    7.3433889527
  - # 11
    frequency:    8.4177835775
  - # 12
    frequency:   10.7764582869
  - # 13
    frequency:   15.6336792430
  - # 14
    frequency:   16.7554998270
  - # 15
    frequency:   17.1157010280

- q-position: [    0.2020202,    0.0000000,    0.0000000 ]
  distance:    0.0700275
  band:
  - # 1
    frequency:    2.0344478503
  - # 2
    frequency:    2.4596812720
  - # 3
    frequency:    3.2282107639
  - # 4
    frequency:    3.6582470920
  - # 5
    frequency:    3.9625225413
  - # 6
    frequency:    4.2360515383
  - # 7
    frequency:    5.1322657208
  - # 8
    frequency:    6.2373155418
  - # 9
    frequency:    6.7082314531
  - # 10
    frequency:    7.3425665395
  - # 11
    frequency:    8.4315249008
  - # 12
    frequency:   10.7319985369
  - # 13
    frequency:   15.6190986115
  - # 14
    frequency:   16.7602833332
  - # 15
    frequency:   17.1179353754

- q-position: [    0.2070707,    0.0000000,    0.0000000 ]
  distance:    0.0717782
  band:
  - # 1
    frequency:    2.1019439088
  - # 2
    frequency:    2.5080740727
  - # 3
    frequency:    3.2472141750
  - # 4
    frequency:    3.6822425706
  - # 5
    frequency:    4.0081957869
  - # 6
    frequency:    4.2744684393
  - # 7
    frequency:    5.1486857569
  - # 8
    frequency:    6.2686830114
  - # 9
    frequency:    6.7085093220
  - # 10
    frequency:    7.3416916276
  - # 11
    frequency:    8.4449044409
  - # 12
    frequency:   10.6880907114
  - # 13
    frequency:   15.6045717794
  - # 14
    frequency:   16.7646757574
  - # 15
    frequency:   17.1183367714

- q-position: [    0.2121212,    0.0000000,    0.0000000 ]
  distance:    0.0735289
  band:
  - # 1
    frequency:    2.1688154972