nqpoint: 300    
npath: 3      
segment_nqpoint:
- 100
- 100
- 100
labels:
- [ 'G', 'M' ]
- [ 'M', 'K' ]
- [ 'K', 'G' ]
reciprocal_lattice:
- [   0.30019587,   0.17331816,   0.00000000 ] # a*
- [   0.00000000,   0.34663633,   0.00000000 ] # b*
- [   0.00000000,   0.00000000,   0.04205242 ] # c*
natom: 5      
lattice:
- [     3.331158457906598,     0.000000000000000,     0.000000000000000 ] # a
- [    -1.665579228953299,     2.884867848557066,     0.000000000000000 ] # b
- [     0.000000000000000,     0.000000000000000,    23.779842080895005 ] # c
points:
- symbol: Br # 1
  coordinates: [  0.333332985432215,  0.666666983183674,  0.621528184695949 ]
  mass: 79.904000
- symbol: Br # 2
  coordinates: [  0.666666984744047,  0.333332985985145,  0.378471815304051 ]
  mass: 79.904000
- symbol: C # 3
  coordinates: [  0.000000000000000,  0.000000000000000,  0.500000035401678 ]
  mass: 12.010700
- symbol: Ti # 4
  coordinates: [  0.333332985432215,  0.666666983183674,  0.455328021019167 ]
  mass: 47.867000
- symbol: Ti # 5
  coordinates: [  0.666666984744047,  0.333332985985145,  0.544671978452440 ]
  mass: 47.867000

phonon:
- q-position: [    0.0000000,    0.0000000,    0.0000000 ]
  distance:    0.0000000
  band:
  - # 1
    frequency:   -0.0000305573
  - # 2
    frequency:   -0.0000001269
  - # 3
    frequency:    0.0000186336
  - # 4
    frequency:    2.7916307657
  - # 5
    frequency:    2.7916307658
  - # 6
    frequency:    4.3384832529
  - # 7
    frequency:    4.8967284367
  - # 8
    frequency:    4.8967284368
  - # 9
    frequency:    7.2618975540
  - # 10
    frequency:    7.2618975540
  - # 11
    frequency:    7.6614112020
  - # 12
    frequency:   11.9863189913
  - # 13
    frequency:   16.0465164588
  - # 14
    frequency:   16.6459575892
  - # 15
    frequency:   16.6459575894

- q-position: [    0.0050505,    0.0000000,    0.0000000 ]
  distance:    0.0017507
  band:
  - # 1
    frequency:    0.0023069508
  - # 2
    frequency:    0.0649193997
  - # 3
    frequency:    0.1038739761
  - # 4
    frequency:    2.7920715807
  - # 5
    frequency:    2.7935969206
  - # 6
    frequency:    4.3364724445
  - # 7
    frequency:    4.8969023162
  - # 8
    frequency:    4.8994308514
  - # 9
    frequency:    7.2600180565
  - # 10
    frequency:    7.2621605632
  - # 11
    frequency:    7.6634514635
  - # 12
    frequency:   11.9853013839
  - # 13
    frequency:   16.0461295172
  - # 14
    frequency:   16.6458473266
  - # 15
    frequency:   16.6466128224

- q-position: [    0.0101010,    0.0000000,    0.0000000 ]
  distance:    0.0035014
  band:
  - # 1
    frequency:    0.0092056770
  - # 2
    frequency:    0.1298196529
  - # 3
    frequency:    0.2077258455
  - # 4
    frequency:    2.7933928445
  - # 5
    frequency:    2.7994730951
  - # 6
    frequency:    4.3305625845
  - # 7
    frequency:    4.8974241537
  - # 8
    frequency:    4.9074150729
  - # 9
    frequency:    7.2544977686
  - # 10
    frequency:    7.2629475387
  - # 11
    frequency:    7.6694532819
  - # 12
    frequency:   11.9822507066
  - # 13
    frequency:   16.0449697804
  - # 14
    frequency:   16.6455177045
  - # 15
    frequency:   16.6485744686

- q-position: [    0.0151515,    0.0000000,    0.0000000 ]
  distance:    0.0052521
  band:
  - # 1
    frequency:    0.0206308042
  - # 2
    frequency:    0.1946815940
  - # 3
    frequency:    0.3115332768
  - # 4
    frequency:    2.7955910222
  - # 5
    frequency:    2.8091934252
  - # 6
    frequency:    4.3210930999
  - # 7
    frequency:    4.8982945446
  - # 8
    frequency:    4.9203402963
  - # 9
    frequency:    7.2456600710
  - # 10
    frequency:    7.2642523429
  - # 11
    frequency:    7.6790910028
  - # 12
    frequency:   11.9771733863
  - # 13
    frequency:   16.0430405110
  - # 14
    frequency:   16.6449722127
  - # 15
    frequency:   16.6518303933

- q-position: [    0.0202020,    0.0000000,    0.0000000 ]
  distance:    0.0070028
  band:
  - # 1
    frequency:    0.0364766146
  - # 2
    frequency:    0.2594860825
  - # 3
    frequency:    0.4152734758
  - # 4
    frequency:    2.7986602477
  - # 5
    frequency:    2.8226513785
  - # 6
    frequency:    4.3085495197
  - # 7
    frequency:    4.8995144740
  - # 8
    frequency:    4.9377186726
  - # 9
    frequency:    7.2339574007
  - # 10
    frequency:    7.2660648045
  - # 11
    frequency:    7.6919084359
  - # 12
    frequency:   11.9700801105
  - # 13
    frequency:   16.0403471381
  - # 14
    frequency:   16.6442166414
  - # 15
    frequency:   16.6563604556

- q-position: [    0.0252525,    0.0000000,    0.0000000 ]
  distance:    0.0087534
  band:
  - # 1
    frequency:    0.0566015530
  - # 2
    frequency:    0.3242139901
  - # 3
    frequency:    0.5189229624
  - # 4
    frequency:    2.8025923625
  - # 5
    frequency:    2.8397042651
  - # 6
    frequency:    4.2934810542
  - # 7
    frequency:    4.9010853064
  - # 8
    frequency:    4.9589976961
  - # 9
    frequency:    7.2198871532
  - # 10
    frequency:    7.2683708058
  - # 11
    frequency:    7.7074030056
  - # 12
    frequency:   11.9609857917
  - # 13
    frequency:   16.0368972448
  - # 14
    frequency:   16.6432590412
  - # 15
    frequency:   16.6621366341

- q-position: [    0.0303030,    0.0000000,    0.0000000 ]
  distance:    0.0105041
  band:
  - # 1
    frequency:    0.0808338960
  - # 2
    frequency:    0.3888462054
  - # 3
    frequency:    0.6224573460
  - # 4
    frequency:    2.8073769677
  - # 5
    frequency:    2.8601789100
  - # 6
    frequency:    4.2764328925
  - # 7
    frequency:    4.9030087714
  - # 8
    frequency:    4.9836278604
  - # 9
    frequency:    7.2039280031
  - # 10
    frequency:    7.2711524026
  - # 11
    frequency:    7.7250895051
  - # 12
    frequency:   11.9499095184
  - # 13
    frequency:   16.0327005465
  - # 14
    frequency:   16.6421096686
  - # 15
    frequency:   16.6691232030

- q-position: [    0.0353535,    0.0000000,    0.0000000 ]
  distance:    0.0122548
  band:
  - # 1
    frequency:    0.1089780783
  - # 2
    frequency:    0.4533636349
  - # 3
    frequency:    0.7258511057
  - # 4
    frequency:    2.8130014906
  - # 5
    frequency:    2.8838779858
  - # 6
    frequency:    4.2579039775
  - # 7
    frequency:    4.9052869457
  - # 8
    frequency:    5.0111048258
  - # 9
    frequency:    7.1865049187
  - # 10
    frequency:    7.2743879763
  - # 11
    frequency:    7.7445351756
  - # 12
    frequency:   11.9368744933
  - # 13
    frequency:   16.0277688613
  - # 14
    frequency:   16.6407809160
  - # 15
    frequency:   16.6772769591

- q-position: [    0.0404040,    0.0000000,    0.0000000 ]
  distance:    0.0140055
  band:
  - # 1
    frequency:    0.1408211824
  - # 2
    frequency:    0.5177472034
  - # 3
    frequency:    0.8290773751
  - # 4
    frequency:    2.8194512641
  - # 5
    frequency:    2.9105865067
  - # 6
    frequency:    4.2383280438
  - # 7
    frequency:    4.9079222326
  - # 8
    frequency:    5.0409883144
  - # 9
    frequency:    7.1679772882
  - # 10
    frequency:    7.2780524155
  - # 11
    frequency:    7.7653716943
  - # 12
    frequency:   11.9219079602
  - # 13
    frequency:   16.0221160678
  - # 14
    frequency:   16.6392872274
  - # 15
    frequency:   16.6865474983

- q-position: [    0.0454545,    0.0000000,    0.0000000 ]
  distance:    0.0157562
  band:
  - # 1
    frequency:    0.1761391637
  - # 2
    frequency:    0.5819778520
  - # 3
    frequency:    0.9321077332
  - # 4
    frequency:    2.8267096174
  - # 5
    frequency:    2.9400780593
  - # 6
    frequency:    4.2180704090
  - # 7
    frequency:    4.9109173375
  - # 8
    frequency:    5.0729052432
  - # 9
    frequency:    7.1486407860
  - # 10
    frequency:    7.2821173248
  - # 11
    frequency:    7.7872934395
  - # 12
    frequency:   11.9050411205
  - # 13
    frequency:   16.0157580514
  - # 14
    frequency:   16.6376450005
  - # 15
    frequency:   16.6968775408

- q-position: [    0.0505051,    0.0000000,    0.0000000 ]
  distance:    0.0175069
  band:
  - # 1
    frequency:    0.2147024894
  - # 2
    frequency:    0.6460365333
  - # 3
    frequency:    1.0349120018
  - # 4
    frequency:    2.8347579766
  - # 5
    frequency:    2.9721204450
  - # 6
    frequency:    4.1974332291
  - # 7
    frequency:    4.9142752427
  - # 8
    frequency:    5.1065443888
  - # 9
    frequency:    7.1287354218
  - # 10
    frequency:    7.2865512600
  - # 11
    frequency:    7.8100495913
  - # 12
    frequency:   11.8863090402
  - # 13
    frequency:   16.0087126370
  - # 14
    frequency:   16.6358724752
  - # 15
    frequency:   16.7082033028

- q-position: [    0.0555556,    0.0000000,    0.0000000 ]
  distance:    0.0192576
  band:
  - # 1
    frequency:    0.2562809884
  - # 2
    frequency:    0.7099042057
  - # 3
    frequency:    1.1374580501
  - # 4
    frequency:    2.8435759758
  - # 5
    frequency:    3.0064805312
  - # 6
    frequency:    4.1766641620
  - # 7
    frequency:    4.9179991788
  - # 8
    frequency:    5.1416476414
  - # 9
    frequency:    7.1084552367
  - # 10
    frequency:    7.2913199843
  - # 11
    frequency:    7.8334346009
  - # 12
    frequency:   11.8657505491
  - # 13
    frequency:   16.0009995079
  - # 14
    frequency:   16.6339896102
  - # 15
    frequency:   16.7204549110

- q-position: [    0.0606061,    0.0000000,    0.0000000 ]
  distance:    0.0210083
  band:
  - # 1
    frequency:    0.3006478172
  - # 2
    frequency:    0.7735618246
  - # 3
    frequency:    1.2397116066
  - # 4
    frequency:    2.8531415744
  - # 5
    frequency:    3.0429282147
  - # 6
    frequency:    4.1559655837
  - # 7
    frequency:    4.9220925953
  - # 8
    frequency:    5.1780007080
  - # 9
    frequency:    7.0879574543
  - # 10
    frequency:    7.2963867452
  - # 11
    frequency:    7.8572792198
  - # 12
    frequency:   11.8434081322
  - # 13
    frequency:   15.9926401122
  - # 14
    frequency:   16.6320179481
  - # 15
    frequency:   16.7335568566

- q-position: [    0.0656566,    0.0000000,    0.0000000 ]
  distance:    0.0227590
  band:
  - # 1
    frequency:    0.3475825372
  - # 2
    frequency:    0.8369903312
  - # 3
    frequency:    1.3416360783
  - # 4
    frequency:    2.8634311811
  - # 5
    frequency:    3.0812394903
  - # 6
    frequency:    4.1355030180
  - # 7
    frequency:    4.9265591295
  - # 8
    frequency:    5.2154246093
  - # 9
    frequency:    7.0673702753
  - # 10
    frequency:    7.3017125676
  - # 11
    frequency:    7.8814428996
  - # 12
    frequency:   11.8193278159
  - # 13
    frequency:   15.9836575567
  - # 14
    frequency:   16.6299804701
  - # 15
    frequency:   16.7474284848

- q-position: [    0.0707071,    0.0000000,    0.0000000 ]
  distance:    0.0245096
  band:
  - # 1
    frequency:    0.3968733625
  - # 2
    frequency:    0.9001706395
  - # 3
    frequency:    1.4431923767
  - # 4
    frequency:    2.8744197833
  - # 5
    frequency:    3.1211986818
  - # 6
    frequency:    4.1154123154
  - # 7
    frequency:    4.9314025746
  - # 8
    frequency:    5.2537684405
  - # 9
    frequency:    7.0467991836
  - # 10
    frequency:    7.3072565607
  - # 11
    frequency:    7.9058076913
  - # 12
    frequency:   11.7935590493
  - # 13
    frequency:   15.9740764892
  - # 14
    frequency:   16.6279014417
  - # 15
    frequency:   16.7619845133

- q-position: [    0.0757576,    0.0000000,    0.0000000 ]
  distance:    0.0262603
  band:
  - # 1
    frequency:    0.4483186774
  - # 2
    frequency:    0.9630836212
  - # 3
    frequency:    1.5443387492
  - # 4
    frequency:    2.8860810786
  - # 5
    frequency:    3.1625999275
  - # 6
    frequency:    4.0958055482
  - # 7
    frequency:    4.9366268466
  - # 8
    frequency:    5.2929034394
  - # 9
    frequency:    7.0263319179
  - # 10
    frequency:    7.3129762356
  - # 11
    frequency:    7.9302734904
  - # 12
    frequency:   11.7661545801
  - # 13
    frequency:   15.9639229721
  - # 14
    frequency:   16.6258062496
  - # 15
    frequency:   16.7771355776

- q-position: [    0.0808081,    0.0000000,    0.0000000 ]
  distance:    0.0280110
  band:
  - # 1
    frequency:    0.5017279391
  - # 2
    frequency:    1.0257100891
  - # 3
    frequency:    1.6450306127
  - # 4
    frequency:    2.8983876093
  - # 5
    frequency:    3.2052480336
  - # 6
    frequency:    4.0767757771
  - # 7
    frequency:    4.9422359500
  - # 8
    frequency:    5.3327182164
  - # 9
    frequency:    7.0060423432
  - # 10
    frequency:    7.3188278308
  - # 11
    frequency:    7.9547543907
  - # 12
    frequency:   11.7371703277
  - # 13
    frequency:   15.9532243472
  - # 14
    frequency:   16.6237212324
  - # 15
    frequency:   16.7927887954

- q-position: [    0.0858586,    0.0000000,    0.0000000 ]
  distance:    0.0297617
  band:
  - # 1
    frequency:    0.5569220865
  - # 2
    frequency:    1.0880307785
  - # 3
    frequency:    1.7452203862
  - # 4
    frequency:    2.9113108969
  - # 5
    frequency:    3.2489588012
  - # 6
    frequency:    4.0584009050
  - # 7
    frequency:    4.9482339431
  - # 8
    frequency:    5.3731149520
  - # 9
    frequency:    6.9859934551
  - # 10
    frequency:    7.3247666423
  - # 11
    frequency:    7.9791759130
  - # 12
    frequency:   11.7066652528
  - # 13
    frequency:   15.9420090940
  - # 14
    frequency:   16.6216735047
  - # 15
    frequency:   16.8088483466

- q-position: [    0.0909091,    0.0000000,    0.0000000 ]
  distance:    0.0315124
  band:
  - # 1
    frequency:    0.6137335661
  - # 2
    frequency:    1.1500263279
  - # 3
    frequency:    1.8448573157
  - # 4
    frequency:    2.9248215763
  - # 5
    frequency:    3.2935589243
  - # 6
    frequency:    4.0407468354
  - # 7
    frequency:    4.9546249012
  - # 8
    frequency:    5.4140063652
  - # 9
    frequency:    6.9662397146
  - # 10
    frequency:    7.3307473563
  - # 11
    frequency:    8.0034729088
  - # 12
    frequency:   11.6747012238
  - # 13
    frequency:   15.9303066832
  - # 14
    frequency:   16.6196907775
  - # 15
    frequency:   16.8252160638

- q-position: [    0.0959596,    0.0000000,    0.0000000 ]
  distance:    0.0332631
  band:
  - # 1
    frequency:    0.6720060740
  - # 2
    frequency:    1.2116772593
  - # 3
    frequency:    1.9438872825
  - # 4
    frequency:    2.9388895285
  - # 5
    frequency:    3.3388855297
  - # 6
    frequency:    4.0238701464
  - # 7
    frequency:    4.9614128787
  - # 8
    frequency:    5.4553132881
  - # 9
    frequency:    6.9468288746
  - # 10
    frequency:    7.3367243808
  - # 11
    frequency:    8.0275879770
  - # 12
    frequency:   11.6413428798
  - # 13
    frequency:   15.9181474260
  - # 14
    frequency:   16.6178011753
  - # 15
    frequency:   16.8417920286

- q-position: [    0.1010101,    0.0000000,    0.0000000 ]
  distance:    0.0350138
  band:
  - # 1
    frequency:    0.7315940980
  - # 2
    frequency:    1.2729639585
  - # 3
    frequency:    2.0422525807
  - # 4
    frequency:    2.9534840100
  - # 5
    frequency:    3.3847853928
  - # 6
    frequency:    4.0078204796
  - # 7
    frequency:    4.9686018692
  - # 8
    frequency:    5.4969627055
  - # 9
    frequency:    6.9278034202
  - # 10
    frequency:    7.3426521754
  - # 11
    frequency:    8.0514702697
  - # 12
    frequency:   11.6066574905
  - # 13
    frequency:   15.9055623225
  - # 14
    frequency:   16.6160330503
  - # 15
    frequency:   16.8584751697

- q-position: [    0.1060606,    0.0000000,    0.0000000 ]
  distance:    0.0367645
  band:
  - # 1
    frequency:    0.7923623260
  - # 2
    frequency:    1.3338666558
  - # 3
    frequency:    2.1398916456
  - # 4
    frequency:    2.9685737793
  - # 5
    frequency:    3.4311138116
  - # 6
    frequency:    3.9926428632
  - # 7
    frequency:    4.9761957635
  - # 8
    frequency:    5.5388861543
  - # 9
    frequency:    6.9092017159
  - # 10
    frequency:    7.3484855748
  - # 11
    frequency:    8.0750745919
  - # 12
    frequency:   11.5707148128
  - # 13
    frequency:   15.8925829070
  - # 14
    frequency:   16.6144147978
  - # 15
    frequency:   16.8751638578

- q-position: [    0.1111111,    0.0000000,    0.0000000 ]
  distance:    0.0385151
  band:
  - # 1
    frequency:    0.8541849742
  - # 2
    frequency:    1.3943654082
  - # 3
    frequency:    2.2367387036
  - # 4
    frequency:    2.9841272190
  - # 5
    frequency:    3.4777330277
  - # 6
    frequency:    3.9783802463
  - # 7
    frequency:    4.9841983042
  - # 8
    frequency:    5.5810183953
  - # 9
    frequency:    6.8910589327
  - # 10
    frequency:    7.3541801061
  - # 11
    frequency:    8.0983607234
  - # 12
    frequency:   11.5335869426
  - # 13
    frequency:   15.8792410956
  - # 14
    frequency:   16.6129746706
  - # 15
    frequency:   16.8917564954

- q-position: [    0.1161616,    0.0000000,    0.0000000 ]
  distance:    0.0402658
  band:
  - # 1
    frequency:    0.9169450750
  - # 2
    frequency:    1.4544400840
  - # 3
    frequency:    2.3327233032
  - # 4
    frequency:    3.0001124525
  - # 5
    frequency:    3.5245099117
  - # 6
    frequency:    3.9650766755
  - # 7
    frequency:    4.9926130377
  - # 8
    frequency:    5.6232962941
  - # 9
    frequency:    6.8734078072
  - # 10
    frequency:    7.3596922964
  - # 11
    frequency:    8.1212929068
  - # 12
    frequency:   11.4953481623
  - # 13
    frequency:   15.8655690337
  - # 14
    frequency:   16.6117405965
  - # 15
    frequency:   16.9081520953

- q-position: [    0.1212121,    0.0000000,    0.0000000 ]
  distance:    0.0420165
  band:
  - # 1
    frequency:    0.9805337541
  - # 2
    frequency:    1.5140703494
  - # 3
    frequency:    2.4277696669
  - # 4
    frequency:    3.0164974564
  - # 5
    frequency:    3.5713122561
  - # 6
    frequency:    3.9527819114
  - # 7
    frequency:    5.0014432619
  - # 8
    frequency:    5.6656578611
  - # 9
    frequency:    6.8562792728
  - # 10
    frequency:    7.3649799699
  - # 11
    frequency:    8.1438394625
  - # 12
    frequency:   11.4560747827
  - # 13
    frequency:   15.8515989465
  - # 14
    frequency:   16.6107399984
  - # 15
    frequency:   16.9242508470

- q-position: [    0.1262626,    0.0000000,    0.0000000 ]
  distance:    0.0437672
  band:
  - # 1
    frequency:    1.0448495182
  - # 2
    frequency:    1.5732356596
  - # 3
    frequency:    2.5217957757
  - # 4
    frequency:    3.0332501659
  - # 5
    frequency:    3.6180021266
  - # 6
    frequency:    3.9415591822
  - # 7
    frequency:    5.0106919704
  - # 8
    frequency:    5.7080414126
  - # 9
    frequency:    6.8397029971
  - # 10
    frequency:    7.3700025330
  - # 11
    frequency:    8.1659724977
  - # 12
    frequency:   11.4158449784
  - # 13
    frequency:   15.8373629923
  - # 14
    frequency:   16.6099996192
  - # 15
    frequency:   16.9399546662

- q-position: [    0.1313131,    0.0000000,    0.0000000 ]
  distance:    0.0455179
  band:
  - # 1
    frequency:    1.1097975658
  - # 2
    frequency:    1.6319152537
  - # 3
    frequency:    2.6147120539
  - # 4
    frequency:    3.0503385754
  - # 5
    frequency:    3.6644223235
  - # 6
    frequency:    3.9315001982
  - # 7
    frequency:    5.0203617910
  - # 8
    frequency:    5.7503848234
  - # 9
    frequency:    6.8237078465
  - # 10
    frequency:    7.3747212452
  - # 11
    frequency:    8.1876676858
  - # 12
    frequency:   11.3747386166
  - # 13
    frequency:   15.8228931200
  - # 14
    frequency:   16.6095453518
  - # 15
    frequency:   16.9551677255

- q-position: [    0.1363636,    0.0000000,    0.0000000 ]
  distance:    0.0472686
  band:
  - # 1
    frequency:    1.1752891325
  - # 2
    frequency:    1.6900881550
  - # 3
    frequency:    2.7064194527
  - # 4
    frequency:    3.0677308321
  - # 5
    frequency:    3.7103646797
  - # 6
    frequency:    3.9227589320
  - # 7
    frequency:    5.0304549210
  - # 8
    frequency:    5.7926248485
  - # 9
    frequency:    6.8083223018
  - # 10
    frequency:    7.3790994757
  - # 11
    frequency:    8.2089040971
  - # 12
    frequency:   11.3328370771
  - # 13
    frequency:   15.8082209320
  - # 14
    frequency:   16.6094020762
  - # 15
    frequency:   16.9697969631

- q-position: [    0.1414141,    0.0000000,    0.0000000 ]
  distance:    0.0490193
  band:
  - # 1
    frequency:    1.2412408739
  - # 2
    frequency:    1.7477331771
  - # 3
    frequency:    2.7968066258
  - # 4
    frequency:    3.0853953238
  - # 5
    frequency:    3.7554826685
  - # 6
    frequency:    3.9156420211
  - # 7
    frequency:    5.0409730553
  - # 8
    frequency:    5.8346964953
  - # 9
    frequency:    6.7935748394
  - # 10
    frequency:    7.3831029442
  - # 11
    frequency:    8.2296640665
  - # 12
    frequency:   11.2902230638
  - # 13
    frequency:   15.7933775513
  - # 14
    frequency:   16.6095935039
  - # 15
    frequency:   16.9837525671

- q-position: [    0.1464646,    0.0000000,    0.0000000 ]
  distance:    0.0507700
  band:
  - # 1
    frequency:    1.3075742904
  - # 2
    frequency:    1.8048289364
  - # 3
    frequency:    2.8857457111
  - # 4
    frequency:    3.1033007611
  - # 5
    frequency:    3.7989968457
  - # 6
    frequency:    3.9109077660
  - # 7
    frequency:    5.0519173115
  - # 8
    frequency:    5.8765324310
  - # 9
    frequency:    6.7794942955
  - # 10
    frequency:    7.3866999442
  - # 11
    frequency:    8.2499330859
  - # 12
    frequency:   11.2469804057
  - # 13
    frequency:   15.7783934964
  - # 14
    frequency:   16.6101420307
  - # 15
    frequency:   16.9969484341

- q-position: [    0.1515152,    0.0000000,    0.0000000 ]
  distance:    0.0525207
  band:
  - # 1
    frequency:    1.3742151920
  - # 2
    frequency:    1.8613538718
  - # 3
    frequency:    2.9730859535
  - # 4
    frequency:    3.1214162522
  - # 5
    frequency:    3.8384717577
  - # 6
    frequency:    3.9109958650
  - # 7
    frequency:    5.0632881481
  - # 8
    frequency:    5.9180624115
  - # 9
    frequency:    6.7661102286
  - # 10
    frequency:    7.3898615499
  - # 11
    frequency:    8.2696997119
  - # 12
    frequency:   11.2031938478
  - # 13
    frequency:   15.7632985616
  - # 14
    frequency:   16.6110685993
  - # 15
    frequency:   17.0093025981

- q-position: [    0.1565657,    0.0000000,    0.0000000 ]
  distance:    0.0542713
  band:
  - # 1
    frequency:    1.4410932047
  - # 2
    frequency:    1.9172862722
  - # 3
    frequency:    3.0586439335
  - # 4
    frequency:    3.1397113733
  - # 5
    frequency:    3.8660352574
  - # 6
    frequency:    3.9238181844
  - # 7
    frequency:    5.0750852787
  - # 8
    frequency:    5.9592127174
  - # 9
    frequency:    6.7534532960
  - # 10
    frequency:    7.3925618039
  - # 11
    frequency:    8.2889554820
  - # 12
    frequency:   11.1589488292
  - # 13
    frequency:   15.7481217046
  - # 14
    frequency:   16.6123925718
  - # 15
    frequency:   17.0207376300

- q-position: [    0.1616162,    0.0000000,    0.0000000 ]
  distance:    0.0560220
  band:
  - # 1
    frequency:    1.5081413150
  - # 2
    frequency:    1.9726043119
  - # 3
    frequency:    3.1421884116
  - # 4
    frequency:    3.1581562325
  - # 5
    frequency:    3.8762551882
  - # 6
    frequency:    3.9548975927
  - # 7
    frequency:    5.0873075813
  - # 8
    frequency:    5.9999055834
  - # 9
    frequency:    6.7415556641
  - # 10
    frequency:    7.3947778867
  - # 11
    frequency:    8.3076948316
  - # 12
    frequency:   11.1143312493
  - # 13
    frequency:   15.7328909422
  - # 14
    frequency:   16.6141316129
  - # 15
    frequency:   17.0311810045

- q-position: [    0.1666667,    0.0000000,    0.0000000 ]
  distance:    0.0577727
  band:
  - # 1
    frequency:    1.5752954500
  - # 2
    frequency:    2.0272860939
  - # 3
    frequency:    3.1767215279
  - # 4
    frequency:    3.2234166132
  - # 5
    frequency:    3.8794391770
  - # 6
    frequency:    3.9940922898
  - # 7
    frequency:    5.0999530038
  - # 8
    frequency:    6.0400586025
  - # 9
    frequency:    6.7304514725
  - # 10
    frequency:    7.3964902663
  - # 11
    frequency:    8.3259150073
  - # 12
    frequency:   11.0694272205
  - # 13
    frequency:   15.7176332525
  - # 14
    frequency:   16.6163015846
  - # 15
    frequency:   17.0405654338

- q-position: [    0.1717172,    0.0000000,    0.0000000 ]
  distance:    0.0595234
  band:
  - # 1
    frequency:    1.6424940922
  - # 2
    frequency:    2.0813097020
  - # 3
    frequency:    3.1953786018
  - # 4
    frequency:    3.3019171390
  - # 5
    frequency:    3.8820435529
  - # 6
    frequency:    4.0352244280
  - # 7
    frequency:    5.1130184660
  - # 8
    frequency:    6.0795840867
  - # 9
    frequency:    6.7201773777
  - # 10
    frequency:    7.3976828285
  - # 11
    frequency:    8.3436159722
  - # 12
    frequency:   11.0243228065
  - # 13
    frequency:   15.7023744864
  - # 14
    frequency:   16.6189164526
  - # 15
    frequency:   17.0488291666

- q-position: [    0.1767677,    0.0000000,    0.0000000 ]
  distance:    0.0612741
  band:
  - # 1
    frequency:    1.7096779239
  - # 2
    frequency:    2.1346532607
  - # 3
    frequency:    3.2140994887
  - # 4
    frequency:    3.3771132398
  - # 5
    frequency:    3.8862319773
  - # 6
    frequency:    4.0765786921
  - # 7
    frequency:    5.1264997592
  - # 8
    frequency:    6.1183883609
  - # 9
    frequency:    6.7107732023
  - # 10
    frequency:    7.3983429864
  - # 11
    frequency:    8.3608002994
  - # 12
    frequency:   10.9791037469
  - # 13
    frequency:   15.6871392854
  - # 14
    frequency:   16.6219882053
  - # 15
    frequency:   17.0559162504

- q-position: [    0.1818182,    0.0000000,    0.0000000 ]
  distance:    0.0630248
  band:
  - # 1
    frequency:    1.7767895009
  - # 2
    frequency:    2.1872950035
  - # 3
    frequency:    3.2328569591
  - # 4
    frequency:    3.4481823201
  - # 5
    frequency:    3.8932752908
  - # 6
    frequency:    4.1175834639
  - # 7
    frequency:    5.1403914448
  - # 8
    frequency:    6.1563709662
  - # 9
    frequency:    6.7022827214
  - # 10
    frequency:    7.3984617696
  - # 11
    frequency:    8.3774730516
  - # 12
    frequency:   10.9338551660
  - # 13
    frequency:   15.6719510083
  - # 14
    frequency:   16.6255267850
  - # 15
    frequency:   17.0617767582

- q-position: [    0.1868687,    0.0000000,    0.0000000 ]
  distance:    0.0647755
  band:
  - # 1
    frequency:    1.8437729503
  - # 2
    frequency:    2.2392133477
  - # 3
    frequency:    3.2516245591
  - # 4
    frequency:    3.5139648311
  - # 5
    frequency:    3.9044662402
  - # 6
    frequency:    4.1579877376
  - # 7
    frequency:    5.1546867529
  - # 8
    frequency:    6.1934237536
  - # 9
    frequency:    6.6947546063
  - # 10
    frequency:    7.3980338916
  - # 11
    frequency:    8.3936416444
  - # 12
    frequency:   10.8886612676
  - # 13
    frequency:   15.6568316663
  - # 14
    frequency:   16.6295400318
  - # 15
    frequency:   17.0663669766

- q-position: [    0.1919192,    0.0000000,    0.0000000 ]
  distance:    0.0665262
  band:
  - # 1
    frequency:    1.9105736932
  - # 2
    frequency:    2.2903869771
  - # 3
    frequency:    3.2703766460
  - # 4
    frequency:    3.5729347140
  - # 5
    frequency:    3.9213555865
  - # 6
    frequency:    4.1976551177
  - # 7
    frequency:    5.1693774822
  - # 8
    frequency:    6.2294298697
  - # 9
    frequency:    6.6882435325
  - # 10
    frequency:    7.3970577967
  - # 11
    frequency:    8.4093156927
  - # 12
    frequency:   10.8436050144
  - # 13
    frequency:   15.6418018646
  - # 14
    frequency:   16.6340336405
  - # 15
    frequency:   17.0696495567

- q-position: [    0.1969697,    0.0000000,    0.0000000 ]
  distance:    0.0682769
  band:
  - # 1
    frequency:    1.9771381869
  - # 2
    frequency:    2.3407949299
  - # 3
    frequency:    3.2890884194
  - # 4
    frequency:    3.6234158536
  - # 5
    frequency:    3.9456002755
  - # 6
    frequency:    4.2364997500
  - # 7
    frequency:    5.1844539039
  - # 8
    frequency:    6.2642626796
  - # 9
    frequency:    6.6828114069
  - # 10
    frequency:    7.3955356839
  - # 11
    frequency:    8.4245068403
  - # 12
    frequency:   10.7987677932
  - # 13
    frequency:   15.6268807529
  - # 14
    frequency:   16.6390111307
  - # 15
    frequency:   17.0715936260

- q-position: [    0.2020202,    0.0000000,    0.0000000 ]
  distance:    0.0700275
  band:
  - # 1
    frequency:    2.0434136875
  - # 2
    frequency:    2.3904166914
  - # 3
    frequency:    3.3077359492
  - # 4
    frequency:    3.6642300023
  - # 5
    frequency:    3.9783396748
  - # 6
    frequency:    4.2744627092
  - # 7
    frequency:    5.1999046699
  - # 8
    frequency:    6.2977847773
  - # 9
    frequency:    6.6785285679
  - # 10
    frequency:    7.3934735093
  - # 11
    frequency:    8.4392285738
  - # 12
    frequency:   10.7542290669
  - # 13
    frequency:   15.6120859832
  - # 14
    frequency:   16.6444738289
  - # 15
    frequency:   17.0721748623

- q-position: [    0.2070707,    0.0000000,    0.0000000 ]
  distance:    0.0717782
  band:
  - # 1
    frequency:    2.1093480295
  - # 2
    frequency:    2.4392322905
  - # 3
    frequency:    3.3262962002
  - # 4
    frequency:    3.6954795235
  - # 5
    frequency:    4.0194229971
  - # 6
    frequency:    4.3115023699
  - # 7
    frequency:    5.2157167287
  - # 8
    frequency:    6.3298474304
  - # 9
    frequency:    6.6754746139
  - # 10
    frequency:    7.3908809650
  - # 11
    frequency:    8.4534960226
  - # 12
    frequency:   10.7100660139
  - # 13
    frequency:   15.5974336756
  - # 14
    frequency:   16.6504208643
  - # 15
    frequency:   17.0713755286

- q-position: [    0.2121212,    0.0000000,    0.0000000 ]
  distance:    0.0735289
  band:
  - # 1
    frequency:    2.1748894230