nqpoint: 300    
npath: 3      
segment_nqpoint:
- 100
- 100
- 100
labels:
- [ 'G', 'M' ]
- [ 'M', 'K' ]
- [ 'K', 'G' ]
reciprocal_lattice:
- [   0.31471098,   0.18169847,   0.00000000 ] # a*
- [   0.00000000,   0.36339694,   0.00000000 ] # b*
- [   0.00000000,   0.00000000,   0.03784149 ] # c*
natom: 8      
lattice:
- [     3.177518620043272,     0.000000000000000,     0.000000000000000 ] # a
- [    -1.588759310021636,     2.751811845961874,     0.000000000000000 ] # b
- [     0.000000000000000,     0.000000000000000,    26.426023202977735 ] # c
points:
- symbol: C # 1
  coordinates: [  0.333332985432215,  0.666666983183674,  0.600799570624450 ]
  mass: 12.010700
- symbol: H # 2
  coordinates: [  0.666666984744047,  0.333332985985145,  0.340573378403220 ]
  mass: 1.007940
- symbol: N # 3
  coordinates: [  0.000000000000000,  0.000000000000000,  0.463952422633962 ]
  mass: 14.006700
- symbol: N # 4
  coordinates: [  0.333332985432215,  0.666666983183674,  0.553370425891400 ]
  mass: 14.006700
- symbol: O # 5
  coordinates: [  0.666666984744047,  0.333332985985145,  0.377904862902327 ]
  mass: 15.999400
- symbol: S # 6
  coordinates: [  0.333332985432215,  0.666666983183674,  0.659426621596780 ]
  mass: 32.065000
- symbol: Ti # 7
  coordinates: [  0.333332985432215,  0.666666983183674,  0.424591649205663 ]
  mass: 47.867000
- symbol: Ti # 8
  coordinates: [  0.666666984744047,  0.333332985985145,  0.504780452361463 ]
  mass: 47.867000

phonon:
- q-position: [    0.0000000,    0.0000000,    0.0000000 ]
  distance:    0.0000000
  band:
  - # 1
    frequency:   -0.0000151166
  - # 2
    frequency:    0.0000005543
  - # 3
    frequency:    0.0000200576
  - # 4
    frequency:    1.3957911091
  - # 5
    frequency:    1.3957911092
  - # 6
    frequency:    5.1553979966
  - # 7
    frequency:    5.1553979967
  - # 8
    frequency:    6.5556391285
  - # 9
    frequency:    8.0944324551
  - # 10
    frequency:    8.0944324551
  - # 11
    frequency:    8.2960048543
  - # 12
    frequency:    8.2960048543
  - # 13
    frequency:    9.9358868043
  - # 14
    frequency:   13.2931536757
  - # 15
    frequency:   13.2931536758
  - # 16
    frequency:   13.5935838274
  - # 17
    frequency:   13.5935838274
  - # 18
    frequency:   13.8466121704
  - # 19
    frequency:   15.8452398004
  - # 20
    frequency:   17.2855384610
  - # 21
    frequency:   17.2855384610
  - # 22
    frequency:   27.1972988836
  - # 23
    frequency:   56.5270644298
  - # 24
    frequency:  111.3250492846

- q-position: [    0.0050505,    0.0000000,    0.0000000 ]
  distance:    0.0018353
  band:
  - # 1
    frequency:    0.0033147811
  - # 2
    frequency:    0.0876283300
  - # 3
    frequency:    0.1433607277
  - # 4
    frequency:    1.3970695669
  - # 5
    frequency:    1.4009272419
  - # 6
    frequency:    5.1557737789
  - # 7
    frequency:    5.1562928199
  - # 8
    frequency:    6.5549183593
  - # 9
    frequency:    8.0942009021
  - # 10
    frequency:    8.0947753498
  - # 11
    frequency:    8.2965755851
  - # 12
    frequency:    8.2971573901
  - # 13
    frequency:    9.9355599216
  - # 14
    frequency:   13.2930116539
  - # 15
    frequency:   13.2934932030
  - # 16
    frequency:   13.5934449212
  - # 17
    frequency:   13.5942571632
  - # 18
    frequency:   13.8469996970
  - # 19
    frequency:   15.8450840882
  - # 20
    frequency:   17.2852362650
  - # 21
    frequency:   17.2858232811
  - # 22
    frequency:   27.1971551422
  - # 23
    frequency:   56.5265739331
  - # 24
    frequency:  111.3253907415

- q-position: [    0.0101010,    0.0000000,    0.0000000 ]
  distance:    0.0036707
  band:
  - # 1
    frequency:    0.0131637006
  - # 2
    frequency:    0.1751546369
  - # 3
    frequency:    0.2864468483
  - # 4
    frequency:    1.4009005971
  - # 5
    frequency:    1.4162159060
  - # 6
    frequency:    5.1568985079
  - # 7
    frequency:    5.1589710228
  - # 8
    frequency:    6.5527658521
  - # 9
    frequency:    8.0935124689
  - # 10
    frequency:    8.0958022707
  - # 11
    frequency:    8.2982800426
  - # 12
    frequency:    8.3006048141
  - # 13
    frequency:    9.9345805556
  - # 14
    frequency:   13.2925791826
  - # 15
    frequency:   13.2945049173
  - # 16
    frequency:   13.5930269141
  - # 17
    frequency:   13.5962816449
  - # 18
    frequency:   13.8481752918
  - # 19
    frequency:   15.8446149609
  - # 20
    frequency:   17.2843322840
  - # 21
    frequency:   17.2866763023
  - # 22
    frequency:   27.1967241886
  - # 23
    frequency:   56.5251027125
  - # 24
    frequency:  111.3264141569

- q-position: [    0.0151515,    0.0000000,    0.0000000 ]
  distance:    0.0055060
  band:
  - # 1
    frequency:    0.0292489197
  - # 2
    frequency:    0.2624757475
  - # 3
    frequency:    0.4289754391
  - # 4
    frequency:    1.4072715173
  - # 5
    frequency:    1.4413194167
  - # 6
    frequency:    5.1587643607
  - # 7
    frequency:    5.1634138804
  - # 8
    frequency:    6.5492107507
  - # 9
    frequency:    8.0923852082
  - # 10
    frequency:    8.0975082396
  - # 11
    frequency:    8.3010956684
  - # 12
    frequency:    8.3063165381
  - # 13
    frequency:    9.9329525749
  - # 14
    frequency:   13.2918368342
  - # 15
    frequency:   13.2961685193
  - # 16
    frequency:   13.5923269724
  - # 17
    frequency:   13.5996703916
  - # 18
    frequency:   13.8501771148
  - # 19
    frequency:   15.8438265078
  - # 20
    frequency:   17.2828342937
  - # 21
    frequency:   17.2880932119
  - # 22
    frequency:   27.1960068357
  - # 23
    frequency:   56.5226515776
  - # 24
    frequency:  111.3281166693

- q-position: [    0.0202020,    0.0000000,    0.0000000 ]
  distance:    0.0073414
  band:
  - # 1
    frequency:    0.0511337109
  - # 2
    frequency:    0.3494861123
  - # 3
    frequency:    0.5706463427
  - # 4
    frequency:    1.4161623451
  - # 5
    frequency:    1.4757397322
  - # 6
    frequency:    5.1613584017
  - # 7
    frequency:    5.1695904308
  - # 8
    frequency:    6.5443007933
  - # 9
    frequency:    8.0908472777
  - # 10
    frequency:    8.0998859078
  - # 11
    frequency:    8.3049868639
  - # 12
    frequency:    8.3142415264
  - # 13
    frequency:    9.9306824993
  - # 14
    frequency:   13.2907515518
  - # 15
    frequency:   13.2984511807
  - # 16
    frequency:   13.5913437217
  - # 17
    frequency:   13.6044442655
  - # 18
    frequency:   13.8530658893
  - # 19
    frequency:   15.8427090855
  - # 20
    frequency:   17.2807551017
  - # 21
    frequency:   17.2900668378
  - # 22
    frequency:   27.1950044403
  - # 23
    frequency:   56.5192218794
  - # 24
    frequency:  111.3304935241

- q-position: [    0.0252525,    0.0000000,    0.0000000 ]
  distance:    0.0091767
  band:
  - # 1
    frequency:    0.0783018216
  - # 2
    frequency:    0.4360764114
  - # 3
    frequency:    0.7111321726
  - # 4
    frequency:    1.4275475282
  - # 5
    frequency:    1.5188952492
  - # 6
    frequency:    5.1646627344
  - # 7
    frequency:    5.1774578262
  - # 8
    frequency:    6.5381011453
  - # 9
    frequency:    8.0889345241
  - # 10
    frequency:    8.1029266899
  - # 11
    frequency:    8.3099075085
  - # 12
    frequency:    8.3243084215
  - # 13
    frequency:    9.9277796052
  - # 14
    frequency:   13.2892757209
  - # 15
    frequency:   13.3013090240
  - # 16
    frequency:   13.5900819287
  - # 17
    frequency:   13.6106303944
  - # 18
    frequency:   13.8569208445
  - # 19
    frequency:   15.8412496213
  - # 20
    frequency:   17.2781123222
  - # 21
    frequency:   17.2925871725
  - # 22
    frequency:   27.1937189068
  - # 23
    frequency:   56.5148155138
  - # 24
    frequency:  111.3335380939

- q-position: [    0.0303030,    0.0000000,    0.0000000 ]
  distance:    0.0110120
  band:
  - # 1
    frequency:    0.1102165630
  - # 2
    frequency:    0.5221319008
  - # 3
    frequency:    0.8500671058
  - # 4
    frequency:    1.4413983684
  - # 5
    frequency:    1.5701985382
  - # 6
    frequency:    5.1686547098
  - # 7
    frequency:    5.1869617912
  - # 8
    frequency:    6.5306929228
  - # 9
    frequency:    8.0866878641
  - # 10
    frequency:    8.1066218897
  - # 11
    frequency:    8.3158037176
  - # 12
    frequency:    8.3364260339
  - # 13
    frequency:    9.9242560686
  - # 14
    frequency:   13.2873460599
  - # 15
    frequency:   13.3046891287
  - # 16
    frequency:   13.5885583390
  - # 17
    frequency:   13.6182601695
  - # 18
    frequency:   13.8618345689
  - # 19
    frequency:   15.8394320277
  - # 20
    frequency:   17.2749280686
  - # 21
    frequency:   17.2956414059
  - # 22
    frequency:   27.1921526911
  - # 23
    frequency:   56.5094349261
  - # 24
    frequency:  111.3372419087

- q-position: [    0.0353535,    0.0000000,    0.0000000 ]
  distance:    0.0128474
  band:
  - # 1
    frequency:    0.1463654990
  - # 2
    frequency:    0.6075303902
  - # 3
    frequency:    0.9870352145
  - # 4
    frequency:    1.4576861527
  - # 5
    frequency:    1.6291218373
  - # 6
    frequency:    5.1733071875
  - # 7
    frequency:    5.1980371558
  - # 8
    frequency:    6.5221715359
  - # 9
    frequency:    8.0841508923
  - # 10
    frequency:    8.1109635654
  - # 11
    frequency:    8.3226164060
  - # 12
    frequency:    8.3504843302
  - # 13
    frequency:    9.9201271394
  - # 14
    frequency:   13.2848825617
  - # 15
    frequency:   13.3085319759
  - # 16
    frequency:   13.5868079080
  - # 17
    frequency:   13.6273668103
  - # 18
    frequency:   13.8679073158
  - # 19
    frequency:   15.8372377141
  - # 20
    frequency:   17.2712285686
  - # 21
    frequency:   17.2992139672
  - # 22
    frequency:   27.1903088060
  - # 23
    frequency:   56.5030831161
  - # 24
    frequency:  111.3415946928

- q-position: [    0.0404040,    0.0000000,    0.0000000 ]
  distance:    0.0146827
  band:
  - # 1
    frequency:    0.1862873401
  - # 2
    frequency:    0.6921397248
  - # 3
    frequency:    1.1215610335
  - # 4
    frequency:    1.4763860179
  - # 5
    frequency:    1.6952430274
  - # 6
    frequency:    5.1785888460
  - # 7
    frequency:    5.2106084260
  - # 8
    frequency:    6.5126449890
  - # 9
    frequency:    8.0813679844
  - # 10
    frequency:    8.1159449880
  - # 11
    frequency:    8.3302833861
  - # 12
    frequency:    8.3663559427
  - # 13
    frequency:    9.9154113413
  - # 14
    frequency:   13.2817878248
  - # 15
    frequency:   13.3127741946
  - # 16
    frequency:   13.5848894577
  - # 17
    frequency:   13.6379826321
  - # 18
    frequency:   13.8752413992
  - # 19
    frequency:   15.8346461818
  - # 20
    frequency:   17.2670437111
  - # 21
    frequency:   17.3032865759
  - # 22
    frequency:   27.1881908271
  - # 23
    frequency:   56.4957636451
  - # 24
    frequency:  111.3465844103

- q-position: [    0.0454545,    0.0000000,    0.0000000 ]
  distance:    0.0165180
  band:
  - # 1
    frequency:    0.2295832208
  - # 2
    frequency:    0.7758146448
  - # 3
    frequency:    1.2531087146
  - # 4
    frequency:    1.4974815907
  - # 5
    frequency:    1.7682669537
  - # 6
    frequency:    5.1844645352
  - # 7
    frequency:    5.2245903540
  - # 8
    frequency:    6.5022322628
  - # 9
    frequency:    8.0783829881
  - # 10
    frequency:    8.1215606665
  - # 11
    frequency:    8.3387409010
  - # 12
    frequency:    8.3838981148
  - # 13
    frequency:    9.9101306880
  - # 14
    frequency:   13.2779472260
  - # 15
    frequency:   13.3173514282
  - # 16
    frequency:   13.5828896897
  - # 17
    frequency:   13.6501362043
  - # 18
    frequency:   13.8839363079
  - # 19
    frequency:   15.8316356851
  - # 20
    frequency:   17.2624065352
  - # 21
    frequency:   17.3078383008
  - # 22
    frequency:   27.1858028984
  - # 23
    frequency:   56.4874806439
  - # 24
    frequency:  111.3521973177

- q-position: [    0.0505051,    0.0000000,    0.0000000 ]
  distance:    0.0183534
  band:
  - # 1
    frequency:    0.2759169273
  - # 2
    frequency:    0.8583929063
  - # 3
    frequency:    1.3811014351
  - # 4
    frequency:    1.5209704297
  - # 5
    frequency:    1.8480143164
  - # 6
    frequency:    5.1908956668
  - # 7
    frequency:    5.2398884665
  - # 8
    frequency:    6.4910618869
  - # 9
    frequency:    8.0752384607
  - # 10
    frequency:    8.1278060041
  - # 11
    frequency:    8.3479246276
  - # 12
    frequency:    8.4029549310
  - # 13
    frequency:    9.9043109052
  - # 14
    frequency:   13.2732304719
  - # 15
    frequency:   13.3222011041
  - # 16
    frequency:   13.5809245436
  - # 17
    frequency:   13.6638496131
  - # 18
    frequency:   13.8940850244
  - # 19
    frequency:   15.8281839406
  - # 20
    frequency:   17.2573526739
  - # 21
    frequency:   17.3128456276
  - # 22
    frequency:   27.1831497391
  - # 23
    frequency:   56.4782388211
  - # 24
    frequency:  111.3584180237

- q-position: [    0.0555556,    0.0000000,    0.0000000 ]
  distance:    0.0201887
  band:
  - # 1
    frequency:    0.3250086971
  - # 2
    frequency:    0.9396906392
  - # 3
    frequency:    1.5049766143
  - # 4
    frequency:    1.5468702293
  - # 5
    frequency:    1.9343667994
  - # 6
    frequency:    5.1978406355
  - # 7
    frequency:    5.2563995146
  - # 8
    frequency:    6.4792707800
  - # 9
    frequency:    8.0719753400
  - # 10
    frequency:    8.1346766935
  - # 11
    frequency:    8.3577702592
  - # 12
    frequency:    8.4233596614
  - # 13
    frequency:    9.8979816476
  - # 14
    frequency:   13.2674950522
  - # 15
    frequency:   13.3272648908
  - # 16
    frequency:   13.5791371433
  - # 17
    frequency:   13.6791360526
  - # 18
    frequency:   13.9057717983
  - # 19
    frequency:   15.8242688627
  - # 20
    frequency:   17.2519197645
  - # 21
    frequency:   17.3182825338
  - # 22
    frequency:   27.1802366486
  - # 23
    frequency:   56.4680434737
  - # 24
    frequency:  111.3652295561

- q-position: [    0.0606061,    0.0000000,    0.0000000 ]
  distance:    0.0220241
  band:
  - # 1
    frequency:    0.3766261643
  - # 2
    frequency:    1.0194971283
  - # 3
    frequency:    1.5752255385
  - # 4
    frequency:    1.6242858691
  - # 5
    frequency:    2.0271629355
  - # 6
    frequency:    5.2052552664
  - # 7
    frequency:    5.2740118121
  - # 8
    frequency:    6.4670034108
  - # 9
    frequency:    8.0686329097
  - # 10
    frequency:    8.1421679657
  - # 11
    frequency:    8.3682137950
  - # 12
    frequency:    8.4449370767
  - # 13
    frequency:    9.8911766934
  - # 14
    frequency:   13.2605919330
  - # 15
    frequency:   13.3324906527
  - # 16
    frequency:   13.5776920294
  - # 17
    frequency:   13.6959979332
  - # 18
    frequency:   13.9190713466
  - # 19
    frequency:   15.8198693065
  - # 20
    frequency:   17.2461468421
  - # 21
    frequency:   17.3241205722
  - # 22
    frequency:   27.1770695117
  - # 23
    frequency:   56.4569004973
  - # 24
    frequency:  111.3726134343

- q-position: [    0.0656566,    0.0000000,    0.0000000 ]
  distance:    0.0238594
  band:
  - # 1
    frequency:    0.4305747815
  - # 2
    frequency:    1.0975696869
  - # 3
    frequency:    1.6061142875
  - # 4
    frequency:    1.7388207069
  - # 5
    frequency:    2.1260660719
  - # 6
    frequency:    5.2130932803
  - # 7
    frequency:    5.2926054400
  - # 8
    frequency:    6.4544113003
  - # 9
    frequency:    8.0652489372
  - # 10
    frequency:    8.1502737873
  - # 11
    frequency:    8.3791916570
  - # 12
    frequency:    8.4675056335
  - # 13
    frequency:    9.8839341022
  - # 14
    frequency:   13.2523734234
  - # 15
    frequency:   13.3378337787
  - # 16
    frequency:   13.5767660055
  - # 17
    frequency:   13.7144256330
  - # 18
    frequency:   13.9340492367
  - # 19
    frequency:   15.8149657953
  - # 20
    frequency:   17.2400737305
  - # 21
    frequency:   17.3303289606
  - # 22
    frequency:   27.1736548021
  - # 23
    frequency:   56.4448163981
  - # 24
    frequency:  111.3805497485

- q-position: [    0.0707071,    0.0000000,    0.0000000 ]
  distance:    0.0256947
  band:
  - # 1
    frequency:    0.4866890103
  - # 2
    frequency:    1.1736301911
  - # 3
    frequency:    1.6396525224
  - # 4
    frequency:    1.8487050960
  - # 5
    frequency:    2.2304647517
  - # 6
    frequency:    5.2213067728
  - # 7
    frequency:    5.3120523046
  - # 8
    frequency:    6.4416528606
  - # 9
    frequency:    8.0618598828
  - # 10
    frequency:    8.1589860750
  - # 11
    frequency:    8.3906407228
  - # 12
    frequency:    8.4908794831
  - # 13
    frequency:    9.8762963139
  - # 14
    frequency:   13.2427025547
  - # 15
    frequency:   13.3432578445
  - # 16
    frequency:   13.5765366442
  - # 17
    frequency:   13.7343969373
  - # 18
    frequency:   13.9507630764
  - # 19
    frequency:   15.8095412144
  - # 20
    frequency:   17.2337404478
  - # 21
    frequency:   17.3368746799
  - # 22
    frequency:   27.1699995841
  - # 23
    frequency:   56.4317983054
  - # 24
    frequency:  111.3890172435

- q-position: [    0.0757576,    0.0000000,    0.0000000 ]
  distance:    0.0275301
  band:
  - # 1
    frequency:    0.5448248547
  - # 2
    frequency:    1.2473663154
  - # 3
    frequency:    1.6759942942
  - # 4
    frequency:    1.9543895306
  - # 5
    frequency:    2.3394716920
  - # 6
    frequency:    5.2298467010
  - # 7
    frequency:    5.3322160561
  - # 8
    frequency:    6.4288935392
  - # 9
    frequency:    8.0585011146
  - # 10
    frequency:    8.1682939659
  - # 11
    frequency:    8.4024983387
  - # 12
    frequency:    8.5148703013
  - # 13
    frequency:    9.8683101664
  - # 14
    frequency:   13.2314627048
  - # 15
    frequency:   13.3487346483
  - # 16
    frequency:   13.5771701235
  - # 17
    frequency:   13.7558771262
  - # 18
    frequency:   13.9692641193
  - # 19
    frequency:   15.8035814501
  - # 20
    frequency:   17.2271866412
  - # 21
    frequency:   17.3437225783
  - # 22
    frequency:   27.1661115134
  - # 23
    frequency:   56.4178539845
  - # 24
    frequency:  111.3979934079

- q-position: [    0.0808081,    0.0000000,    0.0000000 ]
  distance:    0.0293654
  band:
  - # 1
    frequency:    0.6048538764
  - # 2
    frequency:    1.3184423323
  - # 3
    frequency:    1.7153218332
  - # 4
    frequency:    2.0565392383
  - # 5
    frequency:    2.4520290966
  - # 6
    frequency:    5.2386633712
  - # 7
    frequency:    5.3529518988
  - # 8
    frequency:    6.4163062098
  - # 9
    frequency:    8.0552070842
  - # 10
    frequency:    8.1781831644
  - # 11
    frequency:    8.4147023488
  - # 12
    frequency:    8.5392889689
  - # 13
    frequency:    9.8600268057
  - # 14
    frequency:   13.2185658586
  - # 15
    frequency:   13.3542437275
  - # 16
    frequency:   13.5788103483
  - # 17
    frequency:   13.7788196036
  - # 18
    frequency:   13.9895989505
  - # 19
    frequency:   15.7970759600
  - # 20
    frequency:   17.2204510670
  - # 21
    frequency:   17.3508354834
  - # 22
    frequency:   27.1619988337
  - # 23
    frequency:   56.4029918506
  - # 24
    frequency:  111.4074545672

- q-position: [    0.0858586,    0.0000000,    0.0000000 ]
  distance:    0.0312007
  band:
  - # 1
    frequency:    0.6666585983
  - # 2
    frequency:    1.3865253595
  - # 3
    frequency:    1.7578201269
  - # 4
    frequency:    2.1558804933
  - # 5
    frequency:    2.5670564814
  - # 6
    frequency:    5.2477069249
  - # 7
    frequency:    5.3741063521
  - # 8
    frequency:    6.4040717213
  - # 9
    frequency:    8.0520114407
  - # 10
    frequency:    8.1886353684
  - # 11
    frequency:    8.4271911568
  - # 12
    frequency:    8.5639471593
  - # 13
    frequency:    9.8515014569
  - # 14
    frequency:   13.2039580381
  - # 15
    frequency:   13.3597715030
  - # 16
    frequency:   13.5815710712
  - # 17
    frequency:   13.8031669235
  - # 18
    frequency:   14.0118110114
  - # 19
    frequency:   15.7900182581
  - # 20
    frequency:   17.2135711296
  - # 21
    frequency:   17.3581743213
  - # 22
    frequency:   27.1576703727
  - # 23
    frequency:   56.3872209828
  - # 24
    frequency:  111.4173759808

- q-position: [    0.0909091,    0.0000000,    0.0000000 ]
  distance:    0.0330361
  band:
  - # 1
    frequency:    0.7301290966
  - # 2
    frequency:    1.4513304758
  - # 3
    frequency:    1.8036324896
  - # 4
    frequency:    2.2530787576
  - # 5
    frequency:    2.6835673024
  - # 6
    frequency:    5.2569278154
  - # 7
    frequency:    5.3955170710
  - # 8
    frequency:    6.3923794773
  - # 9
    frequency:    8.0489470756
  - # 10
    frequency:    8.1996277707
  - # 11
    frequency:    8.4399038269
  - # 12
    frequency:    8.5886588981
  - # 13
    frequency:    9.8427930259
  - # 14
    frequency:   13.1876210922
  - # 15
    frequency:   13.3653102025
  - # 16
    frequency:   13.5855319735
  - # 17
    frequency:   13.8288520622
  - # 18
    frequency:   14.0359418218
  - # 19
    frequency:   15.7824063076
  - # 20
    frequency:   17.2065824905
  - # 21
    frequency:   17.3656982429
  - # 22
    frequency:   27.1531355329
  - # 23
    frequency:   56.3705511390
  - # 24
    frequency:  111.4277319421

- q-position: [    0.0959596,    0.0000000,    0.0000000 ]
  distance:    0.0348714
  band:
  - # 1
    frequency:    0.7951605582
  - # 2
    frequency:    1.5126792547
  - # 3
    frequency:    1.8528025847
  - # 4
    frequency:    2.3486780361
  - # 5
    frequency:    2.8007249466
  - # 6
    frequency:    5.2662772737
  - # 7
    frequency:    5.4170128818
  - # 8
    frequency:    6.3814278716
  - # 9
    frequency:    8.0460460977
  - # 10
    frequency:    8.2111326255
  - # 11
    frequency:    8.4527802176
  - # 12
    frequency:    8.6132421693
  - # 13
    frequency:    9.8339634937
  - # 14
    frequency:   13.1695709331
  - # 15
    frequency:   13.3708567016
  - # 16
    frequency:   13.5907386847
  - # 17
    frequency:   13.8557997959
  - # 18
    frequency:   14.0620318356
  - # 19
    frequency:   15.7742428109
  - # 20
    frequency:   17.1995187566
  - # 21
    frequency:   17.3733647579
  - # 22
    frequency:   27.1484042810
  - # 23
    frequency:   56.3529927709
  - # 24
    frequency:  111.4384958810

- q-position: [    0.1010101,    0.0000000,    0.0000000 ]
  distance:    0.0367068
  band:
  - # 1
    frequency:    0.8616515848
  - # 2
    frequency:    1.5705527392
  - # 3
    frequency:    1.9052218909
  - # 4
    frequency:    2.4430900529
  - # 5
    frequency:    2.9178493975
  - # 6
    frequency:    5.2757077565
  - # 7
    frequency:    5.4384142617
  - # 8
    frequency:    6.3714243462
  - # 9
    frequency:    8.0433397443
  - # 10
    frequency:    8.2231168673
  - # 11
    frequency:    8.4657611423
  - # 12
    frequency:    8.6375206387
  - # 13
    frequency:    9.8250770701
  - # 14
    frequency:   13.1498530808
  - # 15
    frequency:   13.3764113901
  - # 16
    frequency:   13.5972058940
  - # 17
    frequency:   13.8839280772
  - # 18
    frequency:   14.0901209230
  - # 19
    frequency:   15.7655353988
  - # 20
    frequency:   17.1924112548
  - # 21
    frequency:   17.3811298770
  - # 22
    frequency:   27.1434871321
  - # 23
    frequency:   56.3345570383
  - # 24
    frequency:  111.4496404688

- q-position: [    0.1060606,    0.0000000,    0.0000000 ]
  distance:    0.0385421
  band:
  - # 1
    frequency:    0.9295030612
  - # 2
    frequency:    1.6251126598
  - # 3
    frequency:    1.9606088230
  - # 4
    frequency:    2.5366097572
  - # 5
    frequency:    3.0343979798
  - # 6
    frequency:    5.2851733748
  - # 7
    frequency:    5.4595345576
  - # 8
    frequency:    6.3625847730
  - # 9
    frequency:    8.0408582385
  - # 10
    frequency:    8.2355417686
  - # 11
    frequency:    8.4787885447
  - # 12
    frequency:    8.6613255609
  - # 13
    frequency:    9.8161990748
  - # 14
    frequency:   13.1285367478
  - # 15
    frequency:   13.3819771366
  - # 16
    frequency:   13.6049222957
  - # 17
    frequency:   13.9131493356
  - # 18
    frequency:   14.1202485033
  - # 19
    frequency:   15.7562967170
  - # 20
    frequency:   17.1852888955
  - # 21
    frequency:   17.3889482622
  - # 22
    frequency:   27.1383951317
  - # 23
    frequency:   56.3152558250
  - # 24
    frequency:  111.4611377240

- q-position: [    0.1111111,    0.0000000,    0.0000000 ]
  distance:    0.0403774
  band:
  - # 1
    frequency:    0.9986174309
  - # 2
    frequency:    1.6766761547
  - # 3
    frequency:    2.0185342621
  - # 4
    frequency:    2.6294392682
  - # 5
    frequency:    3.1499379885
  - # 6
    frequency:    5.2946302985
  - # 7
    frequency:    5.4801823123
  - # 8
    frequency:    6.3551318018
  - # 9
    frequency:    8.0386306024
  - # 10
    frequency:    8.2483626257
  - # 11
    frequency:    8.4918056817
  - # 12
    frequency:    8.6844979227
  - # 13
    frequency:    9.8073945200
  - # 14
    frequency:   13.1057086396
  - # 15
    frequency:   13.3875583932
  - # 16
    frequency:   13.6138561519
  - # 17
    frequency:   13.9433716586
  - # 18
    frequency:   14.1524533710
  - # 19
    frequency:   15.7465444186
  - # 20
    frequency:   17.1781781247
  - # 21
    frequency:   17.3967733856
  - # 22
    frequency:   27.1331398324
  - # 23
    frequency:   56.2951017536
  - # 24
    frequency:  111.4729591196

- q-position: [    0.1161616,    0.0000000,    0.0000000 ]
  distance:    0.0422128
  band:
  - # 1
    frequency:    1.0688982607
  - # 2
    frequency:    1.7256545633
  - # 3
    frequency:    2.0784829365
  - # 4
    frequency:    2.7217110363
  - # 5
    frequency:    3.2641203422
  - # 6
    frequency:    5.3040371327
  - # 7
    frequency:    5.5001650963
  - # 8
    frequency:    6.3492917874
  - # 9
    frequency:    8.0366844369
  - # 10
    frequency:    8.2615284621
  - # 11
    frequency:    8.5047573016
  - # 12
    frequency:    8.7068908577
  - # 13
    frequency:    9.7987263854
  - # 14
    frequency:   13.0814673205
  - # 15
    frequency:   13.3931604542
  - # 16
    frequency:   13.6239605761
  - # 17
    frequency:   13.9744998353
  - # 18
    frequency:   14.1867732631
  - # 19
    frequency:   15.7363010702
  - # 20
    frequency:   17.1711029631
  - # 21
    frequency:   17.4045576978
  - # 22
    frequency:   27.1277332674
  - # 23
    frequency:   56.2741081999
  - # 24
    frequency:  111.4850756898

- q-position: [    0.1212121,    0.0000000,    0.0000000 ]
  distance:    0.0440481
  band:
  - # 1
    frequency:    1.1402500005
  - # 2
    frequency:    1.7724840654
  - # 3
    frequency:    2.1399228908
  - # 4
    frequency:    2.8135068974
  - # 5
    frequency:    3.3766575141
  - # 6
    frequency:    5.3133552639
  - # 7
    frequency:    5.5192952188
  - # 8
    frequency:    6.3452899440
  - # 9
    frequency:    8.0350456802
  - # 10
    frequency:    8.2749817420
  - # 11
    frequency:    8.5175898127
  - # 12
    frequency:    8.7283723364
  - # 13
    frequency:    9.7902535947
  - # 14
    frequency:   13.0559185883
  - # 15
    frequency:   13.3987888694
  - # 16
    frequency:   13.6351780414
  - # 17
    frequency:   14.0064362622
  - # 18
    frequency:   14.2232442146
  - # 19
    frequency:   15.7255939844
  - # 20
    frequency:   17.1640851252
  - # 21
    frequency:   17.4122528058
  - # 22
    frequency:   27.1221879202
  - # 23
    frequency:   56.2522893079
  - # 24
    frequency:  111.4974581372

- q-position: [    0.1262626,    0.0000000,    0.0000000 ]
  distance:    0.0458835
  band:
  - # 1
    frequency:    1.2125778692
  - # 2
    frequency:    1.8175721813
  - # 3
    frequency:    2.2023590384
  - # 4
    frequency:    2.9048725868
  - # 5
    frequency:    3.4873061037
  - # 6
    frequency:    5.3225491719
  - # 7
    frequency:    5.5373975434
  - # 8
    frequency:    6.3433435259
  - # 9
    frequency:    8.0337383532
  - # 10
    frequency:    8.2886580951
  - # 11
    frequency:    8.5302514340
  - # 12
    frequency:    8.7488281010
  - # 13
    frequency:    9.7820287356
  - # 14
    frequency:   13.0291719742
  - # 15
    frequency:   13.4044489957
  - # 16
    frequency:   13.6474439496
  - # 17
    frequency:   14.0390817225
  - # 18
    frequency:   14.2618997505
  - # 19
    frequency:   15.7144549950
  - # 20
    frequency:   17.1571442129
  - # 21
    frequency:   17.4198096606
  - # 22
    frequency:   27.1165166895
  - # 23
    frequency:   56.2296600035
  - # 24
    frequency:  111.5100769391

- q-position: [    0.1313131,    0.0000000,    0.0000000 ]
  distance:    0.0477188
  band:
  - # 1
    frequency:    1.2857878163
  - # 2
    frequency:    1.8612686337
  - # 3
    frequency:    2.2653623006
  - # 4
    frequency:    2.9958283592
  - # 5
    frequency:    3.5958533445
  - # 6
    frequency:    5.3315867044
  - # 7
    frequency:    5.5543193453
  - # 8
    frequency:    6.3436531219
  - # 9
    frequency:    8.0327843032
  - # 10
    frequency:    8.3024860580
  - # 11
    frequency:    8.5426923257
  - # 12
    frequency:    8.7681647668
  - # 13
    frequency:    9.7740955980
  - # 14
    frequency:   13.0013382718
  - # 15
    frequency:   13.4101456705
  - # 16
    frequency:   13.6606893092
  - # 17
    frequency:   14.0723360513
  - # 18
    frequency:   14.3027699540
  - # 19
    frequency:   15.7029201895
  - # 20
    frequency:   17.1502979739
  - # 21
    frequency:   17.4271787558
  - # 22
    frequency:   27.1107328513
  - # 23
    frequency:   56.2062360081
  - # 24
    frequency:  111.5229024523

- q-position: [    0.1363636,    0.0000000,    0.0000000 ]
  distance:    0.0495541
  band:
  - # 1
    frequency:    1.3597865213
  - # 2
    frequency:    1.9038566691
  - # 3
    frequency:    2.3285782447
  - # 4
    frequency:    3.0863765928
  - # 5
    frequency:    3.7021066152
  - # 6
    frequency:    5.3404393128
  - # 7