nqpoint: 300    
npath: 3      
segment_nqpoint:
- 100
- 100
- 100
labels:
- [ 'G', 'M' ]
- [ 'M', 'K' ]
- [ 'K', 'G' ]
reciprocal_lattice:
- [   0.28197218,   0.16279672,   0.00000000 ] # a*
- [   0.00000000,   0.32559343,   0.00000000 ] # b*
- [   0.00000000,   0.00000000,   0.03835432 ] # c*
natom: 7      
lattice:
- [     3.546449124154344,     0.000000000000000,     0.000000000000000 ] # a
- [    -1.773224562077172,     3.071315034745426,     0.000000000000000 ] # b
- [     0.000000000000000,     0.000000000000000,    26.072681968479454 ] # c
points:
- symbol: C # 1
  coordinates: [  0.333332985432215,  0.666666983183674,  0.595085127139411 ]
  mass: 12.010700
- symbol: F # 2
  coordinates: [  0.666666984744047,  0.333332985985145,  0.345188884322700 ]
  mass: 18.998403
- symbol: N # 3
  coordinates: [  0.000000000000000,  0.000000000000000,  0.440687161913851 ]
  mass: 14.006700
- symbol: N # 4
  coordinates: [  0.333332985432215,  0.666666983183674,  0.547131550746005 ]
  mass: 14.006700
- symbol: S # 5
  coordinates: [  0.333332985432215,  0.666666983183674,  0.654811115677300 ]
  mass: 32.065000
- symbol: Y # 6
  coordinates: [  0.333332985432215,  0.666666983183674,  0.392125500144823 ]
  mass: 88.905850
- symbol: Y # 7
  coordinates: [  0.666666984744047,  0.333332985985145,  0.494382217700762 ]
  mass: 88.905850

phonon:
- q-position: [    0.0000000,    0.0000000,    0.0000000 ]
  distance:    0.0000000
  band:
  - # 1
    frequency:   -0.6428461611
  - # 2
    frequency:   -0.6428461611
  - # 3
    frequency:   -0.0000054193
  - # 4
    frequency:   -0.0000000961
  - # 5
    frequency:    0.0000048644
  - # 6
    frequency:    3.6207800849
  - # 7
    frequency:    3.6207800849
  - # 8
    frequency:    4.8596594169
  - # 9
    frequency:    6.5368599669
  - # 10
    frequency:    6.5368599669
  - # 11
    frequency:    6.8130399202
  - # 12
    frequency:    7.0092761941
  - # 13
    frequency:    7.0092761941
  - # 14
    frequency:   10.1887434548
  - # 15
    frequency:   11.9530046335
  - # 16
    frequency:   11.9530046335
  - # 17
    frequency:   12.1758422425
  - # 18
    frequency:   13.9569322510
  - # 19
    frequency:   13.9569322510
  - # 20
    frequency:   26.7430166576
  - # 21
    frequency:   57.8295856512

- q-position: [    0.0050505,    0.0000000,    0.0000000 ]
  distance:    0.0016444
  band:
  - # 1
    frequency:   -0.6467815455
  - # 2
    frequency:   -0.6442857316
  - # 3
    frequency:    0.0017700135
  - # 4
    frequency:    0.1140238392
  - # 5
    frequency:    0.1150862826
  - # 6
    frequency:    3.6205562618
  - # 7
    frequency:    3.6212584306
  - # 8
    frequency:    4.8595030222
  - # 9
    frequency:    6.5368770338
  - # 10
    frequency:    6.5371315552
  - # 11
    frequency:    6.8118137255
  - # 12
    frequency:    7.0091694952
  - # 13
    frequency:    7.0096171889
  - # 14
    frequency:   10.1879956919
  - # 15
    frequency:   11.9524427856
  - # 16
    frequency:   11.9526885596
  - # 17
    frequency:   12.1757981232
  - # 18
    frequency:   13.9569957535
  - # 19
    frequency:   13.9571529865
  - # 20
    frequency:   26.7429519330
  - # 21
    frequency:   57.8287448592

- q-position: [    0.0101010,    0.0000000,    0.0000000 ]
  distance:    0.0032888
  band:
  - # 1
    frequency:   -0.6569873063
  - # 2
    frequency:   -0.6474674424
  - # 3
    frequency:    0.0071031130
  - # 4
    frequency:    0.2237435267
  - # 5
    frequency:    0.2269482263
  - # 6
    frequency:    3.6198880185
  - # 7
    frequency:    3.6226906857
  - # 8
    frequency:    4.8590353725
  - # 9
    frequency:    6.5369278712
  - # 10
    frequency:    6.5379378471
  - # 11
    frequency:    6.8081839841
  - # 12
    frequency:    7.0088492299
  - # 13
    frequency:    7.0106009927
  - # 14
    frequency:   10.1857535846
  - # 15
    frequency:   11.9507586105
  - # 16
    frequency:   11.9517407747
  - # 17
    frequency:   12.1756649654
  - # 18
    frequency:   13.9571859854
  - # 19
    frequency:   13.9578146655
  - # 20
    frequency:   26.7427578383
  - # 21
    frequency:   57.8262240873

- q-position: [    0.0151515,    0.0000000,    0.0000000 ]
  distance:    0.0049332
  band:
  - # 1
    frequency:   -0.6701461621
  - # 2
    frequency:   -0.6498948332
  - # 3
    frequency:    0.0160723960
  - # 4
    frequency:    0.3271561691
  - # 5
    frequency:    0.3338947178
  - # 6
    frequency:    3.6187850170
  - # 7
    frequency:    3.6250685366
  - # 8
    frequency:    4.8582610705
  - # 9
    frequency:    6.5370113909
  - # 10
    frequency:    6.5392526367
  - # 11
    frequency:    6.8022887279
  - # 12
    frequency:    7.0083148995
  - # 13
    frequency:    7.0121193441
  - # 14
    frequency:   10.1820206901
  - # 15
    frequency:   11.9479561662
  - # 16
    frequency:   11.9501625854
  - # 17
    frequency:   12.1754404120
  - # 18
    frequency:   13.9575021214
  - # 19
    frequency:   13.9589157072
  - # 20
    frequency:   26.7424346104
  - # 21
    frequency:   57.8220281434

- q-position: [    0.0202020,    0.0000000,    0.0000000 ]
  distance:    0.0065776
  band:
  - # 1
    frequency:   -0.6833695583
  - # 2
    frequency:   -0.6491494079
  - # 3
    frequency:    0.0288121643
  - # 4
    frequency:    0.4243393653
  - # 5
    frequency:    0.4357605351
  - # 6
    frequency:    3.6172633057
  - # 7
    frequency:    3.6283782342
  - # 8
    frequency:    4.8571877853
  - # 9
    frequency:    6.5371257817
  - # 10
    frequency:    6.5410294779
  - # 11
    frequency:    6.7943343120
  - # 12
    frequency:    7.0075656981
  - # 13
    frequency:    7.0140182665
  - # 14
    frequency:   10.1768029794
  - # 15
    frequency:   11.9440420629
  - # 16
    frequency:   11.9479561581
  - # 17
    frequency:   12.1751206727
  - # 18
    frequency:   13.9579427928
  - # 19
    frequency:   13.9604534817
  - # 20
    frequency:   26.7419826445
  - # 21
    frequency:   57.8161650257

- q-position: [    0.0252525,    0.0000000,    0.0000000 ]
  distance:    0.0082221
  band:
  - # 1
    frequency:   -0.6948568508
  - # 2
    frequency:   -0.6434639517
  - # 3
    frequency:    0.0455397606
  - # 4
    frequency:    0.5162222304
  - # 5
    frequency:    0.5331258867
  - # 6
    frequency:    3.6153452368
  - # 7
    frequency:    3.6326007511
  - # 8
    frequency:    4.8558262490
  - # 9
    frequency:    6.5372685143
  - # 10
    frequency:    6.5431969744
  - # 11
    frequency:    6.7845725696
  - # 12
    frequency:    7.0066005494
  - # 13
    frequency:    7.0161256107
  - # 14
    frequency:   10.1701088992
  - # 15
    frequency:   11.9390252525
  - # 16
    frequency:   11.9451245025
  - # 17
    frequency:   12.1747007126
  - # 18
    frequency:   13.9585060969
  - # 19
    frequency:   13.9624243172
  - # 20
    frequency:   26.7414024943
  - # 21
    frequency:   57.8086459013

- q-position: [    0.0303030,    0.0000000,    0.0000000 ]
  distance:    0.0098665
  band:
  - # 1
    frequency:   -0.7036517244
  - # 2
    frequency:   -0.6316392517
  - # 3
    frequency:    0.0665928192
  - # 4
    frequency:    0.6038273076
  - # 5
    frequency:    0.6267411268
  - # 6
    frequency:    3.6130593490
  - # 7
    frequency:    3.6377119949
  - # 8
    frequency:    4.8541902529
  - # 9
    frequency:    6.5374363477
  - # 10
    frequency:    6.5456509556
  - # 11
    frequency:    6.7732855393
  - # 12
    frequency:    7.0054181579
  - # 13
    frequency:    7.0182741376
  - # 14
    frequency:   10.1619494545
  - # 15
    frequency:   11.9329167680
  - # 16
    frequency:   11.9416714485
  - # 17
    frequency:   12.1741744841
  - # 18
    frequency:   13.9591896107
  - # 19
    frequency:   13.9648235102
  - # 20
    frequency:   26.7406948722
  - # 21
    frequency:   57.7994850751

- q-position: [    0.0353535,    0.0000000,    0.0000000 ]
  distance:    0.0115109
  band:
  - # 1
    frequency:   -0.7092920420
  - # 2
    frequency:   -0.6128251679
  - # 3
    frequency:    0.0924902335
  - # 4
    frequency:    0.6880137073
  - # 5
    frequency:    0.7172878394
  - # 6
    frequency:    3.6104402157
  - # 7
    frequency:    3.6436830725
  - # 8
    frequency:    4.8522966414
  - # 9
    frequency:    6.5376253372
  - # 10
    frequency:    6.5482420303
  - # 11
    frequency:    6.7607829836
  - # 12
    frequency:    7.0040170735
  - # 13
    frequency:    7.0203164309
  - # 14
    frequency:   10.1523383093
  - # 15
    frequency:   11.9257294386
  - # 16
    frequency:   11.9376016167
  - # 17
    frequency:   12.1735351798
  - # 18
    frequency:   13.9599904078
  - # 19
    frequency:   13.9676453377
  - # 20
    frequency:   26.7398606505
  - # 21
    frequency:   57.7886999505

- q-position: [    0.0404040,    0.0000000,    0.0000000 ]
  distance:    0.0131553
  band:
  - # 1
    frequency:   -0.7115733536
  - # 2
    frequency:   -0.5863837333
  - # 3
    frequency:    0.1240276764
  - # 4
    frequency:    0.7694403363
  - # 5
    frequency:    0.8053191146
  - # 6
    frequency:    3.6075282556
  - # 7
    frequency:    3.6504805989
  - # 8
    frequency:    4.8501653041
  - # 9
    frequency:    6.5378308447
  - # 10
    frequency:    6.5507563184
  - # 11
    frequency:    6.7474143620
  - # 12
    frequency:    7.0023957680
  - # 13
    frequency:    7.0221321800
  - # 14
    frequency:   10.1412919004
  - # 15
    frequency:   11.9174776054
  - # 16
    frequency:   11.9329203840
  - # 17
    frequency:   12.1727754821
  - # 18
    frequency:   13.9609050797
  - # 19
    frequency:   13.9708830728
  - # 20
    frequency:   26.7389008610
  - # 21
    frequency:   57.7763109819

- q-position: [    0.0454545,    0.0000000,    0.0000000 ]
  distance:    0.0147997
  band:
  - # 1
    frequency:   -0.7104147040
  - # 2
    frequency:   -0.5519031622
  - # 3
    frequency:    0.1624112028
  - # 4
    frequency:    0.8485945046
  - # 5
    frequency:    0.8912652205
  - # 6
    frequency:    3.6043695058
  - # 7
    frequency:    3.6580670432
  - # 8
    frequency:    4.8478191649
  - # 9
    frequency:    6.5380475510
  - # 10
    frequency:    6.5528868711
  - # 11
    frequency:    6.7335953691
  - # 12
    frequency:    7.0005527239
  - # 13
    frequency:    7.0236302144
  - # 14
    frequency:   10.1288295601
  - # 15
    frequency:   11.9081768549
  - # 16
    frequency:   11.9276338426
  - # 17
    frequency:   12.1718877959
  - # 18
    frequency:   13.9619297592
  - # 19
    frequency:   13.9745290015
  - # 20
    frequency:   26.7378166967
  - # 21
    frequency:   57.7623416185

- q-position: [    0.0505051,    0.0000000,    0.0000000 ]
  distance:    0.0164441
  band:
  - # 1
    frequency:   -0.7057854014
  - # 2
    frequency:   -0.5094451158
  - # 3
    frequency:    0.2093777345
  - # 4
    frequency:    0.9258305265
  - # 5
    frequency:    0.9754558981
  - # 6
    frequency:    3.6010153537
  - # 7
    frequency:    3.6664011065
  - # 8
    frequency:    4.8452841663
  - # 9
    frequency:    6.5382694708
  - # 10
    frequency:    6.5541954501
  - # 11
    frequency:    6.7198469563
  - # 12
    frequency:    6.9984865319
  - # 13
    frequency:    7.0247477063
  - # 14
    frequency:   10.1149736422
  - # 15
    frequency:   11.8978437851
  - # 16
    frequency:   11.9217487549
  - # 17
    frequency:   12.1708644529
  - # 18
    frequency:   13.9630601478
  - # 19
    frequency:   13.9785744428
  - # 20
    frequency:   26.7366095119
  - # 21
    frequency:   57.7468182400

- q-position: [    0.0555556,    0.0000000,    0.0000000 ]
  distance:    0.0180885
  band:
  - # 1
    frequency:   -0.6976640391
  - # 2
    frequency:   -0.4601211453
  - # 3
    frequency:    0.2670500294
  - # 4
    frequency:    1.0014030212
  - # 5
    frequency:    1.0581427715
  - # 6
    frequency:    3.5975222265
  - # 7
    frequency:    3.6754381253
  - # 8
    frequency:    4.8425892452
  - # 9
    frequency:    6.5384899694
  - # 10
    frequency:    6.5540746286
  - # 11
    frequency:    6.7068351443
  - # 12
    frequency:    6.9961959978
  - # 13
    frequency:    7.0254482741
  - # 14
    frequency:   10.0997496458
  - # 15
    frequency:   11.8864958082
  - # 16
    frequency:   11.9152725040
  - # 17
    frequency:   12.1696978849
  - # 18
    frequency:   13.9642915460
  - # 19
    frequency:   13.9830097700
  - # 20
    frequency:   26.7352808234
  - # 21
    frequency:   57.7297700840

- q-position: [    0.0606061,    0.0000000,    0.0000000 ]
  distance:    0.0197329
  band:
  - # 1
    frequency:   -0.6860134999
  - # 2
    frequency:   -0.4066987330
  - # 3
    frequency:    0.3369303781
  - # 4
    frequency:    1.0754925361
  - # 5
    frequency:    1.1395176035
  - # 6
    frequency:    3.5939512356
  - # 7
    frequency:    3.6851304981
  - # 8
    frequency:    4.8397662985
  - # 9
    frequency:    6.5387017834
  - # 10
    frequency:    6.5517478870
  - # 11
    frequency:    6.6953729393
  - # 12
    frequency:    6.9936802560
  - # 13
    frequency:    7.0257200054
  - # 14
    frequency:   10.0831863314
  - # 15
    frequency:   11.8741509931
  - # 16
    frequency:   11.9082130397
  - # 17
    frequency:   12.1683807675
  - # 18
    frequency:   13.9656188858
  - # 19
    frequency:   13.9878244343
  - # 20
    frequency:   26.7338323112
  - # 21
    frequency:   57.7112291665

- q-position: [    0.0656566,    0.0000000,    0.0000000 ]
  distance:    0.0213773
  band:
  - # 1
    frequency:   -0.6707628953
  - # 2
    frequency:   -0.3527958440
  - # 3
    frequency:    0.4179839254
  - # 4
    frequency:    1.1482245559
  - # 5
    frequency:    1.2197261136
  - # 6
    frequency:    3.5903677717
  - # 7
    frequency:    3.6954281317
  - # 8
    frequency:    4.8368501294
  - # 9
    frequency:    6.5388970434
  - # 10
    frequency:    6.5463826135
  - # 11
    frequency:    6.6863089434
  - # 12
    frequency:    6.9909388873
  - # 13
    frequency:    7.0255739051
  - # 14
    frequency:   10.0653158242
  - # 15
    frequency:   11.8608279425
  - # 16
    frequency:   11.9005788225
  - # 17
    frequency:   12.1669061396
  - # 18
    frequency:   13.9670367661
  - # 19
    frequency:   13.9930069899
  - # 20
    frequency:   26.7322658194
  - # 21
    frequency:   57.6912301938

- q-position: [    0.0707071,    0.0000000,    0.0000000 ]
  distance:    0.0230218
  band:
  - # 1
    frequency:   -0.6517908842
  - # 2
    frequency:   -0.2998230749
  - # 3
    frequency:    0.5062081174
  - # 4
    frequency:    1.2196834947
  - # 5
    frequency:    1.2988781252
  - # 6
    frequency:    3.5868410498
  - # 7
    frequency:    3.7062789105
  - # 8
    frequency:    4.8338783715
  - # 9
    frequency:    6.5373578294
  - # 10
    frequency:    6.5390673017
  - # 11
    frequency:    6.6802606540
  - # 12
    frequency:    6.9879720405
  - # 13
    frequency:    7.0250429571
  - # 14
    frequency:   10.0461736978
  - # 15
    frequency:   11.8465457029
  - # 16
    frequency:   11.8923787638
  - # 17
    frequency:   12.1652675046
  - # 18
    frequency:   13.9685394896
  - # 19
    frequency:   13.9985451209
  - # 20
    frequency:   26.7305833569
  - # 21
    frequency:   57.6698104678

- q-position: [    0.0757576,    0.0000000,    0.0000000 ]
  distance:    0.0246662
  band:
  - # 1
    frequency:   -0.6289059956
  - # 2
    frequency:   -0.2445590314
  - # 3
    frequency:    0.5971477230
  - # 4
    frequency:    1.2899230429
  - # 5
    frequency:    1.3770549131
  - # 6
    frequency:    3.5834435994
  - # 7
    frequency:    3.7176291901
  - # 8
    frequency:    4.8308913782
  - # 9
    frequency:    6.5245374844
  - # 10
    frequency:    6.5392035634
  - # 11
    frequency:    6.6773416078
  - # 12
    frequency:    6.9847805547
  - # 13
    frequency:    7.0241818045
  - # 14
    frequency:   10.0257990357
  - # 15
    frequency:   11.8313236984
  - # 16
    frequency:   11.8836221658
  - # 17
    frequency:   12.1634589203
  - # 18
    frequency:   13.9701211020
  - # 19
    frequency:   14.0044256705
  - # 20
    frequency:   26.7287870984
  - # 21
    frequency:   57.6470097841

- q-position: [    0.0808081,    0.0000000,    0.0000000 ]
  distance:    0.0263106
  band:
  - # 1
    frequency:   -0.6018189756
  - # 2
    frequency:   -0.1774482479
  - # 3
    frequency:    0.6879766537
  - # 4
    frequency:    1.3589739001
  - # 5
    frequency:    1.4543144849
  - # 6
    frequency:    3.5802506971
  - # 7
    frequency:    3.7294243237
  - # 8
    frequency:    4.8279320681
  - # 9
    frequency:    6.5082842518
  - # 10
    frequency:    6.5392963231
  - # 11
    frequency:    6.6771475583
  - # 12
    frequency:    6.9813660795
  - # 13
    frequency:    7.0230669343
  - # 14
    frequency:   10.0042344638
  - # 15
    frequency:   11.8151816874
  - # 16
    frequency:   11.8743186592
  - # 17
    frequency:   12.1614750840
  - # 18
    frequency:   13.9717754321
  - # 19
    frequency:   14.0106346705
  - # 20
    frequency:   26.7268793849
  - # 21
    frequency:   57.6228703233

- q-position: [    0.0858586,    0.0000000,    0.0000000 ]
  distance:    0.0279550
  band:
  - # 1
    frequency:   -0.5700993619
  - # 2
    frequency:   -0.0514965648
  - # 3
    frequency:    0.7774483803
  - # 4
    frequency:    1.4268496314
  - # 5
    frequency:    1.5306953448
  - # 6
    frequency:    3.5773397401
  - # 7
    frequency:    3.7416092299
  - # 8
    frequency:    4.8250457140
  - # 9
    frequency:    6.4892152921
  - # 10
    frequency:    6.5393356078
  - # 11
    frequency:    6.6790004480
  - # 12
    frequency:    6.9777311913
  - # 13
    frequency:    7.0217971380
  - # 14
    frequency:    9.9815261520
  - # 15
    frequency:   11.7981397353
  - # 16
    frequency:   11.8644781419
  - # 17
    frequency:   12.1593114154
  - # 18
    frequency:   13.9734961334
  - # 19
    frequency:   14.0171573739
  - # 20
    frequency:   26.7248627239
  - # 21
    frequency:   57.5974365363

- q-position: [    0.0909091,    0.0000000,    0.0000000 ]
  distance:    0.0295994
  band:
  - # 1
    frequency:   -0.5331013287
  - # 2
    frequency:    0.1683738692
  - # 3
    frequency:    0.8651725773
  - # 4
    frequency:    1.4935511728
  - # 5
    frequency:    1.6062191475
  - # 6
    frequency:    3.5747895574
  - # 7
    frequency:    3.7541290150
  - # 8
    frequency:    4.8222796586
  - # 9
    frequency:    6.4679543469
  - # 10
    frequency:    6.5393110261
  - # 11
    frequency:    6.6821961821
  - # 12
    frequency:    6.9738795037
  - # 13
    frequency:    7.0204938873
  - # 14
    frequency:    9.9577237808
  - # 15
    frequency:   11.7802182014
  - # 16
    frequency:   11.8541107176
  - # 17
    frequency:   12.1569641413
  - # 18
    frequency:   13.9752767259
  - # 19
    frequency:   14.0239782884
  - # 20
    frequency:   26.7227397901
  - # 21
    frequency:   57.5707550232

- q-position: [    0.0959596,    0.0000000,    0.0000000 ]
  distance:    0.0312438
  band:
  - # 1
    frequency:   -0.4898257934
  - # 2
    frequency:    0.2504194943
  - # 3
    frequency:    0.9511177986
  - # 4
    frequency:    1.5590703513
  - # 5
    frequency:    1.6808925316
  - # 6
    frequency:    3.5726796586
  - # 7
    frequency:    3.7669296634
  - # 8
    frequency:    4.8196829439
  - # 9
    frequency:    6.4450184326
  - # 10
    frequency:    6.5392118272
  - # 11
    frequency:    6.6861184715
  - # 12
    frequency:    6.9698157669
  - # 13
    frequency:    7.0193010856
  - # 14
    frequency:    9.9328804702
  - # 15
    frequency:   11.7614377381
  - # 16
    frequency:   11.8432266362
  - # 17
    frequency:   12.1544303819
  - # 18
    frequency:   13.9771106389
  - # 19
    frequency:   14.0310812127
  - # 20
    frequency:   26.7205134249
  - # 21
    frequency:   57.5428744069

- q-position: [    0.1010101,    0.0000000,    0.0000000 ]
  distance:    0.0328882
  band:
  - # 1
    frequency:   -0.4386349014
  - # 2
    frequency:    0.3183265996
  - # 3
    frequency:    1.0353764705
  - # 4
    frequency:    1.6233926845
  - # 5
    frequency:    1.7547083465
  - # 6
    frequency:    3.5710894199
  - # 7
    frequency:    3.7799588130
  - # 8
    frequency:    4.8173058336
  - # 9
    frequency:    6.4208051309
  - # 10
    frequency:    6.5390269674
  - # 11
    frequency:    6.6902534876
  - # 12
    frequency:    6.9655459560
  - # 13
    frequency:    7.0183834584
  - # 14
    frequency:    9.9070526701
  - # 15
    frequency:   11.7418193024
  - # 16
    frequency:   11.8318362370
  - # 17
    frequency:   12.1517082389
  - # 18
    frequency:   13.9789912525
  - # 19
    frequency:   14.0384492738
  - # 20
    frequency:   26.7181866361
  - # 21
    frequency:   57.5138452013

- q-position: [    0.1060606,    0.0000000,    0.0000000 ]
  distance:    0.0345326
  band:
  - # 1
    frequency:   -0.3765623438
  - # 2
    frequency:    0.3807069754
  - # 3
    frequency:    1.1180689741
  - # 4
    frequency:    1.6864996460
  - # 5
    frequency:    1.8276464290
  - # 6
    frequency:    3.5700972097
  - # 7
    frequency:    3.7931666298
  - # 8
    frequency:    4.8151992142
  - # 9
    frequency:    6.3956168409
  - # 10
    frequency:    6.5387451904
  - # 11
    frequency:    6.6941698546
  - # 12
    frequency:    6.9610773424
  - # 13
    frequency:    7.0179226931
  - # 14
    frequency:    9.8803000113
  - # 15
    frequency:   11.7213841781
  - # 16
    frequency:   11.8199498941
  - # 17
    frequency:   12.1487968824
  - # 18
    frequency:   13.9809119404
  - # 19
    frequency:   14.0460649675
  - # 20
    frequency:   26.7157625971
  - # 21
    frequency:   57.4837196746

- q-position: [    0.1111111,    0.0000000,    0.0000000 ]
  distance:    0.0361770
  band:
  - # 1
    frequency:   -0.2971718840
  - # 2
    frequency:    0.4406042224
  - # 3
    frequency:    1.1993083140
  - # 4
    frequency:    1.7483705320
  - # 5
    frequency:    1.8996740469
  - # 6
    frequency:    3.5697794591
  - # 7
    frequency:    3.8065067974
  - # 8
    frequency:    4.8134138579
  - # 9
    frequency:    6.3696889366
  - # 10
    frequency:    6.5383551180
  - # 11
    frequency:    6.6974978963
  - # 12
    frequency:    6.9564185470
  - # 13
    frequency:    7.0181104613
  - # 14
    frequency:    9.8526851159
  - # 15
    frequency:   11.7001540093
  - # 16
    frequency:   11.8075779671
  - # 17
    frequency:   12.1456966364
  - # 18
    frequency:   13.9828661102
  - # 19
    frequency:   14.0539102005
  - # 20
    frequency:   26.7132446456
  - # 21
    frequency:   57.4525517085

- q-position: [    0.1161616,    0.0000000,    0.0000000 ]
  distance:    0.0378215
  band:
  - # 1
    frequency:   -0.1792197222
  - # 2
    frequency:    0.4994354885
  - # 3
    frequency:    1.2791893279
  - # 4
    frequency:    1.8089840241
  - # 5
    frequency:    1.9707461043
  - # 6
    frequency:    3.5702096841
  - # 7
    frequency:    3.8199376284
  - # 8
    frequency:    4.8119995342
  - # 9
    frequency:    6.3432120211
  - # 10
    frequency:    6.5378453570
  - # 11
    frequency:    6.6999184080
  - # 12
    frequency:    6.9515795708
  - # 13
    frequency:    7.0191378637
  - # 14
    frequency:    9.8242733689
  - # 15
    frequency:   11.6781508473
  - # 16
    frequency:   11.7947307548
  - # 17
    frequency:   12.1424090565
  - # 18
    frequency:   13.9848472435
  - # 19
    frequency:   14.0619663359
  - # 20
    frequency:   26.7106362813
  - # 21
    frequency:   57.4203966535

- q-position: [    0.1212121,    0.0000000,    0.0000000 ]
  distance:    0.0394659
  band:
  - # 1
    frequency:    0.1630780982
  - # 2
    frequency:    0.5579482598
  - # 3
    frequency:    1.3577873524
  - # 4
    frequency:    1.8683195180
  - # 5
    frequency:    2.0408051828
  - # 6
    frequency:    3.5714574710
  - # 7
    frequency:    3.8334233021
  - # 8
    frequency:    4.8110039639
  - # 9
    frequency:    6.3163475574
  - # 10
    frequency:    6.5372046212
  - # 11
    frequency:    6.7011612176
  - # 12
    frequency:    6.9465718003
  - # 13
    frequency:    7.0211817389
  - # 14
    frequency:    9.7951326527
  - # 15
    frequency:   11.6553972088
  - # 16
    frequency:   11.7814184560
  - # 17
    frequency:   12.1389370009
  - # 18
    frequency:   13.9868489348
  - # 19
    frequency:   14.0702142403
  - # 20
    frequency:   26.7079411637
  - # 21
    frequency:   57.3873111804

- q-position: [    0.1262626,    0.0000000,    0.0000000 ]
  distance:    0.0411103
  band:
  - # 1
    frequency:    0.2960636119
  - # 2
    frequency:    0.6165607307
  - # 3
    frequency:    1.4351602241
  - # 4
    frequency:    1.9263582649
  - # 5
    frequency:    2.1097814887
  - # 6
    frequency:    3.5735874405
  - # 7
    frequency:    3.8469352171
  - # 8
    frequency:    4.8104716144
  - # 9
    frequency:    6.2892384178
  - # 10
    frequency:    6.5364218715
  - # 11
    frequency:    6.7010102359
  - # 12
    frequency:    6.9414079844
  - # 13
    frequency:    7.0243895917
  - # 14
    frequency:    9.7653330457
  - # 15
    frequency:   11.6319161474
  - # 16
    frequency:   11.7676511353
  - # 17
    frequency:   12.1352846879
  - # 18
    frequency:   13.9888649274
  - # 19
    frequency:   14.0786343345
  - # 20
    frequency:   26.7051631084
  - # 21
    frequency:   57.3533531289

- q-position: [    0.1313131,    0.0000000,    0.0000000 ]
  distance:    0.0427547
  band:
  - # 1
    frequency:    0.3884367713
  - # 2
    frequency:    0.6755099667
  - # 3
    frequency:    1.5113511807
  - # 4
    frequency:    1.9830843529
  - # 5
    frequency:    2.1775927680
  - # 6
    frequency:    3.5766582116
  - # 7
    frequency:    3.8604534366
  - # 8
    frequency:    4.8104423482
  - # 9
    frequency:    6.2620159405
  - # 10
    frequency:    6.5354864750
  - # 11
    frequency:    6.6993104487
  - # 12
    frequency:    6.9361021798
  - # 13
    frequency:    7.0288660819
  - # 14
    frequency:    9.7349464884
  - # 15
    frequency:   11.6077313373
  - # 16
    frequency:   11.7534386955
  - # 17
    frequency:   12.1314577396
  - # 18
    frequency:   13.9908891483
  - # 19
    frequency:   14.0872066466
  - # 20
    frequency:   26.7023060832
  - # 21
    frequency:   57.3185813542

- q-position: [    0.1363636,    0.0000000,    0.0000000 ]
  distance:    0.0443991
  band:
  - # 1
    frequency:    0.4648776430
  - # 2
    frequency:    0.7349252611
  - # 3
    frequency:    1.5863917335
  - # 4
    frequency:    2.0384855486
  - # 5
    frequency:    2.2441442563
  - # 6
    frequency:    3.5807213877
  - # 7
    frequency:    3.8739681828
  - # 8
    frequency:    4.8109499465
  - # 9
    frequency:    6.2348046680
  - # 10
    frequency:    6.5343883826
  - # 11
    frequency:    6.6959724138
  - # 12
    frequency:    6.9306696637
  - # 13
    frequency:    7.0346643201
  - # 14
    frequency:    9.7040464219
  - # 15
    frequency:   11.5828671692
  - # 16
    frequency:   11.7387908573
  - # 17
    frequency:   12.1274632090
  - # 18
    frequency:   13.9929157407
  - # 19
    frequency:   14.0959108678
  - # 20
    frequency:   26.6993742027
  - # 21
    frequency:   57.2830555711

- q-position: [    0.1414141,    0.0000000,    0.0000000 ]
  distance:    0.0460435
  band:
  - # 1
    frequency:    0.5321368478
  - # 2
    frequency:    0.7948679094
  - # 3
    frequency:    1.6603041953
  - # 4
    frequency:    2.0925539995
  - # 5
    frequency:    2.3093287334
  - # 6
    frequency:    3.5858205968
  - # 7
    frequency:    3.8874813127
  - # 8
    frequency:    4.8120205457
  - # 9
    frequency:    6.2077255432
  - # 10
    frequency:    6.5331183272
  - # 11
    frequency:    6.6909712809
  - # 12
    frequency:    6.9251268102
  - # 13
    frequency:    7.0417841551
  - # 14
    frequency:    9.6727074007
  - # 15
    frequency:   11.5573488575
  - # 16
    frequency:   11.7237171465
  - # 17
    frequency:   12.1233095888
  - # 18
    frequency:   13.9949390931
  - # 19
    frequency:   14.1047264114
  - # 20
    frequency:   26.6963717229
  - # 21
    frequency:   57.2468361967

- q-position: [    0.1464646,    0.0000000,    0.0000000 ]
  distance:    0.0476879
  band:
  - # 1
    frequency:    0.5932061367
  - # 2
    frequency:    0.8553543120
  - # 3
    frequency:    1.7331037894
  - # 4
    frequency:    2.1452867977
  - # 5
    frequency:    2.3730267652
  - # 6
    frequency:    3.5919906177
  - # 7
    frequency:    3.9010076860
  - # 8
    frequency:    4.8136710420
  - # 9
    frequency:    6.1808980549
  - # 10
    frequency:    6.5316680403
  - # 11
    frequency:    6.6843397198
  - # 12
    frequency:    6.9194909333
  - # 13
    frequency:    7.0501775459
  - # 14
    frequency:    9.6410046871
  - # 15
    frequency:   11.5312025563
  - # 16
    frequency:   11.7082268884
  - # 17
    frequency:   12.1190068007
  - # 18
    frequency:   13.9969538666
  - # 19
    frequency:   14.1136324737
  - # 20
    frequency:   26.6933030335
  - # 21
    frequency:   57.2099841926

- q-position: [    0.1515152,    0.0000000,    0.0000000 ]
  distance:    0.0493323
  band:
  - # 1
    frequency:    0.6497090733
  - # 2
    frequency:    0.9163701519
  - # 3
    frequency:    1.8048003604
  - # 4
    frequency:    2.1966863934
  - # 5
    frequency:    2.4351072252
  - # 6
    frequency:    3.5992566270
  - # 7
    frequency:    3.9145763019
  - # 8
    frequency:    4.8159075317
  - # 9
    frequency:    6.1544416322
  - # 10
    frequency:    6.5300304844
  - # 11
    frequency:    6.6761563685
  - # 12
    frequency:    6.9137800932
  - # 13
    frequency:    7.0597590747
  - # 14
    frequency:    9.6090138314
  - # 15
    frequency:   11.5044554838
  - # 16
    frequency:   11.6923292102
  - # 17
    frequency:   12.1145661659
  - # 18
    frequency:   13.9989550185
  - # 19
    frequency:   14.1226080979
  - # 20
    frequency:   26.6901726504
  - # 21
    frequency:   57.1725609063
