nqpoint: 300    
npath: 3      
segment_nqpoint:
- 100
- 100
- 100
labels:
- [ 'G', 'M' ]
- [ 'M', 'K' ]
- [ 'K', 'G' ]
reciprocal_lattice:
- [   0.32803257,   0.18938969,   0.00000000 ] # a*
- [   0.00000000,   0.37877938,   0.00000000 ] # b*
- [   0.00000000,   0.00000000,   0.03040700 ] # c*
natom: 7      
lattice:
- [     3.048477779468397,     0.000000000000000,     0.000000000000000 ] # a
- [    -1.524238889734199,     2.640059199910410,     0.000000000000000 ] # b
- [     0.000000000000000,     0.000000000000000,    32.887161417980998 ] # c
points:
- symbol: Cl # 1
  coordinates: [  0.333332985432215,  0.666666983183674,  0.726336977350704 ]
  mass: 35.453000
- symbol: Cl # 2
  coordinates: [  0.666666984744047,  0.333332985985145,  0.273663022649296 ]
  mass: 35.453000
- symbol: N # 3
  coordinates: [  0.000000000000000,  0.000000000000000,  0.500000030565465 ]
  mass: 14.006700
- symbol: O # 4
  coordinates: [  0.333332985432215,  0.666666983183674,  0.565998102304758 ]
  mass: 15.999400
- symbol: O # 5
  coordinates: [  0.666666984744047,  0.333332985985145,  0.434001897695250 ]
  mass: 15.999400
- symbol: Ti # 6
  coordinates: [  0.333332985432215,  0.666666983183674,  0.461184058814392 ]
  mass: 47.867000
- symbol: Ti # 7
  coordinates: [  0.666666984744047,  0.333332985985145,  0.538815940729407 ]
  mass: 47.867000

phonon:
- q-position: [    0.0000000,    0.0000000,    0.0000000 ]
  distance:    0.0000000
  band:
  - # 1
    frequency:   -4.8996402069
  - # 2
    frequency:   -4.8996402069
  - # 3
    frequency:   -0.3887544607
  - # 4
    frequency:   -0.2755403120
  - # 5
    frequency:   -0.0000039408
  - # 6
    frequency:    0.0000018722
  - # 7
    frequency:    0.0000035042
  - # 8
    frequency:    0.0737336435
  - # 9
    frequency:    0.0737336435
  - # 10
    frequency:    0.0851717443
  - # 11
    frequency:    0.0851717443
  - # 12
    frequency:    6.7939464293
  - # 13
    frequency:    6.7939464293
  - # 14
    frequency:    8.1665954024
  - # 15
    frequency:    9.6532712697
  - # 16
    frequency:    9.6532712697
  - # 17
    frequency:   13.5402238919
  - # 18
    frequency:   13.5402238919
  - # 19
    frequency:   16.5068774733
  - # 20
    frequency:   16.9732598641
  - # 21
    frequency:   18.9798192328

- q-position: [    0.0050505,    0.0000000,    0.0000000 ]
  distance:    0.0019130
  band:
  - # 1
    frequency:   -4.9058916375
  - # 2
    frequency:   -4.9004063974
  - # 3
    frequency:   -0.3874688310
  - # 4
    frequency:   -0.2776611431
  - # 5
    frequency:   -0.1877706810
  - # 6
    frequency:   -0.1775082291
  - # 7
    frequency:   -0.1130690137
  - # 8
    frequency:   -0.0940977538
  - # 9
    frequency:   -0.0519302485
  - # 10
    frequency:    0.1132354874
  - # 11
    frequency:    0.1692361533
  - # 12
    frequency:    6.7909098295
  - # 13
    frequency:    6.7969192898
  - # 14
    frequency:    8.1649044256
  - # 15
    frequency:    9.6485802241
  - # 16
    frequency:    9.6525742746
  - # 17
    frequency:   13.5397569631
  - # 18
    frequency:   13.5398927741
  - # 19
    frequency:   16.5065224797
  - # 20
    frequency:   16.9722682926
  - # 21
    frequency:   18.9778496935

- q-position: [    0.0101010,    0.0000000,    0.0000000 ]
  distance:    0.0038261
  band:
  - # 1
    frequency:   -4.9245792783
  - # 2
    frequency:   -4.9026669455
  - # 3
    frequency:   -0.3943225263
  - # 4
    frequency:   -0.3850620954
  - # 5
    frequency:   -0.3779438507
  - # 6
    frequency:   -0.2846652612
  - # 7
    frequency:   -0.2468640140
  - # 8
    frequency:   -0.2389458319
  - # 9
    frequency:   -0.0976987326
  - # 10
    frequency:    0.2117628424
  - # 11
    frequency:    0.3296912347
  - # 12
    frequency:    6.7818685108
  - # 13
    frequency:    6.8057723386
  - # 14
    frequency:    8.1598024743
  - # 15
    frequency:    9.6345758108
  - # 16
    frequency:    9.6504690264
  - # 17
    frequency:   13.5383542266
  - # 18
    frequency:   13.5388938980
  - # 19
    frequency:   16.5054561342
  - # 20
    frequency:   16.9692946158
  - # 21
    frequency:   18.9719515386

- q-position: [    0.0151515,    0.0000000,    0.0000000 ]
  distance:    0.0057391
  band:
  - # 1
    frequency:   -4.9555040524
  - # 2
    frequency:   -4.9063083999
  - # 3
    frequency:   -0.5874694676
  - # 4
    frequency:   -0.5840169008
  - # 5
    frequency:   -0.3757846340
  - # 6
    frequency:   -0.3754254679
  - # 7
    frequency:   -0.3704362915
  - # 8
    frequency:   -0.3039896063
  - # 9
    frequency:   -0.1270922749
  - # 10
    frequency:    0.3137426620
  - # 11
    frequency:    0.4918355861
  - # 12
    frequency:    6.7670253414
  - # 13
    frequency:    6.8203069546
  - # 14
    frequency:    8.1512028191
  - # 15
    frequency:    9.6114672897
  - # 16
    frequency:    9.6469139208
  - # 17
    frequency:   13.5360099092
  - # 18
    frequency:   13.5372108308
  - # 19
    frequency:   16.5036743305
  - # 20
    frequency:   16.9643420054
  - # 21
    frequency:   18.9621561272

- q-position: [    0.0202020,    0.0000000,    0.0000000 ]
  distance:    0.0076521
  band:
  - # 1
    frequency:   -4.9983370668
  - # 2
    frequency:   -4.9111437270
  - # 3
    frequency:   -0.7835256367
  - # 4
    frequency:   -0.7808469500
  - # 5
    frequency:   -0.5030299565
  - # 6
    frequency:   -0.4988269403
  - # 7
    frequency:   -0.3650916467
  - # 8
    frequency:   -0.3370978286
  - # 9
    frequency:   -0.1342544273
  - # 10
    frequency:    0.4163484274
  - # 11
    frequency:    0.6539553999
  - # 12
    frequency:    6.7467100308
  - # 13
    frequency:    6.8401845266
  - # 14
    frequency:    8.1389628597
  - # 15
    frequency:    9.5796136117
  - # 16
    frequency:    9.6418434330
  - # 17
    frequency:   13.5327146397
  - # 18
    frequency:   13.5348166369
  - # 19
    frequency:   16.5011701849
  - # 20
    frequency:   16.9574159396
  - # 21
    frequency:   18.9485156237

- q-position: [    0.0252525,    0.0000000,    0.0000000 ]
  distance:    0.0095651
  band:
  - # 1
    frequency:   -5.0526239078
  - # 2
    frequency:   -4.9169153430
  - # 3
    frequency:   -0.9782444540
  - # 4
    frequency:   -0.9759762375
  - # 5
    frequency:   -0.6291381067
  - # 6
    frequency:   -0.6255706725
  - # 7
    frequency:   -0.3793667731
  - # 8
    frequency:   -0.3510265061
  - # 9
    frequency:   -0.1194552194
  - # 10
    frequency:    0.5190431167
  - # 11
    frequency:    0.8155936822
  - # 12
    frequency:    6.7213671047
  - # 13
    frequency:    6.8649119794
  - # 14
    frequency:    8.1228902991
  - # 15
    frequency:    9.5395381729
  - # 16
    frequency:    9.6351734002
  - # 17
    frequency:   13.5284558148
  - # 18
    frequency:   13.5316745596
  - # 19
    frequency:   16.4979339840
  - # 20
    frequency:   16.9485244803
  - # 21
    frequency:   18.9311028435

- q-position: [    0.0303030,    0.0000000,    0.0000000 ]
  distance:    0.0114782
  band:
  - # 1
    frequency:   -5.1177905550
  - # 2
    frequency:   -4.9232992688
  - # 3
    frequency:   -1.1714392077
  - # 4
    frequency:   -1.1694201901
  - # 5
    frequency:   -0.7541829076
  - # 6
    frequency:   -0.7510139894
  - # 7
    frequency:   -0.4240308360
  - # 8
    frequency:   -0.3328614246
  - # 9
    frequency:   -0.0779798779
  - # 10
    frequency:    0.6216137393
  - # 11
    frequency:    0.9764771711
  - # 12
    frequency:    6.6915401638
  - # 13
    frequency:    6.8938145393
  - # 14
    frequency:    8.1027595760
  - # 15
    frequency:    9.4919479723
  - # 16
    frequency:    9.6268076194
  - # 17
    frequency:   13.5232180894
  - # 18
    frequency:   13.5277389813
  - # 19
    frequency:   16.4939531236
  - # 20
    frequency:   16.9376786390
  - # 21
    frequency:   18.9100110307

- q-position: [    0.0353535,    0.0000000,    0.0000000 ]
  distance:    0.0133912
  band:
  - # 1
    frequency:   -5.1931508479
  - # 2
    frequency:   -4.9299103109
  - # 3
    frequency:   -1.3628892563
  - # 4
    frequency:   -1.3610324427
  - # 5
    frequency:   -0.8781056843
  - # 6
    frequency:   -0.8752087920
  - # 7
    frequency:   -0.4667954958
  - # 8
    frequency:   -0.3096915812
  - # 9
    frequency:    0.0747209357
  - # 10
    frequency:    0.7239324732
  - # 11
    frequency:    1.1363731807
  - # 12
    frequency:    6.6578533730
  - # 13
    frequency:    6.9259867509
  - # 14
    frequency:    8.0783496474
  - # 15
    frequency:    9.4377545513
  - # 16
    frequency:    9.6166451348
  - # 17
    frequency:   13.5169839728
  - # 18
    frequency:   13.5229566579
  - # 19
    frequency:   16.4892120516
  - # 20
    frequency:   16.9248928124
  - # 21
    frequency:   18.8853535593

- q-position: [    0.0404040,    0.0000000,    0.0000000 ]
  distance:    0.0153042
  band:
  - # 1
    frequency:   -5.2779154402
  - # 2
    frequency:   -4.9363081479
  - # 3
    frequency:   -1.5523531129
  - # 4
    frequency:   -1.5506065616
  - # 5
    frequency:   -1.0007991671
  - # 6
    frequency:   -0.9981008815
  - # 7
    frequency:   -0.5050486345
  - # 8
    frequency:   -0.2801404122
  - # 9
    frequency:    0.1423514539
  - # 10
    frequency:    0.8258994661
  - # 11
    frequency:    1.2950521866
  - # 12
    frequency:    6.6209912284
  - # 13
    frequency:    6.9602067087
  - # 14
    frequency:    8.0495227271
  - # 15
    frequency:    9.3780916752
  - # 16
    frequency:    9.6045876053
  - # 17
    frequency:   13.5097345058
  - # 18
    frequency:   13.5172682189
  - # 19
    frequency:   16.4836922303
  - # 20
    frequency:   16.9101852658
  - # 21
    frequency:   18.8572635520

- q-position: [    0.0454545,    0.0000000,    0.0000000 ]
  distance:    0.0172172
  band:
  - # 1
    frequency:   -5.3712021768
  - # 2
    frequency:   -4.9420041726
  - # 3
    frequency:   -1.7395808461
  - # 4
    frequency:   -1.7379113788
  - # 5
    frequency:   -1.1221357002
  - # 6
    frequency:   -1.1195909582
  - # 7
    frequency:   -0.5370244064
  - # 8
    frequency:   -0.2416775098
  - # 9
    frequency:    0.1943942668
  - # 10
    frequency:    0.9274237205
  - # 11
    frequency:    1.4522717573
  - # 12
    frequency:    6.5816776726
  - # 13
    frequency:    6.9947893298
  - # 14
    frequency:    8.0163763097
  - # 15
    frequency:    9.3143212828
  - # 16
    frequency:    9.5905462326
  - # 17
    frequency:   13.5014499963
  - # 18
    frequency:   13.5106099109
  - # 19
    frequency:   16.4773721310
  - # 20
    frequency:   16.8935786381
  - # 21
    frequency:   18.8258934020

- q-position: [    0.0505051,    0.0000000,    0.0000000 ]
  distance:    0.0191303
  band:
  - # 1
    frequency:   -5.4720478036
  - # 2
    frequency:   -4.9464689236
  - # 3
    frequency:   -1.9243202025
  - # 4
    frequency:   -1.9227055492
  - # 5
    frequency:   -1.2419786946
  - # 6
    frequency:   -1.2395587608
  - # 7
    frequency:   -0.5613048173
  - # 8
    frequency:   -0.1886437616
  - # 9
    frequency:    0.2411062829
  - # 10
    frequency:    1.0284151094
  - # 11
    frequency:    1.6077654165
  - # 12
    frequency:    6.5406555813
  - # 13
    frequency:    7.0273440799
  - # 14
    frequency:    7.9795151133
  - # 15
    frequency:    9.2480155788
  - # 16
    frequency:    9.5744478663
  - # 17
    frequency:   13.4921107847
  - # 18
    frequency:   13.5029155533
  - # 19
    frequency:   16.4702272821
  - # 20
    frequency:   16.8751004480
  - # 21
    frequency:   18.7914141882

- q-position: [    0.0555556,    0.0000000,    0.0000000 ]
  distance:    0.0210433
  band:
  - # 1
    frequency:   -5.5794208653
  - # 2
    frequency:   -4.9491399296
  - # 3
    frequency:   -2.1063198154
  - # 4
    frequency:   -2.1047444444
  - # 5
    frequency:   -1.3601879890
  - # 6
    frequency:   -1.3578740638
  - # 7
    frequency:   -0.5765625147
  - # 8
    frequency:   -0.0994627682
  - # 9
    frequency:    0.2852097918
  - # 10
    frequency:    1.1287804165
  - # 11
    frequency:    1.7612315692
  - # 12
    frequency:    6.4986675493
  - # 13
    frequency:    7.0544056695
  - # 14
    frequency:    7.9404882592
  - # 15
    frequency:    9.1809016848
  - # 16
    frequency:    9.5562400541
  - # 17
    frequency:   13.4816980159
  - # 18
    frequency:   13.4941186621
  - # 19
    frequency:   16.4622303833
  - # 20
    frequency:   16.8547835768
  - # 21
    frequency:   18.7540149650

- q-position: [    0.0606061,    0.0000000,    0.0000000 ]
  distance:    0.0229563
  band:
  - # 1
    frequency:   -5.6922355714
  - # 2
    frequency:   -4.9494298022
  - # 3
    frequency:   -2.2853310795
  - # 4
    frequency:   -2.2837838242
  - # 5
    frequency:   -1.4766226687
  - # 6
    frequency:   -1.4744022620
  - # 7
    frequency:   -0.5813791167
  - # 8
    frequency:    0.1371254722
  - # 9
    frequency:    0.3279080533
  - # 10
    frequency:    1.2284210931
  - # 11
    frequency:    1.9123201370
  - # 12
    frequency:    6.4564387583
  - # 13
    frequency:    7.0709802943
  - # 14
    frequency:    7.9023585346
  - # 15
    frequency:    9.1147601099
  - # 16
    frequency:    9.5358949385
  - # 17
    frequency:   13.4701943942
  - # 18
    frequency:   13.4841546918
  - # 19
    frequency:   16.4533515048
  - # 20
    frequency:   16.8326667106
  - # 21
    frequency:   18.7139019131

- q-position: [    0.0656566,    0.0000000,    0.0000000 ]
  distance:    0.0248694
  band:
  - # 1
    frequency:   -5.8093663109
  - # 2
    frequency:   -4.9467344358
  - # 3
    frequency:   -2.4611093740
  - # 4
    frequency:   -2.4595820099
  - # 5
    frequency:   -1.5911427088
  - # 6
    frequency:   -1.5890074732
  - # 7
    frequency:   -0.5740461906
  - # 8
    frequency:    0.2250355040
  - # 9
    frequency:    0.3698613760
  - # 10
    frequency:    1.3272318715
  - # 11
    frequency:    2.0606149054
  - # 12
    frequency:    6.4146625256
  - # 13
    frequency:    7.0703275670
  - # 14
    frequency:    7.8700790102
  - # 15
    frequency:    9.0512828843
  - # 16
    frequency:    9.5134120195
  - # 17
    frequency:   13.4575849005
  - # 18
    frequency:   13.4729633401
  - # 19
    frequency:   16.4435583863
  - # 20
    frequency:   16.8087947259
  - # 21
    frequency:   18.6712973287

- q-position: [    0.0707071,    0.0000000,    0.0000000 ]
  distance:    0.0267824
  band:
  - # 1
    frequency:   -5.9296624159
  - # 2
    frequency:   -4.9404412294
  - # 3
    frequency:   -2.6334149452
  - # 4
    frequency:   -2.6319012974
  - # 5
    frequency:   -1.7036100252
  - # 6
    frequency:   -1.7015544051
  - # 7
    frequency:   -0.5522519821
  - # 8
    frequency:    0.2928577509
  - # 9
    frequency:    0.4114817573
  - # 10
    frequency:    1.4250998890
  - # 11
    frequency:    2.2056091173
  - # 12
    frequency:    6.3739889244
  - # 13
    frequency:    7.0447903506
  - # 14
    frequency:    7.8498393452
  - # 15
    frequency:    8.9919188986
  - # 16
    frequency:    9.4888198716
  - # 17
    frequency:   13.4438574554
  - # 18
    frequency:   13.4604908608
  - # 19
    frequency:   16.4328168477
  - # 20
    frequency:   16.7832190095
  - # 21
    frequency:   18.6264384343

- q-position: [    0.0757576,    0.0000000,    0.0000000 ]
  distance:    0.0286954
  band:
  - # 1
    frequency:   -6.0519627109
  - # 2
    frequency:   -4.9299373271
  - # 3
    frequency:   -2.8020135950
  - # 4
    frequency:   -2.8005089586
  - # 5
    frequency:   -1.8138892030
  - # 6
    frequency:   -1.8119095626
  - # 7
    frequency:   -0.5124495286
  - # 8
    frequency:    0.3526031993
  - # 9
    frequency:    0.4530517751
  - # 10
    frequency:    1.5219041829
  - # 11
    frequency:    2.3466707327
  - # 12
    frequency:    6.3350166339
  - # 13
    frequency:    6.9882830672
  - # 14
    frequency:    7.8467306807
  - # 15
    frequency:    8.9377502940
  - # 16
    frequency:    9.4621769551
  - # 17
    frequency:   13.4290035142
  - # 18
    frequency:   13.4466923315
  - # 19
    frequency:   16.4210913231
  - # 20
    frequency:   16.7559977059
  - # 21
    frequency:   18.5795759877

- q-position: [    0.0808081,    0.0000000,    0.0000000 ]
  distance:    0.0306084
  band:
  - # 1
    frequency:   -6.1751093716
  - # 2
    frequency:   -4.9146179903
  - # 3
    frequency:   -2.9666772522
  - # 4
    frequency:   -2.9651780027
  - # 5
    frequency:   -1.9218480399
  - # 6
    frequency:   -1.9199420822
  - # 7
    frequency:   -0.4482508975
  - # 8
    frequency:    0.4080284171
  - # 9
    frequency:    0.4947843070
  - # 10
    frequency:    1.6175155091
  - # 11
    frequency:    2.4829918613
  - # 12
    frequency:    6.2982879543
  - # 13
    frequency:    6.8989150321
  - # 14
    frequency:    7.8622184764
  - # 15
    frequency:    8.8894392610
  - # 16
    frequency:    9.4335716765
  - # 17
    frequency:   13.4130185865
  - # 18
    frequency:   13.4315338331
  - # 19
    frequency:   16.4083455233
  - # 20
    frequency:   16.7271958932
  - # 21
    frequency:   18.5309726718

- q-position: [    0.0858586,    0.0000000,    0.0000000 ]
  distance:    0.0325215
  band:
  - # 1
    frequency:   -6.2979606506
  - # 2
    frequency:   -4.8938953889
  - # 3
    frequency:   -3.1271844665
  - # 4
    frequency:   -3.1256877870
  - # 5
    frequency:   -2.0273579747
  - # 6
    frequency:   -2.0255243448
  - # 7
    frequency:   -0.3446823031
  - # 8
    frequency:    0.4608684169
  - # 9
    frequency:    0.5368629753
  - # 10
    frequency:    1.7117964864
  - # 11
    frequency:    2.6135137274
  - # 12
    frequency:    6.2642867183
  - # 13
    frequency:    6.7790614491
  - # 14
    frequency:    7.8941069498
  - # 15
    frequency:    8.8472573152
  - # 16
    frequency:    9.4031218498
  - # 17
    frequency:   13.3959026738
  - # 18
    frequency:   13.4149945019
  - # 19
    frequency:   16.3945432299
  - # 20
    frequency:   16.6968856922
  - # 21
    frequency:   18.4809012464

- q-position: [    0.0909091,    0.0000000,    0.0000000 ]
  distance:    0.0344345
  band:
  - # 1
    frequency:   -6.4194021085
  - # 2
    frequency:   -4.8672083433
  - # 3
    frequency:   -3.2833208459
  - # 4
    frequency:   -3.2818245281
  - # 5
    frequency:   -2.1302944424
  - # 6
    frequency:   -2.1285324489
  - # 7
    frequency:   -0.1243327733
  - # 8
    frequency:    0.5120823968
  - # 9
    frequency:    0.5794896503
  - # 10
    frequency:    1.8046020933
  - # 11
    frequency:    2.7368135282
  - # 12
    frequency:    6.2334386658
  - # 13
    frequency:    6.6333075279
  - # 14
    frequency:    7.9386033049
  - # 15
    frequency:    8.8111767100
  - # 16
    frequency:    9.3709736991
  - # 17
    frequency:   13.3776606228
  - # 18
    frequency:   13.3970684259
  - # 19
    frequency:   16.3796492147
  - # 20
    frequency:   16.6651463180
  - # 21
    frequency:   18.4296424500

- q-position: [    0.0959596,    0.0000000,    0.0000000 ]
  distance:    0.0363475
  band:
  - # 1
    frequency:   -6.5383560995
  - # 2
    frequency:   -4.8340339224
  - # 3
    frequency:   -3.4348794519
  - # 4
    frequency:   -3.4333817380
  - # 5
    frequency:   -2.2305371767
  - # 6
    frequency:   -2.2288465926
  - # 7
    frequency:    0.3306892989
  - # 8
    frequency:    0.5622608215
  - # 9
    frequency:    0.6229952689
  - # 10
    frequency:    1.8957805616
  - # 11
    frequency:    2.8509319530
  - # 12
    frequency:    6.2061137436
  - # 13
    frequency:    6.4667464994
  - # 14
    frequency:    7.9920584913
  - # 15
    frequency:    8.7809873348
  - # 16
    frequency:    9.3373005201
  - # 17
    frequency:   13.3583023981
  - # 18
    frequency:   13.3777663645
  - # 19
    frequency:   16.3636302710
  - # 20
    frequency:   16.6320640884
  - # 21
    frequency:   18.3774826467

- q-position: [    0.1010101,    0.0000000,    0.0000000 ]
  distance:    0.0382605
  band:
  - # 1
    frequency:   -6.6537893862
  - # 2
    frequency:   -4.7939023780
  - # 3
    frequency:   -3.5816611574
  - # 4
    frequency:   -3.5801605968
  - # 5
    frequency:   -2.3279704756
  - # 6
    frequency:   -2.3263513930
  - # 7
    frequency:    0.5046270238
  - # 8
    frequency:    0.6117991958
  - # 9
    frequency:    0.6682937722
  - # 10
    frequency:    1.9851747189
  - # 11
    frequency:    2.9531100483
  - # 12
    frequency:    6.1826297362
  - # 13
    frequency:    6.2845047776
  - # 14
    frequency:    8.0515737827
  - # 15
    frequency:    8.7564076145
  - # 16
    frequency:    9.3023010949
  - # 17
    frequency:   13.3378432745
  - # 18
    frequency:   13.3571172768
  - # 19
    frequency:   16.3464563335
  - # 20
    frequency:   16.5977324076
  - # 21
    frequency:   18.3247112222

- q-position: [    0.1060606,    0.0000000,    0.0000000 ]
  distance:    0.0401736
  band:
  - # 1
    frequency:   -6.7647188824
  - # 2
    frequency:   -4.7464178334
  - # 3
    frequency:   -3.7234749726
  - # 4
    frequency:   -3.7219702575
  - # 5
    frequency:   -2.4224834367
  - # 6
    frequency:   -2.4209361589
  - # 7
    frequency:    0.6425918258
  - # 8
    frequency:    0.6611008509
  - # 9
    frequency:    0.7202144062
  - # 10
    frequency:    2.0726238372
  - # 11
    frequency:    3.0393958100
  - # 12
    frequency:    6.0920557681
  - # 13
    frequency:    6.1632566420
  - # 14
    frequency:    8.1149666045
  - # 15
    frequency:    8.7371743649
  - # 16
    frequency:    9.2661979327
  - # 17
    frequency:   13.3163039570
  - # 18
    frequency:   13.3351696486
  - # 19
    frequency:   16.3281016478
  - # 20
    frequency:   16.5622517469
  - # 21
    frequency:   18.2716177490

- q-position: [    0.1111111,    0.0000000,    0.0000000 ]
  distance:    0.0420866
  band:
  - # 1
    frequency:   -6.8702156228
  - # 2
    frequency:   -4.6912887055
  - # 3
    frequency:   -3.8601383393
  - # 4
    frequency:   -3.8586280464
  - # 5
    frequency:   -2.5139701693
  - # 6
    frequency:   -2.5124951291
  - # 7
    frequency:    0.7097221393
  - # 8
    frequency:    0.7337411336
  - # 9
    frequency:    0.8066744027
  - # 10
    frequency:    2.1579660379
  - # 11
    frequency:    3.1040936031
  - # 12
    frequency:    5.8958848035
  - # 13
    frequency:    6.1482212575
  - # 14
    frequency:    8.1805612791
  - # 15
    frequency:    8.7231122593
  - # 16
    frequency:    9.2292353893
  - # 17
    frequency:   13.2937106324
  - # 18
    frequency:   13.3119926107
  - # 19
    frequency:   16.3085459368
  - # 20
    frequency:   16.5257296468
  - # 21
    frequency:   18.2184889565

- q-position: [    0.1161616,    0.0000000,    0.0000000 ]
  distance:    0.0439996
  band:
  - # 1
    frequency:   -6.9694071405
  - # 2
    frequency:   -4.6283745645
  - # 3
    frequency:   -3.9914773886
  - # 4
    frequency:   -3.9899594156
  - # 5
    frequency:   -2.6023299850
  - # 6
    frequency:   -2.6009276821
  - # 7
    frequency:    0.7586339996
  - # 8
    frequency:    0.7869419244
  - # 9
    frequency:    0.9232104254
  - # 10
    frequency:    2.2410412900
  - # 11
    frequency:    3.1391229571
  - # 12
    frequency:    5.7042592533
  - # 13
    frequency:    6.1377115173
  - # 14
    frequency:    8.2469801039
  - # 15
    frequency:    8.7141935030
  - # 16
    frequency:    9.1916777028
  - # 17
    frequency:   13.2700949623
  - # 18
    frequency:   13.2876768394
  - # 19
    frequency:   16.2877754946
  - # 20
    frequency:   16.4882807670
  - # 21
    frequency:   18.1656055619

- q-position: [    0.1212121,    0.0000000,    0.0000000 ]
  distance:    0.0459127
  band:
  - # 1
    frequency:   -7.0614784789
  - # 2
    frequency:   -4.5577611847
  - # 3
    frequency:   -4.1173271411
  - # 4
    frequency:   -4.1157969770
  - # 5
    frequency:   -2.6874675693
  - # 6
    frequency:   -2.6861385220
  - # 7
    frequency:    0.8075365526
  - # 8
    frequency:    0.8343622668
  - # 9
    frequency:    1.0400050772
  - # 10
    frequency:    2.3216950185
  - # 11
    frequency:    3.1336530721
  - # 12
    frequency:    5.5277145189
  - # 13
    frequency:    6.1318802448
  - # 14
    frequency:    8.3129624505
  - # 15
    frequency:    8.7106029658
  - # 16
    frequency:    9.1538069683
  - # 17
    frequency:   13.2454940228
  - # 18
    frequency:   13.2623352317
  - # 19
    frequency:   16.2657841210
  - # 20
    frequency:   16.4500270103
  - # 21
    frequency:   18.1132390386

- q-position: [    0.1262626,    0.0000000,    0.0000000 ]
  distance:    0.0478257
  band:
  - # 1
    frequency:   -7.1456720868
  - # 2
    frequency:   -4.4798879167
  - # 3
    frequency:   -4.2375314771
  - # 4
    frequency:   -4.2359735490
  - # 5
    frequency:   -2.7692931366
  - # 6
    frequency:   -2.7680378431
  - # 7
    frequency:    0.8565218624
  - # 8
    frequency:    0.8809658721
  - # 9
    frequency:    1.1523531304
  - # 10
    frequency:    2.3997823004
  - # 11
    frequency:    3.0749510375
  - # 12
    frequency:    5.3783784172
  - # 13
    frequency:    6.1308480867
  - # 14
    frequency:    8.3771975696
  - # 15
    frequency:    8.7128225046
  - # 16
    frequency:    9.1159210686
  - # 17
    frequency:   13.2199501986
  - # 18
    frequency:   13.2361033398
  - # 19
    frequency:   16.2425737994
  - # 20
    frequency:   16.4110977436
  - # 21
    frequency:   18.0616484202

- q-position: [    0.1313131,    0.0000000,    0.0000000 ]
  distance:    0.0497387
  band:
  - # 1
    frequency:   -7.2212868453
  - # 2
    frequency:   -4.3959469076
  - # 3
    frequency:   -4.3519376285
  - # 4
    frequency:   -4.3501272243
  - # 5
    frequency:   -2.8477225684
  - # 6
    frequency:   -2.8465414765
  - # 7
    frequency:    0.9056265191
  - # 8
    frequency:    0.9276244320
  - # 9
    frequency:    1.2580696818
  - # 10
    frequency:    2.4751725836
  - # 11
    frequency:    2.9516475093
  - # 12
    frequency:    5.2671290926
  - # 13
    frequency:    6.1347055258
  - # 14
    frequency:    8.4381709996
  - # 15
    frequency:    8.7217260269
  - # 16
    frequency:    9.0783315693
  - # 17
    frequency:   13.1935110397
  - # 18
    frequency:   13.2091395484
  - # 19
    frequency:   16.2181550208
  - # 20
    frequency:   16.3716301246
  - # 21
    frequency:   18.0110772541

- q-position: [    0.1363636,    0.0000000,    0.0000000 ]
  distance:    0.0516517
  band:
  - # 1
    frequency:   -7.2876764581
  - # 2
    frequency:   -4.4604373993
  - # 3
    frequency:   -4.4590237486
  - # 4
    frequency:   -4.3068505273
  - # 5
    frequency:   -2.9226775350
  - # 6
    frequency:   -2.9215710176
  - # 7
    frequency:    0.9548432562
  - # 8
    frequency:    0.9745879159
  - # 9
    frequency:    1.3526624873
  - # 10
    frequency:    2.5477548079
  - # 11
    frequency:    2.7593126044
  - # 12
    frequency:    5.1993769336
  - # 13
    frequency:    6.1435139862
  - # 14
    frequency:    8.4941158011
  - # 15
    frequency:    8.7385864775
  - # 16
    frequency:    9.0413615862
  - # 17
    frequency:   13.1662290849
  - # 18
    frequency:   13.1816249722
  - # 19
    frequency:   16.1925466799
  - # 20
    frequency:   16.3317695149
  - # 21
    frequency:   17.9617508298

- q-position: [    0.1414141,    0.0000000,    0.0000000 ]
  distance:    0.0535648
  band:
  - # 1
    frequency:   -7.3442474078
  - # 2
    frequency:   -4.5628660320
  - # 3
    frequency:   -4.5614016273
  - # 4
    frequency:   -4.2170330109
  - # 5
    frequency:   -2.9940856031
  - # 6
    frequency:   -2.9930539377
  - # 7
    frequency:    1.0040736417
  - # 8
    frequency:    1.0219418987
  - # 9
    frequency:    1.4235009771
  - # 10
    frequency:    2.5075906324
  - # 11
    frequency:    2.6174427494
  - # 12
    frequency:    5.1730103501
  - # 13
    frequency:    6.1573061505
  - # 14
    frequency:    8.5433530072
  - # 15
    frequency:    8.7647049287
  - # 16
    frequency:    9.0053436281
  - # 17
    frequency:   13.1381616607
  - # 18
    frequency:   13.1537630463
  - # 19
    frequency:   16.1657755359
  - # 20
    frequency:   16.2916698940
  - # 21
    frequency:   17.9138738060

- q-position: [    0.1464646,    0.0000000,    0.0000000 ]
  distance:    0.0554778
  band:
  - # 1
    frequency:   -7.3904566533
  - # 2
    frequency:   -4.6591235199
  - # 3
    frequency:   -4.6576458380
  - # 4
    frequency:   -4.1315085813
  - # 5
    frequency:   -3.0618803264
  - # 6
    frequency:   -3.0609236790
  - # 7
    frequency:    1.0528410567
  - # 8
    frequency:    1.0697026756
  - # 9
    frequency:    1.4283040873
  - # 10
    frequency:    2.2387349170
  - # 11
    frequency:    2.6841803514
  - # 12
    frequency:    5.1805810796
  - # 13
    frequency:    6.1760857019
  - # 14
    frequency:    8.5852459388
  - # 15
    frequency:    8.8004334361
  - # 16
    frequency:    8.9706174207
  - # 17
    frequency:   13.1093706580
  - # 18
    frequency:   13.1257787784
  - # 19
    frequency:   16.1378753777
  - # 20
    frequency:   16.2514940583
  - # 21
    frequency:   17.8676283540

- q-position: [    0.1515152,    0.0000000,    0.0000000 ]
  distance:    0.0573908
  band:
  - # 1
    frequency:   -7.4258092066
  - # 2
    frequency:   -4.7491009730
  - # 3
    frequency:   -4.7476186907
  - # 4
    frequency:   -4.0592449828
  - # 5
    frequency:   -3.1260013225
  - # 6
    frequency:   -3.1251197333
  - # 7
    frequency:    1.0952569587
  - # 8
    frequency:    1.1177671780
  - # 9
    frequency:    1.2541662601
  - # 10
    frequency:    2.0661907441
  - # 11
    frequency:    2.7479467623
  - # 12
    frequency:    5.2131892422
  - # 13
    frequency:    6.1998267709
  - # 14
    frequency:    8.6209959150
  - # 15
    frequency:    8.8443616156
  - # 16
    frequency:    8.9375277148
  - # 17
    frequency:   13.0799222944
  - # 18
    frequency:   13.0979176319
  - # 19
    frequency:   16.1088862902
  - # 20
    frequency:   16.2114131534
  - # 21