nqpoint: 300    
npath: 3      
segment_nqpoint:
- 100
- 100
- 100
labels:
- [ 'G', 'M' ]
- [ 'M', 'K' ]
- [ 'K', 'G' ]
reciprocal_lattice:
- [   0.30000232,   0.17320642,   0.00000000 ] # a*
- [   0.00000000,   0.34641284,   0.00000000 ] # b*
- [   0.00000000,   0.00000000,   0.03867022 ] # c*
natom: 7      
lattice:
- [     3.333307560836419,     0.000000000000000,     0.000000000000000 ] # a
- [    -1.666653780418209,     2.886729026310671,     0.000000000000000 ] # b
- [     0.000000000000000,     0.000000000000000,    25.859693166859980 ] # c
points:
- symbol: C # 1
  coordinates: [  0.666666984744047,  0.333332985985145,  0.393968519964466 ]
  mass: 12.010700
- symbol: Cl # 2
  coordinates: [  0.333332985432215,  0.666666983183674,  0.651968028316214 ]
  mass: 35.453000
- symbol: N # 3
  coordinates: [  0.000000000000000,  0.000000000000000,  0.539416965013019 ]
  mass: 14.006700
- symbol: N # 4
  coordinates: [  0.666666984744047,  0.333332985985145,  0.348031971683786 ]
  mass: 14.006700
- symbol: O # 5
  coordinates: [  0.666666984744047,  0.333332985985145,  0.445670158897090 ]
  mass: 15.999400
- symbol: Sc # 6
  coordinates: [  0.333332985432215,  0.666666983183674,  0.493804064147250 ]
  mass: 44.955912
- symbol: Sc # 7
  coordinates: [  0.666666984744047,  0.333332985985145,  0.586438317303194 ]
  mass: 44.955912

phonon:
- q-position: [    0.0000000,    0.0000000,    0.0000000 ]
  distance:    0.0000000
  band:
  - # 1
    frequency:   -0.0000038335
  - # 2
    frequency:   -0.0000002584
  - # 3
    frequency:    0.0000035517
  - # 4
    frequency:    1.2362703673
  - # 5
    frequency:    1.2362703673
  - # 6
    frequency:    4.2595322506
  - # 7
    frequency:    4.2595322506
  - # 8
    frequency:    5.5999524364
  - # 9
    frequency:    6.8903814930
  - # 10
    frequency:    6.8903814930
  - # 11
    frequency:    7.5790463918
  - # 12
    frequency:    7.5790463918
  - # 13
    frequency:    9.2032974550
  - # 14
    frequency:   11.8581719367
  - # 15
    frequency:   13.3670877686
  - # 16
    frequency:   13.3670877686
  - # 17
    frequency:   13.5080662816
  - # 18
    frequency:   14.2058669021
  - # 19
    frequency:   14.2058669021
  - # 20
    frequency:   32.0500856675
  - # 21
    frequency:   67.9905571707

- q-position: [    0.0050505,    0.0000000,    0.0000000 ]
  distance:    0.0017496
  band:
  - # 1
    frequency:   -0.1481280902
  - # 2
    frequency:   -0.1355228716
  - # 3
    frequency:    0.0019693682
  - # 4
    frequency:    1.2468859177
  - # 5
    frequency:    1.2487550110
  - # 6
    frequency:    4.2594822491
  - # 7
    frequency:    4.2605701358
  - # 8
    frequency:    5.5996944970
  - # 9
    frequency:    6.8900514782
  - # 10
    frequency:    6.8901104188
  - # 11
    frequency:    7.5791215676
  - # 12
    frequency:    7.5791297385
  - # 13
    frequency:    9.2028890572
  - # 14
    frequency:   11.8564102010
  - # 15
    frequency:   13.3657854417
  - # 16
    frequency:   13.3672245706
  - # 17
    frequency:   13.5079173798
  - # 18
    frequency:   14.2055121050
  - # 19
    frequency:   14.2058338605
  - # 20
    frequency:   32.0495507913
  - # 21
    frequency:   67.9902893061

- q-position: [    0.0101010,    0.0000000,    0.0000000 ]
  distance:    0.0034991
  band:
  - # 1
    frequency:   -0.2877183466
  - # 2
    frequency:   -0.2643503141
  - # 3
    frequency:    0.0078728483
  - # 4
    frequency:    1.2767887739
  - # 5
    frequency:    1.2835479442
  - # 6
    frequency:    4.2593340231
  - # 7
    frequency:    4.2636774911
  - # 8
    frequency:    5.5989220952
  - # 9
    frequency:    6.8890663047
  - # 10
    frequency:    6.8892991552
  - # 11
    frequency:    7.5793430160
  - # 12
    frequency:    7.5793808127
  - # 13
    frequency:    9.2016661683
  - # 14
    frequency:   11.8511228545
  - # 15
    frequency:   13.3618604024
  - # 16
    frequency:   13.3676333980
  - # 17
    frequency:   13.5074784430
  - # 18
    frequency:   14.2044654530
  - # 19
    frequency:   14.2057336994
  - # 20
    frequency:   32.0479475942
  - # 21
    frequency:   67.9894863080

- q-position: [    0.0151515,    0.0000000,    0.0000000 ]
  distance:    0.0052487
  band:
  - # 1
    frequency:   -0.4138104501
  - # 2
    frequency:   -0.3822808476
  - # 3
    frequency:    0.0176961407
  - # 4
    frequency:    1.3214625150
  - # 5
    frequency:    1.3347123748
  - # 6
    frequency:    4.2590929531
  - # 7
    frequency:    4.2688354148
  - # 8
    frequency:    5.5976395000
  - # 9
    frequency:    6.8874402316
  - # 10
    frequency:    6.8879535514
  - # 11
    frequency:    7.5796987826
  - # 12
    frequency:    7.5798026858
  - # 13
    frequency:    9.1996356991
  - # 14
    frequency:   11.8423035755
  - # 15
    frequency:   13.3552607052
  - # 16
    frequency:   13.3683095200
  - # 17
    frequency:   13.5067714604
  - # 18
    frequency:   14.2027791998
  - # 19
    frequency:   14.2055633277
  - # 20
    frequency:   32.0452803653
  - # 21
    frequency:   67.9881499618

- q-position: [    0.0202020,    0.0000000,    0.0000000 ]
  distance:    0.0069982
  band:
  - # 1
    frequency:   -0.5251888649
  - # 2
    frequency:   -0.4879513429
  - # 3
    frequency:    0.0314152658
  - # 4
    frequency:    1.3761362141
  - # 5
    frequency:    1.3963794868
  - # 6
    frequency:    4.2587681595
  - # 7
    frequency:    4.2760124055
  - # 8
    frequency:    5.5958538893
  - # 9
    frequency:    6.8851958748
  - # 10
    frequency:    6.8860832671
  - # 11
    frequency:    7.5801698596
  - # 12
    frequency:    7.5804003771
  - # 13
    frequency:    9.1968091596
  - # 14
    frequency:   11.8299421528
  - # 15
    frequency:   13.3459067858
  - # 16
    frequency:   13.3692450640
  - # 17
    frequency:   13.5058290755
  - # 18
    frequency:   14.2005372642
  - # 19
    frequency:   14.2053176519
  - # 20
    frequency:   32.0415562353
  - # 21
    frequency:   67.9862832361

- q-position: [    0.0252525,    0.0000000,    0.0000000 ]
  distance:    0.0087478
  band:
  - # 1
    frequency:   -0.6226713819
  - # 2
    frequency:   -0.5817627031
  - # 3
    frequency:    0.0489962372
  - # 4
    frequency:    1.4370573189
  - # 5
    frequency:    1.4642626356
  - # 6
    frequency:    4.2583727238
  - # 7
    frequency:    4.2851643703
  - # 8
    frequency:    5.5935754367
  - # 9
    frequency:    6.8823625814
  - # 10
    frequency:    6.8837016349
  - # 11
    frequency:    7.5807314765
  - # 12
    frequency:    7.5811807104
  - # 13
    frequency:    9.1932026439
  - # 14
    frequency:   11.8140249680
  - # 15
    frequency:   13.3337006509
  - # 16
    frequency:   13.3704290343
  - # 17
    frequency:   13.5046897546
  - # 18
    frequency:   14.1978506293
  - # 19
    frequency:   14.2049896637
  - # 20
    frequency:   32.0367851501
  - # 21
    frequency:   67.9838902727

- q-position: [    0.0303030,    0.0000000,    0.0000000 ]
  distance:    0.0104974
  band:
  - # 1
    frequency:   -0.7077200381
  - # 2
    frequency:   -0.6648287382
  - # 3
    frequency:    0.0703946974
  - # 4
    frequency:    1.5016472702
  - # 5
    frequency:    1.5356211618
  - # 6
    frequency:    4.2579239872
  - # 7
    frequency:    4.2962346514
  - # 8
    frequency:    5.5908174206
  - # 9
    frequency:    6.8789743362
  - # 10
    frequency:    6.8808254630
  - # 11
    frequency:    7.5813547499
  - # 12
    frequency:    7.5821521221
  - # 13
    frequency:    9.1888368062
  - # 14
    frequency:   11.7945356638
  - # 15
    frequency:   13.3185365459
  - # 16
    frequency:   13.3718473369
  - # 17
    frequency:   13.5033928908
  - # 18
    frequency:   14.1948512385
  - # 19
    frequency:   14.2045705611
  - # 20
    frequency:   32.0309798335
  - # 21
    frequency:   67.9809763729

- q-position: [    0.0353535,    0.0000000,    0.0000000 ]
  distance:    0.0122469
  band:
  - # 1
    frequency:   -0.7817901225
  - # 2
    frequency:   -0.7383961589
  - # 3
    frequency:    0.0955555175
  - # 4
    frequency:    1.5682272025
  - # 5
    frequency:    1.6087922498
  - # 6
    frequency:    4.2574439106
  - # 7
    frequency:    4.3091540805
  - # 8
    frequency:    5.5875963423
  - # 9
    frequency:    6.8750673592
  - # 10
    frequency:    6.8774747741
  - # 11
    frequency:    7.5820085610
  - # 12
    frequency:    7.5833244330
  - # 13
    frequency:    9.1837368239
  - # 14
    frequency:   11.7714559945
  - # 15
    frequency:   13.3003117542
  - # 16
    frequency:   13.3734828096
  - # 17
    frequency:   13.5019748193
  - # 18
    frequency:   14.1916847663
  - # 19
    frequency:   14.2040499032
  - # 20
    frequency:   32.0241557403
  - # 21
    frequency:   67.9775479788

- q-position: [    0.0404040,    0.0000000,    0.0000000 ]
  distance:    0.0139965
  band:
  - # 1
    frequency:   -0.8461158849
  - # 2
    frequency:   -0.8036097735
  - # 3
    frequency:    0.1244124046
  - # 4
    frequency:    1.6357160614
  - # 5
    frequency:    1.6827833512
  - # 6
    frequency:    4.2569594810
  - # 7
    frequency:    4.3238410752
  - # 8
    frequency:    5.5839320396
  - # 9
    frequency:    6.8706775640
  - # 10
    frequency:    6.8736724753
  - # 11
    frequency:    7.5826615198
  - # 12
    frequency:    7.5847085918
  - # 13
    frequency:    9.1779323423
  - # 14
    frequency:   11.7447668552
  - # 15
    frequency:   13.2789365392
  - # 16
    frequency:   13.3753152566
  - # 17
    frequency:   13.5004662246
  - # 18
    frequency:   14.1885027708
  - # 19
    frequency:   14.2034157968
  - # 20
    frequency:   32.0163309986
  - # 21
    frequency:   67.9736126520

- q-position: [    0.0454545,    0.0000000,    0.0000000 ]
  distance:    0.0157460
  band:
  - # 1
    frequency:   -0.9016762211
  - # 2
    frequency:   -0.8614461837
  - # 3
    frequency:    0.1568875687
  - # 4
    frequency:    1.7034094525
  - # 5
    frequency:    1.7570042709
  - # 6
    frequency:    4.2565031400
  - # 7
    frequency:    4.3402017903
  - # 8
    frequency:    5.5798477816
  - # 9
    frequency:    6.8658380452
  - # 10
    frequency:    6.8694439587
  - # 11
    frequency:    7.5832838783
  - # 12
    frequency:    7.5863164025
  - # 13
    frequency:    9.1714573951
  - # 14
    frequency:   11.7144494927
  - # 15
    frequency:   13.2543426433
  - # 16
    frequency:   13.3773214856
  - # 17
    frequency:   13.4988909223
  - # 18
    frequency:   14.1854548364
  - # 19
    frequency:   14.2026551145
  - # 20
    frequency:   32.0075263430
  - # 21
    frequency:   67.9691790477

- q-position: [    0.0505051,    0.0000000,    0.0000000 ]
  distance:    0.0174956
  band:
  - # 1
    frequency:   -0.9492186298
  - # 2
    frequency:   -0.9127141541
  - # 3
    frequency:    0.1928914933
  - # 4
    frequency:    1.7708367861
  - # 5
    frequency:    1.8311055271
  - # 6
    frequency:    4.2561132095
  - # 7
    frequency:    4.3581303349
  - # 8
    frequency:    5.5753703293
  - # 9
    frequency:    6.8605767536
  - # 10
    frequency:    6.8648166317
  - # 11
    frequency:    7.5838492706
  - # 12
    frequency:    7.5881602478
  - # 13
    frequency:    9.1643502939
  - # 14
    frequency:   11.6804869031
  - # 15
    frequency:   13.2264900345
  - # 16
    frequency:   13.3794753461
  - # 17
    frequency:   13.4972656798
  - # 18
    frequency:   14.1826813431
  - # 19
    frequency:   14.2017537421
  - # 20
    frequency:   31.9977650381
  - # 21
    frequency:   67.9642568855

- q-position: [    0.0555556,    0.0000000,    0.0000000 ]
  distance:    0.0192452
  band:
  - # 1
    frequency:   -0.9892948750
  - # 2
    frequency:   -0.9580761503
  - # 3
    frequency:    0.2323228593
  - # 4
    frequency:    1.8376729272
  - # 5
    frequency:    1.9048828302
  - # 6
    frequency:    4.2558342814
  - # 7
    frequency:    4.3775090663
  - # 8
    frequency:    5.5705299511
  - # 9
    frequency:    6.8549144931
  - # 10
    frequency:    6.8598193793
  - # 11
    frequency:    7.5843361764
  - # 12
    frequency:    7.5902528146
  - # 13
    frequency:    9.1566534769
  - # 14
    frequency:   11.6428654284
  - # 15
    frequency:   13.1953717343
  - # 16
    frequency:   13.3817477675
  - # 17
    frequency:   13.4956006591
  - # 18
    frequency:   14.1803074400
  - # 19
    frequency:   14.2006968541
  - # 20
    frequency:   31.9870727927
  - # 21
    frequency:   67.9588569172

- q-position: [    0.0606061,    0.0000000,    0.0000000 ]
  distance:    0.0209947
  band:
  - # 1
    frequency:   -1.0222930509
  - # 2
    frequency:   -0.9980732950
  - # 3
    frequency:    0.2750686572
  - # 4
    frequency:    1.9036841708
  - # 5
    frequency:    1.9782202786
  - # 6
    frequency:    4.2557175354
  - # 7
    frequency:    4.3982089669
  - # 8
    frequency:    5.5653603809
  - # 9
    frequency:    6.8488633504
  - # 10
    frequency:    6.8544819669
  - # 11
    frequency:    7.5847290267
  - # 12
    frequency:    7.5926068334
  - # 13
    frequency:    9.1484133078
  - # 14
    frequency:   11.6015765693
  - # 15
    frequency:   13.1610166405
  - # 16
    frequency:   13.3841067939
  - # 17
    frequency:   13.4939001335
  - # 18
    frequency:   14.1784386420
  - # 19
    frequency:   14.1994692160
  - # 20
    frequency:   31.9754776656
  - # 21
    frequency:   67.9529908901

- q-position: [    0.0656566,    0.0000000,    0.0000000 ]
  distance:    0.0227443
  band:
  - # 1
    frequency:   -1.0484621607
  - # 2
    frequency:   -1.0331477434
  - # 3
    frequency:    0.3210045178
  - # 4
    frequency:    1.9686951760
  - # 5
    frequency:    2.0510559248
  - # 6
    frequency:    4.2558209443
  - # 7
    frequency:    4.4200901112
  - # 8
    frequency:    5.5598987138
  - # 9
    frequency:    6.8424256423
  - # 10
    frequency:    6.8488343935
  - # 11
    frequency:    7.5850188940
  - # 12
    frequency:    7.5952348343
  - # 13
    frequency:    9.1396798124
  - # 14
    frequency:   11.5566190311
  - # 15
    frequency:   13.1234903486
  - # 16
    frequency:   13.3865176144
  - # 17
    frequency:   13.4921632616
  - # 18
    frequency:   14.1771582524
  - # 19
    frequency:   14.1980555109
  - # 20
    frequency:   31.9630099635
  - # 21
    frequency:   67.9466715082

- q-position: [    0.0707071,    0.0000000,    0.0000000 ]
  distance:    0.0244938
  band:
  - # 1
    frequency:   -1.0679289967
  - # 2
    frequency:   -1.0636610303
  - # 3
    frequency:    0.3699952756
  - # 4
    frequency:    2.0325686762
  - # 5
    frequency:    2.1233603406
  - # 6
    frequency:    4.2562093208
  - # 7
    frequency:    4.4430022264
  - # 8
    frequency:    5.5541852360
  - # 9
    frequency:    6.8355934394
  - # 10
    frequency:    6.8429062095
  - # 11
    frequency:    7.5852037252
  - # 12
    frequency:    7.5981489248
  - # 13
    frequency:    9.1305063397
  - # 14
    frequency:   11.5080010243
  - # 15
    frequency:   13.0828940997
  - # 16
    frequency:   13.3889425870
  - # 17
    frequency:   13.4903848107
  - # 18
    frequency:   14.1765265739
  - # 19
    frequency:   14.1964406890
  - # 20
    frequency:   31.9497021302
  - # 21
    frequency:   67.9399123901

- q-position: [    0.0757576,    0.0000000,    0.0000000 ]
  distance:    0.0262434
  band:
  - # 1
    frequency:   -1.0899085457
  - # 2
    frequency:   -1.0807079355
  - # 3
    frequency:    0.4218957670
  - # 4
    frequency:    2.0951930764
  - # 5
    frequency:    2.1951228254
  - # 6
    frequency:    4.2569541599
  - # 7
    frequency:    4.4667853507
  - # 8
    frequency:    5.5482631893
  - # 9
    frequency:    6.8283486987
  - # 10
    frequency:    6.8367258197
  - # 11
    frequency:    7.5852881009
  - # 12
    frequency:    7.6013605879
  - # 13
    frequency:    9.1209491334
  - # 14
    frequency:   11.4557428332
  - # 15
    frequency:   13.0393621159
  - # 16
    frequency:   13.3913412535
  - # 17
    frequency:   13.4885558013
  - # 18
    frequency:   14.1765816709
  - # 19
    frequency:   14.1946103373
  - # 20
    frequency:   31.9355886292
  - # 21
    frequency:   67.9327280240

- q-position: [    0.0808081,    0.0000000,    0.0000000 ]
  distance:    0.0279930
  band:
  - # 1
    frequency:   -1.1121307528
  - # 2
    frequency:   -1.0867040649
  - # 3
    frequency:    0.4765518503
  - # 4
    frequency:    2.1564750238
  - # 5
    frequency:    2.2663421668
  - # 6
    frequency:    4.2581332295
  - # 7
    frequency:    4.4912705968
  - # 8
    frequency:    5.5421784767
  - # 9
    frequency:    6.8206640138
  - # 10
    frequency:    6.8303197919
  - # 11
    frequency:    7.5852825155
  - # 12
    frequency:    7.6048805025
  - # 13
    frequency:    9.1110667966
  - # 14
    frequency:   11.3998796628
  - # 15
    frequency:   12.9930576858
  - # 16
    frequency:   13.3936703453
  - # 17
    frequency:   13.4866640771
  - # 18
    frequency:   14.1773413129
  - # 19
    frequency:   14.1925510672
  - # 20
    frequency:   31.9207058200
  - # 21
    frequency:   67.9251337202

- q-position: [    0.0858586,    0.0000000,    0.0000000 ]
  distance:    0.0297425
  band:
  - # 1
    frequency:   -1.1305218024
  - # 2
    frequency:   -1.0857094175
  - # 3
    frequency:    0.5338016205
  - # 4
    frequency:    2.2163352001
  - # 5
    frequency:    2.3370201349
  - # 6
    frequency:    4.2598298652
  - # 7
    frequency:    4.5162810276
  - # 8
    frequency:    5.5359793171
  - # 9
    frequency:    6.8125039640
  - # 10
    frequency:    6.8237121957
  - # 11
    frequency:    7.5852021964
  - # 12
    frequency:    7.6087183788
  - # 13
    frequency:    9.1009196328
  - # 14
    frequency:   11.3404647589
  - # 15
    frequency:   12.9441684156
  - # 16
    frequency:   13.3958837774
  - # 17
    frequency:   13.4846948202
  - # 18
    frequency:   14.1788056811
  - # 19
    frequency:   14.1902509162
  - # 20
    frequency:   31.9050918270
  - # 21
    frequency:   67.9171455608

- q-position: [    0.0909091,    0.0000000,    0.0000000 ]
  distance:    0.0314921
  band:
  - # 1
    frequency:   -1.1452361112
  - # 2
    frequency:   -1.0773910935
  - # 3
    frequency:    0.5934767838
  - # 4
    frequency:    2.2747062631
  - # 5
    frequency:    2.4071566142
  - # 6
    frequency:    4.2621319309
  - # 7
    frequency:    4.5416326611
  - # 8
    frequency:    5.5297158618
  - # 9
    frequency:    6.8038270193
  - # 10
    frequency:    6.8169239973
  - # 11
    frequency:    7.5850654974
  - # 12
    frequency:    7.6128828071
  - # 13
    frequency:    9.0905688439
  - # 14
    frequency:   11.2775727847
  - # 15
    frequency:   12.8929010486
  - # 16
    frequency:   13.3979326330
  - # 17
    frequency:   13.4826310281
  - # 18
    frequency:   14.1809604421
  - # 19
    frequency:   14.1876997608
  - # 20
    frequency:   31.8887864040
  - # 21
    frequency:   67.9087803482

- q-position: [    0.0959596,    0.0000000,    0.0000000 ]
  distance:    0.0332416
  band:
  - # 1
    frequency:   -1.1563933504
  - # 2
    frequency:   -1.0612685052
  - # 3
    frequency:    0.6554041473
  - # 4
    frequency:    2.3315322678
  - # 5
    frequency:    2.4767456970
  - # 6
    frequency:    4.2651304213
  - # 7
    frequency:    4.5671356261
  - # 8
    frequency:    5.5234397895
  - # 9
    frequency:    6.7945879252
  - # 10
    frequency:    6.8099725355
  - # 11
    frequency:    7.5848919228
  - # 12
    frequency:    7.6173811120
  - # 13
    frequency:    9.0800755667
  - # 14
    frequency:   11.2113034211
  - # 15
    frequency:   12.8394762106
  - # 16
    frequency:   13.3997651365
  - # 17
    frequency:   13.4804539653
  - # 18
    frequency:   14.1837798679
  - # 19
    frequency:   14.1848897343
  - # 20
    frequency:   31.8718307935
  - # 21
    frequency:   67.9000555507

- q-position: [    0.1010101,    0.0000000,    0.0000000 ]
  distance:    0.0349912
  band:
  - # 1
    frequency:   -1.1640821856
  - # 2
    frequency:   -1.0366742938
  - # 3
    frequency:    0.7194071787
  - # 4
    frequency:    2.3867691255
  - # 5
    frequency:    2.5457722998
  - # 6
    frequency:    4.2689176966
  - # 7
    frequency:    4.5925955009
  - # 8
    frequency:    5.5172038978
  - # 9
    frequency:    6.7847404663
  - # 10
    frequency:    6.8028711040
  - # 11
    frequency:    7.5846998628
  - # 12
    frequency:    7.6222192078
  - # 13
    frequency:    9.0694997273
  - # 14
    frequency:   11.1417851404
  - # 15
    frequency:   12.7841233653
  - # 16
    frequency:   13.4013266212
  - # 17
    frequency:   13.4781435933
  - # 18
    frequency:   14.1818156456
  - # 19
    frequency:   14.1872297677
  - # 20
    frequency:   31.8542675807
  - # 21
    frequency:   67.8909892468

- q-position: [    0.1060606,    0.0000000,    0.0000000 ]
  distance:    0.0367408
  band:
  - # 1
    frequency:   -1.1683630173
  - # 2
    frequency:   -1.0026883774
  - # 3
    frequency:    0.7853075964
  - # 4
    frequency:    2.4403857932
  - # 5
    frequency:    2.6142090100
  - # 6
    frequency:    4.2735853659
  - # 7
    frequency:    4.6178148789
  - # 8
    frequency:    5.5110617163
  - # 9
    frequency:    6.7742404753
  - # 10
    frequency:    6.7956286600
  - # 11
    frequency:    7.5845041408
  - # 12
    frequency:    7.6274014477
  - # 13
    frequency:    9.0588986960
  - # 14
    frequency:   11.0691790921
  - # 15
    frequency:   12.7270761902
  - # 16
    frequency:   13.4025594919
  - # 17
    frequency:   13.4756789827
  - # 18
    frequency:   14.1784753892
  - # 19
    frequency:   14.1912700940
  - # 20
    frequency:   31.8361405453
  - # 21
    frequency:   67.8816000679

- q-position: [    0.1111111,    0.0000000,    0.0000000 ]
  distance:    0.0384903
  band:
  - # 1
    frequency:   -1.1692698944
  - # 2
    frequency:   -0.9580238931
  - # 3
    frequency:    0.8529269560
  - # 4
    frequency:    2.4923659519
  - # 5
    frequency:    2.6820129519
  - # 6
    frequency:    4.2792218616
  - # 7
    frequency:    4.6425952152
  - # 8
    frequency:    5.5050671721
  - # 9
    frequency:    6.7630489310
  - # 10
    frequency:    6.7882496803
  - # 11
    frequency:    7.5843134923
  - # 12
    frequency:    7.6329304631
  - # 13
    frequency:    9.0483257261
  - # 14
    frequency:   10.9936830265
  - # 15
    frequency:   12.6685685166
  - # 16
    frequency:   13.4034031924
  - # 17
    frequency:   13.4730387039
  - # 18
    frequency:   14.1748703395
  - # 19
    frequency:   14.1958571555
  - # 20
    frequency:   31.8174945085
  - # 21
    frequency:   67.8719071398

- q-position: [    0.1161616,    0.0000000,    0.0000000 ]
  distance:    0.0402399
  band:
  - # 1
    frequency:   -1.1668117083
  - # 2
    frequency:   -0.9008189780
  - # 3
    frequency:    0.9220882157
  - # 4
    frequency:    2.5427099644
  - # 5
    frequency:    2.7491225100
  - # 6
    frequency:    4.2859097834
  - # 7
    frequency:    4.6667390232
  - # 8
    frequency:    5.4992743456
  - # 9
    frequency:    6.7511349683
  - # 10
    frequency:    6.7807341753
  - # 11
    frequency:    7.5841281098
  - # 12
    frequency:    7.6388069887
  - # 13
    frequency:    9.0378281655
  - # 14
    frequency:   10.9155351753
  - # 15
    frequency:   12.6088309210
  - # 16
    frequency:   13.4037941834
  - # 17
    frequency:   13.4702011957
  - # 18
    frequency:   14.1710057156
  - # 19
    frequency:   14.2009454287
  - # 20
    frequency:   31.7983751793
  - # 21
    frequency:   67.8619300233

- q-position: [    0.1212121,    0.0000000,    0.0000000 ]
  distance:    0.0419894
  band:
  - # 1
    frequency:   -1.1609727172
  - # 2
    frequency:   -0.8282230470
  - # 3
    frequency:    0.9926172841
  - # 4
    frequency:    2.5914369117
  - # 5
    frequency:    2.8154537754
  - # 6
    frequency:    4.2937231205
  - # 7
    frequency:    4.6900524994
  - # 8
    frequency:    5.4937373646
  - # 9
    frequency:    6.7384786154
  - # 10
    frequency:    6.7730778728
  - # 11
    frequency:    7.5839373908
  - # 12
    frequency:    7.6450296712
  - # 13
    frequency:    9.0274454370
  - # 14
    frequency:   10.8350180036
  - # 15
    frequency:   12.5480880121
  - # 16
    frequency:   13.4036659453
  - # 17
    frequency:   13.4671451070
  - # 18
    frequency:   14.1668909057
  - # 19
    frequency:   14.2064889914
  - # 20
    frequency:   31.7788289973
  - # 21
    frequency:   67.8516886539

- q-position: [    0.1262626,    0.0000000,    0.0000000 ]
  distance:    0.0437390
  band:
  - # 1
    frequency:   -1.1517123851
  - # 2
    frequency:   -0.7354633068
  - # 3
    frequency:    1.0643445746
  - # 4
    frequency:    2.6385865041
  - # 5
    frequency:    2.8808966029
  - # 6
    frequency:    4.3027244923
  - # 7
    frequency:    4.7123486666
  - # 8
    frequency:    5.4885104998
  - # 9
    frequency:    6.7250730761
  - # 10
    frequency:    6.7652725709
  - # 11
    frequency:    7.5837180225
  - # 12
    frequency:    7.6515948631
  - # 13
    frequency:    9.0172067959
  - # 14
    frequency:   10.7524617394
  - # 15
    frequency:   12.4865564219
  - # 16
    frequency:   13.4029490174
  - # 17
    frequency:   13.4638496114
  - # 18
    frequency:   14.1625397323
  - # 19
    frequency:   14.2124426239
  - # 20
    frequency:   31.7589029751
  - # 21
    frequency:   67.8412032808

- q-position: [    0.1313131,    0.0000000,    0.0000000 ]
  distance:    0.0454886
  band:
  - # 1
    frequency:   -1.1389644543
  - # 2
    frequency:   -0.6132685108
  - # 3
    frequency:    1.1371066280
  - # 4
    frequency:    2.6842206618
  - # 5
    frequency:    2.9453101801
  - # 6
    frequency:    4.3129625735
  - # 7
    frequency:    4.7334511328
  - # 8
    frequency:    5.4836485274
  - # 9
    frequency:    6.7109263933
  - # 10
    frequency:    6.7573066589
  - # 11
    frequency:    7.5834325251
  - # 12
    frequency:    7.6584964019
  - # 13
    frequency:    9.0071288942
  - # 14
    frequency:   10.6682475699
  - # 15
    frequency:   12.4244434800
  - # 16
    frequency:   13.4015710925
  - # 17
    frequency:   13.4602946925
  - # 18
    frequency:   14.1579706428
  - # 19
    frequency:   14.2187626280
  - # 20
    frequency:   31.7386445403
  - # 21
    frequency:   67.8304944059

- q-position: [    0.1363636,    0.0000000,    0.0000000 ]
  distance:    0.0472381
  band:
  - # 1
    frequency:   -1.1226350797
  - # 2
    frequency:   -0.4375131789
  - # 3
    frequency:    1.2107478983
  - # 4
    frequency:    2.7284245670
  - # 5
    frequency:    3.0085180375
  - # 6
    frequency:    4.3244698721
  - # 7
    frequency:    4.7531985667
  - # 8
    frequency:    5.4792074346
  - # 9
    frequency:    6.6960623594
  - # 10
    frequency:    6.7491657951
  - # 11
    frequency:    7.5830283587
  - # 12
    frequency:    7.6657253817
  - # 13
    frequency:    8.9972132115
  - # 14
    frequency:   10.5828103647
  - # 15
    frequency:   12.3619465260
  - # 16
    frequency:   13.3994571856
  - # 17
    frequency:   13.4564613988
  - # 18
    frequency:   14.1532068028
  - # 19
    frequency:   14.2254074145
  - # 20
    frequency:   31.7181013768
  - # 21
    frequency:   67.8195827228

- q-position: [    0.1414141,    0.0000000,    0.0000000 ]
  distance:    0.0489877
  band:
  - # 1
    frequency:   -1.1025997279
  - # 2
    frequency:    0.1144620765
  - # 3
    frequency:    1.2851228518
  - # 4
    frequency:    2.7713070042
  - # 5
    frequency:    3.0703024663
  - # 6
    frequency:    4.3372610288
  - # 7
    frequency:    4.7714499872
  - # 8
    frequency:    5.4752455260
  - # 9
    frequency:    6.6805205854
  - # 10
    frequency:    6.7408337280
  - # 11
    frequency:    7.5824376829
  - # 12
    frequency:    7.6732699211
  - # 13
    frequency:    8.9874434609
  - # 14
    frequency:   10.4966407228
  - # 15
    frequency:   12.2992527962
  - # 16
    frequency:   13.3965298964
  - # 17
    frequency:   13.4523320691
  - # 18
    frequency:   14.1482760732
  - # 19
    frequency:   14.2323379050
  - # 20
    frequency:   31.6973212674
  - # 21
    frequency:   67.8084890554

- q-position: [    0.1464646,    0.0000000,    0.0000000 ]
  distance:    0.0507372
  band:
  - # 1
    frequency:   -1.0786983643
  - # 2
    frequency:    0.4870894039
  - # 3
    frequency:    1.3600985978
  - # 4
    frequency:    2.8129998466
  - # 5
    frequency:    3.1303983882
  - # 6
    frequency:    4.3513317725
  - # 7
    frequency:    4.7880909481
  - # 8
    frequency:    5.4718249535
  - # 9
    frequency:    6.6643556976
  - # 10
    frequency:    6.7322932383
  - # 11
    frequency:    7.5815778505
  - # 12
    frequency:    7.6811149387
  - # 13
    frequency:    8.9777831562
  - # 14
    frequency:   10.4102860401
  - # 15
    frequency:   12.2365398067
  - # 16
    frequency:   13.3927097874
  - # 17
    frequency:   13.4478905282
  - # 18
    frequency:   14.1432108492
  - # 19
    frequency:   14.2395177880
  - # 20
    frequency:   31.6763519368
  - # 21
    frequency:   67.7972342975

- q-position: [    0.1515152,    0.0000000,    0.0000000 ]
  distance:    0.0524868
  band:
  - # 1
    frequency:   -1.0507281608
  - # 2
    frequency:    0.6932837596
  - # 3
    frequency:    1.4355583559
  - # 4
    frequency:    2.8536565940
  - # 5
    frequency:    3.1884868443
  - # 6
    frequency:    4.3666586279
  - # 7
    frequency:    4.8030406543
  - # 8
    frequency:    5.4690136209
  - # 9
    frequency:    6.6476357025
  - # 10
    frequency:    6.7235271799
  - # 11
    frequency:    7.5803527208
  - # 12
    frequency:    7.6892419435
  - # 13
    frequency:    8.9681736360
  - # 14
    frequency:   10.3243501358
  - # 15
    frequency:   12.1739761462
  - # 16
    frequency:   13.3879158957
  - # 17
    frequency:   13.4431222541
  - # 18
    frequency:   14.1380477441
  - # 19
    frequency:   14.2469136605
  - # 20
    frequency:   31.6552408974
  - # 21