nqpoint: 300    
npath: 3      
segment_nqpoint:
- 100
- 100
- 100
labels:
- [ 'G', 'M' ]
- [ 'M', 'K' ]
- [ 'K', 'G' ]
reciprocal_lattice:
- [   0.30290868,   0.17488441,   0.00000000 ] # a*
- [   0.00000000,   0.34976881,   0.00000000 ] # b*
- [   0.00000000,   0.00000000,   0.03741401 ] # c*
natom: 8      
lattice:
- [     3.301325029218392,     0.000000000000000,     0.000000000000000 ] # a
- [    -1.650662514609196,     2.859031341403899,     0.000000000000000 ] # b
- [     0.000000000000000,     0.000000000000000,    26.727957326308708 ] # c
points:
- symbol: C # 1
  coordinates: [  0.333332985432215,  0.666666983183674,  0.605223930766786 ]
  mass: 12.010700
- symbol: H # 2
  coordinates: [  0.666666984744048,  0.333332985985145,  0.336726068891960 ]
  mass: 1.007940
- symbol: N # 3
  coordinates: [  0.000000000000000,  0.000000000000000,  0.463514061675036 ]
  mass: 14.006700
- symbol: N # 4
  coordinates: [  0.333332985432215,  0.666666983183674,  0.558332415185973 ]
  mass: 14.006700
- symbol: O # 5
  coordinates: [  0.666666984744048,  0.333332985985145,  0.373603044751307 ]
  mass: 15.999400
- symbol: S # 6
  coordinates: [  0.333332985432215,  0.666666983183674,  0.663273931108040 ]
  mass: 32.065000
- symbol: Sc # 7
  coordinates: [  0.333332985432215,  0.666666983183674,  0.418918285482946 ]
  mass: 44.955912
- symbol: Sc # 8
  coordinates: [  0.666666984744048,  0.333332985985145,  0.510715409475258 ]
  mass: 44.955912

phonon:
- q-position: [    0.0000000,    0.0000000,    0.0000000 ]
  distance:    0.0000000
  band:
  - # 1
    frequency:   -0.0000051396
  - # 2
    frequency:    0.0000017500
  - # 3
    frequency:    0.0000049318
  - # 4
    frequency:    0.7107474286
  - # 5
    frequency:    0.7107474287
  - # 6
    frequency:    4.6114507418
  - # 7
    frequency:    4.6114507418
  - # 8
    frequency:    5.8051921904
  - # 9
    frequency:    8.0610606898
  - # 10
    frequency:    8.0610606898
  - # 11
    frequency:    8.2916256471
  - # 12
    frequency:    8.2916256471
  - # 13
    frequency:    9.5056201943
  - # 14
    frequency:   12.5975317981
  - # 15
    frequency:   12.5975317981
  - # 16
    frequency:   13.4592916082
  - # 17
    frequency:   13.6281553724
  - # 18
    frequency:   13.6281553724
  - # 19
    frequency:   13.7581549291
  - # 20
    frequency:   13.7581549291
  - # 21
    frequency:   14.5100385537
  - # 22
    frequency:   27.0420036354
  - # 23
    frequency:   57.2241287291
  - # 24
    frequency:  113.1765346150

- q-position: [    0.0050505,    0.0000000,    0.0000000 ]
  distance:    0.0017665
  band:
  - # 1
    frequency:   -0.0554689355
  - # 2
    frequency:    0.0845460131
  - # 3
    frequency:    0.1517221400
  - # 4
    frequency:    0.7135203080
  - # 5
    frequency:    0.7197948170
  - # 6
    frequency:    4.6118728342
  - # 7
    frequency:    4.6130968760
  - # 8
    frequency:    5.8052249319
  - # 9
    frequency:    8.0613894644
  - # 10
    frequency:    8.0616721641
  - # 11
    frequency:    8.2918931524
  - # 12
    frequency:    8.2924382149
  - # 13
    frequency:    9.5049266016
  - # 14
    frequency:   12.5977609400
  - # 15
    frequency:   12.5978855369
  - # 16
    frequency:   13.4577967281
  - # 17
    frequency:   13.6277405967
  - # 18
    frequency:   13.6282943033
  - # 19
    frequency:   13.7575050954
  - # 20
    frequency:   13.7582862525
  - # 21
    frequency:   14.5092931402
  - # 22
    frequency:   27.0416966328
  - # 23
    frequency:   57.2234158046
  - # 24
    frequency:  113.1749655970

- q-position: [    0.0101010,    0.0000000,    0.0000000 ]
  distance:    0.0035330
  band:
  - # 1
    frequency:   -0.0649397767
  - # 2
    frequency:    0.1686148804
  - # 3
    frequency:    0.2885758696
  - # 4
    frequency:    0.7218744923
  - # 5
    frequency:    0.7467368349
  - # 6
    frequency:    4.6131392919
  - # 7
    frequency:    4.6180109196
  - # 8
    frequency:    5.8053305073
  - # 9
    frequency:    8.0623728106
  - # 10
    frequency:    8.0635068359
  - # 11
    frequency:    8.2926930178
  - # 12
    frequency:    8.2948654288
  - # 13
    frequency:    9.5028506738
  - # 14
    frequency:   12.5984484301
  - # 15
    frequency:   12.5989240752
  - # 16
    frequency:   13.4533401324
  - # 17
    frequency:   13.6264448148
  - # 18
    frequency:   13.6287069444
  - # 19
    frequency:   13.7556097902
  - # 20
    frequency:   13.7586816352
  - # 21
    frequency:   14.5070618205
  - # 22
    frequency:   27.0407772978
  - # 23
    frequency:   57.2212779249
  - # 24
    frequency:  113.1702662584

- q-position: [    0.0151515,    0.0000000,    0.0000000 ]
  distance:    0.0052995
  band:
  - # 1
    frequency:   -0.0717235619
  - # 2
    frequency:    0.2516707429
  - # 3
    frequency:    0.4241323856
  - # 4
    frequency:    0.7359311188
  - # 5
    frequency:    0.7913348634
  - # 6
    frequency:    4.6152506448
  - # 7
    frequency:    4.6261202709
  - # 8
    frequency:    5.8055310493
  - # 9
    frequency:    8.0640018145
  - # 10
    frequency:    8.0665652764
  - # 11
    frequency:    8.2940173448
  - # 12
    frequency:    8.2988760828
  - # 13
    frequency:    9.4994069221
  - # 14
    frequency:   12.5995944073
  - # 15
    frequency:   12.6005794885
  - # 16
    frequency:   13.4460009952
  - # 17
    frequency:   13.6241223555
  - # 18
    frequency:   13.6293810346
  - # 19
    frequency:   13.7526276641
  - # 20
    frequency:   13.7593451880
  - # 21
    frequency:   14.5033594992
  - # 22
    frequency:   27.0392506331
  - # 23
    frequency:   57.2177177716
  - # 24
    frequency:  113.1624597031

- q-position: [    0.0202020,    0.0000000,    0.0000000 ]
  distance:    0.0070660
  band:
  - # 1
    frequency:   -0.0729261225
  - # 2
    frequency:    0.3330556423
  - # 3
    frequency:    0.5536825564
  - # 4
    frequency:    0.7559381917
  - # 5
    frequency:    0.8540998230
  - # 6
    frequency:    4.6182077380
  - # 7
    frequency:    4.6373054825
  - # 8
    frequency:    5.8058637056
  - # 9
    frequency:    8.0662616812
  - # 10
    frequency:    8.0708478782
  - # 11
    frequency:    8.2958531469
  - # 12
    frequency:    8.3044190133
  - # 13
    frequency:    9.4946194050
  - # 14
    frequency:   12.6011989213
  - # 15
    frequency:   12.6027389585
  - # 16
    frequency:   13.4358970620
  - # 17
    frequency:   13.6205588812
  - # 18
    frequency:   13.6302967782
  - # 19
    frequency:   13.7488082062
  - # 20
    frequency:   13.7602833403
  - # 21
    frequency:   14.4982114747
  - # 22
    frequency:   27.0371249284
  - # 23
    frequency:   57.2127398132
  - # 24
    frequency:  113.1515842977

- q-position: [    0.0252525,    0.0000000,    0.0000000 ]
  distance:    0.0088325
  band:
  - # 1
    frequency:   -0.0637181715
  - # 2
    frequency:    0.4119260060
  - # 3
    frequency:    0.6729404485
  - # 4
    frequency:    0.7823270221
  - # 5
    frequency:    0.9364769529
  - # 6
    frequency:    4.6220116757
  - # 7
    frequency:    4.6514024936
  - # 8
    frequency:    5.8063810092
  - # 9
    frequency:    8.0691318280
  - # 10
    frequency:    8.0763540990
  - # 11
    frequency:    8.2981826077
  - # 12
    frequency:    8.3114242762
  - # 13
    frequency:    9.4885215477
  - # 14
    frequency:   12.6032616675
  - # 15
    frequency:   12.6052454497
  - # 16
    frequency:   13.4231697593
  - # 17
    frequency:   13.6155126431
  - # 18
    frequency:   13.6314277914
  - # 19
    frequency:   13.7444642943
  - # 20
    frequency:   13.7615042156
  - # 21
    frequency:   14.4916540652
  - # 22
    frequency:   27.0344116874
  - # 23
    frequency:   57.2063503046
  - # 24
    frequency:  113.1376934621

- q-position: [    0.0303030,    0.0000000,    0.0000000 ]
  distance:    0.0105991
  band:
  - # 1
    frequency:   -0.0267196601
  - # 2
    frequency:    0.4872213184
  - # 3
    frequency:    0.7793225459
  - # 4
    frequency:    0.8157454430
  - # 5
    frequency:    1.0388184806
  - # 6
    frequency:    4.6266637444
  - # 7
    frequency:    4.6682055730
  - # 8
    frequency:    5.8071513502
  - # 9
    frequency:    8.0725860170
  - # 10
    frequency:    8.0830815467
  - # 11
    frequency:    8.3009834289
  - # 12
    frequency:    8.3198046274
  - # 13
    frequency:    9.4811559108
  - # 14
    frequency:   12.6057816296
  - # 15
    frequency:   12.6078988552
  - # 16
    frequency:   13.4079718231
  - # 17
    frequency:   13.6087688079
  - # 18
    frequency:   13.6327423955
  - # 19
    frequency:   13.7399285997
  - # 20
    frequency:   13.7630167776
  - # 21
    frequency:   14.4837353755
  - # 22
    frequency:   27.0311255283
  - # 23
    frequency:   57.1985572853
  - # 24
    frequency:  113.1208553789

- q-position: [    0.0353535,    0.0000000,    0.0000000 ]
  distance:    0.0123656
  band:
  - # 1
    frequency:    0.0731055891
  - # 2
    frequency:    0.5577501987
  - # 3
    frequency:    0.8569778693
  - # 4
    frequency:    0.8745086453
  - # 5
    frequency:    1.1576665825
  - # 6
    frequency:    4.6321653169
  - # 7
    frequency:    4.6874708315
  - # 8
    frequency:    5.8082594968
  - # 9
    frequency:    8.0765925281
  - # 10
    frequency:    8.0910250175
  - # 11
    frequency:    8.3042292547
  - # 12
    frequency:    8.3294571777
  - # 13
    frequency:    9.4725739256
  - # 14
    frequency:   12.6087566422
  - # 15
    frequency:   12.6104578363
  - # 16
    frequency:   13.3904597990
  - # 17
    frequency:   13.6001985518
  - # 18
    frequency:   13.6342052087
  - # 19
    frequency:   13.7354996407
  - # 20
    frequency:   13.7648297833
  - # 21
    frequency:   14.4745161117
  - # 22
    frequency:   27.0272840574
  - # 23
    frequency:   57.1893705785
  - # 24
    frequency:  113.1011526216

- q-position: [    0.0404040,    0.0000000,    0.0000000 ]
  distance:    0.0141321
  band:
  - # 1
    frequency:    0.1213492706
  - # 2
    frequency:    0.6225036847
  - # 3
    frequency:    0.9066391589
  - # 4
    frequency:    0.9628489945
  - # 5
    frequency:    1.2872551204
  - # 6
    frequency:    4.6385177386
  - # 7
    frequency:    4.7089201777
  - # 8
    frequency:    5.8098070813
  - # 9
    frequency:    8.0811143740
  - # 10
    frequency:    8.1001755846
  - # 11
    frequency:    8.3078901561
  - # 12
    frequency:    8.3402650987
  - # 13
    frequency:    9.4628356162
  - # 14
    frequency:   12.6121828895
  - # 15
    frequency:   12.6126426744
  - # 16
    frequency:   13.3707913440
  - # 17
    frequency:   13.5898063471
  - # 18
    frequency:   13.6357789643
  - # 19
    frequency:   13.7313938682
  - # 20
    frequency:   13.7669506066
  - # 21
    frequency:   14.4640703525
  - # 22
    frequency:   27.0229077184
  - # 23
    frequency:   57.1788017878
  - # 24
    frequency:  113.0786817057

- q-position: [    0.0454545,    0.0000000,    0.0000000 ]
  distance:    0.0158986
  band:
  - # 1
    frequency:    0.1674502840
  - # 2
    frequency:    0.6811371026
  - # 3
    frequency:    0.9646989846
  - # 4
    frequency:    1.0479960707
  - # 5
    frequency:    1.4227997310
  - # 6
    frequency:    4.6457221999
  - # 7
    frequency:    4.7322456339
  - # 8
    frequency:    5.8119129299
  - # 9
    frequency:    8.0861095585
  - # 10
    frequency:    8.1105198168
  - # 11
    frequency:    8.3119331596
  - # 12
    frequency:    8.3520992748
  - # 13
    frequency:    9.4520093303
  - # 14
    frequency:   12.6141395478
  - # 15
    frequency:   12.6160543568
  - # 16
    frequency:   13.3491260259
  - # 17
    frequency:   13.5777477904
  - # 18
    frequency:   13.6374264482
  - # 19
    frequency:   13.7277223793
  - # 20
    frequency:   13.7693840223
  - # 21
    frequency:   14.4524861865
  - # 22
    frequency:   27.0180196193
  - # 23
    frequency:   57.1668642945
  - # 24
    frequency:  113.0535525636

- q-position: [    0.0505051,    0.0000000,    0.0000000 ]
  distance:    0.0176651
  band:
  - # 1
    frequency:    0.2142408715
  - # 2
    frequency:    0.7342270123
  - # 3
    frequency:    1.0302293708
  - # 4
    frequency:    1.1320079031
  - # 5
    frequency:    1.5613292029
  - # 6
    frequency:    4.6537795956
  - # 7
    frequency:    4.7571139984
  - # 8
    frequency:    5.8147130661
  - # 9
    frequency:    8.0915313791
  - # 10
    frequency:    8.1220391777
  - # 11
    frequency:    8.3163227998
  - # 12
    frequency:    8.3648198268
  - # 13
    frequency:    9.4401714958
  - # 14
    frequency:   12.6146067178
  - # 15
    frequency:   12.6203622505
  - # 16
    frequency:   13.3256281456
  - # 17
    frequency:   13.5643127271
  - # 18
    frequency:   13.6391124201
  - # 19
    frequency:   13.7244985277
  - # 20
    frequency:   13.7721310731
  - # 21
    frequency:   14.4398661457
  - # 22
    frequency:   27.0126453381
  - # 23
    frequency:   57.1535732539
  - # 24
    frequency:  113.0258879482

- q-position: [    0.0555556,    0.0000000,    0.0000000 ]
  distance:    0.0194316
  band:
  - # 1
    frequency:    0.2625193870
  - # 2
    frequency:    0.7829933855
  - # 3
    frequency:    1.1016850849
  - # 4
    frequency:    1.2158537523
  - # 5
    frequency:    1.7011280005
  - # 6
    frequency:    4.6626903748
  - # 7
    frequency:    4.7831719351
  - # 8
    frequency:    5.8183601616
  - # 9
    frequency:    8.0973287732
  - # 10
    frequency:    8.1347096266
  - # 11
    frequency:    8.3210216808
  - # 12
    frequency:    8.3782774580
  - # 13
    frequency:    9.4274064179
  - # 14
    frequency:   12.6136831064
  - # 15
    frequency:   12.6250944076
  - # 16
    frequency:   13.3004704749
  - # 17
    frequency:   13.5498848401
  - # 18
    frequency:   13.6408053713
  - # 19
    frequency:   13.7216659066
  - # 20
    frequency:   13.7751881517
  - # 21
    frequency:   14.4263273779
  - # 22
    frequency:   27.0068127116
  - # 23
    frequency:   57.1389455897
  - # 24
    frequency:  112.9958227668

- q-position: [    0.0606061,    0.0000000,    0.0000000 ]
  distance:    0.0211981
  band:
  - # 1
    frequency:    0.3125622929
  - # 2
    frequency:    0.8287658407
  - # 3
    frequency:    1.1774383001
  - # 4
    frequency:    1.2999344616
  - # 5
    frequency:    1.8411760323
  - # 6
    frequency:    4.6724543839
  - # 7
    frequency:    4.8100516695
  - # 8
    frequency:    5.8230221465
  - # 9
    frequency:    8.1034467085
  - # 10
    frequency:    8.1485014207
  - # 11
    frequency:    8.3259910254
  - # 12
    frequency:    8.3923146077
  - # 13
    frequency:    9.4138061258
  - # 14
    frequency:   12.6109996061
  - # 15
    frequency:   12.6302347087
  - # 16
    frequency:   13.2738382732
  - # 17
    frequency:   13.5348948370
  - # 18
    frequency:   13.6424789735
  - # 19
    frequency:   13.7191298663
  - # 20
    frequency:   13.7785464285
  - # 21
    frequency:   14.4120015201
  - # 22
    frequency:   27.0005516082
  - # 23
    frequency:   57.1229999881
  - # 24
    frequency:  112.9635033508

- q-position: [    0.0656566,    0.0000000,    0.0000000 ]
  distance:    0.0229646
  band:
  - # 1
    frequency:    0.3644475817
  - # 2
    frequency:    0.8726333087
  - # 3
    frequency:    1.2561285508
  - # 4
    frequency:    1.3843771859
  - # 5
    frequency:    1.9808235874
  - # 6
    frequency:    4.6830707068
  - # 7
    frequency:    4.8373775609
  - # 8
    frequency:    5.8288796496
  - # 9
    frequency:    8.1098266162
  - # 10
    frequency:    8.1633791005
  - # 11
    frequency:    8.3311912008
  - # 12
    frequency:    8.4067664175
  - # 13
    frequency:    9.3994702655
  - # 14
    frequency:   12.6061931174
  - # 15
    frequency:   12.6357625131
  - # 16
    frequency:   13.2459333189
  - # 17
    frequency:   13.5197787044
  - # 18
    frequency:   13.6441131087
  - # 19
    frequency:   13.7167813578
  - # 20
    frequency:   13.7821917196
  - # 21
    frequency:   14.3970342481
  - # 22
    frequency:   26.9938936878
  - # 23
    frequency:   57.1057568902
  - # 24
    frequency:  112.9290866648

- q-position: [    0.0707071,    0.0000000,    0.0000000 ]
  distance:    0.0247311
  band:
  - # 1
    frequency:    0.4181605257
  - # 2
    frequency:    0.9153606753
  - # 3
    frequency:    1.3367448441
  - # 4
    frequency:    1.4691813534
  - # 5
    frequency:    2.1196223166
  - # 6
    frequency:    4.6945375036
  - # 7
    frequency:    4.8647738712
  - # 8
    frequency:    5.8361219237
  - # 9
    frequency:    8.1164068640
  - # 10
    frequency:    8.1793016288
  - # 11
    frequency:    8.3365822025
  - # 12
    frequency:    8.4214615412
  - # 13
    frequency:    9.3845060258
  - # 14
    frequency:   12.5989227314
  - # 15
    frequency:   12.6416521303
  - # 16
    frequency:   13.2169778912
  - # 17
    frequency:   13.5049443587
  - # 18
    frequency:   13.6456944208
  - # 19
    frequency:   13.7145104093
  - # 20
    frequency:   13.7861048401
  - # 21
    frequency:   14.3815844824
  - # 22
    frequency:   26.9868721524
  - # 23
    frequency:   57.0872384823
  - # 24
    frequency:  112.8927394601

- q-position: [    0.0757576,    0.0000000,    0.0000000 ]
  distance:    0.0264976
  band:
  - # 1
    frequency:    0.4736378445
  - # 2
    frequency:    0.9574407770
  - # 3
    frequency:    1.4185719040
  - # 4
    frequency:    1.5542890170
  - # 5
    frequency:    2.2572372246
  - # 6
    frequency:    4.7068518524
  - # 7
    frequency:    4.8918740290
  - # 8
    frequency:    5.8449409784
  - # 9
    frequency:    8.1231232665
  - # 10
    frequency:    8.1962226486
  - # 11
    frequency:    8.3421240896
  - # 12
    frequency:    8.4362228512
  - # 13
    frequency:    9.3690280664
  - # 14
    frequency:   12.5888867341
  - # 15
    frequency:   12.6478723438
  - # 16
    frequency:   13.1872186631
  - # 17
    frequency:   13.4907457894
  - # 18
    frequency:   13.6472163944
  - # 19
    frequency:   13.7122114945
  - # 20
    frequency:   13.7902624210
  - # 21
    frequency:   14.3658232301
  - # 22
    frequency:   26.9795214889
  - # 23
    frequency:   57.0674686852
  - # 24
    frequency:  112.8546373772

- q-position: [    0.0808081,    0.0000000,    0.0000000 ]
  distance:    0.0282641
  band:
  - # 1
    frequency:    0.5307896619
  - # 2
    frequency:    0.9991739104
  - # 3
    frequency:    1.5011086537
  - # 4
    frequency:    1.6396187831
  - # 5
    frequency:    2.3933990224
  - # 6
    frequency:    4.7200095969
  - # 7
    frequency:    4.9183315534
  - # 8
    frequency:    5.8555238032
  - # 9
    frequency:    8.1299096299
  - # 10
    frequency:    8.2140908222
  - # 11
    frequency:    8.3477773605
  - # 12
    frequency:    8.4508681183
  - # 13
    frequency:    9.3531583956
  - # 14
    frequency:   12.5758384303
  - # 15
    frequency:   12.6543859986
  - # 16
    frequency:   13.1569303304
  - # 17
    frequency:   13.4774634975
  - # 18
    frequency:   13.6486790245
  - # 19
    frequency:   13.7097841797
  - # 20
    frequency:   13.7946381128
  - # 21
    frequency:   14.3499320293
  - # 22
    frequency:   26.9718772081
  - # 23
    frequency:   57.0464731401
  - # 24
    frequency:  112.8149640030

- q-position: [    0.0858586,    0.0000000,    0.0000000 ]
  distance:    0.0300307
  band:
  - # 1
    frequency:    0.5895119065
  - # 2
    frequency:    1.0407338121
  - # 3
    frequency:    1.5840001662
  - # 4
    frequency:    1.7250821706
  - # 5
    frequency:    2.5278768646
  - # 6
    frequency:    4.7340052038
  - # 7
    frequency:    4.9438325324
  - # 8
    frequency:    5.8680428651
  - # 9
    frequency:    8.1366983261
  - # 10
    frequency:    8.2328502107
  - # 11
    frequency:    8.3535032653
  - # 12
    frequency:    8.4652107735
  - # 13
    frequency:    9.3370261213
  - # 14
    frequency:   12.5595984791
  - # 15
    frequency:   12.6611496694
  - # 16
    frequency:   13.1264185751
  - # 17
    frequency:   13.4652912425
  - # 18
    frequency:   13.6500881792
  - # 19
    frequency:   13.7071317764
  - # 20
    frequency:   13.7992040545
  - # 21
    frequency:   14.3341009466
  - # 22
    frequency:   26.9639755814
  - # 23
    frequency:   57.0242791936
  - # 24
    frequency:  112.7739098890

- q-position: [    0.0909091,    0.0000000,    0.0000000 ]
  distance:    0.0317972
  band:
  - # 1
    frequency:    0.6496939543
  - # 2
    frequency:    1.0822136863
  - # 3
    frequency:    1.6669896254
  - # 4
    frequency:    1.8105913644
  - # 5
    frequency:    2.6604616533
  - # 6
    frequency:    4.7488316316
  - # 7
    frequency:    4.9681091682
  - # 8
    frequency:    5.8826454707
  - # 9
    frequency:    8.1434208908
  - # 10
    frequency:    8.2524406503
  - # 11
    frequency:    8.3592640541
  - # 12
    frequency:    8.4790608972
  - # 13
    frequency:    9.3207669633
  - # 14
    frequency:   12.5400618011
  - # 15
    frequency:   12.6681134195
  - # 16
    frequency:   13.0960217314
  - # 17
    frequency:   13.4543299590
  - # 18
    frequency:   13.6514547779
  - # 19
    frequency:   13.7041597714
  - # 20
    frequency:   13.8039324697
  - # 21
    frequency:   14.3185260558
  - # 22
    frequency:   26.9558533785
  - # 23
    frequency:   57.0009158781
  - # 24
    frequency:  112.7316715345

- q-position: [    0.0959596,    0.0000000,    0.0000000 ]
  distance:    0.0335637
  band:
  - # 1
    frequency:    0.7112235911
  - # 2
    frequency:    1.1236562353
  - # 3
    frequency:    1.7498864073
  - # 4
    frequency:    1.8960626922
  - # 5
    frequency:    2.7909549118
  - # 6
    frequency:    4.7644802158
  - # 7
    frequency:    4.9909534716
  - # 8
    frequency:    5.8994430343
  - # 9
    frequency:    8.1500086411
  - # 10
    frequency:    8.2727980710
  - # 11
    frequency:    8.3650231605
  - # 12
    frequency:    8.4922266289
  - # 13
    frequency:    9.3045223850
  - # 14
    frequency:   12.5171981910
  - # 15
    frequency:   12.6752206673
  - # 16
    frequency:   13.0661103870
  - # 17
    frequency:   13.4445894820
  - # 18
    frequency:   13.6527938976
  - # 19
    frequency:   13.7007751057
  - # 20
    frequency:   13.8087972569
  - # 21
    frequency:   14.3034063140
  - # 22
    frequency:   26.9475476083
  - # 23
    frequency:   56.9764138911
  - # 24
    frequency:  112.6884503430

- q-position: [    0.1010101,    0.0000000,    0.0000000 ]
  distance:    0.0353302
  band:
  - # 1
    frequency:    0.7739903065
  - # 2
    frequency:    1.1650727621
  - # 3
    frequency:    1.8325452454
  - # 4
    frequency:    1.9814179655
  - # 5
    frequency:    2.9191605641
  - # 6
    frequency:    4.7809405727
  - # 7
    frequency:    5.0122298685
  - # 8
    frequency:    5.9185016356
  - # 9
    frequency:    8.1563933046
  - # 10
    frequency:    8.2938546816
  - # 11
    frequency:    8.3707453278
  - # 12
    frequency:    8.5045162467
  - # 13
    frequency:    9.2884381657
  - # 14
    frequency:   12.4910472324
  - # 15
    frequency:   12.6824081743
  - # 16
    frequency:   13.0370842145
  - # 17
    frequency:   13.4359976272
  - # 18
    frequency:   13.6541238986
  - # 19
    frequency:   13.6968869433
  - # 20
    frequency:   13.8137754604
  - # 21
    frequency:   14.2889397543
  - # 22
    frequency:   26.9390952649
  - # 23
    frequency:   56.9508055695
  - # 24
    frequency:  112.6444515568

- q-position: [    0.1060606,    0.0000000,    0.0000000 ]
  distance:    0.0370967
  band:
  - # 1
    frequency:    0.8378874701
  - # 2
    frequency:    1.2064552365
  - # 3
    frequency:    1.9148525957
  - # 4
    frequency:    2.0665847598
  - # 5
    frequency:    3.0448781035
  - # 6
    frequency:    4.7982005248
  - # 7
    frequency:    5.0318854146
  - # 8
    frequency:    5.9398353292
  - # 9
    frequency:    8.1625076538
  - # 10
    frequency:    8.3155388989
  - # 11
    frequency:    8.3763966841
  - # 12
    frequency:    8.5157412377
  - # 13
    frequency:    9.2726622162
  - # 14
    frequency:   12.4617093669
  - # 15
    frequency:   12.6896061731
  - # 16
    frequency:   13.0093656079
  - # 17
    frequency:   13.4284148541
  - # 18
    frequency:   13.6554656283
  - # 19
    frequency:   13.6924093207
  - # 20
    frequency:   13.8188485387
  - # 21
    frequency:   14.2753189598
  - # 22
    frequency:   26.9305330816
  - # 23
    frequency:   56.9241248613
  - # 24
    frequency:  112.5998831762

- q-position: [    0.1111111,    0.0000000,    0.0000000 ]
  distance:    0.0388632
  band:
  - # 1
    frequency:    0.9028137203
  - # 2
    frequency:    1.2477839201
  - # 3
    frequency:    1.9967176008
  - # 4
    frequency:    2.1514961890
  - # 5
    frequency:    3.1678962317
  - # 6
    frequency:    4.8162460496
  - # 7
    frequency:    5.0499566309
  - # 8
    frequency:    5.9634033740
  - # 9
    frequency:    8.1682861387
  - # 10
    frequency:    8.3377748024
  - # 11
    frequency:    8.3819447760
  - # 12
    frequency:    8.5257207755
  - # 13
    frequency:    9.2573414412
  - # 14
    frequency:   12.4293355048
  - # 15
    frequency:   12.6967386518
  - # 16
    frequency:   12.9833901764
  - # 17
    frequency:   13.4216518484
  - # 18
    frequency:   13.6568417329
  - # 19
    frequency:   13.6872658523
  - # 20
    frequency:   13.8240033739
  - # 21
    frequency:   14.2627258747
  - # 22
    frequency:   26.9218972933
  - # 23
    frequency:   56.8964072929
  - # 24
    frequency:  112.5549548707

- q-position: [    0.1161616,    0.0000000,    0.0000000 ]
  distance:    0.0406297
  band:
  - # 1
    frequency:    0.9686737791
  - # 2
    frequency:    1.2890321985
  - # 3
    frequency:    2.0780659896
  - # 4
    frequency:    2.2360904542
  - # 5
    frequency:    3.2879863672
  - # 6
    frequency:    4.8350612545
  - # 7
    frequency:    5.0665726159
  - # 8
    frequency:    5.9891119012
  - # 9
    frequency:    8.1736655070
  - # 10
    frequency:    8.3604806775
  - # 11
    frequency:    8.3873585751
  - # 12
    frequency:    8.5342881852
  - # 13
    frequency:    9.2426175072
  - # 14
    frequency:   12.3941172238
  - # 15
    frequency:   12.7037238168
  - # 16
    frequency:   12.9595946964
  - # 17
    frequency:   13.4154872577
  - # 18
    frequency:   13.6582760777
  - # 19
    frequency:   13.6813964318
  - # 20
    frequency:   13.8292329927
  - # 21
    frequency:   14.2513261572
  - # 22
    frequency:   26.9132234098
  - # 23
    frequency:   56.8676899322
  - # 24
    frequency:  112.5098768876

- q-position: [    0.1212121,    0.0000000,    0.0000000 ]
  distance:    0.0423962
  band:
  - # 1
    frequency:    1.0353788430
  - # 2
    frequency:    1.3301696523
  - # 3
    frequency:    2.1588358689
  - # 4
    frequency:    2.3203103147
  - # 5
    frequency:    3.4048956269
  - # 6
    frequency:    4.8546283790
  - # 7
    frequency:    5.0819548839
  - # 8
    frequency:    6.0168197300
  - # 9
    frequency:    8.1785854072
  - # 10
    frequency:    8.3835657042
  - # 11
    frequency:    8.3926084669
  - # 12
    frequency:    8.5413003677
  - # 13
    frequency:    9.2286214933
  - # 14
    frequency:   12.3562786548
  - # 15
    frequency:   12.7104747530
  - # 16
    frequency:   12.9384035585
  - # 17
    frequency:   13.4096834356
  - # 18
    frequency:   13.6597932573
  - # 19
    frequency:   13.6747655713
  - # 20
    frequency:   13.8345369866
  - # 21
    frequency:   14.2412634663
  - # 22
    frequency:   26.9045460022
  - # 23
    frequency:   56.8380113471
  - # 24
    frequency:  112.4648589652

- q-position: [    0.1262626,    0.0000000,    0.0000000 ]
  distance:    0.0441627
  band:
  - # 1
    frequency:    1.1028466562
  - # 2
    frequency:    1.3711640074
  - # 3
    frequency:    2.2389747471
  - # 4
    frequency:    2.4041025524
  - # 5
    frequency:    3.5183390617
  - # 6
    frequency:    4.8749278240
  - # 7
    frequency:    5.0964150186
  - # 8
    frequency:    6.0463473141
  - # 9
    frequency:    8.1829889624
  - # 10
    frequency:    8.3976662396
  - # 11
    frequency:    8.4069225499
  - # 12
    frequency:    8.5466522479
  - # 13
    frequency:    9.2154676045
  - # 14
    frequency:   12.3160701345
  - # 15
    frequency:   12.7169003014
  - # 16
    frequency:   12.9202148763
  - # 17
    frequency:   13.4039991286
  - # 18
    frequency:   13.6614181659
  - # 19
    frequency:   13.6673716686
  - # 20
    frequency:   13.8399216351
  - # 21
    frequency:   14.2326542465
  - # 22
    frequency:   26.8958985011
  - # 23
    frequency:   56.8074115591
  - # 24
    frequency:  112.4201092568

- q-position: [    0.1313131,    0.0000000,    0.0000000 ]
  distance:    0.0459292
  band:
  - # 1
    frequency:    1.1710013469
  - # 2
    frequency:    1.4119823689
  - # 3
    frequency:    2.3184373764
  - # 4
    frequency:    2.4874174638
  - # 5
    frequency:    3.6279911746
  - # 6
    frequency:    4.8959382078
  - # 7
    frequency:    5.1103514620
  - # 8
    frequency:    6.0774873928
  - # 9
    frequency:    8.1868233113
  - # 10
    frequency:    8.4025050814
  - # 11
    frequency:    8.4304099394
  - # 12
    frequency:    8.5503017248
  - # 13
    frequency:    9.2032463987
  - # 14
    frequency:   12.2737630416
  - # 15
    frequency:   12.7229061688
  - # 16
    frequency:   12.9053871267
  - # 17
    frequency:   13.3981992621
  - # 18
    frequency:   13.6592561391
  - # 19
    frequency:   13.6631755885
  - # 20
    frequency:   13.8453997425
  - # 21
    frequency:   14.2255836772
  - # 22
    frequency:   26.8873130101
  - # 23
    frequency:   56.7759319920
  - # 24
    frequency:  112.3758332721

- q-position: [    0.1363636,    0.0000000,    0.0000000 ]
  distance:    0.0476957
  band:
  - # 1
    frequency:    1.2397730879
  - # 2
    frequency:    1.4525919936
  - # 3
    frequency:    2.3971841463
  - # 4
    frequency:    2.5702083926
  - # 5
    frequency:    3.7334771567
  - # 6
    frequency:    4.9176364478
  - # 7