nqpoint: 300    
npath: 3      
segment_nqpoint:
- 100
- 100
- 100
labels:
- [ 'G', 'M' ]
- [ 'M', 'K' ]
- [ 'K', 'G' ]
reciprocal_lattice:
- [   0.30375625,   0.17537375,   0.00000000 ] # a*
- [   0.00000000,   0.35074751,   0.00000000 ] # b*
- [   0.00000000,   0.00000000,   0.04178256 ] # c*
natom: 6      
lattice:
- [     3.292113308965729,     0.000000000000000,     0.000000000000000 ] # a
- [    -1.646056654482865,     2.851053757696809,     0.000000000000000 ] # b
- [     0.000000000000000,     0.000000000000000,    23.933429200292302 ] # c
points:
- symbol: Hf # 1
  coordinates: [  0.333332985432215,  0.666666983183674,  0.414635871201241 ]
  mass: 178.490000
- symbol: Hf # 2
  coordinates: [  0.666666984744047,  0.333332985985145,  0.528899566321447 ]
  mass: 178.490000
- symbol: N # 3
  coordinates: [  0.000000000000000,  0.000000000000000,  0.466650511978286 ]
  mass: 14.006700
- symbol: N # 4
  coordinates: [  0.333332985432215,  0.666666983183674,  0.567088158770165 ]
  mass: 14.006700
- symbol: O # 5
  coordinates: [  0.333332985432215,  0.666666983183674,  0.623956938026663 ]
  mass: 15.999400
- symbol: O # 6
  coordinates: [  0.666666984744047,  0.333332985985145,  0.376043061973337 ]
  mass: 15.999400

phonon:
- q-position: [    0.0000000,    0.0000000,    0.0000000 ]
  distance:    0.0000000
  band:
  - # 1
    frequency:  -10.2498226406
  - # 2
    frequency:  -10.2498226406
  - # 3
    frequency:   -0.0000112308
  - # 4
    frequency:    0.0000001774
  - # 5
    frequency:    0.0000099645
  - # 6
    frequency:    1.2252060686
  - # 7
    frequency:    1.2252060687
  - # 8
    frequency:    4.0923867000
  - # 9
    frequency:    5.6598349219
  - # 10
    frequency:    5.6598349219
  - # 11
    frequency:    8.5102177647
  - # 12
    frequency:   10.5038855158
  - # 13
    frequency:   10.5038855159
  - # 14
    frequency:   13.1593805788
  - # 15
    frequency:   13.1593805788
  - # 16
    frequency:   14.8208107095
  - # 17
    frequency:   15.7349946801
  - # 18
    frequency:   34.9380081514

- q-position: [    0.0050505,    0.0000000,    0.0000000 ]
  distance:    0.0017715
  band:
  - # 1
    frequency:  -10.2490867360
  - # 2
    frequency:  -10.2469422391
  - # 3
    frequency:    0.0014606891
  - # 4
    frequency:    0.0020516192
  - # 5
    frequency:    0.0747858249
  - # 6
    frequency:    1.2278951527
  - # 7
    frequency:    1.2293722731
  - # 8
    frequency:    4.0908772356
  - # 9
    frequency:    5.6618218543
  - # 10
    frequency:    5.6647680303
  - # 11
    frequency:    8.5111572363
  - # 12
    frequency:   10.5043465561
  - # 13
    frequency:   10.5043709859
  - # 14
    frequency:   13.1589586093
  - # 15
    frequency:   13.1598457653
  - # 16
    frequency:   14.8206778940
  - # 17
    frequency:   15.7357355156
  - # 18
    frequency:   34.9375650802

- q-position: [    0.0101010,    0.0000000,    0.0000000 ]
  distance:    0.0035429
  band:
  - # 1
    frequency:  -10.2468818839
  - # 2
    frequency:  -10.2383108971
  - # 3
    frequency:    0.0058226268
  - # 4
    frequency:    0.0115942179
  - # 5
    frequency:    0.1490341416
  - # 6
    frequency:    1.2358673568
  - # 7
    frequency:    1.2417883348
  - # 8
    frequency:    4.0864174604
  - # 9
    frequency:    5.6677772654
  - # 10
    frequency:    5.6794882978
  - # 11
    frequency:    8.5139841108
  - # 12
    frequency:   10.5057331673
  - # 13
    frequency:   10.5058280573
  - # 14
    frequency:   13.1576909957
  - # 15
    frequency:   13.1612389926
  - # 16
    frequency:   14.8202772874
  - # 17
    frequency:   15.7379559444
  - # 18
    frequency:   34.9362361012

- q-position: [    0.0151515,    0.0000000,    0.0000000 ]
  distance:    0.0053144
  band:
  - # 1
    frequency:  -10.2432166528
  - # 2
    frequency:  -10.2239581716
  - # 3
    frequency:    0.0130249468
  - # 4
    frequency:    0.0269477433
  - # 5
    frequency:    0.2222460106
  - # 6
    frequency:    1.2488506476
  - # 7
    frequency:    1.2622091370
  - # 8
    frequency:    4.0792050851
  - # 9
    frequency:    5.6776850054
  - # 10
    frequency:    5.7037658857
  - # 11
    frequency:    8.5187240914
  - # 12
    frequency:   10.5080557642
  - # 13
    frequency:   10.5082586986
  - # 14
    frequency:   13.1555726974
  - # 15
    frequency:   13.1635532829
  - # 16
    frequency:   14.8196025056
  - # 17
    frequency:   15.7416496432
  - # 18
    frequency:   34.9340219183

- q-position: [    0.0202020,    0.0000000,    0.0000000 ]
  distance:    0.0070858
  band:
  - # 1
    frequency:  -10.2381052701
  - # 2
    frequency:  -10.2039332244
  - # 3
    frequency:    0.0229753937
  - # 4
    frequency:    0.0478173384
  - # 5
    frequency:    0.2939956195
  - # 6
    frequency:    1.2664313038
  - # 7
    frequency:    1.2902349091
  - # 8
    frequency:    4.0695445629
  - # 9
    frequency:    5.6915181872
  - # 10
    frequency:    5.7372401192
  - # 11
    frequency:    8.5254210993
  - # 12
    frequency:   10.5113315170
  - # 13
    frequency:   10.5116661394
  - # 14
    frequency:   13.1525955623
  - # 15
    frequency:   13.1667770703
  - # 16
    frequency:   14.8186432213
  - # 17
    frequency:   15.7468057809
  - # 18
    frequency:   34.9309237053

- q-position: [    0.0252525,    0.0000000,    0.0000000 ]
  distance:    0.0088573
  band:
  - # 1
    frequency:  -10.2315675419
  - # 2
    frequency:  -10.1783046665
  - # 3
    frequency:    0.0355604919
  - # 4
    frequency:    0.0736973812
  - # 5
    frequency:    0.3639567765
  - # 6
    frequency:    1.2881013903
  - # 7
    frequency:    1.3253253218
  - # 8
    frequency:    4.0578158666
  - # 9
    frequency:    5.7092392344
  - # 10
    frequency:    5.7794467792
  - # 11
    frequency:    8.5341389015
  - # 12
    frequency:   10.5155840806
  - # 13
    frequency:   10.5160547945
  - # 14
    frequency:   13.1487486911
  - # 15
    frequency:   13.1708942956
  - # 16
    frequency:   14.8173856096
  - # 17
    frequency:   15.7534086067
  - # 18
    frequency:   34.9269431067

- q-position: [    0.0303030,    0.0000000,    0.0000000 ]
  distance:    0.0106287
  band:
  - # 1
    frequency:  -10.2236287411
  - # 2
    frequency:  -10.1471603304
  - # 3
    frequency:    0.0506564038
  - # 4
    frequency:    0.1040261820
  - # 5
    frequency:    0.4319177641
  - # 6
    frequency:    1.3133071477
  - # 7
    frequency:    1.3668207158
  - # 8
    frequency:    4.0444408394
  - # 9
    frequency:    5.7307999560
  - # 10
    frequency:    5.8298464091
  - # 11
    frequency:    8.5449633922
  - # 12
    frequency:   10.5208432357
  - # 13
    frequency:   10.5214301600
  - # 14
    frequency:   13.1440189312
  - # 15
    frequency:   13.1758845365
  - # 16
    frequency:   14.8158129265
  - # 17
    frequency:   15.7614369257
  - # 18
    frequency:   34.9220822385

- q-position: [    0.0353535,    0.0000000,    0.0000000 ]
  distance:    0.0124002
  band:
  - # 1
    frequency:  -10.2143194642
  - # 2
    frequency:  -10.1106069612
  - # 3
    frequency:    0.0681381475
  - # 4
    frequency:    0.1382329339
  - # 5
    frequency:    0.4977825255
  - # 6
    frequency:    1.3414899215
  - # 7
    frequency:    1.4139707540
  - # 8
    frequency:    4.0298525496
  - # 9
    frequency:    5.7561416532
  - # 10
    frequency:    5.8878483713
  - # 11
    frequency:    8.5580055186
  - # 12
    frequency:   10.5271444614
  - # 13
    frequency:   10.5277986822
  - # 14
    frequency:   13.1383914852
  - # 15
    frequency:   13.1817231709
  - # 16
    frequency:   14.8139061793
  - # 17
    frequency:   15.7708635071
  - # 18
    frequency:   34.9163436898

- q-position: [    0.0404040,    0.0000000,    0.0000000 ]
  distance:    0.0141716
  band:
  - # 1
    frequency:  -10.2036754575
  - # 2
    frequency:  -10.0687698139
  - # 3
    frequency:    0.0878860891
  - # 4
    frequency:    0.1757681805
  - # 5
    frequency:    0.5615587478
  - # 6
    frequency:    1.3721157616
  - # 7
    frequency:    1.4659692212
  - # 8
    frequency:    4.0144708979
  - # 9
    frequency:    5.7851952680
  - # 10
    frequency:    5.9528276202
  - # 11
    frequency:    8.5734048214
  - # 12
    frequency:   10.5345284645
  - # 13
    frequency:   10.5351676031
  - # 14
    frequency:   13.1318506157
  - # 15
    frequency:   13.1883815720
  - # 16
    frequency:   14.8116448451
  - # 17
    frequency:   15.7816544772
  - # 18
    frequency:   34.9097305250

- q-position: [    0.0454545,    0.0000000,    0.0000000 ]
  distance:    0.0159431
  band:
  - # 1
    frequency:  -10.1917374126
  - # 2
    frequency:  -10.0217921451
  - # 3
    frequency:    0.1097895307
  - # 4
    frequency:    0.2161220914
  - # 5
    frequency:    0.6233361715
  - # 6
    frequency:    1.4046936231
  - # 7
    frequency:    1.5219918396
  - # 8
    frequency:    3.9986854989
  - # 9
    frequency:    5.8178815787
  - # 10
    frequency:    6.0241334456
  - # 11
    frequency:    8.5913335156
  - # 12
    frequency:   10.5430406979
  - # 13
    frequency:   10.5435447831
  - # 14
    frequency:   13.1243804280
  - # 15
    frequency:   13.1958273302
  - # 16
    frequency:   14.8090075896
  - # 17
    frequency:   15.7937687489
  - # 18
    frequency:   34.9022462856

- q-position: [    0.0505051,    0.0000000,    0.0000000 ]
  distance:    0.0177145
  band:
  - # 1
    frequency:  -10.1785507336
  - # 2
    frequency:   -9.9698345855
  - # 3
    frequency:    0.1337478408
  - # 4
    frequency:    0.2588332473
  - # 5
    frequency:    0.6832602109
  - # 6
    frequency:    1.4387842483
  - # 7
    frequency:    1.5812328168
  - # 8
    frequency:    3.9828452711
  - # 9
    frequency:    5.8541114503
  - # 10
    frequency:    6.1010911045
  - # 11
    frequency:    8.6120009679
  - # 12
    frequency:   10.5527309010
  - # 13
    frequency:   10.5529385063
  - # 14
    frequency:   13.1159657123
  - # 15
    frequency:   13.2040245006
  - # 16
    frequency:   14.8059729436
  - # 17
    frequency:   15.8071575385
  - # 18
    frequency:   34.8938949933

- q-position: [    0.0555556,    0.0000000,    0.0000000 ]
  distance:    0.0194860
  band:
  - # 1
    frequency:  -10.1641652753
  - # 2
    frequency:   -9.9130743810
  - # 3
    frequency:    0.1596698449
  - # 4
    frequency:    0.3034908069
  - # 5
    frequency:    0.7415060323
  - # 6
    frequency:    1.4740024587
  - # 7
    frequency:    1.6429360429
  - # 8
    frequency:    3.9672533807
  - # 9
    frequency:    5.8937861465
  - # 10
    frequency:    6.1829981558
  - # 11
    frequency:    8.6356583102
  - # 12
    frequency:   10.5633572688
  - # 13
    frequency:   10.5636527079
  - # 14
    frequency:   13.1065928251
  - # 15
    frequency:   13.2129338699
  - # 16
    frequency:   14.8025199011
  - # 17
    frequency:   15.8217640096
  - # 18
    frequency:   34.8846811529

- q-position: [    0.0606061,    0.0000000,    0.0000000 ]
  distance:    0.0212574
  band:
  - # 1
    frequency:  -10.1486350555
  - # 2
    frequency:   -9.8517044891
  - # 3
    frequency:    0.1874721992
  - # 4
    frequency:    0.3497325855
  - # 5
    frequency:    0.7982568587
  - # 6
    frequency:    1.5100153363
  - # 7
    frequency:    1.7064182413
  - # 8
    frequency:    3.9521660148
  - # 9
    frequency:    5.9367977045
  - # 10
    frequency:    6.2691176245
  - # 11
    frequency:    8.6626027542
  - # 12
    frequency:   10.5748095546
  - # 13
    frequency:   10.5758633684
  - # 14
    frequency:   13.0962505960
  - # 15
    frequency:   13.2225132421
  - # 16
    frequency:   14.7986284108
  - # 17
    frequency:   15.8375230776
  - # 18
    frequency:   34.8746097569

- q-position: [    0.0656566,    0.0000000,    0.0000000 ]
  distance:    0.0230289
  band:
  - # 1
    frequency:  -10.1320179416
  - # 2
    frequency:   -9.7859325243
  - # 3
    frequency:    0.2170773327
  - # 4
    frequency:    0.3972409526
  - # 5
    frequency:    0.8536882931
  - # 6
    frequency:    1.5465381799
  - # 7
    frequency:    1.7710832208
  - # 8
    frequency:    3.9377936490
  - # 9
    frequency:    5.9830293782
  - # 10
    frequency:    6.3586701479
  - # 11
    frequency:    8.6931809214
  - # 12
    frequency:   10.5873036026
  - # 13
    frequency:   10.5894236412
  - # 14
    frequency:   13.0849312440
  - # 15
    frequency:   13.2327177367
  - # 16
    frequency:   14.7942797440
  - # 17
    frequency:   15.8543613935
  - # 18
    frequency:   34.8636862892

- q-position: [    0.0707071,    0.0000000,    0.0000000 ]
  distance:    0.0248003
  band:
  - # 1
    frequency:  -10.1143753150
  - # 2
    frequency:   -9.7159795443
  - # 3
    frequency:    0.2484113608
  - # 4
    frequency:    0.4457378279
  - # 5
    frequency:    0.9079587206
  - # 6
    frequency:    1.5833295054
  - # 7
    frequency:    1.8364279211
  - # 8
    frequency:    3.9243037936
  - # 9
    frequency:    6.0323561469
  - # 10
    frequency:    6.4508272089
  - # 11
    frequency:    8.7277901734
  - # 12
    frequency:   10.6008471654
  - # 13
    frequency:   10.6043979249
  - # 14
    frequency:   13.0726312942
  - # 15
    frequency:   13.2435000971
  - # 16
    frequency:   14.7894567331
  - # 17
    frequency:   15.8721975150
  - # 18
    frequency:   34.8519167306

- q-position: [    0.0757576,    0.0000000,    0.0000000 ]
  distance:    0.0265718
  band:
  - # 1
    frequency:  -10.0957717138
  - # 2
    frequency:   -9.6420786783
  - # 3
    frequency:    0.2814022110
  - # 4
    frequency:    0.4949795558
  - # 5
    frequency:    0.9612047826
  - # 6
    frequency:    1.6201858642
  - # 7
    frequency:    1.9020418460
  - # 8
    frequency:    3.9118245223
  - # 9
    frequency:    6.0846452878
  - # 10
    frequency:    6.5447075710
  - # 11
    frequency:    8.7668765321
  - # 12
    frequency:   10.6154472654
  - # 13
    frequency:   10.6208547069
  - # 14
    frequency:   13.0593524894
  - # 15
    frequency:   13.2548110054
  - # 16
    frequency:   14.7841438844
  - # 17
    frequency:   15.8909422600
  - # 18
    frequency:   34.8393075652

- q-position: [    0.0808081,    0.0000000,    0.0000000 ]
  distance:    0.0283432
  band:
  - # 1
    frequency:  -10.0762744583
  - # 2
    frequency:   -9.5644736012
  - # 3
    frequency:    0.3159780731
  - # 4
    frequency:    0.5447520858
  - # 5
    frequency:    1.0135405168
  - # 6
    frequency:    1.6569369043
  - # 7
    frequency:    1.9676017321
  - # 8
    frequency:    3.9004483522
  - # 9
    frequency:    6.1397570088
  - # 10
    frequency:    6.6393790863
  - # 11
    frequency:    8.8109273865
  - # 12
    frequency:   10.6311099489
  - # 13
    frequency:   10.6388674304
  - # 14
    frequency:   13.0451026928
  - # 15
    frequency:   13.2665994002
  - # 16
    frequency:   14.7783273772
  - # 17
    frequency:   15.9104992291
  - # 18
    frequency:   34.8258657862

- q-position: [    0.0858586,    0.0000000,    0.0000000 ]
  distance:    0.0301147
  band:
  - # 1
    frequency:  -10.0559532607
  - # 2
    frequency:   -9.4834168646
  - # 3
    frequency:    0.3520662083
  - # 4
    frequency:    0.5948666565
  - # 5
    frequency:    1.0650588118
  - # 6
    frequency:    1.6934408746
  - # 7
    frequency:    2.0328631555
  - # 8
    frequency:    3.8902362263
  - # 9
    frequency:    6.1975451328
  - # 10
    frequency:    6.7338680401
  - # 11
    frequency:    8.8604569318
  - # 12
    frequency:   10.6478400411
  - # 13
    frequency:   10.6585159022
  - # 14
    frequency:   13.0298967859
  - # 15
    frequency:   13.2788127944
  - # 16
    frequency:   14.7719949686
  - # 17
    frequency:   15.9307654761
  - # 18
    frequency:   34.8115989046

- q-position: [    0.0909091,    0.0000000,    0.0000000 ]
  distance:    0.0318861
  band:
  - # 1
    frequency:  -10.0348798231
  - # 2
    frequency:   -9.3991681035
  - # 3
    frequency:    0.3895920998
  - # 4
    frequency:    0.6451560496
  - # 5
    frequency:    1.1158340963
  - # 6
    frequency:    1.7295806424
  - # 7
    frequency:    2.0976504344
  - # 8
    frequency:    3.8812214737
  - # 9
    frequency:    6.2578578285
  - # 10
    frequency:    6.8271778706
  - # 11
    frequency:    8.9159824029
  - # 12
    frequency:   10.6656409042
  - # 13
    frequency:   10.6798883988
  - # 14
    frequency:   13.0137575697
  - # 15
    frequency:   13.2913975898
  - # 16
    frequency:   14.7651358262
  - # 17
    frequency:   15.9516322989
  - # 18
    frequency:   34.7965149567

- q-position: [    0.0959596,    0.0000000,    0.0000000 ]
  distance:    0.0336576
  band:
  - # 1
    frequency:  -10.0131274272
  - # 2
    frequency:   -9.3119921421
  - # 3
    frequency:    0.4284789055
  - # 4
    frequency:    0.6954714037
  - # 5
    frequency:    1.1659254984
  - # 6
    frequency:    1.7652602200
  - # 7
    frequency:    2.1618458290
  - # 8
    frequency:    3.8734136918
  - # 9
    frequency:    6.3205383770
  - # 10
    frequency:    6.9183181900
  - # 11
    frequency:    8.9779899278
  - # 12
    frequency:   10.6845142005
  - # 13
    frequency:   10.7030846751
  - # 14
    frequency:   12.9967166814
  - # 15
    frequency:   13.3042993875
  - # 16
    frequency:   14.7577403124
  - # 17
    frequency:   15.9729861245
  - # 18
    frequency:   34.7806225143

- q-position: [    0.1010101,    0.0000000,    0.0000000 ]
  distance:    0.0354290
  band:
  - # 1
    frequency:   -9.9907705191
  - # 2
    frequency:   -9.2221570289
  - # 3
    frequency:    0.4686471644
  - # 4
    frequency:    0.7456795411
  - # 5
    frequency:    1.2153799884
  - # 6
    frequency:    1.8004017617
  - # 7
    frequency:    2.2253787269
  - # 8
    frequency:    3.8668025291
  - # 9
    frequency:    6.3854259653
  - # 10
    frequency:    7.0063432901
  - # 11
    frequency:    9.0468904407
  - # 12
    frequency:   10.7044596611
  - # 13
    frequency:   10.7282201344
  - # 14
    frequency:   12.9788155482
  - # 15
    frequency:   13.3174632902
  - # 16
    frequency:   14.7497997449
  - # 17
    frequency:   15.9947094572
  - # 18
    frequency:   34.7639306950

- q-position: [    0.1060606,    0.0000000,    0.0000000 ]
  distance:    0.0372005
  band:
  - # 1
    frequency:   -9.9678842930
  - # 2
    frequency:   -9.1299320388
  - # 3
    frequency:    0.5100147087
  - # 4
    frequency:    0.7956607488
  - # 5
    frequency:    1.2642352249
  - # 6
    frequency:    1.8349429797
  - # 7
    frequency:    2.2882152679
  - # 8
    frequency:    3.8613613654
  - # 9
    frequency:    6.4523564988
  - # 10
    frequency:    7.0903968374
  - # 11
    frequency:    9.1229684680
  - # 12
    frequency:   10.7254748624
  - # 13
    frequency:   10.7554314966
  - # 14
    frequency:   12.9601064053
  - # 15
    frequency:   13.3308341955
  - # 16
    frequency:   14.7413061559
  - # 17
    frequency:   16.0166818649
  - # 18
    frequency:   34.7464491735

- q-position: [    0.1111111,    0.0000000,    0.0000000 ]
  distance:    0.0389719
  band:
  - # 1
    frequency:   -9.9445442788
  - # 2
    frequency:   -9.0355856790
  - # 3
    frequency:    0.5524967372
  - # 4
    frequency:    0.8453069489
  - # 5
    frequency:    1.3125219679
  - # 6
    frequency:    1.8688349243
  - # 7
    frequency:    2.3503486925
  - # 8
    frequency:    3.8570508856
  - # 9
    frequency:    6.5211634214
  - # 10
    frequency:    7.1697568364
  - # 11
    frequency:    9.2063291253
  - # 12
    frequency:   10.7475550119
  - # 13
    frequency:   10.7848843774
  - # 14
    frequency:   12.9406534152
  - # 15
    frequency:   13.3443570794
  - # 16
    frequency:   14.7322520682
  - # 17
    frequency:   16.0387809796
  - # 18
    frequency:   34.7281881944

- q-position: [    0.1161616,    0.0000000,    0.0000000 ]
  distance:    0.0407434
  band:
  - # 1
    frequency:   -9.9208259357
  - # 2
    frequency:   -8.9393837427
  - # 3
    frequency:    0.5960060149
  - # 4
    frequency:    0.8945202000
  - # 5
    frequency:    1.3602660094
  - # 6
    frequency:    1.9020400771
  - # 7
    frequency:    2.4117905760
  - # 8
    frequency:    3.8538225493
  - # 9
    frequency:    6.5916785373
  - # 10
    frequency:    7.2438732501
  - # 11
    frequency:    9.2968502739
  - # 12
    frequency:   10.7706927419
  - # 13
    frequency:   10.8167832677
  - # 14
    frequency:   12.9205339406
  - # 15
    frequency:   13.3579772676
  - # 16
    frequency:   14.7226303056
  - # 17
    frequency:   16.0608834902
  - # 18
    frequency:   34.7091585854

- q-position: [    0.1212121,    0.0000000,    0.0000000 ]
  distance:    0.0425148
  band:
  - # 1
    frequency:   -9.8968042580
  - # 2
    frequency:   -8.8415874503
  - # 3
    frequency:    0.6404531642
  - # 4
    frequency:    0.9432114763
  - # 5
    frequency:    1.4074896297
  - # 6
    frequency:    1.9345307131
  - # 7
    frequency:    2.4725630270
  - # 8
    frequency:    3.8516219531
  - # 9
    frequency:    6.6637328252
  - # 10
    frequency:    7.3123910315
  - # 11
    frequency:    9.3941463953
  - # 12
    frequency:   10.7948779154
  - # 13
    frequency:   10.8513844175
  - # 14
    frequency:   12.8998400400
  - # 15
    frequency:   13.3716406951
  - # 16
    frequency:   14.7124338492
  - # 17
    frequency:   16.0828661129
  - # 18
    frequency:   34.6893717727

- q-position: [    0.1262626,    0.0000000,    0.0000000 ]
  distance:    0.0442863
  band:
  - # 1
    frequency:   -9.8725533954
  - # 2
    frequency:   -8.7424517185
  - # 3
    frequency:    0.6857470270
  - # 4
    frequency:    0.9912996767
  - # 5
    frequency:    1.4542126183
  - # 6
    frequency:    1.9662874917
  - # 7
    frequency:    2.5326918596
  - # 8
    frequency:    3.8503920915
  - # 9
    frequency:    6.7371572390
  - # 10
    frequency:    7.3751541164
  - # 11
    frequency:    9.4975480750
  - # 12
    frequency:   10.8200974413
  - # 13
    frequency:   10.8890119901
  - # 14
    frequency:   12.8786802812
  - # 15
    frequency:   13.3852941526
  - # 16
    frequency:   14.7016557513
  - # 17
    frequency:   16.1046065267
  - # 18
    frequency:   34.6688397959

- q-position: [    0.1313131,    0.0000000,    0.0000000 ]
  distance:    0.0460578
  band:
  - # 1
    frequency:   -9.8481462911
  - # 2
    frequency:   -8.6422235918
  - # 3
    frequency:    0.7317950736
  - # 4
    frequency:    1.0387108262
  - # 5
    frequency:    1.5004529113
  - # 6
    frequency:    1.9972982438
  - # 7
    frequency:    2.5922006984
  - # 8
    frequency:    3.8500765288
  - # 9
    frequency:    6.8117834885
  - # 10
    frequency:    7.4321903229
  - # 11
    frequency:    9.6060970764
  - # 12
    frequency:   10.8463351027
  - # 13
    frequency:   10.9300773392
  - # 14
    frequency:   12.8571820118
  - # 15
    frequency:   13.3988855203
  - # 16
    frequency:   14.6902891113
  - # 17
    frequency:   16.1259842638
  - # 18
    frequency:   34.6475753250

- q-position: [    0.1363636,    0.0000000,    0.0000000 ]
  distance:    0.0478292
  band:
  - # 1
    frequency:   -9.8236543427
  - # 2
    frequency:   -8.5411408659
  - # 3
    frequency:    0.7785038453
  - # 4
    frequency:    1.0853774336
  - # 5
    frequency:    1.5462269111
  - # 6
    frequency:    2.0275569265
  - # 7
    frequency:    2.6511059305
  - # 8
    frequency:    3.8506225031
  - # 9
    frequency:    6.8874447958
  - # 10
    frequency:    7.4836813631
  - # 11
    frequency:    9.7185539554
  - # 12
    frequency:   10.8735713972
  - # 13
    frequency:   10.9750999838
  - # 14
    frequency:   12.8354942809
  - # 15
    frequency:   13.4123639882
  - # 16
    frequency:   14.6783271220
  - # 17
    frequency:   16.1468815507
  - # 18
    frequency:   34.6255916783

- q-position: [    0.1414141,    0.0000000,    0.0000000 ]
  distance:    0.0496007
  band:
  - # 1
    frequency:   -9.7991470866
  - # 2
    frequency:   -8.4394309247
  - # 3
    frequency:    0.8257794166
  - # 4
    frequency:    1.1312379790
  - # 5
    frequency:    1.5915495514
  - # 6
    frequency:    2.0570627216
  - # 7
    frequency:    2.7094123835
  - # 8
    frequency:    3.8519840055
  - # 9
    frequency:    6.9639766226
  - # 10
    frequency:    7.5299246910
  - # 11
    frequency:    9.8334152281
  - # 12
    frequency:   10.9017833913
  - # 13
    frequency:   11.0247261894
  - # 14
    frequency:   12.8137917112
  - # 15
    frequency:   13.4256802643
  - # 16
    frequency:   14.6657631876
  - # 17
    frequency:   16.1671840965
  - # 18
    frequency:   34.6029028403

- q-position: [    0.1464646,    0.0000000,    0.0000000 ]
  distance:    0.0513721
  band:
  - # 1
    frequency:   -9.7746919105
  - # 2
    frequency:   -8.3373098057
  - # 3
    frequency:    0.8735278677
  - # 4
    frequency:    1.1762365056
  - # 5
    frequency:    1.6364341718
  - # 6
    frequency:    2.0858192575
  - # 7
    frequency:    2.7671095776
  - # 8
    frequency:    3.8541248857
  - # 9
    frequency:    7.0412173637
  - # 10
    frequency:    7.5712940938
  - # 11
    frequency:    9.9489415612
  - # 12
    frequency:   10.9309445886
  - # 13
    frequency:   11.0797362742
  - # 14
    frequency:   12.7922797707
  - # 15
    frequency:   13.4387867701
  - # 16
    frequency:   14.6525911211
  - # 17
    frequency:   16.1867818284
  - # 18
    frequency:   34.5795234814

- q-position: [    0.1515152,    0.0000000,    0.0000000 ]
  distance:    0.0531436
  band:
  - # 1
    frequency:   -9.7503537939
  - # 2
    frequency:   -8.2349814975
  - # 3
    frequency:    0.9216557589
  - # 4
    frequency:    1.2203222954
  - # 5
    frequency:    1.6808922617
  - # 6
    frequency:    2.1138339361
  - # 7
    frequency:    2.8241683798
  - # 8
    frequency:    3.8570220599
  - # 9
    frequency:    7.1190090053
  - # 10
    frequency:    7.6082043050
  - # 11
    frequency:   10.0632068071
  - # 12
    frequency:   10.9610248153
  - # 13
    frequency:   11.1410247851
  - # 14
    frequency:   12.7712021555
  - # 15
    frequency:   13.4516378234
  - # 16
    frequency:   14.6388054233
  - # 17
    frequency:   16.2055695747
  - # 18
    frequency:   34.5554689775

- q-position: [    0.1565657,    0.0000000,    0.0000000 ]
  distance:    0.0549150
  band:
  - # 1
    frequency:   -9.7261950791
  - # 2
    frequency:   -8.1326374689
  - # 3
    frequency:    0.9700706005
  - # 4
    frequency:    1.2634496131
  - # 5
    frequency:    1.7249331269
  - # 6
    frequency:    2.1411173504
  - # 7
    frequency:    2.8805378728
  - # 8
    frequency:    3.8606689025
  - # 9
    frequency:    7.1971977426
  - # 10
    frequency:    7.6410825716
  - # 11
    frequency:   10.1741863218
  - # 12
    frequency:   10.9919901217
  - # 13
    frequency:   11.2095309812
  - # 14
    frequency:   12.7508514321
  - # 15
    frequency:   13.4641898109
  - # 16
    frequency:   14.6244016544
  - # 17
    frequency:   16.2234476990
  - # 18
    frequency:   34.5307554306

- q-position: [    0.1616162,    0.0000000,    0.0000000 ]
  distance:    0.0566865
  band:
  - # 1
    frequency:   -9.7022752740
  - # 2
    frequency:   -8.0304564181
  - # 3
    frequency:    1.0186813131
  - # 4
    frequency:    1.3055775019
  - # 5
    frequency:    1.7685635248
  - # 6
    frequency:    2.1676827790
  - # 7
    frequency:    2.9361422557
  - # 8
    frequency:    3.8650789118
  - # 9
    frequency:    7.2756345553
  - # 10
    frequency:    7.6703479743
  - # 11
    frequency:   10.2799032211
  - # 12
    frequency:   11.0238027037
  - # 13
    frequency:   11.2860982379
  - # 14
    frequency:   12.7315848330
  - # 15
    frequency:   13.4764013493
  - # 16
    frequency:   14.6093769094
  - # 17
    frequency:   16.2403226888
  - # 18
    frequency:   34.5053996895

- q-position: [    0.1666667,    0.0000000,    0.0000000 ]
  distance:    0.0584579
  band:
  - # 1
    frequency:   -9.6786508850
  - # 2
    frequency:   -7.9286042276
  - # 3
    frequency:    1.0673986729
  - # 4
    frequency:    1.3466696192
  - # 5
    frequency:    1.8117873063
  - # 6
    frequency:    2.1935457458
  - # 7
    frequency:    2.9908776166
  - # 8
    frequency:    3.8702897211
  - # 9
    frequency:    7.3541757371
  - # 10
    frequency:    7.6963978584
  - # 11
    frequency:   10.3786309497
  - # 12
    frequency:   11.0564208448
  - # 13
    frequency:   11.3712613971
  - # 14
    frequency:   12.7138484073
  - # 15
    frequency:   13.4882334365
  - # 16
    frequency:   14.5937304180
  - # 17
    frequency:   16.2561077036
  - # 18
    frequency:   34.4794193707

- q-position: [    0.1717172,    0.0000000,    0.0000000 ]
  distance:    0.0602294
  band:
  - # 1
    frequency:   -9.6553752820
  - # 2
    frequency:   -7.8272341018
  - # 3
    frequency:    1.1161357389
  - # 4
    frequency:    1.3866941033
  - # 5
    frequency:    1.8546050930
  - # 6
    frequency:    2.2187236358
  - # 7
    frequency:    3.0446084790
  - # 8
    frequency:    3.8763674769
  - # 9
    frequency:    7.4326833768
  - # 10
    frequency:    7.7196000264
  - # 11
    frequency:   10.4691074894
  - # 12
    frequency:   11.0897988809
  - # 13
    frequency:   11.4650025704
  - # 14
    frequency:   12.6982149945
  - # 15
    frequency:   13.4996495936
  - # 16
    frequency:   14.5774642978
  - # 17
    frequency:   16.2707230884
  - # 18
    frequency:   34.4528328791

- q-position: [    0.1767677,    0.0000000,    0.0000000 ]
  distance:    0.0620008
  band:
  - # 1
    frequency:   -9.6324985935
  - # 2
    frequency:   -7.7264868662
  - # 3
    frequency:    1.1648082573
  - # 4
    frequency:    1.4256234591
  - # 5
    frequency:    1.8970140113
  - # 6
    frequency:    2.2432353568
  - # 7
    frequency:    3.0971641512
  - # 8
    frequency:    3.8834114883
  - # 9
    frequency:    7.5110257880
  - # 10
    frequency:    7.7402891803
  - # 11
    frequency:   10.5506781493
  - # 12
    frequency:   11.1238871899
  - # 13
    frequency:   11.5665505541
  - # 14