nqpoint: 300    
npath: 3      
segment_nqpoint:
- 100
- 100
- 100
labels:
- [ 'G', 'M' ]
- [ 'M', 'K' ]
- [ 'K', 'G' ]
reciprocal_lattice:
- [   0.27791394,   0.16045369,   0.00000000 ] # a*
- [   0.00000000,   0.32090738,   0.00000000 ] # b*
- [   0.00000000,   0.00000000,   0.04128935 ] # c*
natom: 6      
lattice:
- [     3.598236163664707,     0.000000000000000,     0.000000000000000 ] # a
- [    -1.799118081832354,     3.116163926555205,     0.000000000000000 ] # b
- [     0.000000000000000,     0.000000000000000,    24.219320773856925 ] # c
points:
- symbol: C # 1
  coordinates: [  0.000000000000000,  0.000000000000000,  0.523003792696396 ]
  mass: 12.010700
- symbol: F # 2
  coordinates: [  0.333332985432215,  0.666666983183674,  0.628395854531359 ]
  mass: 18.998403
- symbol: H # 3
  coordinates: [  0.666666984744047,  0.333332985985145,  0.371604145468641 ]
  mass: 1.007940
- symbol: O # 4
  coordinates: [  0.666666984744047,  0.333332985985145,  0.412273034782914 ]
  mass: 15.999400
- symbol: Y # 5
  coordinates: [  0.333332985432215,  0.666666983183674,  0.465978591576270 ]
  mass: 88.905850
- symbol: Y # 6
  coordinates: [  0.666666984744047,  0.333332985985145,  0.579570763419660 ]
  mass: 88.905850

phonon:
- q-position: [    0.0000000,    0.0000000,    0.0000000 ]
  distance:    0.0000000
  band:
  - # 1
    frequency:   -0.0000105010
  - # 2
    frequency:   -0.0000002446
  - # 3
    frequency:    0.0000132155
  - # 4
    frequency:    3.5696211622
  - # 5
    frequency:    3.5696211622
  - # 6
    frequency:    5.8719348887
  - # 7
    frequency:    5.8719348887
  - # 8
    frequency:    6.0735035243
  - # 9
    frequency:    6.1451117284
  - # 10
    frequency:    6.1451117284
  - # 11
    frequency:    9.8021333027
  - # 12
    frequency:   10.1078849525
  - # 13
    frequency:   10.1078849526
  - # 14
    frequency:   11.1161108733
  - # 15
    frequency:   11.8836659440
  - # 16
    frequency:   11.8836659440
  - # 17
    frequency:   17.2739109808
  - # 18
    frequency:  114.6710343628

- q-position: [    0.0050505,    0.0000000,    0.0000000 ]
  distance:    0.0016207
  band:
  - # 1
    frequency:    0.0014322561
  - # 2
    frequency:    0.0602992445
  - # 3
    frequency:    0.1082167190
  - # 4
    frequency:    3.5696026524
  - # 5
    frequency:    3.5705046721
  - # 6
    frequency:    5.8717624951
  - # 7
    frequency:    5.8772360467
  - # 8
    frequency:    6.0734140503
  - # 9
    frequency:    6.1451813853
  - # 10
    frequency:    6.1453612672
  - # 11
    frequency:    9.8011881965
  - # 12
    frequency:   10.1075634269
  - # 13
    frequency:   10.1091249782
  - # 14
    frequency:   11.1156066090
  - # 15
    frequency:   11.8833843747
  - # 16
    frequency:   11.8883208123
  - # 17
    frequency:   17.2728651001
  - # 18
    frequency:  114.6710044616

- q-position: [    0.0101010,    0.0000000,    0.0000000 ]
  distance:    0.0032415
  band:
  - # 1
    frequency:    0.0057246492
  - # 2
    frequency:    0.1205727281
  - # 3
    frequency:    0.2164045837
  - # 4
    frequency:    3.5695475189
  - # 5
    frequency:    3.5731518436
  - # 6
    frequency:    5.8712466405
  - # 7
    frequency:    5.8929482733
  - # 8
    frequency:    6.0731748733
  - # 9
    frequency:    6.1453899310
  - # 10
    frequency:    6.1461298373
  - # 11
    frequency:    9.7983856285
  - # 12
    frequency:   10.1065997324
  - # 13
    frequency:   10.1126926317
  - # 14
    frequency:   11.1144321142
  - # 15
    frequency:   11.8825412842
  - # 16
    frequency:   11.9020918143
  - # 17
    frequency:   17.2697287084
  - # 18
    frequency:  114.6709148399

- q-position: [    0.0151515,    0.0000000,    0.0000000 ]
  distance:    0.0048622
  band:
  - # 1
    frequency:    0.0128626581
  - # 2
    frequency:    0.1807947280
  - # 3
    frequency:    0.3245350051
  - # 4
    frequency:    3.5694569472
  - # 5
    frequency:    3.5775526623
  - # 6
    frequency:    5.8703912909
  - # 7
    frequency:    5.9184658687
  - # 8
    frequency:    6.0728992435
  - # 9
    frequency:    6.1457360986
  - # 10
    frequency:    6.1474904169
  - # 11
    frequency:    9.7938152603
  - # 12
    frequency:   10.1049965175
  - # 13
    frequency:   10.1181392456
  - # 14
    frequency:   11.1135545085
  - # 15
    frequency:   11.8811415155
  - # 16
    frequency:   11.9244441374
  - # 17
    frequency:   17.2645055561
  - # 18
    frequency:  114.6707657439

- q-position: [    0.0202020,    0.0000000,    0.0000000 ]
  distance:    0.0064830
  band:
  - # 1
    frequency:    0.0228224529
  - # 2
    frequency:    0.2409395996
  - # 3
    frequency:    0.4325798678
  - # 4
    frequency:    3.5693329049
  - # 5
    frequency:    3.5836906416
  - # 6
    frequency:    5.8692030179
  - # 7
    frequency:    5.9526057754
  - # 8
    frequency:    6.0729110974
  - # 9
    frequency:    6.1462178021
  - # 10
    frequency:    6.1496247598
  - # 11
    frequency:    9.7876022532
  - # 12
    frequency:   10.1027581993
  - # 13
    frequency:   10.1247450376
  - # 14
    frequency:   11.1144455213
  - # 15
    frequency:   11.8791931110
  - # 16
    frequency:   11.9546169546
  - # 17
    frequency:   17.2572018905
  - # 18
    frequency:  114.6705575828

- q-position: [    0.0252525,    0.0000000,    0.0000000 ]
  distance:    0.0081037
  band:
  - # 1
    frequency:    0.0355709673
  - # 2
    frequency:    0.3009818160
  - # 3
    frequency:    0.5405116453
  - # 4
    frequency:    3.5691781302
  - # 5
    frequency:    3.5915431311
  - # 6
    frequency:    5.8676909425
  - # 7
    frequency:    5.9928768625
  - # 8
    frequency:    6.0743211673
  - # 9
    frequency:    6.1468321734
  - # 10
    frequency:    6.1530089821
  - # 11
    frequency:    9.7798826921
  - # 12
    frequency:   10.0998909684
  - # 13
    frequency:   10.1315617010
  - # 14
    frequency:   11.1189201655
  - # 15
    frequency:   11.8767072687
  - # 16
    frequency:   11.9917579218
  - # 17
    frequency:   17.2478264507
  - # 18
    frequency:  114.6702909274

- q-position: [    0.0303030,    0.0000000,    0.0000000 ]
  distance:    0.0097245
  band:
  - # 1
    frequency:    0.0510662225
  - # 2
    frequency:    0.3608960084
  - # 3
    frequency:    0.6483033934
  - # 4
    frequency:    3.5689961153
  - # 5
    frequency:    3.6010817480
  - # 6
    frequency:    5.8658666602
  - # 7
    frequency:    6.0315137633
  - # 8
    frequency:    6.0823016752
  - # 9
    frequency:    6.1475756098
  - # 10
    frequency:    6.1591453310
  - # 11
    frequency:    9.7707842276
  - # 12
    frequency:   10.0964027945
  - # 13
    frequency:   10.1374791653
  - # 14
    frequency:   11.1289657685
  - # 15
    frequency:   11.8736982810
  - # 16
    frequency:   12.0350345019
  - # 17
    frequency:   17.2363904614
  - # 18
    frequency:  114.6699665080

- q-position: [    0.0353535,    0.0000000,    0.0000000 ]
  distance:    0.0113452
  band:
  - # 1
    frequency:    0.0692577714
  - # 2
    frequency:    0.4206570079
  - # 3
    frequency:    0.7559286174
  - # 4
    frequency:    3.5687910867
  - # 5
    frequency:    3.6122729264
  - # 6
    frequency:    5.8637441497
  - # 7
    frequency:    6.0501019540
  - # 8
    frequency:    6.1082071737
  - # 9
    frequency:    6.1484438311
  - # 10
    frequency:    6.1738632790
  - # 11
    frequency:    9.7604153440
  - # 12
    frequency:   10.0923034330
  - # 13
    frequency:   10.1413258986
  - # 14
    frequency:   11.1465658989
  - # 15
    frequency:   11.8701834575
  - # 16
    frequency:   12.0837050399
  - # 17
    frequency:   17.2229076268
  - # 18
    frequency:  114.6695852121

- q-position: [    0.0404040,    0.0000000,    0.0000000 ]
  distance:    0.0129660
  band:
  - # 1
    frequency:    0.0900872655
  - # 2
    frequency:    0.4802398881
  - # 3
    frequency:    0.8633610257
  - # 4
    frequency:    3.5685679807
  - # 5
    frequency:    3.6250785681
  - # 6
    frequency:    5.8613396689
  - # 7
    frequency:    6.0532083968
  - # 8
    frequency:    6.1320641294
  - # 9
    frequency:    6.1494319401
  - # 10
    frequency:    6.2112501853
  - # 11
    frequency:    9.7488623228
  - # 12
    frequency:   10.0876044311
  - # 13
    frequency:   10.1420024055
  - # 14
    frequency:   11.1735170776
  - # 15
    frequency:   11.8661830306
  - # 16
    frequency:   12.1371534543
  - # 17
    frequency:   17.2073941242
  - # 18
    frequency:  114.6691480809

- q-position: [    0.0454545,    0.0000000,    0.0000000 ]
  distance:    0.0145867
  band:
  - # 1
    frequency:    0.1134891354
  - # 2
    frequency:    0.5396200099
  - # 3
    frequency:    0.9705741974
  - # 4
    frequency:    3.5683324178
  - # 5
    frequency:    3.6394567722
  - # 6
    frequency:    5.8586716404
  - # 7
    frequency:    6.0522960280
  - # 8
    frequency:    6.1427602369
  - # 9
    frequency:    6.1505344868
  - # 10
    frequency:    6.2695993843
  - # 11
    frequency:    9.7361911340
  - # 12
    frequency:   10.0823191341
  - # 13
    frequency:   10.1386252634
  - # 14
    frequency:   11.2112521453
  - # 15
    frequency:   11.8617200469
  - # 16
    frequency:   12.1948999052
  - # 17
    frequency:   17.1898686005
  - # 18
    frequency:  114.6686563059

- q-position: [    0.0505051,    0.0000000,    0.0000000 ]
  distance:    0.0162074
  band:
  - # 1
    frequency:    0.1393913641
  - # 2
    frequency:    0.5987730672
  - # 3
    frequency:    1.0775411944
  - # 4
    frequency:    3.5680906726
  - # 5
    frequency:    3.6553626149
  - # 6
    frequency:    5.8557605305
  - # 7
    frequency:    6.0499930187
  - # 8
    frequency:    6.1486464453
  - # 9
    frequency:    6.1517455311
  - # 10
    frequency:    6.3365890375
  - # 11
    frequency:    9.7224515749
  - # 12
    frequency:   10.0764626886
  - # 13
    frequency:   10.1306392369
  - # 14
    frequency:   11.2607045433
  - # 15
    frequency:   11.8568202427
  - # 16
    frequency:   12.2565994695
  - # 17
    frequency:   17.1703521716
  - # 18
    frequency:  114.6681112246

- q-position: [    0.0555556,    0.0000000,    0.0000000 ]
  distance:    0.0178282
  band:
  - # 1
    frequency:    0.1677163275
  - # 2
    frequency:    0.6576751349
  - # 3
    frequency:    1.1842341500
  - # 4
    frequency:    3.5678496438
  - # 5
    frequency:    3.6727489501
  - # 6
    frequency:    5.8526287223
  - # 7
    frequency:    6.0469409398
  - # 8
    frequency:    6.1530524459
  - # 9
    frequency:    6.1530587028
  - # 10
    frequency:    6.4069643252
  - # 11
    frequency:    9.7076818430
  - # 12
    frequency:   10.0700520432
  - # 13
    frequency:   10.1178586265
  - # 14
    frequency:   11.3222471304
  - # 15
    frequency:   11.8515119060
  - # 16
    frequency:   12.3220373339
  - # 17
    frequency:   17.1488684289
  - # 18
    frequency:  114.6675143155

- q-position: [    0.0606061,    0.0000000,    0.0000000 ]
  distance:    0.0194489
  band:
  - # 1
    frequency:    0.1983816676
  - # 2
    frequency:    0.7163027181
  - # 3
    frequency:    1.2906238612
  - # 4
    frequency:    3.5676168224
  - # 5
    frequency:    3.6915671991
  - # 6
    frequency:    5.8493003858
  - # 7
    frequency:    6.0433617277
  - # 8
    frequency:    6.1544672567
  - # 9
    frequency:    6.1569242572
  - # 10
    frequency:    6.4783722411
  - # 11
    frequency:    9.6919125907
  - # 12
    frequency:   10.0631059460
  - # 13
    frequency:   10.1004292938
  - # 14
    frequency:   11.3957116641
  - # 15
    frequency:   11.8458257264
  - # 16
    frequency:   12.3911255308
  - # 17
    frequency:   17.1254434541
  - # 18
    frequency:  114.6668671933

- q-position: [    0.0656566,    0.0000000,    0.0000000 ]
  distance:    0.0210697
  band:
  - # 1
    frequency:    0.2313011702
  - # 2
    frequency:    0.7746328033
  - # 3
    frequency:    1.3966794034
  - # 4
    frequency:    3.5674002598
  - # 5
    frequency:    3.7117681070
  - # 6
    frequency:    5.8458013444
  - # 7
    frequency:    6.0393537697
  - # 8
    frequency:    6.1559641233
  - # 9
    frequency:    6.1605858875
  - # 10
    frequency:    6.5493349384
  - # 11
    frequency:    9.6751701046
  - # 12
    frequency:   10.0556449359
  - # 13
    frequency:   10.0787372603
  - # 14
    frequency:   11.4804625162
  - # 15
    frequency:   11.8397946315
  - # 16
    frequency:   12.4639037322
  - # 17
    frequency:   17.1001058481
  - # 18
    frequency:  114.6661716029

- q-position: [    0.0707071,    0.0000000,    0.0000000 ]
  distance:    0.0226904
  band:
  - # 1
    frequency:    0.2663856154
  - # 2
    frequency:    0.8326429111
  - # 3
    frequency:    1.5023677802
  - # 4
    frequency:    3.5672085369
  - # 5
    frequency:    3.7333024425
  - # 6
    frequency:    5.8421589397
  - # 7
    frequency:    6.0349696600
  - # 8
    frequency:    6.1575419528
  - # 9
    frequency:    6.1641643298
  - # 10
    frequency:    6.6187686771
  - # 11
    frequency:    9.6574785830
  - # 12
    frequency:   10.0476913275
  - # 13
    frequency:   10.0533035877
  - # 14
    frequency:   11.5754855394
  - # 15
    frequency:   11.8334536147
  - # 16
    frequency:   12.5405448347
  - # 17
    frequency:   17.0728867768
  - # 18
    frequency:  114.6654294134

- q-position: [    0.0757576,    0.0000000,    0.0000000 ]
  distance:    0.0243112
  band:
  - # 1
    frequency:    0.3035435813
  - # 2
    frequency:    0.8903111501
  - # 3
    frequency:    1.6076536149
  - # 4
    frequency:    3.5670507343
  - # 5
    frequency:    3.7561216290
  - # 6
    frequency:    5.8384018917
  - # 7
    frequency:    6.0302423158
  - # 8
    frequency:    6.1591931547
  - # 9
    frequency:    6.1677105084
  - # 10
    frequency:    6.6858486591
  - # 11
    frequency:    9.6388616233
  - # 12
    frequency:   10.0246957676
  - # 13
    frequency:   10.0392691888
  - # 14
    frequency:   11.6794634856
  - # 15
    frequency:   11.8268395517
  - # 16
    frequency:   12.6213643972
  - # 17
    frequency:   17.0438200432
  - # 18
    frequency:  114.6646426114

- q-position: [    0.0808081,    0.0000000,    0.0000000 ]
  distance:    0.0259319
  band:
  - # 1
    frequency:    0.3426821818
  - # 2
    frequency:    0.9476162719
  - # 3
    frequency:    1.7124988823
  - # 4
    frequency:    3.5669364042
  - # 5
    frequency:    3.7801782977
  - # 6
    frequency:    5.8345601567
  - # 7
    frequency:    6.0251954034
  - # 8
    frequency:    6.1609099321
  - # 9
    frequency:    6.1712413816
  - # 10
    frequency:    6.7499589761
  - # 11
    frequency:    9.6193430782
  - # 12
    frequency:    9.9934677154
  - # 13
    frequency:   10.0304043098
  - # 14
    frequency:   11.7908291171
  - # 15
    frequency:   11.8199910101
  - # 16
    frequency:   12.7068306551
  - # 17
    frequency:   17.0129421928
  - # 18
    frequency:  114.6638132942

- q-position: [    0.0858586,    0.0000000,    0.0000000 ]
  distance:    0.0275527
  band:
  - # 1
    frequency:    0.3837077283
  - # 2
    frequency:    1.0045377272
  - # 3
    frequency:    1.8168626798
  - # 4
    frequency:    3.5668755461
  - # 5
    frequency:    3.8054267584
  - # 6
    frequency:    5.8306647786
  - # 7
    frequency:    6.0198480669
  - # 8
    frequency:    6.1626843133
  - # 9
    frequency:    6.1747571149
  - # 10
    frequency:    6.8106648879
  - # 11
    frequency:    9.5989474270
  - # 12
    frequency:    9.9601267916
  - # 13
    frequency:   10.0211241607
  - # 14
    frequency:   11.8129480518
  - # 15
    frequency:   11.9078038418
  - # 16
    frequency:   12.7975681221
  - # 17
    frequency:   16.9802926647
  - # 18
    frequency:  114.6629436623

- q-position: [    0.0909091,    0.0000000,    0.0000000 ]
  distance:    0.0291734
  band:
  - # 1
    frequency:    0.4265263116
  - # 2
    frequency:    1.0610557215
  - # 3
    frequency:    1.9207010327
  - # 4
    frequency:    3.5668785845
  - # 5
    frequency:    3.8318233894
  - # 6
    frequency:    5.8267477354
  - # 7
    frequency:    6.0142172931
  - # 8
    frequency:    6.1645081802
  - # 9
    frequency:    6.1782490108
  - # 10
    frequency:    6.8676900911
  - # 11
    frequency:    9.5776997878
  - # 12
    frequency:    9.9251205205
  - # 13
    frequency:   10.0114578392
  - # 14
    frequency:   11.8057520301
  - # 15
    frequency:   12.0284401158
  - # 16
    frequency:   12.8943425659
  - # 17
    frequency:   16.9459140068
  - # 18
    frequency:  114.6620360117

- q-position: [    0.0959596,    0.0000000,    0.0000000 ]
  distance:    0.0307941
  band:
  - # 1
    frequency:    0.4710443008
  - # 2
    frequency:    1.1171512719
  - # 3
    frequency:    2.0239667283
  - # 4
    frequency:    3.5669563513
  - # 5
    frequency:    3.8593269494
  - # 6
    frequency:    5.8228417772
  - # 7
    frequency:    6.0083191917
  - # 8
    frequency:    6.1663732963
  - # 9
    frequency:    6.1817035609
  - # 10
    frequency:    6.9208943332
  - # 11
    frequency:    9.5556256702
  - # 12
    frequency:    9.8888353659
  - # 13
    frequency:   10.0014360059
  - # 14
    frequency:   11.7984453828
  - # 15
    frequency:   12.1506907581
  - # 16
    frequency:   12.9980102147
  - # 17
    frequency:   16.9098521765
  - # 18
    frequency:  114.6610927260

- q-position: [    0.1010101,    0.0000000,    0.0000000 ]
  distance:    0.0324149
  band:
  - # 1
    frequency:    0.5171687646
  - # 2
    frequency:    1.1728062617
  - # 3
    frequency:    2.1266091751
  - # 4
    frequency:    3.5671200713
  - # 5
    frequency:    3.8878988170
  - # 6
    frequency:    5.8189802565
  - # 7
    frequency:    6.0021697344
  - # 8
    frequency:    6.1682713347
  - # 9
    frequency:    6.1851047013
  - # 10
    frequency:    6.9702507699
  - # 11
    frequency:    9.5327505479
  - # 12
    frequency:    9.8516017958
  - # 13
    frequency:    9.9910908059
  - # 14
    frequency:   11.7910714228
  - # 15
    frequency:   12.2725254119
  - # 16
    frequency:   13.1094149970
  - # 17
    frequency:   16.8721569611
  - # 18
    frequency:  114.6601162679

- q-position: [    0.1060606,    0.0000000,    0.0000000 ]
  distance:    0.0340356
  band:
  - # 1
    frequency:    0.5648078182
  - # 2
    frequency:    1.2280034948
  - # 3
    frequency:    2.2285742805
  - # 4
    frequency:    3.5673813523
  - # 5
    frequency:    3.9175031646
  - # 6
    frequency:    5.8151969490
  - # 7
    frequency:    5.9957852061
  - # 8
    frequency:    6.1701939066
  - # 9
    frequency:    6.1884351691
  - # 10
    frequency:    7.0158237404
  - # 11
    frequency:    9.5090993217
  - # 12
    frequency:    9.8137019578
  - # 13
    frequency:    9.9804557782
  - # 14
    frequency:   11.7836741275
  - # 15
    frequency:   12.3920970344
  - # 16
    frequency:   13.2292330147
  - # 17
    frequency:   16.8328825658
  - # 18
    frequency:  114.6591091709

- q-position: [    0.1111111,    0.0000000,    0.0000000 ]
  distance:    0.0356564
  band:
  - # 1
    frequency:    0.6138709033
  - # 2
    frequency:    1.2827267476
  - # 3
    frequency:    2.3298043469
  - # 4
    frequency:    3.5677521787
  - # 5
    frequency:    3.9481070720
  - # 6
    frequency:    5.8115258652
  - # 7
    frequency:    5.9891824939
  - # 8
    frequency:    6.1721325923
  - # 9
    frequency:    6.1916773738
  - # 10
    frequency:    7.0577478730
  - # 11
    frequency:    9.4846957399
  - # 12
    frequency:    9.7753778889
  - # 13
    frequency:    9.9695657495
  - # 14
    frequency:   11.7762979282
  - # 15
    frequency:   12.5079275293
  - # 16
    frequency:   13.3577958948
  - # 17
    frequency:   16.7920884402
  - # 18
    frequency:  114.6580740304

- q-position: [    0.1161616,    0.0000000,    0.0000000 ]
  distance:    0.0372771
  band:
  - # 1
    frequency:    0.6642690092
  - # 2
    frequency:    1.3369608186
  - # 3
    frequency:    2.4302379829
  - # 4
    frequency:    3.5682449087
  - # 5
    frequency:    3.9796805878
  - # 6
    frequency:    5.8080010518
  - # 7
    frequency:    5.9823792822
  - # 8
    frequency:    6.1740789753
  - # 9
    frequency:    6.1948139947
  - # 10
    frequency:    7.0962092661
  - # 11
    frequency:    9.4595618517
  - # 12
    frequency:    9.7368391965
  - # 13
    frequency:    9.9584567150
  - # 14
    frequency:   11.7689875014
  - # 15
    frequency:   12.6190492381
  - # 16
    frequency:   13.4949563794
  - # 17
    frequency:   16.7498404475
  - # 18
    frequency:  114.6570134945

- q-position: [    0.1212121,    0.0000000,    0.0000000 ]
  distance:    0.0388979
  band:
  - # 1
    frequency:    0.7159148418
  - # 2
    frequency:    1.3906915738
  - # 3
    frequency:    2.5298100309
  - # 4
    frequency:    3.5688722744
  - # 5
    frequency:    4.0121967399
  - # 6
    frequency:    5.8046563842
  - # 7
    frequency:    5.9753941917
  - # 8
    frequency:    6.1760246786
  - # 9
    frequency:    6.1978284136
  - # 10
    frequency:    7.1314291973
  - # 11
    frequency:    9.4337175843
  - # 12
    frequency:    9.6982697230
  - # 13
    frequency:    9.9471657044
  - # 14
    frequency:   11.7617875625
  - # 15
    frequency:   12.7250416333
  - # 16
    frequency:   13.6400566082
  - # 17
    frequency:   16.7062125419
  - # 18
    frequency:  114.6559302553

- q-position: [    0.1262626,    0.0000000,    0.0000000 ]
  distance:    0.0405186
  band:
  - # 1
    frequency:    0.7687229484
  - # 2
    frequency:    1.4439059889
  - # 3
    frequency:    2.6284515132
  - # 4
    frequency:    3.5696473828
  - # 5
    frequency:    4.0456314991
  - # 6
    frequency:    5.8015253500
  - # 7
    frequency:    5.9682468869
  - # 8
    frequency:    6.1779614051
  - # 9
    frequency:    6.2007050452
  - # 10
    frequency:    7.1636505181
  - # 11
    frequency:    9.4071805545
  - # 12
    frequency:    9.6598329980
  - # 13
    frequency:    9.9357306342
  - # 14
    frequency:   11.7547426634
  - # 15
    frequency:   12.8259512214
  - # 16
    frequency:   13.7920107958
  - # 17
    frequency:   16.6612892081
  - # 18
    frequency:  114.6548270397

- q-position: [    0.1313131,    0.0000000,    0.0000000 ]
  distance:    0.0421394
  band:
  - # 1
    frequency:    0.8226098059
  - # 2
    frequency:    1.4965921858
  - # 3
    frequency:    2.7260896025
  - # 4
    frequency:    3.5705837192
  - # 5
    frequency:    4.0799636933
  - # 6
    frequency:    5.7986408257
  - # 7
    frequency:    5.9609581671
  - # 8
    frequency:    6.1798809803
  - # 9
    frequency:    6.2034296031
  - # 10
    frequency:    7.1931266633
  - # 11
    frequency:    9.3799662461
  - # 12
    frequency:    9.6216764010
  - # 13
    frequency:    9.9241901469
  - # 14
    frequency:   11.7478969948
  - # 15
    frequency:   12.9221399434
  - # 16
    frequency:   13.9494566564
  - # 17
    frequency:   16.6151690760
  - # 18
    frequency:  114.6537065994

- q-position: [    0.1363636,    0.0000000,    0.0000000 ]
  distance:    0.0437601
  band:
  - # 1
    frequency:    0.8774938790
  - # 2
    frequency:    1.5487394637
  - # 3
    frequency:    2.8226476252
  - # 4
    frequency:    3.5716951477
  - # 5
    frequency:    4.1151748650
  - # 6
    frequency:    5.7960348473
  - # 7
    frequency:    5.9535500538
  - # 8
    frequency:    6.1817753997
  - # 9
    frequency:    6.2059893244
  - # 10
    frequency:    7.2201130436
  - # 11
    frequency:    9.3520886938
  - # 12
    frequency:    9.5839340137
  - # 13
    frequency:    9.9125834371
  - # 14
    frequency:   11.7412941950
  - # 15
    frequency:   13.0141269779
  - # 16
    frequency:   14.1109101250
  - # 17
    frequency:   16.5679704000
  - # 18
    frequency:  114.6525717024

- q-position: [    0.1414141,    0.0000000,    0.0000000 ]
  distance:    0.0453808
  band:
  - # 1
    frequency:    0.9332956529
  - # 2
    frequency:    1.6003383238
  - # 3
    frequency:    2.9180451100
  - # 4
    frequency:    3.5729959104
  - # 5
    frequency:    4.1512490628
  - # 6
    frequency:    5.7937383771
  - # 7
    frequency:    5.9460458847
  - # 8
    frequency:    6.1836368766
  - # 9
    frequency:    6.2083731677
  - # 10
    frequency:    7.2448605090
  - # 11
    frequency:    9.3235617957
  - # 12
    frequency:    9.5467281630
  - # 13
    frequency:    9.9009500665
  - # 14
    frequency:   11.7349771644
  - # 15
    frequency:   13.1024675210
  - # 16
    frequency:   14.2748788282
  - # 17
    frequency:   16.5198395802
  - # 18
    frequency:  114.6514251230

- q-position: [    0.1464646,    0.0000000,    0.0000000 ]
  distance:    0.0470016
  band:
  - # 1
    frequency:    0.9899376474
  - # 2
    frequency:    1.6513804875
  - # 3
    frequency:    3.0121979008
  - # 4
    frequency:    3.5745006216
  - # 5
    frequency:    4.1881725456
  - # 6
    frequency:    5.7917810696
  - # 7
    frequency:    5.9384704228
  - # 8
    frequency:    6.1854578944
  - # 9
    frequency:    6.2105719964
  - # 10
    frequency:    7.2676105398
  - # 11
    frequency:    9.2944013129
  - # 12
    frequency:    9.5101697185
  - # 13
    frequency:    9.8893297697
  - # 14
    frequency:   11.7289878881
  - # 15
    frequency:   13.1876798355
  - # 16
    frequency:   14.4399211456
  - # 17
    frequency:   16.4709648272
  - # 18
    frequency:  114.6502696330

- q-position: [    0.1515152,    0.0000000,    0.0000000 ]
  distance:    0.0486223
  band:
  - # 1
    frequency:    1.0473444157
  - # 2
    frequency:    1.7018589057
  - # 3
    frequency:    3.1050183559
  - # 4
    frequency:    3.5762242552
  - # 5
    frequency:    4.2259333760
  - # 6
    frequency:    5.7901910387
  - # 7
    frequency:    5.9308499904
  - # 8
    frequency:    6.1872312581
  - # 9
    frequency:    6.2125787530
  - # 10
    frequency:    7.2885918325
  - # 11
    frequency:    9.2646274919
  - # 12
    frequency:    9.4743573123
  - # 13
    frequency:    9.8777622501
  - # 14
    frequency:   11.7233672664
  - # 15
    frequency:   13.2702116623
  - # 16
    frequency:   14.6046561153
  - # 17
    frequency:   16.4215988579
  - # 18
    frequency:  114.6491079917

- q-position: [    0.1565657,    0.0000000,    0.0000000 ]
  distance:    0.0502431
  band:
  - # 1
    frequency:    1.1054425320
  - # 2
    frequency:    1.7517677622
  - # 3
    frequency:    3.1964156670
  - # 4
    frequency:    3.5781821229
  - # 5
    frequency:    4.2645208646
  - # 6
    frequency:    5.7889946299
  - # 7
    frequency:    5.9232126374
  - # 8
    frequency:    6.1889501476
  - # 9
    frequency:    6.2143886320
  - # 10
    frequency:    7.3080179798
  - # 11
    frequency:    9.2342680688
  - # 12
    frequency:    9.4393758079
  - # 13
    frequency:    9.8662869703
  - # 14
    frequency:   11.7181549528
  - # 15
    frequency:   13.3504316121
  - # 16
    frequency:   14.7677312651
  - # 17
    frequency:   16.3720981353
  - # 18
    frequency:  114.6479429376

- q-position: [    0.1616162,    0.0000000,    0.0000000 ]
  distance:    0.0518638
  band:
  - # 1
    frequency:    1.1641605708
  - # 2
    frequency:    1.8011024667
  - # 3
    frequency:    3.2862963338
  - # 4
    frequency:    3.5803898415
  - # 5
    frequency:    4.3039248213
  - # 6
    frequency:    5.7882161993
  - # 7
    frequency:    5.9155883545
  - # 8
    frequency:    6.1906081701
  - # 9
    frequency:    6.2159992516
  - # 10
    frequency:    7.3260859883
  - # 11
    frequency:    9.2033612271
  - # 12
    frequency:    9.4052945167
  - # 13
    frequency:    9.8549429378
  - # 14
    frequency:   11.7133892018
  - # 15
    frequency:   13.4286335606
  - # 16
    frequency:   14.9277453307
  - # 17
    frequency:   16.3229938504
  - # 18
    frequency:  114.6467771785

- q-position: [    0.1666667,    0.0000000,    0.0000000 ]
  distance:    0.0534846
  band:
  - # 1
    frequency:    1.2234290807
  - # 2
    frequency:    1.8498596413
  - # 3
    frequency:    3.3745648409
  - # 4
    frequency:    3.5828632861
  - # 5
    frequency:    4.3441345593
  - # 6
    frequency:    5.7878779049
  - # 7
    frequency:    5.9080093421
  - # 8
    frequency:    6.1921994111
  - # 9
    frequency:    6.2174108301
  - # 10
    frequency:    7.3429754232
  - # 11
    frequency:    9.1719579551
  - # 12
    frequency:    9.3721657727
  - # 13
    frequency:    9.8437684876
  - # 14
    frequency:   11.7091067249
  - # 15
    frequency:   13.5050463583
  - # 16
    frequency:   15.0831015662
  - # 17
    frequency:   16.2751267808
  - # 18
    frequency:  114.6456133833

- q-position: [    0.1717172,    0.0000000,    0.0000000 ]
  distance:    0.0551053
  band:
  - # 1
    frequency:    1.2831805547
  - # 2
    frequency:    1.8980370966
  - # 3
    frequency:    3.4611245868
  - # 4
    frequency:    3.5856185278
  - # 5
    frequency:    4.3851375869
  - # 6
    frequency:    5.7879995113
  - # 7
    frequency:    5.9005103477
  - # 8
    frequency:    6.1937184829
  - # 9
    frequency:    6.2186263648
  - # 10
    frequency:    7.3588480138
  - # 11
    frequency:    9.1401232733
  - # 12
    frequency:    9.3400244378
  - # 13
    frequency:    9.8328010658
  - # 14
    frequency:   11.7053425560
  - # 15
    frequency:   13.5798446842
  - # 16
    frequency:   15.2317258211
  - # 17
    frequency:   16.2299161387
  - # 18
    frequency:  114.6444541727

- q-position: [    0.1767677,    0.0000000,    0.0000000 ]
  distance:    0.0567261
  band:
  - # 1
    frequency:    1.3433493984
  - # 2
    frequency:    1.9456338008
  - # 3
    frequency:    3.5458791150
  - # 4
    frequency:    3.5886717536
  - # 5
    frequency:    4.4269179231
  - # 6
    frequency:    5.7885982128
  - # 7
    frequency:    5.8931290863
  - # 8
    frequency:    6.1951605700
  - # 9
    frequency:    6.2196518155
  - # 10
    frequency:    7.3738475952
  - # 11
    frequency:    9.1079359995
  - # 12
    frequency:    9.3088887042
  - # 13
    frequency:    9.8220770142
  - # 14