nqpoint: 300    
npath: 3      
segment_nqpoint:
- 100
- 100
- 100
labels:
- [ 'G', 'M' ]
- [ 'M', 'K' ]
- [ 'K', 'G' ]
reciprocal_lattice:
- [   0.30876499,   0.17826555,   0.00000000 ] # a*
- [   0.00000000,   0.35653109,   0.00000000 ] # b*
- [   0.00000000,   0.00000000,   0.03961560 ] # c*
natom: 6      
lattice:
- [     3.238709202851363,     0.000000000000000,     0.000000000000000 ] # a
- [    -1.619354601425681,     2.804804445136078,     0.000000000000000 ] # b
- [     0.000000000000000,     0.000000000000000,    25.242578369354554 ] # c
points:
- symbol: Br # 1
  coordinates: [  0.666666984744047,  0.333332985985145,  0.356540440057674 ]
  mass: 79.904000
- symbol: N # 2
  coordinates: [  0.000000000000000,  0.000000000000000,  0.469737005307731 ]
  mass: 14.006700
- symbol: O # 3
  coordinates: [  0.333332985432215,  0.666666983183674,  0.643459559942326 ]
  mass: 15.999400
- symbol: P # 4
  coordinates: [  0.333332985432215,  0.666666983183674,  0.584308175143713 ]
  mass: 30.973762
- symbol: Ti # 5
  coordinates: [  0.333332985432215,  0.666666983183674,  0.430011718430188 ]
  mass: 47.867000
- symbol: Ti # 6
  coordinates: [  0.666666984744047,  0.333332985985145,  0.511768708628540 ]
  mass: 47.867000

phonon:
- q-position: [    0.0000000,    0.0000000,    0.0000000 ]
  distance:    0.0000000
  band:
  - # 1
    frequency:   -1.0911032251
  - # 2
    frequency:   -1.0911032251
  - # 3
    frequency:   -0.0000015706
  - # 4
    frequency:    0.0000004617
  - # 5
    frequency:    0.0000014565
  - # 6
    frequency:    3.4985297638
  - # 7
    frequency:    3.4985297638
  - # 8
    frequency:    4.6252198007
  - # 9
    frequency:    5.0121961560
  - # 10
    frequency:    5.0121961560
  - # 11
    frequency:    6.9046179272
  - # 12
    frequency:    6.9046179272
  - # 13
    frequency:    8.4111826136
  - # 14
    frequency:   11.5405927620
  - # 15
    frequency:   14.3433996553
  - # 16
    frequency:   15.9758544463
  - # 17
    frequency:   15.9758544463
  - # 18
    frequency:   34.2182207880

- q-position: [    0.0050505,    0.0000000,    0.0000000 ]
  distance:    0.0018007
  band:
  - # 1
    frequency:   -1.0907688319
  - # 2
    frequency:   -1.0873390272
  - # 3
    frequency:   -0.2392836339
  - # 4
    frequency:    0.0460046880
  - # 5
    frequency:    0.2582518990
  - # 6
    frequency:    3.4984964396
  - # 7
    frequency:    3.4991777998
  - # 8
    frequency:    4.6237276709
  - # 9
    frequency:    5.0119630587
  - # 10
    frequency:    5.0144666824
  - # 11
    frequency:    6.9039917759
  - # 12
    frequency:    6.9045697658
  - # 13
    frequency:    8.4113730597
  - # 14
    frequency:   11.5394479094
  - # 15
    frequency:   14.3430615345
  - # 16
    frequency:   15.9757052977
  - # 17
    frequency:   15.9764253356
  - # 18
    frequency:   34.2180077461

- q-position: [    0.0101010,    0.0000000,    0.0000000 ]
  distance:    0.0036013
  band:
  - # 1
    frequency:   -1.0898531984
  - # 2
    frequency:   -1.0760483132
  - # 3
    frequency:   -0.3222308671
  - # 4
    frequency:    0.0932924256
  - # 5
    frequency:    0.3763257705
  - # 6
    frequency:    3.4984126167
  - # 7
    frequency:    3.5011185808
  - # 8
    frequency:    4.6193823181
  - # 9
    frequency:    5.0112683325
  - # 10
    frequency:    5.0211407541
  - # 11
    frequency:    6.9021296325
  - # 12
    frequency:    6.9044202977
  - # 13
    frequency:    8.4119378751
  - # 14
    frequency:   11.5360141224
  - # 15
    frequency:   14.3420498866
  - # 16
    frequency:   15.9752571706
  - # 17
    frequency:   15.9781319345
  - # 18
    frequency:   34.2173689864

- q-position: [    0.0151515,    0.0000000,    0.0000000 ]
  distance:    0.0054020
  band:
  - # 1
    frequency:   -1.0886123260
  - # 2
    frequency:   -1.0572451903
  - # 3
    frequency:   -0.3720097021
  - # 4
    frequency:    0.1430306882
  - # 5
    frequency:    0.4728431437
  - # 6
    frequency:    3.4983265718
  - # 7
    frequency:    3.5043421527
  - # 8
    frequency:    4.6125412919
  - # 9
    frequency:    5.0101255662
  - # 10
    frequency:    5.0318413447
  - # 11
    frequency:    6.8990800447
  - # 12
    frequency:    6.9041546655
  - # 13
    frequency:    8.4128577166
  - # 14
    frequency:   11.5302937514
  - # 15
    frequency:   14.3403728459
  - # 16
    frequency:   15.9745080240
  - # 17
    frequency:   15.9809561006
  - # 18
    frequency:   34.2163056066

- q-position: [    0.0202020,    0.0000000,    0.0000000 ]
  distance:    0.0072026
  band:
  - # 1
    frequency:   -1.0874486302
  - # 2
    frequency:   -1.0309836722
  - # 3
    frequency:   -0.3992750981
  - # 4
    frequency:    0.1961672426
  - # 5
    frequency:    0.5579936435
  - # 6
    frequency:    3.4983181498
  - # 7
    frequency:    3.5088320119
  - # 8
    frequency:    4.6037023910
  - # 9
    frequency:    5.0085570527
  - # 10
    frequency:    5.0460380044
  - # 11
    frequency:    6.8949226645
  - # 12
    frequency:    6.9037484181
  - # 13
    frequency:    8.4141010809
  - # 14
    frequency:   11.5222908443
  - # 15
    frequency:   14.3380439357
  - # 16
    frequency:   15.9734544679
  - # 17
    frequency:   15.9848678108
  - # 18
    frequency:   34.2148194327

- q-position: [    0.0252525,    0.0000000,    0.0000000 ]
  distance:    0.0090033
  band:
  - # 1
    frequency:   -1.0868686380
  - # 2
    frequency:   -0.9974103729
  - # 3
    frequency:   -0.4063567632
  - # 4
    frequency:    0.2533483803
  - # 5
    frequency:    0.6353840051
  - # 6
    frequency:    3.4984977011
  - # 7
    frequency:    3.5145652316
  - # 8
    frequency:    4.5934091326
  - # 9
    frequency:    5.0065932720
  - # 10
    frequency:    5.0631411755
  - # 11
    frequency:    6.8897664033
  - # 12
    frequency:    6.9031679675
  - # 13
    frequency:    8.4156253567
  - # 14
    frequency:   11.5120113362
  - # 15
    frequency:   14.3350820102
  - # 16
    frequency:   15.9720917849
  - # 17
    frequency:   15.9898254787
  - # 18
    frequency:   34.2129130158

- q-position: [    0.0303030,    0.0000000,    0.0000000 ]
  distance:    0.0108040
  band:
  - # 1
    frequency:   -1.0874173378
  - # 2
    frequency:   -0.9568457490
  - # 3
    frequency:   -0.3915424675
  - # 4
    frequency:    0.3148704290
  - # 5
    frequency:    0.7066800315
  - # 6
    frequency:    3.4990043354
  - # 7
    frequency:    3.5215126308
  - # 8
    frequency:    4.5821798547
  - # 9
    frequency:    5.0042722012
  - # 10
    frequency:    5.0825729235
  - # 11
    frequency:    6.8837469407
  - # 12
    frequency:    6.9023712123
  - # 13
    frequency:    8.4173782001
  - # 14
    frequency:   11.4994633084
  - # 15
    frequency:   14.3315111623
  - # 16
    frequency:   15.9704139683
  - # 17
    frequency:   15.9957763912
  - # 18
    frequency:   34.2105896255

- q-position: [    0.0353535,    0.0000000,    0.0000000 ]
  distance:    0.0126046
  band:
  - # 1
    frequency:   -1.0895939397
  - # 2
    frequency:   -0.9098757117
  - # 3
    frequency:   -0.3482561107
  - # 4
    frequency:    0.3806749132
  - # 5
    frequency:    0.7727623499
  - # 6
    frequency:    3.5000032738
  - # 7
    frequency:    3.5296389781
  - # 8
    frequency:    4.5704690575
  - # 9
    frequency:    5.0016384790
  - # 10
    frequency:    5.1038055896
  - # 11
    frequency:    6.8770236619
  - # 12
    frequency:    6.9013083094
  - # 13
    frequency:    8.4192991520
  - # 14
    frequency:   11.4846573070
  - # 15
    frequency:   14.3273605845
  - # 16
    frequency:   15.9684137837
  - # 17
    frequency:   16.0026572570
  - # 18
    frequency:   34.2078532422

- q-position: [    0.0404040,    0.0000000,    0.0000000 ]
  distance:    0.0144053
  band:
  - # 1
    frequency:   -1.0937651599
  - # 2
    frequency:   -0.8573725684
  - # 3
    frequency:   -0.2570074387
  - # 4
    frequency:    0.4503926531
  - # 5
    frequency:    0.8341467037
  - # 6
    frequency:    3.5016820775
  - # 7
    frequency:    3.5389032231
  - # 8
    frequency:    4.5586542296
  - # 9
    frequency:    4.9987424603
  - # 10
    frequency:    5.1263752453
  - # 11
    frequency:    6.8697761049
  - # 12
    frequency:    6.8999225763
  - # 13
    frequency:    8.4213214094
  - # 14
    frequency:   11.4676067127
  - # 15
    frequency:   14.3226643732
  - # 16
    frequency:   15.9660828620
  - # 17
    frequency:   16.0103948574
  - # 18
    frequency:   34.2047085485

- q-position: [    0.0454545,    0.0000000,    0.0000000 ]
  distance:    0.0162060
  band:
  - # 1
    frequency:   -1.1000993099
  - # 2
    frequency:   -0.8002781244
  - # 3
    frequency:    0.1229524266
  - # 4
    frequency:    0.5234299885
  - # 5
    frequency:    0.8911786677
  - # 6
    frequency:    3.5042455725
  - # 7
    frequency:    3.5492587460
  - # 8
    frequency:    4.5470376535
  - # 9
    frequency:    4.9956391969
  - # 10
    frequency:    5.1498805692
  - # 11
    frequency:    6.8621999984
  - # 12
    frequency:    6.8981515042
  - # 13
    frequency:    8.4233736651
  - # 14
    frequency:   11.4483281511
  - # 15
    frequency:   14.3174612638
  - # 16
    frequency:   15.9634118297
  - # 17
    frequency:   16.0189067895
  - # 18
    frequency:   34.2011609177

- q-position: [    0.0505051,    0.0000000,    0.0000000 ]
  distance:    0.0180066
  band:
  - # 1
    frequency:   -1.1085398928
  - # 2
    frequency:   -0.7390318526
  - # 3
    frequency:    0.3516940409
  - # 4
    frequency:    0.5990761011
  - # 5
    frequency:    0.9441462453
  - # 6
    frequency:    3.5079093783
  - # 7
    frequency:    3.5606536162
  - # 8
    frequency:    4.5358549964
  - # 9
    frequency:    4.9923873819
  - # 10
    frequency:    5.1739754395
  - # 11
    frequency:    6.8545029656
  - # 12
    frequency:    6.8959278601
  - # 13
    frequency:    8.4253819407
  - # 14
    frequency:   11.4268419332
  - # 15
    frequency:   14.3117942872
  - # 16
    frequency:   15.9603904840
  - # 17
    frequency:   16.0281022891
  - # 18
    frequency:   34.1972164016

- q-position: [    0.0555556,    0.0000000,    0.0000000 ]
  distance:    0.0198073
  band:
  - # 1
    frequency:   -1.1188220751
  - # 2
    frequency:   -0.6728586442
  - # 3
    frequency:    0.5090007973
  - # 4
    frequency:    0.6766040518
  - # 5
    frequency:    0.9933634592
  - # 6
    frequency:    3.5128920906
  - # 7
    frequency:    3.5730308523
  - # 8
    frequency:    4.5252859015
  - # 9
    frequency:    4.9890482932
  - # 10
    frequency:    5.1983600930
  - # 11
    frequency:    6.8468999615
  - # 12
    frequency:    6.8931808588
  - # 13
    frequency:    8.4272713498
  - # 14
    frequency:   11.4031725131
  - # 15
    frequency:   14.3057103422
  - # 16
    frequency:   15.9570080157
  - # 17
    frequency:   16.0378831222
  - # 18
    frequency:   34.1928817159

- q-position: [    0.0606061,    0.0000000,    0.0000000 ]
  distance:    0.0216079
  band:
  - # 1
    frequency:   -1.1305194960
  - # 2
    frequency:   -0.5993023920
  - # 3
    frequency:    0.6471795193
  - # 4
    frequency:    0.7553446266
  - # 5
    frequency:    1.0392525080
  - # 6
    frequency:    3.5194063495
  - # 7
    frequency:    3.5863286763
  - # 8
    frequency:    4.5154643096
  - # 9
    frequency:    4.9856847659
  - # 10
    frequency:    5.2227731454
  - # 11
    frequency:    6.8396085105
  - # 12
    frequency:    6.8898373858
  - # 13
    frequency:    8.4289677458
  - # 14
    frequency:   11.3773489534
  - # 15
    frequency:   14.2992596792
  - # 16
    frequency:   15.9532532815
  - # 17
    frequency:   16.0481445315
  - # 18
    frequency:   34.1881642250

- q-position: [    0.0656566,    0.0000000,    0.0000000 ]
  distance:    0.0234086
  band:
  - # 1
    frequency:   -1.1431021019
  - # 2
    frequency:   -0.5137874766
  - # 3
    frequency:    0.7742394792
  - # 4
    frequency:    0.8347260726
  - # 5
    frequency:    1.0824515719
  - # 6
    frequency:    3.5276492268
  - # 7
    frequency:    3.6004807566
  - # 8
    frequency:    4.5064876674
  - # 9
    frequency:    4.9823602210
  - # 10
    frequency:    5.2469852950
  - # 11
    frequency:    6.8328438135
  - # 12
    frequency:    6.8858232534
  - # 13
    frequency:    8.4303992236
  - # 14
    frequency:   11.3494053856
  - # 15
    frequency:   14.2924952997
  - # 16
    frequency:   15.9491151252
  - # 17
    frequency:   16.0587762249
  - # 18
    frequency:   34.1830719242

- q-position: [    0.0707071,    0.0000000,    0.0000000 ]
  distance:    0.0252093
  band:
  - # 1
    frequency:   -1.1559890602
  - # 2
    frequency:   -0.4076654106
  - # 3
    frequency:    0.8926520035
  - # 4
    frequency:    0.9142849223
  - # 5
    frequency:    1.1240055588
  - # 6
    frequency:    3.5377925575
  - # 7
    frequency:    3.6154164384
  - # 8
    frequency:    4.4984248546
  - # 9
    frequency:    4.9791377696
  - # 10
    frequency:    5.2707948059
  - # 11
    frequency:    6.8268138055
  - # 12
    frequency:    6.8810644763
  - # 13
    frequency:    8.4314974567
  - # 14
    frequency:   11.3193814552
  - # 15
    frequency:   14.2854722770
  - # 16
    frequency:   15.9445827420
  - # 17
    frequency:   16.0696633939
  - # 18
    frequency:   34.1776134211

- q-position: [    0.0757576,    0.0000000,    0.0000000 ]
  distance:    0.0270099
  band:
  - # 1
    frequency:   -1.1685886714
  - # 2
    frequency:   -0.2565300109
  - # 3
    frequency:    0.9936583657
  - # 4
    frequency:    1.0028573159
  - # 5
    frequency:    1.1658301520
  - # 6
    frequency:    3.5499739721
  - # 7
    frequency:    3.6310609589
  - # 8
    frequency:    4.4913229201
  - # 9
    frequency:    4.9760794039
  - # 10
    frequency:    5.2940245567
  - # 11
    frequency:    6.8217142650
  - # 12
    frequency:    6.8754885526
  - # 13
    frequency:    8.4321988645
  - # 14
    frequency:   11.2873227413
  - # 15
    frequency:   14.2782470122
  - # 16
    frequency:   15.9396460784
  - # 17
    frequency:   16.0806877488
  - # 18
    frequency:   34.1717979151

- q-position: [    0.0808081,    0.0000000,    0.0000000 ]
  distance:    0.0288106
  band:
  - # 1
    frequency:   -1.1803240278
  - # 2
    frequency:    0.1896736572
  - # 3
    frequency:    1.0725680353
  - # 4
    frequency:    1.1027547514
  - # 5
    frequency:    1.2121586479
  - # 6
    frequency:    3.5642894259
  - # 7
    frequency:    3.6473356527
  - # 8
    frequency:    4.4852127833
  - # 9
    frequency:    4.9732452817
  - # 10
    frequency:    5.3165203313
  - # 11
    frequency:    6.8177241030
  - # 12
    frequency:    6.8690257399
  - # 13
    frequency:    8.4324456088
  - # 14
    frequency:   11.2532811396
  - # 15
    frequency:   14.2708764425
  - # 16
    frequency:   15.9342962592
  - # 17
    frequency:   16.0917285609
  - # 18
    frequency:   34.1656351759

- q-position: [    0.0858586,    0.0000000,    0.0000000 ]
  distance:    0.0306113
  band:
  - # 1
    frequency:   -1.1906468380
  - # 2
    frequency:    0.3697992413
  - # 3
    frequency:    1.1508019235
  - # 4
    frequency:    1.1850794253
  - # 5
    frequency:    1.2724389033
  - # 6
    frequency:    3.5807879333
  - # 7
    frequency:    3.6641581513
  - # 8
    frequency:    4.4801140453
  - # 9
    frequency:    4.9706931019
  - # 10
    frequency:    5.3381499991
  - # 11
    frequency:    6.8150009873
  - # 12
    frequency:    6.8616103166
  - # 13
    frequency:    8.4321864278
  - # 14
    frequency:   11.2173152010
  - # 15
    frequency:   14.2634172243
  - # 16
    frequency:   15.9285260256
  - # 17
    frequency:   16.1026636986
  - # 18
    frequency:   34.1591355201

- q-position: [    0.0909091,    0.0000000,    0.0000000 ]
  distance:    0.0324119
  band:
  - # 1
    frequency:   -1.1990428514
  - # 2
    frequency:    0.4827710082
  - # 3
    frequency:    1.2281979831
  - # 4
    frequency:    1.2465917937
  - # 5
    frequency:    1.3521659110
  - # 6
    frequency:    3.5994690096
  - # 7
    frequency:    3.6814425855
  - # 8
    frequency:    4.4760390138
  - # 9
    frequency:    4.9684775628
  - # 10
    frequency:    5.3588032420
  - # 11
    frequency:    6.8136774808
  - # 12
    frequency:    6.8531818213
  - # 13
    frequency:    8.4313773157
  - # 14
    frequency:   11.1794904167
  - # 15
    frequency:   14.2559249159
  - # 16
    frequency:   15.9223301734
  - # 17
    frequency:   16.1133706503
  - # 18
    frequency:   34.1523097866

- q-position: [    0.0959596,    0.0000000,    0.0000000 ]
  distance:    0.0342126
  band:
  - # 1
    frequency:   -1.2050319130
  - # 2
    frequency:    0.5664908672
  - # 3
    frequency:    1.3000563515
  - # 4
    frequency:    1.3046307540
  - # 5
    frequency:    1.4407352236
  - # 6
    frequency:    3.6202830265
  - # 7
    frequency:    3.6990998038
  - # 8
    frequency:    4.4729960126
  - # 9
    frequency:    4.9666498901
  - # 10
    frequency:    5.3783915137
  - # 11
    frequency:    6.8138578831
  - # 12
    frequency:    6.8436862620
  - # 13
    frequency:    8.4299820573
  - # 14
    frequency:   11.1398794409
  - # 15
    frequency:   14.2484531867
  - # 16
    frequency:   15.9157059746
  - # 17
    frequency:   16.1237275233
  - # 18
    frequency:   34.1451693112

- q-position: [    0.1010101,    0.0000000,    0.0000000 ]
  distance:    0.0360132
  band:
  - # 1
    frequency:   -1.2081648192
  - # 2
    frequency:    0.6297248073
  - # 3
    frequency:    1.3549688335
  - # 4
    frequency:    1.3800011381
  - # 5
    frequency:    1.5303976368
  - # 6
    frequency:    3.6431343603
  - # 7
    frequency:    3.7170376181
  - # 8
    frequency:    4.4709920104
  - # 9
    frequency:    4.9652574159
  - # 10
    frequency:    5.3968479557
  - # 11
    frequency:    6.8156159565
  - # 12
    frequency:    6.8330772886
  - # 13
    frequency:    8.4279726285
  - # 14
    frequency:   11.0985622451
  - # 15
    frequency:   14.2410530793
  - # 16
    frequency:   15.9086535674
  - # 17
    frequency:   16.1336140129
  - # 18
    frequency:   34.1377258994

- q-position: [    0.1060606,    0.0000000,    0.0000000 ]
  distance:    0.0378139
  band:
  - # 1
    frequency:   -1.2080183090
  - # 2
    frequency:    0.6764107240
  - # 3
    frequency:    1.4146484664
  - # 4
    frequency:    1.4542289130
  - # 5
    frequency:    1.6188427815
  - # 6
    frequency:    3.6678869268
  - # 7
    frequency:    3.7351610945
  - # 8
    frequency:    4.4700345832
  - # 9
    frequency:    4.9643431879
  - # 10
    frequency:    5.4141270547
  - # 11
    frequency:    6.8189936842
  - # 12
    frequency:    6.8213173232
  - # 13
    frequency:    8.4253294714
  - # 14
    frequency:   11.0556261979
  - # 15
    frequency:   14.2337723530
  - # 16
    frequency:   15.9011763007
  - # 17
    frequency:   16.1429123343
  - # 18
    frequency:   34.1299917985

- q-position: [    0.1111111,    0.0000000,    0.0000000 ]
  distance:    0.0396146
  band:
  - # 1
    frequency:   -1.2041888650
  - # 2
    frequency:    0.7094352114
  - # 3
    frequency:    1.4798089522
  - # 4
    frequency:    1.5272474204
  - # 5
    frequency:    1.7055055235
  - # 6
    frequency:    3.6943715009
  - # 7
    frequency:    3.7533729045
  - # 8
    frequency:    4.4701332040
  - # 9
    frequency:    4.9639455871
  - # 10
    frequency:    5.4302039015
  - # 11
    frequency:    6.8083786400
  - # 12
    frequency:    6.8240011487
  - # 13
    frequency:    8.4220416526
  - # 14
    frequency:   11.0111660645
  - # 15
    frequency:   14.2266549287
  - # 16
    frequency:   15.8932810193
  - # 17
    frequency:   16.1515081120
  - # 18
    frequency:   34.1219796685

- q-position: [    0.1161616,    0.0000000,    0.0000000 ]
  distance:    0.0414152
  band:
  - # 1
    frequency:   -1.1962855150
  - # 2
    frequency:    0.7315661180
  - # 3
    frequency:    1.5499188824
  - # 4
    frequency:    1.5989998914
  - # 5
    frequency:    1.7903670077
  - # 6
    frequency:    3.7223941403
  - # 7
    frequency:    3.7715737534
  - # 8
    frequency:    4.4712998436
  - # 9
    frequency:    4.9640979304
  - # 10
    frequency:    5.4450729939
  - # 11
    frequency:    6.7942443890
  - # 12
    frequency:    6.8306175450
  - # 13
    frequency:    8.4181069113
  - # 14
    frequency:   10.9652839226
  - # 15
    frequency:   14.2197404580
  - # 16
    frequency:   15.8849782792
  - # 17
    frequency:   16.1592912222
  - # 18
    frequency:   34.1137025521

- q-position: [    0.1212121,    0.0000000,    0.0000000 ]
  distance:    0.0432159
  band:
  - # 1
    frequency:   -1.1839214447
  - # 2
    frequency:    0.7455658396
  - # 3
    frequency:    1.6238389280
  - # 4
    frequency:    1.6694369605
  - # 5
    frequency:    1.8736363365
  - # 6
    frequency:    3.7517450726
  - # 7
    frequency:    3.7896629019
  - # 8
    frequency:    4.4735488610
  - # 9
    frequency:    4.9648280407
  - # 10
    frequency:    5.4587466205
  - # 11
    frequency:    6.7789095535
  - # 12
    frequency:    6.8387932545
  - # 13
    frequency:    8.4135316042
  - # 14
    frequency:   10.9180889926
  - # 15
    frequency:   14.2130640282
  - # 16
    frequency:   15.8762824842
  - # 17
    frequency:   16.1661565850
  - # 18
    frequency:   34.1051738437

- q-position: [    0.1262626,    0.0000000,    0.0000000 ]
  distance:    0.0450166
  band:
  - # 1
    frequency:   -1.1667038808
  - # 2
    frequency:    0.7540977007
  - # 3
    frequency:    1.7002009092
  - # 4
    frequency:    1.7385150206
  - # 5
    frequency:    1.9556603569
  - # 6
    frequency:    3.7822075202
  - # 7
    frequency:    3.8075387905
  - # 8
    frequency:    4.4768961647
  - # 9
    frequency:    4.9661577672
  - # 10
    frequency:    5.4712529372
  - # 11
    frequency:    6.7623818347
  - # 12
    frequency:    6.8484528261
  - # 13
    frequency:    8.4083305531
  - # 14
    frequency:   10.8696973790
  - # 15
    frequency:   14.2066560147
  - # 16
    frequency:   15.8672119370
  - # 17
    frequency:   16.1720049024
  - # 18
    frequency:   34.0964072583

- q-position: [    0.1313131,    0.0000000,    0.0000000 ]
  distance:    0.0468172
  band:
  - # 1
    frequency:   -1.1442212850
  - # 2
    frequency:    0.7596442234
  - # 3
    frequency:    1.7776047619
  - # 4
    frequency:    1.8061951573
  - # 5
    frequency:    2.0368957334
  - # 6
    frequency:    3.8135660965
  - # 7
    frequency:    3.8250997772
  - # 8
    frequency:    4.4813576393
  - # 9
    frequency:    4.9681024495
  - # 10
    frequency:    5.4826339077
  - # 11
    frequency:    6.7446824491
  - # 12
    frequency:    6.8594986456
  - # 13
    frequency:    8.4025267994
  - # 14
    frequency:   10.8202317258
  - # 15
    frequency:   14.2005420800
  - # 16
    frequency:   15.8577888040
  - # 17
    frequency:   16.1767433412
  - # 18
    frequency:   34.0874167988

- q-position: [    0.1363636,    0.0000000,    0.0000000 ]
  distance:    0.0486179
  band:
  - # 1
    frequency:   -1.1160262704
  - # 2
    frequency:    0.7644707736
  - # 3
    frequency:    1.8546995739
  - # 4
    frequency:    1.8724424740
  - # 5
    frequency:    2.1178893774
  - # 6
    frequency:    3.8422449864
  - # 7
    frequency:    3.8456145579
  - # 8
    frequency:    4.4869468617
  - # 9
    frequency:    4.9706703267
  - # 10
    frequency:    5.4929433099
  - # 11
    frequency:    6.7258468284
  - # 12
    frequency:    6.8718150394
  - # 13
    frequency:    8.3961512717
  - # 14
    frequency:   10.7698207840
  - # 15
    frequency:   14.1947433189
  - # 16
    frequency:   15.8480389911
  - # 17
    frequency:   16.1802861569
  - # 18
    frequency:   34.0782167234

- q-position: [    0.1414141,    0.0000000,    0.0000000 ]
  distance:    0.0504185
  band:
  - # 1
    frequency:   -1.0816116009
  - # 2
    frequency:    0.7706067764
  - # 3
    frequency:    1.9302216718
  - # 4
    frequency:    1.9372256687
  - # 5
    frequency:    2.1992404352
  - # 6
    frequency:    3.8588752641
  - # 7
    frequency:    3.8781628201
  - # 8
    frequency:    4.4936721774
  - # 9
    frequency:    4.9738619016
  - # 10
    frequency:    5.5022449998
  - # 11
    frequency:    6.7059252046
  - # 12
    frequency:    6.8852725516
  - # 13
    frequency:    8.3892423700
  - # 14
    frequency:   10.7185988960
  - # 15
    frequency:   14.1892765371
  - # 16
    frequency:   15.8379919364
  - # 17
    frequency:   16.1825552600
  - # 18
    frequency:   34.0688215128

- q-position: [    0.1464646,    0.0000000,    0.0000000 ]
  distance:    0.0522192
  band:
  - # 1
    frequency:   -1.0403746886
  - # 2
    frequency:    0.7798184666
  - # 3
    frequency:    2.0005167696
  - # 4
    frequency:    2.0030398992
  - # 5
    frequency:    2.2815307677
  - # 6
    frequency:    3.8748942214
  - # 7
    frequency:    3.9110432129
  - # 8
    frequency:    4.5015332728
  - # 9
    frequency:    4.9776692885
  - # 10
    frequency:    5.5106115960
  - # 11
    frequency:    6.6849830627
  - # 12
    frequency:    6.8997321530
  - # 13
    frequency:    8.3818454710
  - # 14
    frequency:   10.6667053978
  - # 15
    frequency:   14.1841546489
  - # 16
    frequency:   15.8276803247
  - # 17
    frequency:   16.1834807204
  - # 18
    frequency:   34.0592458360

- q-position: [    0.1515152,    0.0000000,    0.0000000 ]
  distance:    0.0540199
  band:
  - # 1
    frequency:   -0.9915621920
  - # 2
    frequency:    0.7935662348
  - # 3
    frequency:    2.0622909572
  - # 4
    frequency:    2.0722199701
  - # 5
    frequency:    2.3652318412
  - # 6
    frequency:    3.8902093435
  - # 7
    frequency:    3.9441159714
  - # 8
    frequency:    4.5105174695
  - # 9
    frequency:    4.9820755797
  - # 10
    frequency:    5.5181236838
  - # 11
    frequency:    6.6631014374
  - # 12
    frequency:    6.9150491893
  - # 13
    frequency:    8.3740123593
  - # 14
    frequency:   10.6142839449
  - # 15
    frequency:   14.1793871729
  - # 16
    frequency:   15.8171397320
  - # 17
    frequency:   16.1830012113
  - # 18
    frequency:   34.0495045175

- q-position: [    0.1565657,    0.0000000,    0.0000000 ]
  distance:    0.0558205
  band:
  - # 1
    frequency:   -0.9341782316
  - # 2
    frequency:    0.8129566265
  - # 3
    frequency:    2.1225264301
  - # 4
    frequency:    2.1370831662
  - # 5
    frequency:    2.4506206479
  - # 6
    frequency:    3.9047331272
  - # 7
    frequency:    3.9772739405
  - # 8
    frequency:    4.5205960570
  - # 9
    frequency:    4.9870542854
  - # 10
    frequency:    5.5248695705
  - # 11
    frequency:    6.6403770274
  - # 12
    frequency:    6.9310769254
  - # 13
    frequency:    8.3658005866
  - # 14
    frequency:   10.5614817642
  - # 15
    frequency:   14.1749808026
  - # 16
    frequency:   15.8064082136
  - # 17
    frequency:   16.1810643906
  - # 18
    frequency:   34.0396125026

- q-position: [    0.1616162,    0.0000000,    0.0000000 ]
  distance:    0.0576212
  band:
  - # 1
    frequency:   -0.8668210273
  - # 2
    frequency:    0.8387075974
  - # 3
    frequency:    2.1812042812
  - # 4
    frequency:    2.1972230252
  - # 5
    frequency:    2.5377429529
  - # 6
    frequency:    3.9183842109
  - # 7
    frequency:    4.0104464438
  - # 8
    frequency:    4.5317210762
  - # 9
    frequency:    4.9925689083
  - # 10
    frequency:    5.5309455444
  - # 11
    frequency:    6.6169220966
  - # 12
    frequency:    6.9476696035
  - # 13
    frequency:    8.3572727635
  - # 14
    frequency:   10.5084488388
  - # 15
    frequency:   14.1709400229
  - # 16
    frequency:   15.7955258456
  - # 17
    frequency:   16.1776272194
  - # 18
    frequency:   34.0295848242

- q-position: [    0.1666667,    0.0000000,    0.0000000 ]
  distance:    0.0594218
  band:
  - # 1
    frequency:   -0.7873640919
  - # 2
    frequency:    0.8711437106
  - # 3
    frequency:    2.2383083647
  - # 4
    frequency:    2.2524673046
  - # 5
    frequency:    2.6264361661
  - # 6
    frequency:    3.9310884496
  - # 7
    frequency:    4.0436022520
  - # 8
    frequency:    4.5438230246
  - # 9
    frequency:    4.9985727264
  - # 10
    frequency:    5.5364565176
  - # 11
    frequency:    6.5928641231
  - # 12
    frequency:    6.9646849849
  - # 13
    frequency:    8.3484957874
  - # 14
    frequency:   10.4553370294
  - # 15
    frequency:   14.1672677464
  - # 16
    frequency:   15.7845342366
  - # 17
    frequency:   16.1726562165
  - # 18
    frequency:   34.0194365688

- q-position: [    0.1717172,    0.0000000,    0.0000000 ]
  distance:    0.0612225
  band:
  - # 1
    frequency:   -0.6922498873
  - # 2
    frequency:    0.9102275337
  - # 3
    frequency:    2.2938251438
  - # 4
    frequency:    2.3028064597
  - # 5
    frequency:    2.7163895011
  - # 6
    frequency:    3.9427798967
  - # 7
    frequency:    4.0767516224
  - # 8
    frequency:    4.5568099681
  - # 9
    frequency:    5.0050088589
  - # 10
    frequency:    5.5415168655
  - # 11
    frequency:    6.5683451577
  - # 12
    frequency:    6.9819863862
  - # 13
    frequency:    8.3395400092
  - # 14
    frequency:   10.4022991396
  - # 15
    frequency:   14.1639659390
  - # 16
    frequency:   15.7734760234
  - # 17
    frequency:   16.1661276490
  - # 18
    frequency:   34.0091828427

- q-position: [    0.1767677,    0.0000000,    0.0000000 ]
  distance:    0.0630232
  band:
  - # 1
    frequency:   -0.5745934858
  - # 2
    frequency:    0.9556207002
  - # 3
    frequency:    2.3477435105
  - # 4
    frequency:    2.3483215826
  - # 5
    frequency:    2.8072073619
  - # 6
    frequency:    3.9534016541
  - # 7
    frequency:    4.1099474739
  - # 8
    frequency:    4.5705684799
  - # 9
    frequency:    5.0118106898
  - # 10
    frequency:    5.5462512270
  - # 11
    frequency:    6.5435208426
  - # 12
    frequency:    6.9994442535
  - # 13
    frequency:    8.3304783435
  - # 14