nqpoint: 300    
npath: 3      
segment_nqpoint:
- 100
- 100
- 100
labels:
- [ 'G', 'M' ]
- [ 'M', 'K' ]
- [ 'K', 'G' ]
reciprocal_lattice:
- [   0.29291634,   0.16911533,   0.00000000 ] # a*
- [   0.00000000,   0.33823065,   0.00000000 ] # b*
- [   0.00000000,   0.00000000,   0.03453840 ] # c*
natom: 9      
lattice:
- [     3.413944096455428,     0.000000000000000,     0.000000000000000 ] # a
- [    -1.706972048227714,     2.956562314628044,     0.000000000000000 ] # b
- [     0.000000000000000,     0.000000000000000,    28.953277173732815 ] # c
points:
- symbol: C # 1
  coordinates: [  0.333332985432215,  0.666666983183674,  0.635606846524241 ]
  mass: 12.010700
- symbol: C # 2
  coordinates: [  0.666666984744047,  0.333332985985145,  0.351956012591876 ]
  mass: 12.010700
- symbol: Hf # 3
  coordinates: [  0.333332985432215,  0.666666983183674,  0.466681574143083 ]
  mass: 178.490000
- symbol: Hf # 4
  coordinates: [  0.666666984744047,  0.333332985985145,  0.546498593468459 ]
  mass: 178.490000
- symbol: N # 5
  coordinates: [  0.000000000000000,  0.000000000000000,  0.509523602821501 ]
  mass: 14.006700
- symbol: N # 6
  coordinates: [  0.333332985432215,  0.666666983183674,  0.591844766336598 ]
  mass: 14.006700
- symbol: N # 7
  coordinates: [  0.666666984744047,  0.333332985985145,  0.310845640926791 ]
  mass: 14.006700
- symbol: S # 8
  coordinates: [  0.333332985432215,  0.666666983183674,  0.689154359073209 ]
  mass: 32.065000
- symbol: S # 9
  coordinates: [  0.666666984744047,  0.333332985985145,  0.410497687927823 ]
  mass: 32.065000

phonon:
- q-position: [    0.0000000,    0.0000000,    0.0000000 ]
  distance:    0.0000000
  band:
  - # 1
    frequency:   -0.0000063219
  - # 2
    frequency:    0.0000005466
  - # 3
    frequency:    0.0000060644
  - # 4
    frequency:    0.9707784897
  - # 5
    frequency:    0.9707784897
  - # 6
    frequency:    1.7736630854
  - # 7
    frequency:    1.7736630854
  - # 8
    frequency:    2.9765031971
  - # 9
    frequency:    2.9765031971
  - # 10
    frequency:    3.9182236710
  - # 11
    frequency:    6.6209292511
  - # 12
    frequency:    6.8395074313
  - # 13
    frequency:    6.8395074313
  - # 14
    frequency:    6.9309877763
  - # 15
    frequency:    6.9309877763
  - # 16
    frequency:    6.9650502564
  - # 17
    frequency:   10.1881349326
  - # 18
    frequency:   10.1881349326
  - # 19
    frequency:   11.9120574128
  - # 20
    frequency:   14.0118131370
  - # 21
    frequency:   14.0118131370
  - # 22
    frequency:   15.1546226184
  - # 23
    frequency:   15.1546226184
  - # 24
    frequency:   18.7980703146
  - # 25
    frequency:   26.6756654333
  - # 26
    frequency:   54.5443574391
  - # 27
    frequency:   64.7223108140

- q-position: [    0.0050505,    0.0000000,    0.0000000 ]
  distance:    0.0017082
  band:
  - # 1
    frequency:    0.0014527789
  - # 2
    frequency:    0.0213877555
  - # 3
    frequency:    0.0601017193
  - # 4
    frequency:    0.9721781773
  - # 5
    frequency:    0.9744684060
  - # 6
    frequency:    1.7738912380
  - # 7
    frequency:    1.7745933661
  - # 8
    frequency:    2.9760907407
  - # 9
    frequency:    2.9767699685
  - # 10
    frequency:    3.9175091672
  - # 11
    frequency:    6.6204747698
  - # 12
    frequency:    6.8392153361
  - # 13
    frequency:    6.8395201418
  - # 14
    frequency:    6.9302918032
  - # 15
    frequency:    6.9310487198
  - # 16
    frequency:    6.9656022232
  - # 17
    frequency:   10.1882815524
  - # 18
    frequency:   10.1884736138
  - # 19
    frequency:   11.9113959015
  - # 20
    frequency:   14.0116925208
  - # 21
    frequency:   14.0118688115
  - # 22
    frequency:   15.1547464897
  - # 23
    frequency:   15.1549205244
  - # 24
    frequency:   18.7978255352
  - # 25
    frequency:   26.6753370530
  - # 26
    frequency:   54.5438140980
  - # 27
    frequency:   64.7221515259

- q-position: [    0.0101010,    0.0000000,    0.0000000 ]
  distance:    0.0034165
  band:
  - # 1
    frequency:    0.0058032695
  - # 2
    frequency:    0.0431896187
  - # 3
    frequency:    0.1202357353
  - # 4
    frequency:    0.9763521610
  - # 5
    frequency:    0.9854141122
  - # 6
    frequency:    1.7745741605
  - # 7
    frequency:    1.7773791353
  - # 8
    frequency:    2.9748504803
  - # 9
    frequency:    2.9775691808
  - # 10
    frequency:    3.9153749985
  - # 11
    frequency:    6.6191137784
  - # 12
    frequency:    6.8383440521
  - # 13
    frequency:    6.8395417670
  - # 14
    frequency:    6.9283468880
  - # 15
    frequency:    6.9312271430
  - # 16
    frequency:    6.9671307465
  - # 17
    frequency:   10.1887209264
  - # 18
    frequency:   10.1894876049
  - # 19
    frequency:   11.9094169218
  - # 20
    frequency:   14.0113323658
  - # 21
    frequency:   14.0120355702
  - # 22
    frequency:   15.1551144893
  - # 23
    frequency:   15.1558112247
  - # 24
    frequency:   18.7970917794
  - # 25
    frequency:   26.6743528091
  - # 26
    frequency:   54.5421852784
  - # 27
    frequency:   64.7216740706

- q-position: [    0.0151515,    0.0000000,    0.0000000 ]
  distance:    0.0051247
  band:
  - # 1
    frequency:    0.0129355932
  - # 2
    frequency:    0.0657901793
  - # 3
    frequency:    0.1804205399
  - # 4
    frequency:    0.9832272317
  - # 5
    frequency:    1.0032603821
  - # 6
    frequency:    1.7757072911
  - # 7
    frequency:    1.7820053060
  - # 8
    frequency:    2.9727738647
  - # 9
    frequency:    2.9788975320
  - # 10
    frequency:    3.9118492544
  - # 11
    frequency:    6.6168533937
  - # 12
    frequency:    6.8369080596
  - # 13
    frequency:    6.8395222362
  - # 14
    frequency:    6.9254816769
  - # 15
    frequency:    6.9315103499
  - # 16
    frequency:    6.9693548765
  - # 17
    frequency:   10.1894516008
  - # 18
    frequency:   10.1911707583
  - # 19
    frequency:   11.9061370544
  - # 20
    frequency:   14.0107377096
  - # 21
    frequency:   14.0123126071
  - # 22
    frequency:   15.1557158412
  - # 23
    frequency:   15.1572857165
  - # 24
    frequency:   18.7958707907
  - # 25
    frequency:   26.6727153899
  - # 26
    frequency:   54.5394745873
  - # 27
    frequency:   64.7208796735

- q-position: [    0.0202020,    0.0000000,    0.0000000 ]
  distance:    0.0068329
  band:
  - # 1
    frequency:    0.0226945043
  - # 2
    frequency:    0.0895207332
  - # 3
    frequency:    0.2406490643
  - # 4
    frequency:    0.9926877566
  - # 5
    frequency:    1.0274662288
  - # 6
    frequency:    1.7772831701
  - # 7
    frequency:    1.7884471595
  - # 8
    frequency:    2.9698470699
  - # 9
    frequency:    2.9807495333
  - # 10
    frequency:    3.9069789483
  - # 11
    frequency:    6.6137047310
  - # 12
    frequency:    6.8349298789
  - # 13
    frequency:    6.8393764849
  - # 14
    frequency:    6.9220511225
  - # 15
    frequency:    6.9318787971
  - # 16
    frequency:    6.9720015942
  - # 17
    frequency:   10.1904711596
  - # 18
    frequency:   10.1935128616
  - # 19
    frequency:   11.9015836641
  - # 20
    frequency:   14.0099168077
  - # 21
    frequency:   14.0126985453
  - # 22
    frequency:   15.1565328074
  - # 23
    frequency:   15.1593291602
  - # 24
    frequency:   18.7941654664
  - # 25
    frequency:   26.6704292678
  - # 26
    frequency:   54.5356880257
  - # 27
    frequency:   64.7197703722

- q-position: [    0.0252525,    0.0000000,    0.0000000 ]
  distance:    0.0085412
  band:
  - # 1
    frequency:    0.0348986684
  - # 2
    frequency:    0.1146449200
  - # 3
    frequency:    0.3008803104
  - # 4
    frequency:    1.0045840432
  - # 5
    frequency:    1.0573657921
  - # 6
    frequency:    1.7792916475
  - # 7
    frequency:    1.7966709554
  - # 8
    frequency:    2.9660517046
  - # 9
    frequency:    2.9831175299
  - # 10
    frequency:    3.9008302817
  - # 11
    frequency:    6.6096819511
  - # 12
    frequency:    6.8324380580
  - # 13
    frequency:    6.8389830644
  - # 14
    frequency:    6.9183694775
  - # 15
    frequency:    6.9323081116
  - # 16
    frequency:    6.9748752743
  - # 17
    frequency:   10.1917762350
  - # 18
    frequency:   10.1964996879
  - # 19
    frequency:   11.8957945017
  - # 20
    frequency:   14.0088809278
  - # 21
    frequency:   14.0131913869
  - # 22
    frequency:   15.1575410129
  - # 23
    frequency:   15.1619211214
  - # 24
    frequency:   18.7919798433
  - # 25
    frequency:   26.6675006870
  - # 26
    frequency:   54.5308339709
  - # 27
    frequency:   64.7183490094

- q-position: [    0.0303030,    0.0000000,    0.0000000 ]
  distance:    0.0102494
  band:
  - # 1
    frequency:    0.0493613348
  - # 2
    frequency:    0.1413544325
  - # 3
    frequency:    0.3610346453
  - # 4
    frequency:    1.0187420177
  - # 5
    frequency:    1.0922301147
  - # 6
    frequency:    1.7817201584
  - # 7
    frequency:    1.8066347266
  - # 8
    frequency:    2.9613659297
  - # 9
    frequency:    2.9859917317
  - # 10
    frequency:    3.8934889454
  - # 11
    frequency:    6.6048012123
  - # 12
    frequency:    6.8294650017
  - # 13
    frequency:    6.8381850989
  - # 14
    frequency:    6.9147139960
  - # 15
    frequency:    6.9327712680
  - # 16
    frequency:    6.9778542251
  - # 17
    frequency:   10.1933625223
  - # 18
    frequency:   10.2001130674
  - # 19
    frequency:   11.8888171633
  - # 20
    frequency:   14.0076440761
  - # 21
    frequency:   14.0137884457
  - # 22
    frequency:   15.1587098854
  - # 23
    frequency:   15.1650358949
  - # 24
    frequency:   18.7893190793
  - # 25
    frequency:   26.6639376466
  - # 26
    frequency:   54.5249231538
  - # 27
    frequency:   64.7166192231

- q-position: [    0.0353535,    0.0000000,    0.0000000 ]
  distance:    0.0119576
  band:
  - # 1
    frequency:    0.0659040939
  - # 2
    frequency:    0.1697729641
  - # 3
    frequency:    0.4209920853
  - # 4
    frequency:    1.0349728987
  - # 5
    frequency:    1.1313190983
  - # 6
    frequency:    1.7845540524
  - # 7
    frequency:    1.8182892140
  - # 8
    frequency:    2.9557661275
  - # 9
    frequency:    2.9893602517
  - # 10
    frequency:    3.8850603879
  - # 11
    frequency:    6.5990797099
  - # 12
    frequency:    6.8260449905
  - # 13
    frequency:    6.8367978875
  - # 14
    frequency:    6.9113406476
  - # 15
    frequency:    6.9332405782
  - # 16
    frequency:    6.9808685105
  - # 17
    frequency:   10.1952247984
  - # 18
    frequency:   10.2043309779
  - # 19
    frequency:   11.8807084193
  - # 20
    frequency:   14.0062226647
  - # 21
    frequency:   14.0144862659
  - # 22
    frequency:   15.1600031969
  - # 23
    frequency:   15.1686429024
  - # 24
    frequency:   18.7861894298
  - # 25
    frequency:   26.6597498784
  - # 26
    frequency:   54.5179686278
  - # 27
    frequency:   64.7145854337

- q-position: [    0.0404040,    0.0000000,    0.0000000 ]
  distance:    0.0136659
  band:
  - # 1
    frequency:    0.0843629551
  - # 2
    frequency:    0.1999653609
  - # 3
    frequency:    0.4805923426
  - # 4
    frequency:    1.0530818509
  - # 5
    frequency:    1.1739188087
  - # 6
    frequency:    1.7877769623
  - # 7
    frequency:    1.8315788944
  - # 8
    frequency:    2.9492292972
  - # 9
    frequency:    2.9932091550
  - # 10
    frequency:    3.8756699536
  - # 11
    frequency:    6.5925349448
  - # 12
    frequency:    6.8222126001
  - # 13
    frequency:    6.8346283856
  - # 14
    frequency:    6.9084844473
  - # 15
    frequency:    6.9336892810
  - # 16
    frequency:    6.9838810621
  - # 17
    frequency:   10.1973569437
  - # 18
    frequency:   10.2091276579
  - # 19
    frequency:   11.8715334316
  - # 20
    frequency:   14.0046351342
  - # 21
    frequency:   14.0152805277
  - # 22
    frequency:   15.1613796891
  - # 23
    frequency:   15.1727071469
  - # 24
    frequency:   18.7825982189
  - # 25
    frequency:   26.6549488205
  - # 26
    frequency:   54.5099857329
  - # 27
    frequency:   64.7122528294

- q-position: [    0.0454545,    0.0000000,    0.0000000 ]
  distance:    0.0153741
  band:
  - # 1
    frequency:    0.1045882342
  - # 2
    frequency:    0.2319489838
  - # 3
    frequency:    0.5396353161
  - # 4
    frequency:    1.0728750199
  - # 5
    frequency:    1.2193641825
  - # 6
    frequency:    1.7913711957
  - # 7
    frequency:    1.8464430640
  - # 8
    frequency:    2.9417363970
  - # 9
    frequency:    2.9975225154
  - # 10
    frequency:    3.8654627709
  - # 11
    frequency:    6.5851842946
  - # 12
    frequency:    6.8180015875
  - # 13
    frequency:    6.8315078579
  - # 14
    frequency:    6.9063398931
  - # 15
    frequency:    6.9340926658
  - # 16
    frequency:    6.9868752140
  - # 17
    frequency:   10.1997519686
  - # 18
    frequency:   10.2144737396
  - # 19
    frequency:   11.8613648777
  - # 20
    frequency:   14.0029015465
  - # 21
    frequency:   14.0161659439
  - # 22
    frequency:   15.1627937671
  - # 23
    frequency:   15.1771897113
  - # 24
    frequency:   18.7785538075
  - # 25
    frequency:   26.6495475855
  - # 26
    frequency:   54.5009920520
  - # 27
    frequency:   64.7096273472

- q-position: [    0.0505051,    0.0000000,    0.0000000 ]
  distance:    0.0170824
  band:
  - # 1
    frequency:    0.1264404306
  - # 2
    frequency:    0.2657050369
  - # 3
    frequency:    0.5978809107
  - # 4
    frequency:    1.0941647492
  - # 5
    frequency:    1.2670499121
  - # 6
    frequency:    1.7953181331
  - # 7
    frequency:    1.8628169588
  - # 8
    frequency:    2.9332768790
  - # 9
    frequency:    3.0022824830
  - # 10
    frequency:    3.8546032478
  - # 11
    frequency:    6.5770448959
  - # 12
    frequency:    6.8134442100
  - # 13
    frequency:    6.8273282531
  - # 14
    frequency:    6.9050324985
  - # 15
    frequency:    6.9344287639
  - # 16
    frequency:    6.9898471007
  - # 17
    frequency:   10.2024020425
  - # 18
    frequency:   10.2203364029
  - # 19
    frequency:   11.8502820026
  - # 20
    frequency:   14.0010431599
  - # 21
    frequency:   14.0171361495
  - # 22
    frequency:   15.1641962411
  - # 23
    frequency:   15.1820482854
  - # 24
    frequency:   18.7740655565
  - # 25
    frequency:   26.6435609246
  - # 26
    frequency:   54.4910073615
  - # 27
    frequency:   64.7067156531

- q-position: [    0.0555556,    0.0000000,    0.0000000 ]
  distance:    0.0187906
  band:
  - # 1
    frequency:    0.1497839044
  - # 2
    frequency:    0.3011885435
  - # 3
    frequency:    0.6550474027
  - # 4
    frequency:    1.1167730766
  - # 5
    frequency:    1.3164330891
  - # 6
    frequency:    1.7995986176
  - # 7
    frequency:    1.8806329211
  - # 8
    frequency:    2.9238546772
  - # 9
    frequency:    3.0074693607
  - # 10
    frequency:    3.8432740197
  - # 11
    frequency:    6.5681337910
  - # 12
    frequency:    6.8085708895
  - # 13
    frequency:    6.8220635960
  - # 14
    frequency:    6.9046018852
  - # 15
    frequency:    6.9346786945
  - # 16
    frequency:    6.9928011869
  - # 17
    frequency:   10.2052985263
  - # 18
    frequency:   10.2266795507
  - # 19
    frequency:   11.8383696199
  - # 20
    frequency:   13.9990820023
  - # 21
    frequency:   14.0181835861
  - # 22
    frequency:   15.1655350991
  - # 23
    frequency:   15.1872377070
  - # 24
    frequency:   18.7691437870
  - # 25
    frequency:   26.6370051862
  - # 26
    frequency:   54.4800535755
  - # 27
    frequency:   64.7035251191

- q-position: [    0.0606061,    0.0000000,    0.0000000 ]
  distance:    0.0204988
  band:
  - # 1
    frequency:    0.1744793869
  - # 2
    frequency:    0.3383364204
  - # 3
    frequency:    0.7108079115
  - # 4
    frequency:    1.1405337746
  - # 5
    frequency:    1.3670308695
  - # 6
    frequency:    1.8041933256
  - # 7
    frequency:    1.8998216615
  - # 8
    frequency:    2.9134958706
  - # 9
    frequency:    3.0130616896
  - # 10
    frequency:    3.8316741997
  - # 11
    frequency:    6.5584682632
  - # 12
    frequency:    6.8034101225
  - # 13
    frequency:    6.8157640360
  - # 14
    frequency:    6.9050100249
  - # 15
    frequency:    6.9348267632
  - # 16
    frequency:    6.9957477698
  - # 17
    frequency:   10.2084320080
  - # 18
    frequency:   10.2334640055
  - # 19
    frequency:   11.8257170836
  - # 20
    frequency:   13.9970404534
  - # 21
    frequency:   14.0192993834
  - # 22
    frequency:   15.1667562940
  - # 23
    frequency:   15.1927105049
  - # 24
    frequency:   18.7637997383
  - # 25
    frequency:   26.6298982707
  - # 26
    frequency:   54.4681546839
  - # 27
    frequency:   64.7000637971

- q-position: [    0.0656566,    0.0000000,    0.0000000 ]
  distance:    0.0222071
  band:
  - # 1
    frequency:    0.2003755549
  - # 2
    frequency:    0.3770736096
  - # 3
    frequency:    0.7647848543
  - # 4
    frequency:    1.1652932675
  - # 5
    frequency:    1.4184156676
  - # 6
    frequency:    1.8090831055
  - # 7
    frequency:    1.9203137124
  - # 8
    frequency:    2.9022581484
  - # 9
    frequency:    3.0190363446
  - # 10
    frequency:    3.8200168069
  - # 11
    frequency:    6.5480662693
  - # 12
    frequency:    6.7979885491
  - # 13
    frequency:    6.8085291598
  - # 14
    frequency:    6.9061688017
  - # 15
    frequency:    6.9348604015
  - # 16
    frequency:    6.9987017459
  - # 17
    frequency:   10.2117923403
  - # 18
    frequency:   10.2406477262
  - # 19
    frequency:   11.8124172498
  - # 20
    frequency:   13.9949408467
  - # 21
    frequency:   14.0204732387
  - # 22
    frequency:   15.1678045295
  - # 23
    frequency:   15.1984174311
  - # 24
    frequency:   18.7580455223
  - # 25
    frequency:   26.6222595801
  - # 26
    frequency:   54.4553366847
  - # 27
    frequency:   64.6963403919

- q-position: [    0.0707071,    0.0000000,    0.0000000 ]
  distance:    0.0239153
  band:
  - # 1
    frequency:    0.2272992026
  - # 2
    frequency:    0.4173174972
  - # 3
    frequency:    0.8165425976
  - # 4
    frequency:    1.1909107465
  - # 5
    frequency:    1.4702096155
  - # 6
    frequency:    1.8142492800
  - # 7
    frequency:    1.9420412296
  - # 8
    frequency:    2.8902419950
  - # 9
    frequency:    3.0253686385
  - # 10
    frequency:    3.8085253079
  - # 11
    frequency:    6.5369468873
  - # 12
    frequency:    6.7923311103
  - # 13
    frequency:    6.8004780122
  - # 14
    frequency:    6.9079699619
  - # 15
    frequency:    6.9347700147
  - # 16
    frequency:    7.0016822113
  - # 17
    frequency:   10.2153686821
  - # 18
    frequency:   10.2481860454
  - # 19
    frequency:   11.7985654485
  - # 20
    frequency:   13.9928050997
  - # 21
    frequency:   14.0216932941
  - # 22
    frequency:   15.1686240326
  - # 23
    frequency:   15.2043079738
  - # 24
    frequency:   18.7518940768
  - # 25
    frequency:   26.6141099632
  - # 26
    frequency:   54.4416275102
  - # 27
    frequency:   64.6923642308

- q-position: [    0.0757576,    0.0000000,    0.0000000 ]
  distance:    0.0256235
  band:
  - # 1
    frequency:    0.2550428711
  - # 2
    frequency:    0.4589809469
  - # 3
    frequency:    0.8655789965
  - # 4
    frequency:    1.2172577599
  - # 5
    frequency:    1.5220793925
  - # 6
    frequency:    1.8196739074
  - # 7
    frequency:    1.9649403506
  - # 8
    frequency:    2.8776031682
  - # 9
    frequency:    3.0320324351
  - # 10
    frequency:    3.7974292970
  - # 11
    frequency:    6.5251307083
  - # 12
    frequency:    6.7864612481
  - # 13
    frequency:    6.7917279460
  - # 14
    frequency:    6.9103056792
  - # 15
    frequency:    6.9345487854
  - # 16
    frequency:    7.0047126007
  - # 17
    frequency:   10.2191495401
  - # 18
    frequency:   10.2560319273
  - # 19
    frequency:   11.7842584821
  - # 20
    frequency:   13.9906543799
  - # 21
    frequency:   14.0229460131
  - # 22
    frequency:   15.1691593017
  - # 23
    frequency:   15.2103308431
  - # 24
    frequency:   18.7453591175
  - # 25
    frequency:   26.6054716565
  - # 26
    frequency:   54.4270569481
  - # 27
    frequency:   64.6881452317

- q-position: [    0.0808081,    0.0000000,    0.0000000 ]
  distance:    0.0273318
  band:
  - # 1
    frequency:    0.2833479679
  - # 2
    frequency:    0.5019742842
  - # 3
    frequency:    0.9113172882
  - # 4
    frequency:    1.2442174916
  - # 5
    frequency:    1.5737320835
  - # 6
    frequency:    1.8253399998
  - # 7
    frequency:    1.9889543473
  - # 8
    frequency:    2.8645655049
  - # 9
    frequency:    3.0390002706
  - # 10
    frequency:    3.7869594558
  - # 11
    frequency:    6.5126401265
  - # 12
    frequency:    6.7804011150
  - # 13
    frequency:    6.7823842770
  - # 14
    frequency:    6.9130780279
  - # 15
    frequency:    6.9341924642
  - # 16
    frequency:    7.0078211410
  - # 17
    frequency:   10.2231228148
  - # 18
    frequency:   10.2641362437
  - # 19
    frequency:   11.7695936655
  - # 20
    frequency:   13.9885088091
  - # 21
    frequency:   14.0242160540
  - # 22
    frequency:   15.1693558224
  - # 23
    frequency:   15.2164344244
  - # 24
    frequency:   18.7384550892
  - # 25
    frequency:   26.5963682202
  - # 26
    frequency:   54.4116565567
  - # 27
    frequency:   64.6836938694

- q-position: [    0.0858586,    0.0000000,    0.0000000 ]
  distance:    0.0290400
  band:
  - # 1
    frequency:    0.3118801464
  - # 2
    frequency:    0.5462065178
  - # 3
    frequency:    0.9531011468
  - # 4
    frequency:    1.2716838865
  - # 5
    frequency:    1.6249124104
  - # 6
    frequency:    1.8312317010
  - # 7
    frequency:    2.0140377654
  - # 8
    frequency:    2.8514323564
  - # 9
    frequency:    3.0462434819
  - # 10
    frequency:    3.7773420577
  - # 11
    frequency:    6.4994995027
  - # 12
    frequency:    6.7725374050
  - # 13
    frequency:    6.7741717759
  - # 14
    frequency:    6.9162009267
  - # 15
    frequency:    6.9336991646
  - # 16
    frequency:    7.0110414143
  - # 17
    frequency:   10.2272758463
  - # 18
    frequency:   10.2724480696
  - # 19
    frequency:   11.7546679199
  - # 20
    frequency:   13.9863872100
  - # 21
    frequency:   14.0254861402
  - # 22
    frequency:   15.1691607464
  - # 23
    frequency:   15.2225671961
  - # 24
    frequency:   18.7311971157
  - # 25
    frequency:   26.5868244703
  - # 26
    frequency:   54.3954595755
  - # 27
    frequency:   64.6790211394

- q-position: [    0.0909091,    0.0000000,    0.0000000 ]
  distance:    0.0307482
  band:
  - # 1
    frequency:    0.3401915180
  - # 2
    frequency:    0.5915860302
  - # 3
    frequency:    0.9901979171
  - # 4
    frequency:    1.2995607269
  - # 5
    frequency:    1.6754014486
  - # 6
    frequency:    1.8373344283
  - # 7
    frequency:    2.0401615469
  - # 8
    frequency:    2.8385940598
  - # 9
    frequency:    3.0537323434
  - # 10
    frequency:    3.7687933888
  - # 11
    frequency:    6.4857351957
  - # 12
    frequency:    6.7622636364
  - # 13
    frequency:    6.7677933924
  - # 14
    frequency:    6.9195985284
  - # 15
    frequency:    6.9330691708
  - # 16
    frequency:    7.0144128257
  - # 17
    frequency:   10.2315954628
  - # 18
    frequency:   10.2809149956
  - # 19
    frequency:   11.7395769317
  - # 20
    frequency:   13.9843068957
  - # 21
    frequency:   14.0267369265
  - # 22
    frequency:   15.1685235292
  - # 23
    frequency:   15.2286781081
  - # 24
    frequency:   18.7236009512
  - # 25
    frequency:   26.5768664060
  - # 26
    frequency:   54.3785008300
  - # 27
    frequency:   64.6741385208

- q-position: [    0.0959596,    0.0000000,    0.0000000 ]
  distance:    0.0324565
  band:
  - # 1
    frequency:    0.3676603017
  - # 2
    frequency:    0.6380209096
  - # 3
    frequency:    1.0218185551
  - # 4
    frequency:    1.3277607285
  - # 5
    frequency:    1.7250167224
  - # 6
    frequency:    1.8436349836
  - # 7
    frequency:    2.0673187021
  - # 8
    frequency:    2.8265279774
  - # 9
    frequency:    3.0614362090
  - # 10
    frequency:    3.7615145116
  - # 11
    frequency:    6.4713754738
  - # 12
    frequency:    6.7516272724
  - # 13
    frequency:    6.7612853847
  - # 14
    frequency:    6.9232026996
  - # 15
    frequency:    6.9323047637
  - # 16
    frequency:    7.0179807555
  - # 17
    frequency:   10.2360680302
  - # 18
    frequency:   10.2894834571
  - # 19
    frequency:   11.7244143822
  - # 20
    frequency:   13.9822835014
  - # 21
    frequency:   14.0279468593
  - # 22
    frequency:   15.1673965254
  - # 23
    frequency:   15.2347169231
  - # 24
    frequency:   18.7156829309
  - # 25
    frequency:   26.5665211332
  - # 26
    frequency:   54.3608166334
  - # 27
    frequency:   64.6690579369

- q-position: [    0.1010101,    0.0000000,    0.0000000 ]
  distance:    0.0341647
  band:
  - # 1
    frequency:    0.3933911422
  - # 2
    frequency:    0.6854190456
  - # 3
    frequency:    1.0471679969
  - # 4
    frequency:    1.3562046930
  - # 5
    frequency:    1.7736133093
  - # 6
    frequency:    1.8501216430
  - # 7
    frequency:    2.0955293863
  - # 8
    frequency:    2.8157871719
  - # 9
    frequency:    3.0693236605
  - # 10
    frequency:    3.7556867900
  - # 11
    frequency:    6.4564503280
  - # 12
    frequency:    6.7406827737
  - # 13
    frequency:    6.7546665725
  - # 14
    frequency:    6.9269509902
  - # 15
    frequency:    6.9314100630
  - # 16
    frequency:    7.0217961704
  - # 17
    frequency:   10.2406795030
  - # 18
    frequency:   10.2980990789
  - # 19
    frequency:   11.7092712549
  - # 20
    frequency:   13.9803308567
  - # 21
    frequency:   14.0290920295
  - # 22
    frequency:   15.1657355434
  - # 23
    frequency:   15.2406345193
  - # 24
    frequency:   18.7074599229
  - # 25
    frequency:   26.5558167831
  - # 26
    frequency:   54.3424446819
  - # 27
    frequency:   64.6637917154

- q-position: [    0.1060606,    0.0000000,    0.0000000 ]
  distance:    0.0358729
  band:
  - # 1
    frequency:    0.4160454895
  - # 2
    frequency:    0.7336880724
  - # 3
    frequency:    1.0655467564
  - # 4
    frequency:    1.3848207367
  - # 5
    frequency:    1.8210852545
  - # 6
    frequency:    1.8567842335
  - # 7
    frequency:    2.1248433893
  - # 8
    frequency:    2.8069743792
  - # 9
    frequency:    3.0773626609
  - # 10
    frequency:    3.7514685001
  - # 11
    frequency:    6.4409912145
  - # 12
    frequency:    6.7294765520
  - # 13
    frequency:    6.7479552938
  - # 14
    frequency:    6.9303908859
  - # 15
    frequency:    6.9307857255
  - # 16
    frequency:    7.0259144897
  - # 17
    frequency:   10.2454154764
  - # 18
    frequency:   10.3067070336
  - # 19
    frequency:   11.6942352216
  - # 20
    frequency:   13.9784608968
  - # 21
    frequency:   14.0301460171
  - # 22
    frequency:   15.1635003591
  - # 23
    frequency:   15.2463831557
  - # 24
    frequency:   18.6989492808
  - # 25
    frequency:   26.5447824280
  - # 26
    frequency:   54.3234239475
  - # 27
    frequency:   64.6583525462

- q-position: [    0.1111111,    0.0000000,    0.0000000 ]
  distance:    0.0375812
  band:
  - # 1
    frequency:    0.4335453660
  - # 2
    frequency:    0.7827352141
  - # 3
    frequency:    1.0765325088
  - # 4
    frequency:    1.4135436003
  - # 5
    frequency:    1.8636142103
  - # 6
    frequency:    1.8673662264
  - # 7
    frequency:    2.1553374869
  - # 8
    frequency:    2.8007003098
  - # 9
    frequency:    3.0855207123
  - # 10
    frequency:    3.7489927059
  - # 11
    frequency:    6.4250307540
  - # 12
    frequency:    6.7180482990
  - # 13
    frequency:    6.7411695058
  - # 14
    frequency:    6.9292546169
  - # 15
    frequency:    6.9346544166
  - # 16
    frequency:    7.0303935827
  - # 17
    frequency:   10.2502612391
  - # 18
    frequency:   10.3152524133
  - # 19
    frequency:   11.6793901076
  - # 20
    frequency:   13.9766836082
  - # 21
    frequency:   14.0310797267
  - # 22
    frequency:   15.1606551926
  - # 23
    frequency:   15.2519167041
  - # 24
    frequency:   18.6901687981
  - # 25
    frequency:   26.5334479918
  - # 26
    frequency:   54.3037945661
  - # 27
    frequency:   64.6527534392

- q-position: [    0.1161616,    0.0000000,    0.0000000 ]
  distance:    0.0392894
  band:
  - # 1
    frequency:    0.4425441374
  - # 2
    frequency:    0.8324670635
  - # 3
    frequency:    1.0802731167
  - # 4
    frequency:    1.4423140363
  - # 5
    frequency:    1.8706047464
  - # 6
    frequency:    1.9124280926
  - # 7
    frequency:    2.1871055497
  - # 8
    frequency:    2.7975297135
  - # 9
    frequency:    3.0937650174
  - # 10
    frequency:    3.7483664018
  - # 11
    frequency:    6.4086024159
  - # 12
    frequency:    6.7064319039
  - # 13
    frequency:    6.7343268700
  - # 14
    frequency:    6.9280100891
  - # 15
    frequency:    6.9385113944
  - # 16
    frequency:    7.0352909247
  - # 17
    frequency:   10.2552018272
  - # 18
    frequency:   10.3236806116
  - # 19
    frequency:   11.6648154366
  - # 20
    frequency:   13.9750070072
  - # 21
    frequency:   14.0318612130
  - # 22
    frequency:   15.1571691500
  - # 23
    frequency:   15.2571908479
  - # 24
    frequency:   18.6811366625
  - # 25
    frequency:   26.5218441573
  - # 26
    frequency:   54.2835977227
  - # 27
    frequency:   64.6470076805

- q-position: [    0.1212121,    0.0000000,    0.0000000 ]
  distance:    0.0409977
  band:
  - # 1
    frequency:    0.4374519977
  - # 2
    frequency:    0.8827893083
  - # 3
    frequency:    1.0778955370
  - # 4
    frequency:    1.4710782668
  - # 5
    frequency:    1.8777508525
  - # 6
    frequency:    1.9562762438
  - # 7
    frequency:    2.2202412826
  - # 8
    frequency:    2.7979240890
  - # 9
    frequency:    3.1020626448
  - # 10