nqpoint: 300    
npath: 3      
segment_nqpoint:
- 100
- 100
- 100
labels:
- [ 'G', 'M' ]
- [ 'M', 'K' ]
- [ 'K', 'G' ]
reciprocal_lattice:
- [   0.29833756,   0.17224527,   0.00000000 ] # a*
- [   0.00000000,   0.34449055,   0.00000000 ] # b*
- [   0.00000000,   0.00000000,   0.03862309 ] # c*
natom: 7      
lattice:
- [     3.351907771038328,     0.000000000000000,     0.000000000000000 ] # a
- [    -1.675953885519164,     2.902837280861539,     0.000000000000000 ] # b
- [     0.000000000000000,     0.000000000000000,    25.891248354005238 ] # c
points:
- symbol: C # 1
  coordinates: [  0.333332985432215,  0.666666983183674,  0.605832128032255 ]
  mass: 12.010700
- symbol: Cl # 2
  coordinates: [  0.666666984744048,  0.333332985985144,  0.347607804650630 ]
  mass: 35.453000
- symbol: Hf # 3
  coordinates: [  0.333332985432215,  0.666666983183674,  0.416446548118454 ]
  mass: 178.490000
- symbol: Hf # 4
  coordinates: [  0.666666984744048,  0.333332985985144,  0.503449456474631 ]
  mass: 178.490000
- symbol: N # 5
  coordinates: [  0.000000000000000,  0.000000000000000,  0.460386126955337 ]
  mass: 14.006700
- symbol: N # 6
  coordinates: [  0.333332985432215,  0.666666983183674,  0.557510022831102 ]
  mass: 14.006700
- symbol: O # 7
  coordinates: [  0.333332985432215,  0.666666983183674,  0.652392195349370 ]
  mass: 15.999400

phonon:
- q-position: [    0.0000000,    0.0000000,    0.0000000 ]
  distance:    0.0000000
  band:
  - # 1
    frequency:   -1.4642775406
  - # 2
    frequency:   -1.4642775406
  - # 3
    frequency:   -0.0000016446
  - # 4
    frequency:   -0.0000003364
  - # 5
    frequency:    0.0000015298
  - # 6
    frequency:    2.7592224861
  - # 7
    frequency:    2.7592224861
  - # 8
    frequency:    4.2637866709
  - # 9
    frequency:    5.0185949669
  - # 10
    frequency:    5.0185949669
  - # 11
    frequency:    6.3062637329
  - # 12
    frequency:    6.3062637329
  - # 13
    frequency:    6.6411280107
  - # 14
    frequency:    8.3053672322
  - # 15
    frequency:   14.1076145804
  - # 16
    frequency:   14.2596624690
  - # 17
    frequency:   14.2596624690
  - # 18
    frequency:   16.3903592336
  - # 19
    frequency:   16.3903592336
  - # 20
    frequency:   37.7224253831
  - # 21
    frequency:   68.3862427363

- q-position: [    0.0050505,    0.0000000,    0.0000000 ]
  distance:    0.0017399
  band:
  - # 1
    frequency:   -1.4649125207
  - # 2
    frequency:   -1.4643239537
  - # 3
    frequency:    0.0005905442
  - # 4
    frequency:    0.0417773334
  - # 5
    frequency:    0.0600806210
  - # 6
    frequency:    2.7580501774
  - # 7
    frequency:    2.7591800245
  - # 8
    frequency:    4.2644147409
  - # 9
    frequency:    5.0187691313
  - # 10
    frequency:    5.0198451816
  - # 11
    frequency:    6.3058553424
  - # 12
    frequency:    6.3064962590
  - # 13
    frequency:    6.6418310607
  - # 14
    frequency:    8.3049234808
  - # 15
    frequency:   14.1073021981
  - # 16
    frequency:   14.2600870365
  - # 17
    frequency:   14.2606669648
  - # 18
    frequency:   16.3903961146
  - # 19
    frequency:   16.3908273851
  - # 20
    frequency:   37.7223962526
  - # 21
    frequency:   68.3852051687

- q-position: [    0.0101010,    0.0000000,    0.0000000 ]
  distance:    0.0034797
  band:
  - # 1
    frequency:   -1.4668068072
  - # 2
    frequency:   -1.4644591219
  - # 3
    frequency:    0.0029024206
  - # 4
    frequency:    0.0838398880
  - # 5
    frequency:    0.1199607302
  - # 6
    frequency:    2.7545328172
  - # 7
    frequency:    2.7590589094
  - # 8
    frequency:    4.2662940564
  - # 9
    frequency:    5.0192922979
  - # 10
    frequency:    5.0235890552
  - # 11
    frequency:    6.3046324329
  - # 12
    frequency:    6.3071939169
  - # 13
    frequency:    6.6439364701
  - # 14
    frequency:    8.3035930901
  - # 15
    frequency:   14.1063650411
  - # 16
    frequency:   14.2613596669
  - # 17
    frequency:   14.2636755602
  - # 18
    frequency:   16.3905069983
  - # 19
    frequency:   16.3922298779
  - # 20
    frequency:   37.7223089471
  - # 21
    frequency:   68.3820945169

- q-position: [    0.0151515,    0.0000000,    0.0000000 ]
  distance:    0.0052196
  band:
  - # 1
    frequency:   -1.4699294432
  - # 2
    frequency:   -1.4646705681
  - # 3
    frequency:    0.0067190423
  - # 4
    frequency:    0.1264612961
  - # 5
    frequency:    0.1794455000
  - # 6
    frequency:    2.7486691875
  - # 7
    frequency:    2.7588779020
  - # 8
    frequency:    4.2694100407
  - # 9
    frequency:    5.0201664818
  - # 10
    frequency:    5.0298063925
  - # 11
    frequency:    6.3026017709
  - # 12
    frequency:    6.3083568900
  - # 13
    frequency:    6.6474330787
  - # 14
    frequency:    8.3013786483
  - # 15
    frequency:   14.1048031696
  - # 16
    frequency:   14.2634771520
  - # 17
    frequency:   14.2686735367
  - # 18
    frequency:   16.3906925967
  - # 19
    frequency:   16.3945608354
  - # 20
    frequency:   37.7221637244
  - # 21
    frequency:   68.3769169283

- q-position: [    0.0202020,    0.0000000,    0.0000000 ]
  distance:    0.0069594
  band:
  - # 1
    frequency:   -1.4742320142
  - # 2
    frequency:   -1.4649366515
  - # 3
    frequency:    0.0120585987
  - # 4
    frequency:    0.1698913273
  - # 5
    frequency:    0.2383507106
  - # 6
    frequency:    2.7404575415
  - # 7
    frequency:    2.7586681068
  - # 8
    frequency:    4.2737387527
  - # 9
    frequency:    5.0213950240
  - # 10
    frequency:    5.0384639197
  - # 11
    frequency:    6.2997745695
  - # 12
    frequency:    6.3099853041
  - # 13
    frequency:    6.6523024864
  - # 14
    frequency:    8.2982844625
  - # 15
    frequency:   14.1026169536
  - # 16
    frequency:   14.2664341736
  - # 17
    frequency:   14.2756362544
  - # 18
    frequency:   16.3909540633
  - # 19
    frequency:   16.3978104873
  - # 20
    frequency:   37.7219610122
  - # 21
    frequency:   68.3696826294

- q-position: [    0.0252525,    0.0000000,    0.0000000 ]
  distance:    0.0086993
  band:
  - # 1
    frequency:   -1.4796528730
  - # 2
    frequency:   -1.4652254126
  - # 3
    frequency:    0.0189232785
  - # 4
    frequency:    0.2143471370
  - # 5
    frequency:    0.2965063152
  - # 6
    frequency:    2.7298960404
  - # 7
    frequency:    2.7584727032
  - # 8
    frequency:    4.2792473995
  - # 9
    frequency:    5.0229825660
  - # 10
    frequency:    5.0495158470
  - # 11
    frequency:    6.2961663914
  - # 12
    frequency:    6.3120789807
  - # 13
    frequency:    6.6585193355
  - # 14
    frequency:    8.2943165483
  - # 15
    frequency:   14.0998073798
  - # 16
    frequency:   14.2702233471
  - # 17
    frequency:   14.2845290814
  - # 18
    frequency:   16.3912929432
  - # 19
    frequency:   16.4019652083
  - # 20
    frequency:   37.7217014070
  - # 21
    frequency:   68.3604058981

- q-position: [    0.0303030,    0.0000000,    0.0000000 ]
  distance:    0.0104391
  band:
  - # 1
    frequency:   -1.4861221208
  - # 2
    frequency:   -1.4654931738
  - # 3
    frequency:    0.0273145268
  - # 4
    frequency:    0.2600066456
  - # 5
    frequency:    0.3537583199
  - # 6
    frequency:    2.7169833865
  - # 7
    frequency:    2.7583465335
  - # 8
    frequency:    4.2858950206
  - # 9
    frequency:    5.0249350119
  - # 10
    frequency:    5.0629046315
  - # 11
    frequency:    6.2917970150
  - # 12
    frequency:    6.3146371332
  - # 13
    frequency:    6.6660516693
  - # 14
    frequency:    8.2894826158
  - # 15
    frequency:   14.0963763462
  - # 16
    frequency:   14.2748352808
  - # 17
    frequency:   14.2953074248
  - # 18
    frequency:   16.3917111050
  - # 19
    frequency:   16.4070075708
  - # 20
    frequency:   37.7213856705
  - # 21
    frequency:   68.3491050235

- q-position: [    0.0353535,    0.0000000,    0.0000000 ]
  distance:    0.0121790
  band:
  - # 1
    frequency:   -1.4935667070
  - # 2
    frequency:   -1.4656830866
  - # 3
    frequency:    0.0372343263
  - # 4
    frequency:    0.3070048673
  - # 5
    frequency:    0.4099689382
  - # 6
    frequency:    2.7017196796
  - # 7
    frequency:    2.7583555144
  - # 8
    frequency:    4.2936333145
  - # 9
    frequency:    5.0272594811
  - # 10
    frequency:    5.0785619129
  - # 11
    frequency:    6.2866902641
  - # 12
    frequency:    6.3176580390
  - # 13
    frequency:    6.6748613415
  - # 14
    frequency:    8.2837920522
  - # 15
    frequency:   14.0923268985
  - # 16
    frequency:   14.2802586515
  - # 17
    frequency:   14.3079168998
  - # 18
    frequency:   16.3922106530
  - # 19
    frequency:   16.4129164157
  - # 20
    frequency:   37.7210147262
  - # 21
    frequency:   68.3358022556

- q-position: [    0.0404040,    0.0000000,    0.0000000 ]
  distance:    0.0139188
  band:
  - # 1
    frequency:   -1.5019151304
  - # 2
    frequency:   -1.4657238351
  - # 3
    frequency:    0.0486855789
  - # 4
    frequency:    0.3554331274
  - # 5
    frequency:    0.4650152130
  - # 6
    frequency:    2.6841075295
  - # 7
    frequency:    2.7585758462
  - # 8
    frequency:    4.3024075722
  - # 9
    frequency:    5.0299642476
  - # 10
    frequency:    5.0964095905
  - # 11
    frequency:    6.2808738018
  - # 12
    frequency:    6.3211387243
  - # 13
    frequency:    6.6849044477
  - # 14
    frequency:    8.2772559007
  - # 15
    frequency:   14.0876634032
  - # 16
    frequency:   14.2864802961
  - # 17
    frequency:   14.3222936369
  - # 18
    frequency:   16.3927938233
  - # 19
    frequency:   16.4196669393
  - # 20
    frequency:   37.7205896550
  - # 21
    frequency:   68.3205237438

- q-position: [    0.0454545,    0.0000000,    0.0000000 ]
  distance:    0.0156587
  band:
  - # 1
    frequency:   -1.5111013996
  - # 2
    frequency:   -1.4655286942
  - # 3
    frequency:    0.0616722852
  - # 4
    frequency:    0.4053408373
  - # 5
    frequency:    0.5187864208
  - # 6
    frequency:    2.6641534703
  - # 7
    frequency:    2.7590929948
  - # 8
    frequency:    4.3121576812
  - # 9
    frequency:    5.0330586683
  - # 10
    frequency:    5.1163610071
  - # 11
    frequency:    6.2743788925
  - # 12
    frequency:    6.3250746916
  - # 13
    frequency:    6.6961317554
  - # 14
    frequency:    8.2698868362
  - # 15
    frequency:   14.0823916720
  - # 16
    frequency:   14.2934853160
  - # 17
    frequency:   14.3383647012
  - # 18
    frequency:   16.3934628619
  - # 19
    frequency:   16.4272307991
  - # 20
    frequency:   37.7201116902
  - # 21
    frequency:   68.3032994641

- q-position: [    0.0505051,    0.0000000,    0.0000000 ]
  distance:    0.0173985
  band:
  - # 1
    frequency:   -1.5210681076
  - # 2
    frequency:   -1.4649951011
  - # 3
    frequency:    0.0761996103
  - # 4
    frequency:    0.4567392980
  - # 5
    frequency:    0.5711806020
  - # 6
    frequency:    2.6418697382
  - # 7
    frequency:    2.7600004363
  - # 8
    frequency:    4.3228191635
  - # 9
    frequency:    5.0365530981
  - # 10
    frequency:    5.1383221962
  - # 11
    frequency:    6.2672401322
  - # 12
    frequency:    6.3294597174
  - # 13
    frequency:    6.7084891148
  - # 14
    frequency:    8.2616991389
  - # 15
    frequency:   14.0765190608
  - # 16
    frequency:   14.3012571963
  - # 17
    frequency:   14.3560485940
  - # 18
    frequency:   16.3942198892
  - # 19
    frequency:   16.4355762367
  - # 20
    frequency:   37.7195822113
  - # 21
    frequency:   68.2841631367

- q-position: [    0.0555556,    0.0000000,    0.0000000 ]
  distance:    0.0191384
  band:
  - # 1
    frequency:   -1.5317686234
  - # 2
    frequency:   -1.4640048321
  - # 3
    frequency:    0.0922738471
  - # 4
    frequency:    0.5096068935
  - # 5
    frequency:    0.6221005024
  - # 6
    frequency:    2.6172764906
  - # 7
    frequency:    2.7613981650
  - # 8
    frequency:    4.3343242140
  - # 9
    frequency:    5.0404587926
  - # 10
    frequency:    5.1621931556
  - # 11
    frequency:    6.2594951517
  - # 12
    frequency:    6.3342857380
  - # 13
    frequency:    6.7219178412
  - # 14
    frequency:    8.2527086645
  - # 15
    frequency:   14.0700545569
  - # 16
    frequency:   14.3097779356
  - # 17
    frequency:   14.3752558093
  - # 18
    frequency:   16.3950667502
  - # 19
    frequency:   16.4446682191
  - # 20
    frequency:   37.7190027379
  - # 21
    frequency:   68.2631521322

- q-position: [    0.0606061,    0.0000000,    0.0000000 ]
  distance:    0.0208782
  band:
  - # 1
    frequency:   -1.5431685097
  - # 2
    frequency:   -1.4624248000
  - # 3
    frequency:    0.1099022834
  - # 4
    frequency:    0.5638950249
  - # 5
    frequency:    0.6714491102
  - # 6
    frequency:    2.5904045690
  - # 7
    frequency:    2.7633909795
  - # 8
    frequency:    4.3466027077
  - # 9
    frequency:    5.0447877974
  - # 10
    frequency:    5.1878691029
  - # 11
    frequency:    6.2511842947
  - # 12
    frequency:    6.3395428344
  - # 13
    frequency:    6.7363550655
  - # 14
    frequency:    8.2429328131
  - # 15
    frequency:   14.0630088618
  - # 16
    frequency:   14.3190281871
  - # 17
    frequency:   14.3958894321
  - # 18
    frequency:   16.3960048531
  - # 19
    frequency:   16.4544685973
  - # 20
    frequency:   37.7183749225
  - # 21
    frequency:   68.2403073683

- q-position: [    0.0656566,    0.0000000,    0.0000000 ]
  distance:    0.0226181
  band:
  - # 1
    frequency:   -1.5552463224
  - # 2
    frequency:   -1.4601084000
  - # 3
    frequency:    0.1290929754
  - # 4
    frequency:    0.6195341955
  - # 5
    frequency:    0.7191248564
  - # 6
    frequency:    2.5612989357
  - # 7
    frequency:    2.7660865798
  - # 8
    frequency:    4.3595831511
  - # 9
    frequency:    5.0495528247
  - # 10
    frequency:    5.2152416778
  - # 11
    frequency:    6.2423502760
  - # 12
    frequency:    6.3452193200
  - # 13
    frequency:    6.7517340561
  - # 14
    frequency:    8.2323904962
  - # 15
    frequency:   14.0553944691
  - # 16
    frequency:   14.3289874085
  - # 17
    frequency:   14.4178457659
  - # 18
    frequency:   16.3970349984
  - # 19
    frequency:   16.4649362809
  - # 20
    frequency:   37.7177005427
  - # 21
    frequency:   68.2156731967

- q-position: [    0.0707071,    0.0000000,    0.0000000 ]
  distance:    0.0243579
  band:
  - # 1
    frequency:   -1.5679939554
  - # 2
    frequency:   -1.4568972680
  - # 3
    frequency:    0.1498544369
  - # 4
    frequency:    0.6764397735
  - # 5
    frequency:    0.7650164302
  - # 6
    frequency:    2.5300229511
  - # 7
    frequency:    2.7695935156
  - # 8
    frequency:    4.3731935575
  - # 9
    frequency:    5.0547671176
  - # 10
    frequency:    5.2442000563
  - # 11
    frequency:    6.2330378236
  - # 12
    frequency:    6.3513019288
  - # 13
    frequency:    6.7679845197
  - # 14
    frequency:    8.2211021019
  - # 15
    frequency:   14.0472257345
  - # 16
    frequency:   14.3396340196
  - # 17
    frequency:   14.4410149857
  - # 18
    frequency:   16.3981572003
  - # 19
    frequency:   16.4760274265
  - # 20
    frequency:   37.7169814935
  - # 21
    frequency:   68.1892972801

- q-position: [    0.0757576,    0.0000000,    0.0000000 ]
  distance:    0.0260978
  band:
  - # 1
    frequency:   -1.5814166793
  - # 2
    frequency:   -1.4526232667
  - # 3
    frequency:    0.1721952574
  - # 4
    frequency:    0.7345170975
  - # 5
    frequency:    0.8089970618
  - # 6
    frequency:    2.4966636978
  - # 7
    frequency:    2.7740190429
  - # 8
    frequency:    4.3873622314
  - # 9
    frequency:    5.0604443025
  - # 10
    frequency:    5.2746319503
  - # 11
    frequency:    6.2232933089
  - # 12
    frequency:    6.3577760963
  - # 13
    frequency:    6.7850328921
  - # 14
    frequency:    8.2090894596
  - # 15
    frequency:   14.0385189317
  - # 16
    frequency:   14.3509455647
  - # 17
    frequency:   14.4652818136
  - # 18
    frequency:   16.3993705035
  - # 19
    frequency:   16.4876956396
  - # 20
    frequency:   37.7162197779
  - # 21
    frequency:   68.1612304610

- q-position: [    0.0808081,    0.0000000,    0.0000000 ]
  distance:    0.0278376
  band:
  - # 1
    frequency:   -1.5955329843
  - # 2
    frequency:   -1.4471104979
  - # 3
    frequency:    0.1961236658
  - # 4
    frequency:    0.7936657322
  - # 5
    frequency:    0.8509180391
  - # 6
    frequency:    2.4613386010
  - # 7
    frequency:    2.7794669488
  - # 8
    frequency:    4.4020184514
  - # 9
    frequency:    5.0665982303
  - # 10
    frequency:    5.3064244707
  - # 11
    frequency:    6.2131643720
  - # 12
    frequency:    6.3646263234
  - # 13
    frequency:    6.8028026311
  - # 14
    frequency:    8.1963758036
  - # 15
    frequency:   14.0292922903
  - # 16
    frequency:   14.3628988804
  - # 17
    frequency:   14.4905262130
  - # 18
    frequency:   16.4006727970
  - # 19
    frequency:   16.4998921845
  - # 20
    frequency:   37.7154174987
  - # 21
    frequency:   68.1315266202

- q-position: [    0.0858586,    0.0000000,    0.0000000 ]
  distance:    0.0295775
  band:
  - # 1
    frequency:   -1.6103743040
  - # 2
    frequency:   -1.4401771466
  - # 3
    frequency:    0.2216470623
  - # 4
    frequency:    0.8537828075
  - # 5
    frequency:    0.8906011651
  - # 6
    frequency:    2.4242036338
  - # 7
    frequency:    2.7860354103
  - # 8
    frequency:    4.4170930480
  - # 9
    frequency:    5.0732428089
  - # 10
    frequency:    5.3394648431
  - # 11
    frequency:    6.2026995464
  - # 12
    frequency:    6.3718366093
  - # 13
    frequency:    6.8212145211
  - # 14
    frequency:    8.1829857363
  - # 15
    frequency:   14.0195660106
  - # 16
    frequency:   14.3754702637
  - # 17
    frequency:   14.5166241003
  - # 18
    frequency:   16.4020606295
  - # 19
    frequency:   16.5125662018
  - # 20
    frequency:   37.7145768489
  - # 21
    frequency:   68.1002425289

- q-position: [    0.0909091,    0.0000000,    0.0000000 ]
  distance:    0.0313173
  band:
  - # 1
    frequency:   -1.6259846509
  - # 2
    frequency:   -1.4316369882
  - # 3
    frequency:    0.2487715433
  - # 4
    frequency:    0.9147654704
  - # 5
    frequency:    0.9278298435
  - # 6
    frequency:    2.3854634010
  - # 7
    frequency:    2.7938149543
  - # 8
    frequency:    4.4325188733
  - # 9
    frequency:    5.0803918271
  - # 10
    frequency:    5.3736409684
  - # 11
    frequency:    6.1919478888
  - # 12
    frequency:    6.3793909411
  - # 13
    frequency:    6.8401870010
  - # 14
    frequency:    8.1689451915
  - # 15
    frequency:   14.0093622541
  - # 16
    frequency:   14.3886356415
  - # 17
    frequency:   14.5434480702
  - # 18
    frequency:   16.4035290273
  - # 19
    frequency:   16.5256649286
  - # 20
    frequency:   37.7137001019
  - # 21
    frequency:   68.0674376911

- q-position: [    0.0959596,    0.0000000,    0.0000000 ]
  distance:    0.0330572
  band:
  - # 1
    frequency:   -1.6424201591
  - # 2
    frequency:   -1.4213004256
  - # 3
    frequency:    0.2775014479
  - # 4
    frequency:    0.9623385326
  - # 5
    frequency:    0.9765125467
  - # 6
    frequency:    2.3453833426
  - # 7
    frequency:    2.8028865812
  - # 8
    frequency:    4.4482311653
  - # 9
    frequency:    5.0880587730
  - # 10
    frequency:    5.4088418298
  - # 11
    frequency:    6.1809586211
  - # 12
    frequency:    6.3872738256
  - # 13
    frequency:    6.8596365219
  - # 14
    frequency:    8.1542813973
  - # 15
    frequency:   13.9987051063
  - # 16
    frequency:   14.4023707371
  - # 17
    frequency:   14.5708681313
  - # 18
    frequency:   16.4050713192
  - # 19
    frequency:   16.5391339197
  - # 20
    frequency:   37.7127896021
  - # 21
    frequency:   68.0331741803

- q-position: [    0.1010101,    0.0000000,    0.0000000 ]
  distance:    0.0347970
  band:
  - # 1
    frequency:   -1.6597484842
  - # 2
    frequency:   -1.4089749567
  - # 3
    frequency:    0.3078389577
  - # 4
    frequency:    0.9938005160
  - # 5
    frequency:    1.0389255448
  - # 6
    frequency:    2.3043040794
  - # 7
    frequency:    2.8133201070
  - # 8
    frequency:    4.4641678109
  - # 9
    frequency:    5.0962566489
  - # 10
    frequency:    5.4449577513
  - # 11
    frequency:    6.1697807888
  - # 12
    frequency:    6.3954708485
  - # 13
    frequency:    6.8794779403
  - # 14
    frequency:    8.1390228394
  - # 15
    frequency:   13.9876205129
  - # 16
    frequency:   14.4166512334
  - # 17
    frequency:   14.5987524487
  - # 18
    frequency:   16.4066789716
  - # 19
    frequency:   16.5529172649
  - # 20
    frequency:   37.7118477544
  - # 21
    frequency:   67.9975164676

- q-position: [    0.1060606,    0.0000000,    0.0000000 ]
  distance:    0.0365369
  band:
  - # 1
    frequency:   -1.6780479741
  - # 2
    frequency:   -1.3944649957
  - # 3
    frequency:    0.3397837758
  - # 4
    frequency:    1.0218144326
  - # 5
    frequency:    1.1019091443
  - # 6
    frequency:    2.2626574304
  - # 7
    frequency:    2.8251727720
  - # 8
    frequency:    4.4802695139
  - # 9
    frequency:    5.1049977842
  - # 10
    frequency:    5.4818805202
  - # 11
    frequency:    6.1584629426
  - # 12
    frequency:    6.4039692497
  - # 13
    frequency:    6.8996249494
  - # 14
    frequency:    8.1231992249
  - # 15
    frequency:   13.9761361892
  - # 16
    frequency:   14.4314529298
  - # 17
    frequency:   14.6269680893
  - # 18
    frequency:   16.4083414360
  - # 19
    frequency:   16.5669578018
  - # 20
    frequency:   37.7108770149
  - # 21
    frequency:   67.9605312449

- q-position: [    0.1111111,    0.0000000,    0.0000000 ]
  distance:    0.0382767
  band:
  - # 1
    frequency:   -1.6974064819
  - # 2
    frequency:   -1.3775709854
  - # 3
    frequency:    0.3733329159
  - # 4
    frequency:    1.0458910012
  - # 5
    frequency:    1.1653713086
  - # 6
    frequency:    2.2209826173
  - # 7
    frequency:    2.8384881496
  - # 8
    frequency:    4.4964798774
  - # 9
    frequency:    5.1142936493
  - # 10
    frequency:    5.5195033852
  - # 11
    frequency:    6.1470528466
  - # 12
    frequency:    6.4127585015
  - # 13
    frequency:    6.9199905468
  - # 14
    frequency:    8.1068414463
  - # 15
    frequency:   13.9642815029
  - # 16
    frequency:   14.4467518912
  - # 17
    frequency:   14.6553817651
  - # 18
    frequency:   16.4100460134
  - # 19
    frequency:   16.5811973207
  - # 20
    frequency:   37.7098798803
  - # 21
    frequency:   67.9222872410

- q-position: [    0.1161616,    0.0000000,    0.0000000 ]
  distance:    0.0400166
  band:
  - # 1
    frequency:   -1.7179196529
  - # 2
    frequency:   -1.3580877244
  - # 3
    frequency:    0.4084806193
  - # 4
    frequency:    1.0654431248
  - # 5
    frequency:    1.2292231412
  - # 6
    frequency:    2.1799393885
  - # 7
    frequency:    2.8532953761
  - # 8
    frequency:    4.5127454088
  - # 9
    frequency:    5.1241546728
  - # 10
    frequency:    5.5577209474
  - # 11
    frequency:    6.1355972199
  - # 12
    frequency:    6.4218308776
  - # 13
    frequency:    6.9404875397
  - # 14
    frequency:    8.0899815459
  - # 15
    frequency:   13.9520873336
  - # 16
    frequency:   14.4625245873
  - # 17
    frequency:   14.6838605716
  - # 18
    frequency:   16.4117777380
  - # 19
    frequency:   16.5955767597
  - # 20
    frequency:   37.7088588782
  - # 21
    frequency:   67.8828550336

- q-position: [    0.1212121,    0.0000000,    0.0000000 ]
  distance:    0.0417564
  band:
  - # 1
    frequency:   -1.7396884872
  - # 2
    frequency:   -1.3358018036
  - # 3
    frequency:    0.4452184165
  - # 4
    frequency:    1.0797852202
  - # 5
    frequency:    1.2933785880
  - # 6
    frequency:    2.1403120863
  - # 7
    frequency:    2.8696087086
  - # 8
    frequency:    4.5290154593
  - # 9
    frequency:    5.1345900632
  - # 10
    frequency:    5.5964289611
  - # 11
    frequency:    6.1241415125
  - # 12
    frequency:    6.4311820023
  - # 13
    frequency:    6.9610290799
  - # 14
    frequency:    8.0726526818
  - # 15
    frequency:   13.9395859093
  - # 16
    frequency:   14.4787480206
  - # 17
    frequency:   14.7122727148
  - # 18
    frequency:   16.4135192828
  - # 19
    frequency:   16.6100363903
  - # 20
    frequency:   37.7078165569
  - # 21
    frequency:   67.8423068557

- q-position: [    0.1262626,    0.0000000,    0.0000000 ]
  distance:    0.0434963
  band:
  - # 1
    frequency:   -1.7628159575
  - # 2
    frequency:   -1.3104879795
  - # 3
    frequency:    0.4835353381
  - # 4
    frequency:    1.0881507291
  - # 5
    frequency:    1.3577540610
  - # 6
    frequency:    2.1029954844
  - # 7
    frequency:    2.8874274048
  - # 8
    frequency:    4.5452421090
  - # 9
    frequency:    5.1456076376
  - # 10
    frequency:    5.6355240620
  - # 11
    frequency:    6.1127297215
  - # 12
    frequency:    6.4408113675
  - # 13
    frequency:    6.9815292275
  - # 14
    frequency:    8.0548890927
  - # 15
    frequency:   13.9268106230
  - # 16
    frequency:   14.4953998402
  - # 17
    frequency:   14.7404882238
  - # 18
    frequency:   16.4152508908
  - # 19
    frequency:   16.6245159926
  - # 20
    frequency:   37.7067554764
  - # 21
    frequency:   67.8007163984

- q-position: [    0.1313131,    0.0000000,    0.0000000 ]
  distance:    0.0452361
  band:
  - # 1
    frequency:   -1.7874024755
  - # 2
    frequency:   -1.2819042045
  - # 3
    frequency:    0.5234182701
  - # 4
    frequency:    1.0897385321
  - # 5
    frequency:    1.4222680422
  - # 6
    frequency:    2.0689513551
  - # 7
    frequency:    2.9067359056
  - # 8
    frequency:    4.5613800092
  - # 9
    frequency:    5.1572136576
  - # 10
    frequency:    5.6749034428
  - # 11
    frequency:    6.1014042474
  - # 12
    frequency:    6.4507228051
  - # 13
    frequency:    7.0019035353
  - # 14
    frequency:    8.0367260646
  - # 15
    frequency:   13.9137958317
  - # 16
    frequency:   14.5124584422
  - # 17
    frequency:   14.7683796431
  - # 18
    frequency:   16.4169503340
  - # 19
    frequency:   16.6389550203
  - # 20
    frequency:   37.7056781981
  - # 21
    frequency:   67.7581586104

- q-position: [    0.1363636,    0.0000000,    0.0000000 ]
  distance:    0.0469760
  band:
  - # 1
    frequency:   -1.8135400532
  - # 2
    frequency:   -1.2497848652
  - # 3
    frequency:    0.5648524367
  - # 4
    frequency:    1.0837956221
  - # 5
    frequency:    1.4868407076
  - # 6
    frequency:    2.0391279555
  - # 7
    frequency:    2.9275042907
  - # 8
    frequency:    4.5773861956
  - # 9
    frequency:    5.1694126733
  - # 10
    frequency:    5.7144644963
  - # 11
    frequency:    6.0902057943
  - # 12
    frequency:    6.4609248985
  - # 13
    frequency:    7.0220696508
  - # 14
    frequency:    8.0181998973
  - # 15
    frequency:   13.9005766401
  - # 16
    frequency:   14.5299030535
  - # 17
    frequency:   14.7958227003
  - # 18
    frequency:   16.4185929019
  - # 19
    frequency:   16.6532927587
  - # 20
    frequency:   37.7045872761
  - # 21
    frequency:   67.7147094940

- q-position: [    0.1414141,    0.0000000,    0.0000000 ]
  distance:    0.0487158
  band:
  - # 1
    frequency:   -1.8413051265
  - # 2
    frequency:   -1.2138314912
  - # 3
    frequency:    0.6078219796
  - # 4
    frequency:    1.0697308461
  - # 5
    frequency:    1.5513935959
  - # 6
    frequency:    2.0143470302
  - # 7
    frequency:    2.9496889726
  - # 8
    frequency:    4.5932198822
  - # 9
    frequency:    5.1822073750
  - # 10
    frequency:    5.7541044479
  - # 11
    frequency:    6.0791733132
  - # 12
    frequency:    6.4714313135
  - # 13
    frequency:    7.0419479304
  - # 14
    frequency:    7.9993478704
  - # 15
    frequency:   13.8871886701
  - # 16
    frequency:   14.5477137986
  - # 17
    frequency:   14.8226969449
  - # 18
    frequency:   16.4201514215
  - # 19
    frequency:   16.6674684758
  - # 20
    frequency:   37.7034852483
  - # 21
    frequency:   67.6704459000

- q-position: [    0.1464646,    0.0000000,    0.0000000 ]
  distance:    0.0504557
  band:
  - # 1
    frequency:   -1.8707502078
  - # 2
    frequency:   -1.1736997340
  - # 3
    frequency:    0.6523105872
  - # 4
    frequency:    1.0472340005
  - # 5
    frequency:    1.6158493392
  - # 6
    frequency:    1.9951833344
  - # 7
    frequency:    2.9732335846
  - # 8
    frequency:    4.6088422505
  - # 9
    frequency:    5.1955984504
  - # 10
    frequency:    5.7937200081
  - # 11
    frequency:    6.0683439910
  - # 12
    frequency:    6.4822610226
  - # 13
    frequency:    7.0614620638
  - # 14
    frequency:    7.9802082093
  - # 15
    frequency:   13.8736678216
  - # 16
    frequency:   14.5658717495
  - # 17
    frequency:   14.8488863519
  - # 18
    frequency:   16.4215963110
  - # 19
    frequency:   16.6814215706
  - # 20
    frequency:   37.7023746274
  - # 21
    frequency:   67.6254453205

- q-position: [    0.1515152,    0.0000000,    0.0000000 ]
  distance:    0.0521955
  band:
  - # 1
    frequency:   -1.9018948060
  - # 2
    frequency:   -1.1289805907
  - # 3
    frequency:    0.6983021088
  - # 4
    frequency:    1.0163583411
  - # 5
    frequency:    1.6801314598
  - # 6
    frequency:    1.9818778452
  - # 7
    frequency:    2.9980700211
  - # 8
    frequency:    4.6242162432
  - # 9
    frequency:    5.2095844455
  - # 10
    frequency:    5.8332070756
  - # 11
    frequency:    6.0577532835
  - # 12
    frequency:    6.4934383860
  - # 13
    frequency:    7.0805397062
  - # 14
    frequency:    7.9608200499
  - # 15
    frequency:   13.8600500227
  - # 16
    frequency:   14.5843589563
  - # 17
    frequency:   14.8742798876
  - # 18
    frequency:   16.4228956660
  - # 19
    frequency:   16.6950917218
  - # 20
    frequency:   37.7012578935
  - # 21