nqpoint: 300    
npath: 3      
segment_nqpoint:
- 100
- 100
- 100
labels:
- [ 'G', 'M' ]
- [ 'M', 'K' ]
- [ 'K', 'G' ]
reciprocal_lattice:
- [   0.28340173,   0.16362207,   0.00000000 ] # a*
- [   0.00000000,   0.32724413,   0.00000000 ] # b*
- [   0.00000000,   0.00000000,   0.03917151 ] # c*
natom: 7      
lattice:
- [     3.528559926230308,     0.000000000000000,     0.000000000000000 ] # a
- [    -1.764279963115154,     3.055822534885368,     0.000000000000000 ] # b
- [     0.000000000000000,     0.000000000000000,    25.528757259556723 ] # c
points:
- symbol: C # 1
  coordinates: [  0.666666984744047,  0.333332985985145,  0.399096816212514 ]
  mass: 12.010700
- symbol: H # 2
  coordinates: [  0.333332985432215,  0.666666983183674,  0.647456399522510 ]
  mass: 1.007940
- symbol: N # 3
  coordinates: [  0.000000000000000,  0.000000000000000,  0.553445742737593 ]
  mass: 14.006700
- symbol: N # 4
  coordinates: [  0.666666984744047,  0.333332985985145,  0.352543600477490 ]
  mass: 14.006700
- symbol: O # 5
  coordinates: [  0.666666984744047,  0.333332985985145,  0.451359629854793 ]
  mass: 15.999400
- symbol: Y # 6
  coordinates: [  0.333332985432215,  0.666666983183674,  0.503888221148415 ]
  mass: 88.905850
- symbol: Y # 7
  coordinates: [  0.666666984744047,  0.333332985985145,  0.608259126093114 ]
  mass: 88.905850

phonon:
- q-position: [    0.0000000,    0.0000000,    0.0000000 ]
  distance:    0.0000000
  band:
  - # 1
    frequency:   -1.3653946086
  - # 2
    frequency:   -1.3653946086
  - # 3
    frequency:   -0.0000103543
  - # 4
    frequency:   -0.0000006711
  - # 5
    frequency:    0.0000113345
  - # 6
    frequency:    3.6296700353
  - # 7
    frequency:    3.6296700353
  - # 8
    frequency:    5.2135605936
  - # 9
    frequency:    6.4427229213
  - # 10
    frequency:    6.4427229213
  - # 11
    frequency:    8.1781510011
  - # 12
    frequency:   11.5052944138
  - # 13
    frequency:   11.6486223835
  - # 14
    frequency:   11.6486223835
  - # 15
    frequency:   13.8719932805
  - # 16
    frequency:   13.8719932805
  - # 17
    frequency:   24.8694124738
  - # 18
    frequency:   27.9907244222
  - # 19
    frequency:   27.9907244223
  - # 20
    frequency:   32.2802989720
  - # 21
    frequency:   68.0475666864

- q-position: [    0.0050505,    0.0000000,    0.0000000 ]
  distance:    0.0016527
  band:
  - # 1
    frequency:   -1.3648283181
  - # 2
    frequency:   -1.3637768748
  - # 3
    frequency:    0.0016161963
  - # 4
    frequency:    0.0822623072
  - # 5
    frequency:    0.0874868159
  - # 6
    frequency:    3.6297137258
  - # 7
    frequency:    3.6305142184
  - # 8
    frequency:    5.2134423614
  - # 9
    frequency:    6.4426383959
  - # 10
    frequency:    6.4429068150
  - # 11
    frequency:    8.1772391341
  - # 12
    frequency:   11.5053163879
  - # 13
    frequency:   11.6481202938
  - # 14
    frequency:   11.6487008589
  - # 15
    frequency:   13.8720012585
  - # 16
    frequency:   13.8721151013
  - # 17
    frequency:   24.8684590612
  - # 18
    frequency:   27.9904758323
  - # 19
    frequency:   27.9908050222
  - # 20
    frequency:   32.2797796716
  - # 21
    frequency:   68.0472803624

- q-position: [    0.0101010,    0.0000000,    0.0000000 ]
  distance:    0.0033055
  band:
  - # 1
    frequency:   -1.3631364835
  - # 2
    frequency:   -1.3589247652
  - # 3
    frequency:    0.0064622573
  - # 4
    frequency:    0.1644874908
  - # 5
    frequency:    0.1750085951
  - # 6
    frequency:    3.6298466157
  - # 7
    frequency:    3.6330419462
  - # 8
    frequency:    5.2130887624
  - # 9
    frequency:    6.4423848946
  - # 10
    frequency:    6.4434568479
  - # 11
    frequency:    8.1745064339
  - # 12
    frequency:   11.5053761559
  - # 13
    frequency:   11.6466187812
  - # 14
    frequency:   11.6489350156
  - # 15
    frequency:   13.8720252683
  - # 16
    frequency:   13.8724804288
  - # 17
    frequency:   24.8656009574
  - # 18
    frequency:   27.9897300502
  - # 19
    frequency:   27.9910475263
  - # 20
    frequency:   32.2782230913
  - # 21
    frequency:   68.0464220569

- q-position: [    0.0151515,    0.0000000,    0.0000000 ]
  distance:    0.0049582
  band:
  - # 1
    frequency:   -1.3603395584
  - # 2
    frequency:   -1.3508412360
  - # 3
    frequency:    0.0145334685
  - # 4
    frequency:    0.2466348815
  - # 5
    frequency:    0.2625976887
  - # 6
    frequency:    3.6300741418
  - # 7
    frequency:    3.6372388299
  - # 8
    frequency:    5.2125030808
  - # 9
    frequency:    6.4419626422
  - # 10
    frequency:    6.4443680856
  - # 11
    frequency:    8.1699615913
  - # 12
    frequency:   11.5054547499
  - # 13
    frequency:   11.6441326493
  - # 14
    frequency:   11.6493210453
  - # 15
    frequency:   13.8720655371
  - # 16
    frequency:   13.8730888589
  - # 17
    frequency:   24.8608445547
  - # 18
    frequency:   27.9884870413
  - # 19
    frequency:   27.9914540477
  - # 20
    frequency:   32.2756331891
  - # 21
    frequency:   68.0449937671

- q-position: [    0.0202020,    0.0000000,    0.0000000 ]
  distance:    0.0066110
  band:
  - # 1
    frequency:   -1.3564695440
  - # 2
    frequency:   -1.3395301649
  - # 3
    frequency:    0.0258220421
  - # 4
    frequency:    0.3286571917
  - # 5
    frequency:    0.3502813434
  - # 6
    frequency:    3.6304053004
  - # 7
    frequency:    3.6430811374
  - # 8
    frequency:    5.2116907640
  - # 9
    frequency:    6.4413720138
  - # 10
    frequency:    6.4456323370
  - # 11
    frequency:    8.1636190526
  - # 12
    frequency:   11.5055187955
  - # 13
    frequency:   11.6406884302
  - # 14
    frequency:   11.6498526007
  - # 15
    frequency:   13.8721224419
  - # 16
    frequency:   13.8739397161
  - # 17
    frequency:   24.8542004726
  - # 18
    frequency:   27.9867467551
  - # 19
    frequency:   27.9920281072
  - # 20
    frequency:   32.2720165481
  - # 21
    frequency:   68.0429988136

- q-position: [    0.0252525,    0.0000000,    0.0000000 ]
  distance:    0.0082637
  band:
  - # 1
    frequency:   -1.3515671921
  - # 2
    frequency:   -1.3249948207
  - # 3
    frequency:    0.0403181639
  - # 4
    frequency:    0.4104983109
  - # 5
    frequency:    0.4380794441
  - # 6
    frequency:    3.6308525510
  - # 7
    frequency:    3.6505361536
  - # 8
    frequency:    5.2106593823
  - # 9
    frequency:    6.4406135354
  - # 10
    frequency:    6.4472382030
  - # 11
    frequency:    8.1554989632
  - # 12
    frequency:   11.5055175847
  - # 13
    frequency:   11.6363274557
  - # 14
    frequency:   11.6505207957
  - # 15
    frequency:   13.8721965081
  - # 16
    frequency:   13.8750320514
  - # 17
    frequency:   24.8456835059
  - # 18
    frequency:   27.9845091365
  - # 19
    frequency:   27.9927746317
  - # 20
    frequency:   32.2673823543
  - # 21
    frequency:   68.0404418292

- q-position: [    0.0303030,    0.0000000,    0.0000000 ]
  distance:    0.0099165
  band:
  - # 1
    frequency:   -1.3456786814
  - # 2
    frequency:   -1.3072358175
  - # 3
    frequency:    0.0580110680
  - # 4
    frequency:    0.4920921956
  - # 5
    frequency:    0.5260026015
  - # 6
    frequency:    3.6314316810
  - # 7
    frequency:    3.6595626616
  - # 8
    frequency:    5.2094185760
  - # 9
    frequency:    6.4396878846
  - # 10
    frequency:    6.4491711423
  - # 11
    frequency:    8.1456270923
  - # 12
    frequency:   11.5053783940
  - # 13
    frequency:   11.6311107401
  - # 14
    frequency:   11.6513142061
  - # 15
    frequency:   13.8722884059
  - # 16
    frequency:   13.8763646395
  - # 17
    frequency:   24.8353125549
  - # 18
    frequency:   27.9817741411
  - # 19
    frequency:   27.9936999511
  - # 20
    frequency:   32.2617423676
  - # 21
    frequency:   68.0373287420

- q-position: [    0.0353535,    0.0000000,    0.0000000 ]
  distance:    0.0115692
  band:
  - # 1
    frequency:   -1.3388522084
  - # 2
    frequency:   -1.2862486521
  - # 3
    frequency:    0.0788903940
  - # 4
    frequency:    0.5733628977
  - # 5
    frequency:    0.6140506818
  - # 6
    frequency:    3.6321616333
  - # 7
    frequency:    3.6701115222
  - # 8
    frequency:    5.2079799890
  - # 9
    frequency:    6.4385958924
  - # 10
    frequency:    6.4514135534
  - # 11
    frequency:    8.1340347400
  - # 12
    frequency:   11.5049994727
  - # 13
    frequency:   11.6251262458
  - # 14
    frequency:   11.6522188710
  - # 15
    frequency:   13.8723989473
  - # 16
    frequency:   13.8779359750
  - # 17
    frequency:   24.8231105355
  - # 18
    frequency:   27.9785417548
  - # 19
    frequency:   27.9948117923
  - # 20
    frequency:   32.2551108836
  - # 21
    frequency:   68.0336667554

- q-position: [    0.0404040,    0.0000000,    0.0000000 ]
  distance:    0.0132220
  band:
  - # 1
    frequency:   -1.3311348842
  - # 2
    frequency:   -1.2620209593
  - # 3
    frequency:    0.1029478018
  - # 4
    frequency:    0.6542256063
  - # 5
    frequency:    0.7022118460
  - # 6
    frequency:    3.6330642965
  - # 7
    frequency:    3.6821263266
  - # 8
    frequency:    5.2063571913
  - # 9
    frequency:    6.4373385448
  - # 10
    frequency:    6.4539448706
  - # 11
    frequency:    8.1207586305
  - # 12
    frequency:   11.5042401517
  - # 13
    frequency:   11.6184990768
  - # 14
    frequency:   11.6532182960
  - # 15
    frequency:   13.8725290810
  - # 16
    frequency:   13.8797442684
  - # 17
    frequency:   24.8091042723
  - # 18
    frequency:   27.9748120169
  - # 19
    frequency:   27.9961192704
  - # 20
    frequency:   32.2475046872
  - # 21
    frequency:   68.0294643222

- q-position: [    0.0454545,    0.0000000,    0.0000000 ]
  distance:    0.0148747
  band:
  - # 1
    frequency:   -1.3225702196
  - # 2
    frequency:   -1.2345296382
  - # 3
    frequency:    0.1301787952
  - # 4
    frequency:    0.7345884476
  - # 5
    frequency:    0.7904621319
  - # 6
    frequency:    3.6341642597
  - # 7
    frequency:    3.6955440959
  - # 8
    frequency:    5.2045655934
  - # 9
    frequency:    6.4359169857
  - # 10
    frequency:    6.4567416704
  - # 11
    frequency:    8.1058407958
  - # 12
    frequency:   11.5029081570
  - # 13
    frequency:   11.6114045163
  - # 14
    frequency:   11.6542934583
  - # 15
    frequency:   13.8726798874
  - # 16
    frequency:   13.8817874423
  - # 17
    frequency:   24.7933243764
  - # 18
    frequency:   27.9705850480
  - # 19
    frequency:   27.9976328752
  - # 20
    frequency:   32.2389429987
  - # 21
    frequency:   68.0247311155

- q-position: [    0.0505051,    0.0000000,    0.0000000 ]
  distance:    0.0165275
  band:
  - # 1
    frequency:   -1.3131963443
  - # 2
    frequency:   -1.2037380047
  - # 3
    frequency:    0.1605846659
  - # 4
    frequency:    0.8143547380
  - # 5
    frequency:    0.8787655628
  - # 6
    frequency:    3.6354885321
  - # 7
    frequency:    3.7102960004
  - # 8
    frequency:    5.2026223538
  - # 9
    frequency:    6.4343325207
  - # 10
    frequency:    6.4597777882
  - # 11
    frequency:    8.0893284525
  - # 12
    frequency:   11.5007464217
  - # 13
    frequency:   11.6040816062
  - # 14
    frequency:   11.6554228144
  - # 15
    frequency:   13.8728525722
  - # 16
    frequency:   13.8840631276
  - # 17
    frequency:   24.7758051074
  - # 18
    frequency:   27.9658610806
  - # 19
    frequency:   27.9993644520
  - # 20
    frequency:   32.2294474112
  - # 21
    frequency:   68.0194779950

- q-position: [    0.0555556,    0.0000000,    0.0000000 ]
  distance:    0.0181802
  band:
  - # 1
    frequency:   -1.3030449708
  - # 2
    frequency:   -1.1695930858
  - # 3
    frequency:    0.1941743924
  - # 4
    frequency:    0.8934253860
  - # 5
    frequency:    0.9670747217
  - # 6
    frequency:    3.6370662295
  - # 7
    frequency:    3.7263080742
  - # 8
    frequency:    5.2005462810
  - # 9
    frequency:    6.4325866214
  - # 10
    frequency:    6.4630244409
  - # 11
    frequency:    8.0712738770
  - # 12
    frequency:   11.4974268570
  - # 13
    frequency:   11.5968398081
  - # 14
    frequency:   11.6565823124
  - # 15
    frequency:   13.8730484588
  - # 16
    frequency:   13.8865686600
  - # 17
    frequency:   24.7565842227
  - # 18
    frequency:   27.9606404933
  - # 19
    frequency:   28.0013271759
  - # 20
    frequency:   32.2190418208
  - # 21
    frequency:   68.0137169693

- q-position: [    0.0606061,    0.0000000,    0.0000000 ]
  distance:    0.0198330
  band:
  - # 1
    frequency:   -1.2921410139
  - # 2
    frequency:   -1.1320230681
  - # 3
    frequency:    0.2309661886
  - # 4
    frequency:    0.9717011991
  - # 5
    frequency:    1.0553316866
  - # 6
    frequency:    3.6389282305
  - # 7
    frequency:    3.7435019026
  - # 8
    frequency:    5.1983577343
  - # 9
    frequency:    6.4306809319
  - # 10
    frequency:    6.4664503548
  - # 11
    frequency:    8.0517342822
  - # 12
    frequency:   11.4925661975
  - # 13
    frequency:   11.5900436210
  - # 14
    frequency:   11.6577454071
  - # 15
    frequency:   13.8732689811
  - # 16
    frequency:   13.8893010776
  - # 17
    frequency:   24.7357028160
  - # 18
    frequency:   27.9549238484
  - # 19
    frequency:   28.0035355177
  - # 20
    frequency:   32.2077523496
  - # 21
    frequency:   68.0074611543

- q-position: [    0.0656566,    0.0000000,    0.0000000 ]
  distance:    0.0214857
  band:
  - # 1
    frequency:   -1.2805027197
  - # 2
    frequency:   -1.0909346779
  - # 3
    frequency:    0.2709881676
  - # 4
    frequency:    1.0490849269
  - # 5
    frequency:    1.1434692007
  - # 6
    frequency:    3.6411068027
  - # 7
    frequency:    3.7617952630
  - # 8
    frequency:    5.1960785222
  - # 9
    frequency:    6.4286172757
  - # 10
    frequency:    6.4700218961
  - # 11
    frequency:    8.0307716994
  - # 12
    frequency:   11.4857807244
  - # 13
    frequency:   11.5840583537
  - # 14
    frequency:   11.6588830829
  - # 15
    frequency:   13.8735156735
  - # 16
    frequency:   13.8922571192
  - # 17
    frequency:   24.7132051449
  - # 18
    frequency:   27.9487119316
  - # 19
    frequency:   28.0060052014
  - # 20
    frequency:   32.1956072605
  - # 21
    frequency:   68.0007247283

- q-position: [    0.0707071,    0.0000000,    0.0000000 ]
  distance:    0.0231385
  band:
  - # 1
    frequency:   -1.2681421356
  - # 2
    frequency:   -1.0462097885
  - # 3
    frequency:    0.3142772205
  - # 4
    frequency:    1.1254829522
  - # 5
    frequency:    1.2314119394
  - # 6
    frequency:    3.6436352044
  - # 7
    frequency:    3.7811027062
  - # 8
    frequency:    5.1937318008
  - # 9
    frequency:    6.4263976654
  - # 10
    frequency:    6.4737032041
  - # 11
    frequency:    8.0084528703
  - # 12
    frequency:   11.4767748722
  - # 13
    frequency:   11.5791620358
  - # 14
    frequency:   11.6599638809
  - # 15
    frequency:   13.8737901617
  - # 16
    frequency:   13.8954332245
  - # 17
    frequency:   24.6891384512
  - # 18
    frequency:   27.9420057945
  - # 19
    frequency:   28.0087531514
  - # 20
    frequency:   32.1826368658
  - # 21
    frequency:   67.9935228835

- q-position: [    0.0757576,    0.0000000,    0.0000000 ]
  distance:    0.0247912
  band:
  - # 1
    frequency:   -1.2550657680
  - # 2
    frequency:   -0.9976995699
  - # 3
    frequency:    0.3608747028
  - # 4
    frequency:    1.2008066077
  - # 5
    frequency:    1.3190777538
  - # 6
    frequency:    3.6465472636
  - # 7
    frequency:    3.8013360669
  - # 8
    frequency:    5.1913419725
  - # 9
    frequency:    6.4240243129
  - # 10
    frequency:    6.4774563257
  - # 11
    frequency:    7.9848491494
  - # 12
    frequency:   11.4654168092
  - # 13
    frequency:   11.5754703752
  - # 14
    frequency:   11.6609539353
  - # 15
    frequency:   13.8740941514
  - # 16
    frequency:   13.8988255354
  - # 17
    frequency:   24.6635527736
  - # 18
    frequency:   27.9348067990
  - # 19
    frequency:   28.0117974298
  - # 20
    frequency:   32.1688734288
  - # 21
    frequency:   67.9858717739

- q-position: [    0.0808081,    0.0000000,    0.0000000 ]
  distance:    0.0264440
  band:
  - # 1
    frequency:   -1.2412753024
  - # 2
    frequency:   -0.9452125527
  - # 3
    frequency:    0.4108169529
  - # 4
    frequency:    1.2749731420
  - # 5
    frequency:    1.4063787896
  - # 6
    frequency:    3.6498769388
  - # 7
    frequency:    3.8224048971
  - # 8
    frequency:    5.1889345836
  - # 9
    frequency:    6.4214996423
  - # 10
    frequency:    6.4812413538
  - # 11
    frequency:    7.9600364214
  - # 12
    frequency:   11.4517464770
  - # 13
    frequency:   11.5729292712
  - # 14
    frequency:   11.6618170175
  - # 15
    frequency:   13.8744294163
  - # 16
    frequency:   13.9024298990
  - # 17
    frequency:   24.6365007560
  - # 18
    frequency:   27.9271166633
  - # 19
    frequency:   28.0151571616
  - # 20
    frequency:   32.1543510594
  - # 21
    frequency:   67.9777884611

- q-position: [    0.0858586,    0.0000000,    0.0000000 ]
  distance:    0.0280967
  band:
  - # 1
    frequency:   -1.2267682946
  - # 2
    frequency:   -0.8884892605
  - # 3
    frequency:    0.4641183507
  - # 4
    frequency:    1.3479063839
  - # 5
    frequency:    1.4932224195
  - # 6
    frequency:    3.6536578667
  - # 7
    frequency:    3.8442168218
  - # 8
    frequency:    5.1865362180
  - # 9
    frequency:    6.4188263047
  - # 10
    frequency:    6.4850165699
  - # 11
    frequency:    7.9340950327
  - # 12
    frequency:   11.4359178517
  - # 13
    frequency:   11.5713731151
  - # 14
    frequency:   11.6625145896
  - # 15
    frequency:   13.8747977858
  - # 16
    frequency:   13.9062418732
  - # 17
    frequency:   24.6080374516
  - # 18
    frequency:   27.9189375087
  - # 19
    frequency:   28.0188524502
  - # 20
    frequency:   32.1391056026
  - # 21
    frequency:   67.9692908564

- q-position: [    0.0909091,    0.0000000,    0.0000000 ]
  distance:    0.0297495
  band:
  - # 1
    frequency:   -1.2115387745
  - # 2
    frequency:   -0.8271492382
  - # 3
    frequency:    0.5207453037
  - # 4
    frequency:    1.4195371610
  - # 5
    frequency:    1.5795119563
  - # 6
    frequency:    3.6579229028
  - # 7
    frequency:    3.8666778177
  - # 8
    frequency:    5.1841743848
  - # 9
    frequency:    6.4160071945
  - # 10
    frequency:    6.4887385965
  - # 11
    frequency:    7.9071097380
  - # 12
    frequency:   11.4181264474
  - # 13
    frequency:   11.5705978519
  - # 14
    frequency:   11.6630058688
  - # 15
    frequency:   13.8752011310
  - # 16
    frequency:   13.9102567337
  - # 17
    frequency:   24.5782201245
  - # 18
    frequency:   27.9102719075
  - # 19
    frequency:   28.0229042801
  - # 20
    frequency:   32.1231745231
  - # 21
    frequency:   67.9603976611

- q-position: [    0.0959596,    0.0000000,    0.0000000 ]
  distance:    0.0314022
  band:
  - # 1
    frequency:   -1.1955777311
  - # 2
    frequency:   -0.7605837849
  - # 3
    frequency:    0.5805823116
  - # 4
    frequency:    1.4898035317
  - # 5
    frequency:    1.6651471452
  - # 6
    frequency:    3.6627036595
  - # 7
    frequency:    3.8896924214
  - # 8
    frequency:    5.1818773920
  - # 9
    frequency:    6.4130454681
  - # 10
    frequency:    6.4923625637
  - # 11
    frequency:    7.8791696602
  - # 12
    frequency:   11.3985610007
  - # 13
    frequency:   11.5704098594
  - # 14
    frequency:   11.6632479032
  - # 15
    frequency:   13.8756413501
  - # 16
    frequency:   13.9144694836
  - # 17
    frequency:   24.5471080499
  - # 18
    frequency:   27.9011229311
  - # 19
    frequency:   28.0273344099
  - # 20
    frequency:   32.1065967825
  - # 21
    frequency:   67.9511283043

- q-position: [    0.1010101,    0.0000000,    0.0000000 ]
  distance:    0.0330550
  band:
  - # 1
    frequency:   -1.1788734636
  - # 2
    frequency:   -0.6877424639
  - # 3
    frequency:    0.6433968055
  - # 4
    frequency:    1.5586508767
  - # 5
    frequency:    1.7500244538
  - # 6
    frequency:    3.6680300505
  - # 7
    frequency:    3.9131638762
  - # 8
    frequency:    5.1796741996
  - # 9
    frequency:    6.4099445642
  - # 10
    frequency:    6.4958422994
  - # 11
    frequency:    7.8503682590
  - # 12
    frequency:   11.3773839229
  - # 13
    frequency:   11.5706460515
  - # 14
    frequency:   11.6631956599
  - # 15
    frequency:   13.8761203530
  - # 16
    frequency:   13.9188748648
  - # 17
    frequency:   24.5147623145
  - # 18
    frequency:   27.8914941977
  - # 19
    frequency:   28.0321652545
  - # 20
    frequency:   32.0894127136
  - # 21
    frequency:   67.9415028788

- q-position: [    0.1060606,    0.0000000,    0.0000000 ]
  distance:    0.0347077
  band:
  - # 1
    frequency:   -1.1614117991
  - # 2
    frequency:   -0.6066965188
  - # 3
    frequency:    0.7088160870
  - # 4
    frequency:    1.6260318885
  - # 5
    frequency:    1.8340371938
  - # 6
    frequency:    3.6739298475
  - # 7
    frequency:    3.9369942290
  - # 8
    frequency:    5.1775942401
  - # 9
    frequency:    6.4067082258
  - # 10
    frequency:    6.4991305521
  - # 11
    frequency:    7.8208033039
  - # 12
    frequency:   11.3547292312
  - # 13
    frequency:   11.5711764874
  - # 14
    frequency:   11.6628021259
  - # 15
    frequency:   13.8766400450
  - # 16
    frequency:   13.9234673717
  - # 17
    frequency:   24.4812456173
  - # 18
    frequency:   27.8813899193
  - # 19
    frequency:   28.0374197574
  - # 20
    frequency:   32.0716638889
  - # 21
    frequency:   67.9315420754

- q-position: [    0.1111111,    0.0000000,    0.0000000 ]
  distance:    0.0363605
  band:
  - # 1
    frequency:   -1.1431761790
  - # 2
    frequency:   -0.5136361211
  - # 3
    frequency:    0.7763319441
  - # 4
    frequency:    1.6919064875
  - # 5
    frequency:    1.9170755128
  - # 6
    frequency:    3.6804282576
  - # 7
    frequency:    3.9610843954
  - # 8
    frequency:    5.1756671930
  - # 9
    frequency:    6.4033405237
  - # 10
    frequency:    6.5021792613
  - # 11
    frequency:    7.7905768410
  - # 12
    frequency:   11.3307075300
  - # 13
    frequency:   11.5718999101
  - # 14
    frequency:   11.6620184227
  - # 15
    frequency:   13.8772023100
  - # 16
    frequency:   13.9282412668
  - # 17
    frequency:   24.4466220717
  - # 18
    frequency:   27.8708149474
  - # 19
    frequency:   28.0431212548
  - # 20
    frequency:   32.0533929857
  - # 21
    frequency:   67.9212671159

- q-position: [    0.1161616,    0.0000000,    0.0000000 ]
  distance:    0.0380132
  band:
  - # 1
    frequency:   -1.1241476207
  - # 2
    frequency:   -0.3998736554
  - # 3
    frequency:    0.8453403738
  - # 4
    frequency:    1.7562416830
  - # 5
    frequency:    1.9990262953
  - # 6
    frequency:    3.6875475301
  - # 7
    frequency:    3.9853342116
  - # 8
    frequency:    5.1739226959
  - # 9
    frequency:    6.3998458813
  - # 10
    frequency:    6.5049398909
  - # 11
    frequency:    7.7597951430
  - # 12
    frequency:   11.3054124678
  - # 13
    frequency:   11.5727377793
  - # 14
    frequency:   11.6607939357
  - # 15
    frequency:   13.8778089927
  - # 16
    frequency:   13.9331905980
  - # 17
    frequency:   24.4109570105
  - # 18
    frequency:   27.8597748170
  - # 19
    frequency:   28.0492933328
  - # 20
    frequency:   32.0346436473
  - # 21
    frequency:   67.9106996845

- q-position: [    0.1212121,    0.0000000,    0.0000000 ]
  distance:    0.0396660
  band:
  - # 1
    frequency:   -1.1043045591
  - # 2
    frequency:   -0.2359218162
  - # 3
    frequency:    0.9152070310
  - # 4
    frequency:    1.8190113906
  - # 5
    frequency:    2.0797730092
  - # 6
    frequency:    3.6953066000
  - # 7
    frequency:    4.0096424996
  - # 8
    frequency:    5.1723899710
  - # 9
    frequency:    6.3962290997
  - # 10
    frequency:    6.5073638471
  - # 11
    frequency:    7.7285686252
  - # 12
    frequency:   11.2789265255
  - # 13
    frequency:   11.5736289370
  - # 14
    frequency:   11.6590764578
  - # 15
    frequency:   13.8784618808
  - # 16
    frequency:   13.9383092178
  - # 17
    frequency:   24.3743167940
  - # 18
    frequency:   27.8482757883
  - # 19
    frequency:   28.0559596773
  - # 20
    frequency:   32.0154603418
  - # 21
    frequency:   67.8998618589

- q-position: [    0.1262626,    0.0000000,    0.0000000 ]
  distance:    0.0413187
  band:
  - # 1
    frequency:   -1.0836225689
  - # 2
    frequency:    0.2231210071
  - # 3
    frequency:    0.9853356533
  - # 4
    frequency:    1.8801962136
  - # 5
    frequency:    2.1591955290
  - # 6
    frequency:    3.7037207766
  - # 7
    frequency:    4.0339071732
  - # 8
    frequency:    5.1710973438
  - # 9
    frequency:    6.3924953835
  - # 10
    frequency:    6.5094030042
  - # 11
    frequency:    7.6970117075
  - # 12
    frequency:   11.2513256049
  - # 13
    frequency:   11.5745254261
  - # 14
    frequency:   11.6568123474
  - # 15
    frequency:   13.8791626861
  - # 16
    frequency:   13.9435908034
  - # 17
    frequency:   24.3367686215
  - # 18
    frequency:   27.8363248857
  - # 19
    frequency:   28.0631439211
  - # 20
    frequency:   31.9958882175
  - # 21
    frequency:   67.8887760407

- q-position: [    0.1313131,    0.0000000,    0.0000000 ]
  distance:    0.0429715
  band:
  - # 1
    frequency:   -1.0620739622
  - # 2
    frequency:    0.3967587084
  - # 3
    frequency:    1.0552177100
  - # 4
    frequency:    1.9397831900
  - # 5
    frequency:    2.2371699600
  - # 6
    frequency:    3.7128014846
  - # 7
    frequency:    4.0580254211
  - # 8
    frequency:    5.1700716267
  - # 9
    frequency:    6.3886503660
  - # 10
    frequency:    6.5110103657
  - # 11
    frequency:    7.6652425967
  - # 12
    frequency:   11.2226824869
  - # 13
    frequency:   11.5753893856
  - # 14
    frequency:   11.6539467024
  - # 15
    frequency:   13.8799130259
  - # 16
    frequency:   13.9490288781
  - # 17
    frequency:   24.2983803469
  - # 18
    frequency:   27.8239299335
  - # 19
    frequency:   28.0708694871
  - # 20
    frequency:   31.9759729570
  - # 21
    frequency:   67.8774648852

- q-position: [    0.1363636,    0.0000000,    0.0000000 ]
  distance:    0.0446242
  band:
  - # 1
    frequency:   -1.0396272516
  - # 2
    frequency:    0.5179044865
  - # 3
    frequency:    1.1244543036
  - # 4
    frequency:    1.9977655089
  - # 5
    frequency:    2.3135684804
  - # 6
    frequency:    3.7225560642
  - # 7
    frequency:    4.0818940045
  - # 8
    frequency:    5.1693373400
  - # 9
    frequency:    6.3847001339
  - # 10
    frequency:    6.5121408902
  - # 11
    frequency:    7.6333829599
  - # 12
    frequency:   11.1930693781
  - # 13
    frequency:   11.5761907920
  - # 14
    frequency:   11.6504235480
  - # 15
    frequency:   13.8807144047
  - # 16
    frequency:   13.9546168335
  - # 17
    frequency:   24.2592202993
  - # 18
    frequency:   27.8110995879
  - # 19
    frequency:   28.0791594310
  - # 20
    frequency:   31.9557606295
  - # 21
    frequency:   67.8659512320

- q-position: [    0.1414141,    0.0000000,    0.0000000 ]
  distance:    0.0462769
  band:
  - # 1
    frequency:   -1.0162464574
  - # 2
    frequency:    0.6189491809
  - # 3
    frequency:    1.1927543961
  - # 4
    frequency:    2.0541421942
  - # 5
    frequency:    2.3882592136
  - # 6
    frequency:    3.7329876342
  - # 7
    frequency:    4.1054097144
  - # 8
    frequency:    5.1689157437
  - # 9
    frequency:    6.3806512502
  - # 10
    frequency:    6.5127525136
  - # 11
    frequency:    7.6015574529
  - # 12
    frequency:   11.1625597633
  - # 13
    frequency:   11.5769058208
  - # 14
    frequency:   11.6461860397
  - # 15
    frequency:   13.8815681945
  - # 16
    frequency:   13.9603479517
  - # 17
    frequency:   24.2193571087
  - # 18
    frequency:   27.7978433646
  - # 19
    frequency:   28.0880362841
  - # 20
    frequency:   31.9352975416
  - # 21
    frequency:   67.8542580345

- q-position: [    0.1464646,    0.0000000,    0.0000000 ]
  distance:    0.0479297
  band:
  - # 1
    frequency:   -0.9918902283
  - # 2
    frequency:    0.7090824354
  - # 3
    frequency:    1.2599192374
  - # 4
    frequency:    2.1089177595
  - # 5
    frequency:    2.4611061365
  - # 6
    frequency:    3.7440950228
  - # 7
    frequency:    4.1284700297
  - # 8
    frequency:    5.1688236575
  - # 9
    frequency:    6.3765107748
  - # 10
    frequency:    6.5128073959
  - # 11
    frequency:    7.5698930697
  - # 12
    frequency:   11.1312297290
  - # 13
    frequency:   11.5775156509
  - # 14
    frequency:   11.6411766802
  - # 15
    frequency:   13.8824756174
  - # 16
    frequency:   13.9662154281
  - # 17
    frequency:   24.1788595366
  - # 18
    frequency:   27.7841716621
  - # 19
    frequency:   28.0975218988
  - # 20
    frequency:   31.9146300889
  - # 21
    frequency:   67.8424082915

- q-position: [    0.1515152,    0.0000000,    0.0000000 ]
  distance:    0.0495824
  band:
  - # 1
    frequency:   -0.9665107288
  - # 2
    frequency:    0.7924261326
  - # 3
    frequency:    1.3258220631
  - # 4
    frequency:    2.1621018346
  - # 5
    frequency:    2.5319690251
  - # 6
    frequency:    3.7558727661
  - # 7
    frequency:    4.1509740220
  - # 8
    frequency:    5.1690720567
  - # 9
    frequency:    6.3722862823
  - # 10
    frequency:    6.5122734146
  - # 11
    frequency:    7.5385182752
  - # 12
    frequency:   11.0991588824
  - # 13
    frequency:   11.5780055792
  - # 14
    frequency:   11.6353375498
  - # 15
    frequency:   13.8834377274
  - # 16
    frequency:   13.9722123933
  - # 17
    frequency:   24.1377963128
  - # 18
    frequency:   27.7700957800
  - # 19
    frequency:   28.1076372977
  - # 20
    frequency:   31.8938046063
  - # 21
    frequency:   67.8304249784
