nqpoint: 300    
npath: 3      
segment_nqpoint:
- 100
- 100
- 100
labels:
- [ 'G', 'M' ]
- [ 'M', 'K' ]
- [ 'K', 'G' ]
reciprocal_lattice:
- [   0.29456434,   0.17006680,   0.00000000 ] # a*
- [   0.00000000,   0.34013361,   0.00000000 ] # b*
- [   0.00000000,   0.00000000,   0.04066088 ] # c*
natom: 6      
lattice:
- [     3.394844011610658,     0.000000000000000,     0.000000000000000 ] # a
- [    -1.697422005805329,     2.940021155934013,     0.000000000000000 ] # b
- [     0.000000000000000,     0.000000000000000,    24.593663684433267 ] # c
points:
- symbol: C # 1
  coordinates: [  0.000000000000000,  0.000000000000000,  0.510068042584372 ]
  mass: 12.010700
- symbol: Cl # 2
  coordinates: [  0.333332985432215,  0.666666983183674,  0.634052082866506 ]
  mass: 35.453000
- symbol: H # 3
  coordinates: [  0.666666984744047,  0.333332985985144,  0.365947917133494 ]
  mass: 1.007940
- symbol: O # 4
  coordinates: [  0.666666984744047,  0.333332985985144,  0.406080845763821 ]
  mass: 15.999400
- symbol: Zr # 5
  coordinates: [  0.333332985432215,  0.666666983183674,  0.460728575184123 ]
  mass: 91.224000
- symbol: Zr # 6
  coordinates: [  0.666666984744047,  0.333332985985144,  0.560061729998899 ]
  mass: 91.224000

phonon:
- q-position: [    0.0000000,    0.0000000,    0.0000000 ]
  distance:    0.0000000
  band:
  - # 1
    frequency:   -0.0000021904
  - # 2
    frequency:   -0.0000003806
  - # 3
    frequency:    0.0000023327
  - # 4
    frequency:    4.1972609726
  - # 5
    frequency:    4.1972609726
  - # 6
    frequency:    5.5662059379
  - # 7
    frequency:    5.5662059379
  - # 8
    frequency:    6.2701512079
  - # 9
    frequency:    6.8531997176
  - # 10
    frequency:    6.8531997176
  - # 11
    frequency:    9.5490841890
  - # 12
    frequency:   12.0222744971
  - # 13
    frequency:   14.5746750129
  - # 14
    frequency:   14.5746750129
  - # 15
    frequency:   15.7655941685
  - # 16
    frequency:   17.5319768825
  - # 17
    frequency:   17.5319768825
  - # 18
    frequency:  111.6391539002

- q-position: [    0.0050505,    0.0000000,    0.0000000 ]
  distance:    0.0017178
  band:
  - # 1
    frequency:   -0.0295888725
  - # 2
    frequency:    0.0695997974
  - # 3
    frequency:    0.1051437431
  - # 4
    frequency:    4.1976441826
  - # 5
    frequency:    4.1984903840
  - # 6
    frequency:    5.5662802825
  - # 7
    frequency:    5.5665127721
  - # 8
    frequency:    6.2705950621
  - # 9
    frequency:    6.8533929545
  - # 10
    frequency:    6.8538730157
  - # 11
    frequency:    9.5485097505
  - # 12
    frequency:   12.0218106662
  - # 13
    frequency:   14.5740581128
  - # 14
    frequency:   14.5749075815
  - # 15
    frequency:   15.7656493525
  - # 16
    frequency:   17.5324011984
  - # 17
    frequency:   17.5328531215
  - # 18
    frequency:  111.6388085411

- q-position: [    0.0101010,    0.0000000,    0.0000000 ]
  distance:    0.0034357
  band:
  - # 1
    frequency:   -0.0278488349
  - # 2
    frequency:    0.1391975808
  - # 3
    frequency:    0.2038196406
  - # 4
    frequency:    4.1987916501
  - # 5
    frequency:    4.2021710844
  - # 6
    frequency:    5.5665014921
  - # 7
    frequency:    5.5674303863
  - # 8
    frequency:    6.2719273152
  - # 9
    frequency:    6.8539721582
  - # 10
    frequency:    6.8558889741
  - # 11
    frequency:    9.5467867771
  - # 12
    frequency:   12.0204194226
  - # 13
    frequency:   14.5722152015
  - # 14
    frequency:   14.5756047699
  - # 15
    frequency:   15.7658134477
  - # 16
    frequency:   17.5336711040
  - # 17
    frequency:   17.5354763249
  - # 18
    frequency:  111.6377753781

- q-position: [    0.0151515,    0.0000000,    0.0000000 ]
  distance:    0.0051535
  band:
  - # 1
    frequency:   -0.0198710951
  - # 2
    frequency:    0.2087911156
  - # 3
    frequency:    0.3038082995
  - # 4
    frequency:    4.2006969139
  - # 5
    frequency:    4.2082806363
  - # 6
    frequency:    5.5668641562
  - # 7
    frequency:    5.5689501488
  - # 8
    frequency:    6.2741499691
  - # 9
    frequency:    6.8549358089
  - # 10
    frequency:    6.8592358308
  - # 11
    frequency:    9.5439163002
  - # 12
    frequency:   12.0181015002
  - # 13
    frequency:   14.5691696485
  - # 14
    frequency:   14.5767650303
  - # 15
    frequency:   15.7660821241
  - # 16
    frequency:   17.5357775008
  - # 17
    frequency:   17.5398299388
  - # 18
    frequency:  111.6360631283

- q-position: [    0.0202020,    0.0000000,    0.0000000 ]
  distance:    0.0068714
  band:
  - # 1
    frequency:    0.0204147449
  - # 2
    frequency:    0.2783777299
  - # 3
    frequency:    0.4042411231
  - # 4
    frequency:    4.2033492899
  - # 5
    frequency:    4.2167821787
  - # 6
    frequency:    5.5673594659
  - # 7
    frequency:    5.5710577833
  - # 8
    frequency:    6.2772661320
  - # 9
    frequency:    6.8562813757
  - # 10
    frequency:    6.8638941316
  - # 11
    frequency:    9.5399000572
  - # 12
    frequency:   12.0148580802
  - # 13
    frequency:   14.5649604045
  - # 14
    frequency:   14.5783857933
  - # 15
    frequency:   15.7664482999
  - # 16
    frequency:   17.5387053169
  - # 17
    frequency:   17.5458863342
  - # 18
    frequency:  111.6336862392

- q-position: [    0.0252525,    0.0000000,    0.0000000 ]
  distance:    0.0085892
  band:
  - # 1
    frequency:    0.0437256756
  - # 2
    frequency:    0.3479541054
  - # 3
    frequency:    0.5049207873
  - # 4
    frequency:    4.2067339963
  - # 5
    frequency:    4.2276252017
  - # 6
    frequency:    5.5679755171
  - # 7
    frequency:    5.5737335342
  - # 8
    frequency:    6.2812796869
  - # 9
    frequency:    6.8580053205
  - # 10
    frequency:    6.8698369485
  - # 11
    frequency:    9.5347405193
  - # 12
    frequency:   12.0106907305
  - # 13
    frequency:   14.5596419926
  - # 14
    frequency:   14.5804634841
  - # 15
    frequency:   15.7669023369
  - # 16
    frequency:   17.5424336441
  - # 17
    frequency:   17.5536067592
  - # 18
    frequency:  111.6306647663

- q-position: [    0.0303030,    0.0000000,    0.0000000 ]
  distance:    0.0103071
  band:
  - # 1
    frequency:    0.0664199764
  - # 2
    frequency:    0.4175160799
  - # 3
    frequency:    0.6057893580
  - # 4
    frequency:    4.2108323246
  - # 5
    frequency:    4.2407465755
  - # 6
    frequency:    5.5686977211
  - # 7
    frequency:    5.5769523951
  - # 8
    frequency:    6.2861948515
  - # 9
    frequency:    6.8601031009
  - # 10
    frequency:    6.8770301757
  - # 11
    frequency:    9.5284409291
  - # 12
    frequency:   12.0056013261
  - # 13
    frequency:   14.5532844717
  - # 14
    frequency:   14.5829935439
  - # 15
    frequency:   15.7674323031
  - # 16
    frequency:   17.5469359285
  - # 17
    frequency:   17.5629412981
  - # 18
    frequency:  111.6270242047

- q-position: [    0.0353535,    0.0000000,    0.0000000 ]
  distance:    0.0120249
  band:
  - # 1
    frequency:    0.0910777612
  - # 2
    frequency:    0.4870584639
  - # 3
    frequency:    0.7068299181
  - # 4
    frequency:    4.2156218533
  - # 5
    frequency:    4.2560717857
  - # 6
    frequency:    5.5695093056
  - # 7
    frequency:    5.5806843997
  - # 8
    frequency:    6.2920156493
  - # 9
    frequency:    6.8625691733
  - # 10
    frequency:    6.8854328947
  - # 11
    frequency:    9.5210053492
  - # 12
    frequency:   11.9995919569
  - # 13
    frequency:   14.5459733511
  - # 14
    frequency:   14.5859704565
  - # 15
    frequency:   15.7680242911
  - # 16
    frequency:   17.5521802130
  - # 17
    frequency:   17.5738288550
  - # 18
    frequency:  111.6227952739

- q-position: [    0.0404040,    0.0000000,    0.0000000 ]
  distance:    0.0137428
  band:
  - # 1
    frequency:    0.1182884012
  - # 2
    frequency:    0.5565748749
  - # 3
    frequency:    0.8080396574
  - # 4
    frequency:    4.2210766992
  - # 5
    frequency:    4.2735163196
  - # 6
    frequency:    5.5703918878
  - # 7
    frequency:    5.5848949727
  - # 8
    frequency:    6.2987453203
  - # 9
    frequency:    6.8653969940
  - # 10
    frequency:    6.8949977973
  - # 11
    frequency:    9.5124387196
  - # 12
    frequency:   11.9926648280
  - # 13
    frequency:   14.5378094336
  - # 14
    frequency:   14.5893877785
  - # 15
    frequency:   15.7686627781
  - # 16
    frequency:   17.5581294285
  - # 17
    frequency:   17.5861971881
  - # 18
    frequency:  111.6180136597

- q-position: [    0.0454545,    0.0000000,    0.0000000 ]
  distance:    0.0154606
  band:
  - # 1
    frequency:    0.1482365342
  - # 2
    frequency:    0.6260575913
  - # 3
    frequency:    0.9094202985
  - # 4
    frequency:    4.2271678026
  - # 5
    frequency:    4.2929871449
  - # 6
    frequency:    5.5713260992
  - # 7
    frequency:    5.5895453376
  - # 8
    frequency:    6.3063856974
  - # 9
    frequency:    6.8685790171
  - # 10
    frequency:    6.9056716553
  - # 11
    frequency:    9.5027469251
  - # 12
    frequency:   11.9848221617
  - # 13
    frequency:   14.5289085599
  - # 14
    frequency:   14.5932381738
  - # 15
    frequency:   15.7693310133
  - # 16
    frequency:   17.5647417329
  - # 17
    frequency:   17.5999630181
  - # 18
    frequency:  111.6127197131

- q-position: [    0.0505051,    0.0000000,    0.0000000 ]
  distance:    0.0171785
  band:
  - # 1
    frequency:    0.1809582228
  - # 2
    frequency:    0.6954974292
  - # 3
    frequency:    1.0109739475
  - # 4
    frequency:    4.2338632386
  - # 5
    frequency:    4.3143842256
  - # 6
    frequency:    5.5722922393
  - # 7
    frequency:    5.5945929769
  - # 8
    frequency:    6.3149365808
  - # 9
    frequency:    6.8721066882
  - # 10
    frequency:    6.9173958270
  - # 11
    frequency:    9.4919368692
  - # 12
    frequency:   11.9760661100
  - # 13
    frequency:   14.5194012314
  - # 14
    frequency:   14.5975134498
  - # 15
    frequency:   15.7700114162
  - # 16
    frequency:   17.5719708931
  - # 17
    frequency:   17.6150322337
  - # 18
    frequency:  111.6069581108

- q-position: [    0.0555556,    0.0000000,    0.0000000 ]
  distance:    0.0188963
  band:
  - # 1
    frequency:    0.2164197511
  - # 2
    frequency:    0.7648836413
  - # 3
    frequency:    1.1127009707
  - # 4
    frequency:    4.2411285516
  - # 5
    frequency:    4.3376020234
  - # 6
    frequency:    5.5732709338
  - # 7
    frequency:    5.5999921407
  - # 8
    frequency:    6.3243951403
  - # 9
    frequency:    6.8759704342
  - # 10
    frequency:    6.9301067870
  - # 11
    frequency:    9.4800165573
  - # 12
    frequency:   11.9663986876
  - # 13
    frequency:   14.5094320865
  - # 14
    frequency:   14.6022045963
  - # 15
    frequency:   15.7706859701
  - # 16
    frequency:   17.5797667077
  - # 17
    frequency:   17.6313002136
  - # 18
    frequency:  111.6007774788

- q-position: [    0.0606061,    0.0000000,    0.0000000 ]
  distance:    0.0206142
  band:
  - # 1
    frequency:    0.2545498760
  - # 2
    frequency:    0.8342038411
  - # 3
    frequency:    1.2145987342
  - # 4
    frequency:    4.2489271059
  - # 5
    frequency:    4.3625309401
  - # 6
    frequency:    5.5742437772
  - # 7
    frequency:    5.6056943993
  - # 8
    frequency:    6.3347553718
  - # 9
    frequency:    6.8801596455
  - # 10
    frequency:    6.9437366708
  - # 11
    frequency:    9.4669951839
  - # 12
    frequency:   11.9558217359
  - # 13
    frequency:   14.4991592140
  - # 14
    frequency:   14.6073018240
  - # 15
    frequency:   15.7713365955
  - # 16
    frequency:   17.5880754659
  - # 17
    frequency:   17.6486522797
  - # 18
    frequency:  111.5942299831

- q-position: [    0.0656566,    0.0000000,    0.0000000 ]
  distance:    0.0223320
  band:
  - # 1
    frequency:    0.2952555372
  - # 2
    frequency:    0.9034439516
  - # 3
    frequency:    1.3166607524
  - # 4
    frequency:    4.2572204471
  - # 5
    frequency:    4.3890586655
  - # 6
    frequency:    5.5751939385
  - # 7
    frequency:    5.6116492309
  - # 8
    frequency:    6.3460076346
  - # 9
    frequency:    6.8846626534
  - # 10
    frequency:    6.9582138247
  - # 11
    frequency:    9.4528832267
  - # 12
    frequency:   11.9443369280
  - # 13
    frequency:   14.4887532849
  - # 14
    frequency:   14.6127946043
  - # 15
    frequency:   15.7719454914
  - # 16
    frequency:   17.5968404386
  - # 17
    frequency:   17.6669642901
  - # 18
    frequency:  111.5873708906

- q-position: [    0.0707071,    0.0000000,    0.0000000 ]
  distance:    0.0240499
  band:
  - # 1
    frequency:    0.3384305118
  - # 2
    frequency:    0.9725881788
  - # 3
    frequency:    1.4188760508
  - # 4
    frequency:    4.2659686701
  - # 5
    frequency:    4.4170714047
  - # 6
    frequency:    5.5761067156
  - # 7
    frequency:    5.6178046407
  - # 8
    frequency:    6.3581382868
  - # 9
    frequency:    6.8894667008
  - # 10
    frequency:    6.9734633510
  - # 11
    frequency:    9.4376925437
  - # 12
    frequency:   11.9319458253
  - # 13
    frequency:   14.4783964948
  - # 14
    frequency:   14.6186717086
  - # 15
    frequency:   15.7724954327
  - # 16
    frequency:   17.6060023960
  - # 17
    frequency:   17.6861033752
  - # 18
    frequency:  111.5802581039

- q-position: [    0.0757576,    0.0000000,    0.0000000 ]
  distance:    0.0257677
  band:
  - # 1
    frequency:    0.3839606485
  - # 2
    frequency:    1.0416190102
  - # 3
    frequency:    1.5212286504
  - # 4
    frequency:    4.2751307882
  - # 5
    frequency:    4.4464549678
  - # 6
    frequency:    5.5769700256
  - # 7
    frequency:    5.6241078005
  - # 8
    frequency:    6.3711294336
  - # 9
    frequency:    6.8945579076
  - # 10
    frequency:    6.9894076439
  - # 11
    frequency:    9.4214364725
  - # 12
    frequency:   11.9186499940
  - # 13
    frequency:   14.4682813115
  - # 14
    frequency:   14.6249212470
  - # 15
    frequency:   15.7729700171
  - # 16
    frequency:   17.6155001491
  - # 17
    frequency:   17.7059288124
  - # 18
    frequency:  111.5729516740

- q-position: [    0.0808081,    0.0000000,    0.0000000 ]
  distance:    0.0274855
  band:
  - # 1
    frequency:    0.4317272748
  - # 2
    frequency:    1.1105172360
  - # 3
    frequency:    1.6236971294
  - # 4
    frequency:    4.2846650998
  - # 5
    frequency:    4.4770957114
  - # 6
    frequency:    5.5777748272
  - # 7
    frequency:    5.6305057027
  - # 8
    frequency:    6.3849587951
  - # 9
    frequency:    6.8999212318
  - # 10
    frequency:    7.0059669085
  - # 11
    frequency:    9.4041299328
  - # 12
    frequency:   11.9044511871
  - # 13
    frequency:   14.4586090269
  - # 14
    frequency:   14.6315307053
  - # 15
    frequency:   15.7733538574
  - # 16
    frequency:   17.6252711059
  - # 17
    frequency:   17.7262930291
  - # 18
    frequency:  111.5655132954

- q-position: [    0.0858586,    0.0000000,    0.0000000 ]
  distance:    0.0292034
  band:
  - # 1
    frequency:    0.4816095381
  - # 2
    frequency:    1.1792619933
  - # 3
    frequency:    1.7262542376
  - # 4
    frequency:    4.2945295497
  - # 5
    frequency:    4.5088813312
  - # 6
    frequency:    5.5785154729
  - # 7
    frequency:    5.6369458177
  - # 8
    frequency:    6.3995996932
  - # 9
    frequency:    6.9055404279
  - # 10
    frequency:    7.0230596584
  - # 11
    frequency:    9.3857895268
  - # 12
    frequency:   11.8893515967
  - # 13
    frequency:   14.4495881232
  - # 14
    frequency:   14.6384869827
  - # 15
    frequency:   15.7736327179
  - # 16
    frequency:   17.6352518416
  - # 17
    frequency:   17.7470427218
  - # 18
    frequency:  111.5580057879

- q-position: [    0.0909091,    0.0000000,    0.0000000 ]
  distance:    0.0309212
  band:
  - # 1
    frequency:    0.5334860827
  - # 2
    frequency:    1.2478308307
  - # 3
    frequency:    1.8288665513
  - # 4
    frequency:    4.3046820803
  - # 5
    frequency:    4.5417015071
  - # 6
    frequency:    5.5791899976
  - # 7
    frequency:    5.6433767457
  - # 8
    frequency:    6.4150211528
  - # 9
    frequency:    6.9113980066
  - # 10
    frequency:    7.0406031894
  - # 11
    frequency:    9.3664336410
  - # 12
    frequency:   11.8733541754
  - # 13
    frequency:   14.4414324641
  - # 14
    frequency:   14.6457764276
  - # 15
    frequency:   15.7737935976
  - # 16
    frequency:   17.6453786721
  - # 17
    frequency:   17.7680200706
  - # 18
    frequency:  111.5504925681

- q-position: [    0.0959596,    0.0000000,    0.0000000 ]
  distance:    0.0326391
  band:
  - # 1
    frequency:    0.5872362816
  - # 2
    frequency:    1.3161997931
  - # 3
    frequency:    1.9314941607
  - # 4
    frequency:    4.3150809728
  - # 5
    frequency:    4.5754484105
  - # 6
    frequency:    5.5798003517
  - # 7
    frequency:    5.6497488526
  - # 8
    frequency:    6.4311881069
  - # 9
    frequency:    6.9174751959
  - # 10
    frequency:    7.0585140245
  - # 11
    frequency:    9.3460825445
  - # 12
    frequency:   11.8564630231
  - # 13
    frequency:   14.4343593313
  - # 14
    frequency:   14.6533848732
  - # 15
    frequency:   15.7738247629
  - # 16
    frequency:   17.6555882300
  - # 17
    frequency:   17.7890640289
  - # 18
    frequency:  111.5430371182

- q-position: [    0.1010101,    0.0000000,    0.0000000 ]
  distance:    0.0343569
  band:
  - # 1
    frequency:    0.6427411564
  - # 2
    frequency:    1.3843435227
  - # 3
    frequency:    2.0340903856
  - # 4
    frequency:    4.3256851749
  - # 5
    frequency:    4.6100170814
  - # 6
    frequency:    5.5803525927
  - # 7
    frequency:    5.6560148797
  - # 8
    frequency:    6.4480616899
  - # 9
    frequency:    6.9237519108
  - # 10
    frequency:    7.0767083299
  - # 11
    frequency:    9.3247584853
  - # 12
    frequency:   11.8386838275
  - # 13
    frequency:   14.4285873343
  - # 14
    frequency:   14.6612976735
  - # 15
    frequency:   15.7737157388
  - # 16
    frequency:   17.6658180331
  - # 17
    frequency:   17.8100116662
  - # 18
    frequency:  111.5357024534

- q-position: [    0.1060606,    0.0000000,    0.0000000 ]
  distance:    0.0360748
  band:
  - # 1
    frequency:    0.6998840681
  - # 2
    frequency:    1.4522353763
  - # 3
    frequency:    2.1366015151
  - # 4
    frequency:    4.3364546132
  - # 5
    frequency:    4.6453056885
  - # 6
    frequency:    5.5808570506
  - # 7
    frequency:    5.6621305172
  - # 8
    frequency:    6.4655996036
  - # 9
    frequency:    6.9302067317
  - # 10
    frequency:    7.0951023002
  - # 11
    frequency:    9.3024857821
  - # 12
    frequency:   11.8200243464
  - # 13
    frequency:   14.4243342223
  - # 14
    frequency:   14.6694997393
  - # 15
    frequency:   15.7734572637
  - # 16
    frequency:   17.6760070425
  - # 17
    frequency:   17.8306995400
  - # 18
    frequency:  111.5285505945

- q-position: [    0.1111111,    0.0000000,    0.0000000 ]
  distance:    0.0377926
  band:
  - # 1
    frequency:    0.7585512355
  - # 2
    frequency:    1.5198475554
  - # 3
    frequency:    2.2389665710
  - # 4
    frequency:    4.3473504911
  - # 5
    frequency:    4.6812156839
  - # 6
    frequency:    5.5813284825
  - # 7
    frequency:    5.6680549315
  - # 8
    frequency:    6.4837565354
  - # 9
    frequency:    6.9368168985
  - # 10
    frequency:    7.1136125108
  - # 11
    frequency:    9.2792909130
  - # 12
    frequency:   11.8004949098
  - # 13
    frequency:   14.4218146399
  - # 14
    frequency:   14.6779755764
  - # 15
    frequency:   15.7730412177
  - # 16
    frequency:   17.6860962037
  - # 17
    frequency:   17.8509650752
  - # 18
    frequency:  111.5216420500

- q-position: [    0.1161616,    0.0000000,    0.0000000 ]
  distance:    0.0395105
  band:
  - # 1
    frequency:    0.8186321197
  - # 2
    frequency:    1.5871512481
  - # 3
    frequency:    2.3411170888
  - # 4
    frequency:    4.3583355693
  - # 5
    frequency:    4.7176518636
  - # 6
    frequency:    5.5817862363
  - # 7
    frequency:    5.6737512377
  - # 8
    frequency:    6.5024846128
  - # 9
    frequency:    6.9435583220
  - # 10
    frequency:    7.1321562404
  - # 11
    frequency:    9.2552025976
  - # 12
    frequency:   11.7801089185
  - # 13
    frequency:   14.4212378650
  - # 14
    frequency:   14.6867093241
  - # 15
    frequency:   15.7724605321
  - # 16
    frequency:   17.6960289655
  - # 17
    frequency:   17.8706479302
  - # 18
    frequency:  111.5150353114

- q-position: [    0.1212121,    0.0000000,    0.0000000 ]
  distance:    0.0412283
  band:
  - # 1
    frequency:    0.8800197058
  - # 2
    frequency:    1.6541167794
  - # 3
    frequency:    2.4429769182
  - # 4
    frequency:    4.3693744291
  - # 5
    frequency:    4.7545223446
  - # 6
    frequency:    5.5822544381
  - # 7
    frequency:    5.6791869087
  - # 8
    frequency:    6.5217338746
  - # 9
    frequency:    6.9504056172
  - # 10
    frequency:    7.1506517608
  - # 11
    frequency:    9.2302518746
  - # 12
    frequency:   11.7588833143
  - # 13
    frequency:   14.4228055771
  - # 14
    frequency:   14.6956847976
  - # 15
    frequency:   15.7717090894
  - # 16
    frequency:   17.7057517715
  - # 17
    frequency:   17.8895913288
  - # 18
    frequency:  111.5087863670

- q-position: [    0.1262626,    0.0000000,    0.0000000 ]
  distance:    0.0429462
  band:
  - # 1
    frequency:    0.9426107009
  - # 2
    frequency:    1.7207137703
  - # 3
    frequency:    2.5444620371
  - # 4
    frequency:    4.3804337183
  - # 5
    frequency:    4.7917384658
  - # 6
    frequency:    5.5827622210
  - # 7
    frequency:    5.6843341149
  - # 8
    frequency:    6.5414527445
  - # 9
    frequency:    6.9573321613
  - # 10
    frequency:    7.1690185984
  - # 11
    frequency:    9.2044721726
  - # 12
    frequency:   11.7368389908
  - # 13
    frequency:   14.4267096989
  - # 14
    frequency:   14.7048855330
  - # 15
    frequency:   15.7707816208
  - # 16
    frequency:   17.7152145192
  - # 17
    frequency:   17.9076433427
  - # 18
    frequency:  111.5029482379

- q-position: [    0.1313131,    0.0000000,    0.0000000 ]
  distance:    0.0446640
  band:
  - # 1
    frequency:    1.0063056694
  - # 2
    frequency:    1.7869113002
  - # 3
    frequency:    2.6454803784
  - # 4
    frequency:    4.3914823781
  - # 5
    frequency:    4.8292146198
  - # 6
    frequency:    5.5833440108
  - # 7
    frequency:    5.6891699883
  - # 8
    frequency:    6.5615884930
  - # 9
    frequency:    6.9643101777
  - # 10
    frequency:    7.1871777662
  - # 11
    frequency:    9.1778993742
  - # 12
    frequency:   11.7140011222
  - # 13
    frequency:   14.4331303580
  - # 14
    frequency:   14.7142948352
  - # 15
    frequency:   15.7696736090
  - # 16
    frequency:   17.7243709835
  - # 17
    frequency:   17.9246581094
  - # 18
    frequency:  111.4975705406

- q-position: [    0.1363636,    0.0000000,    0.0000000 ]
  distance:    0.0463819
  band:
  - # 1
    frequency:    1.0710091156
  - # 2
    frequency:    1.8526780748
  - # 3
    frequency:    2.7459316671
  - # 4
    frequency:    4.4024918502
  - # 5
    frequency:    4.8668680151
  - # 6
    frequency:    5.5840398838
  - # 7
    frequency:    5.6936768084
  - # 8
    frequency:    6.5820876757
  - # 9
    frequency:    6.9713108486
  - # 10
    frequency:    7.2050519712
  - # 11
    frequency:    9.1505718728
  - # 12
    frequency:   11.6903993820
  - # 13
    frequency:   14.4422340081
  - # 14
    frequency:   14.7238958314
  - # 15
    frequency:   15.7683812032
  - # 16
    frequency:   17.7331791985
  - # 17
    frequency:   17.9404969724
  - # 18
    frequency:  111.4926990794

- q-position: [    0.1414141,    0.0000000,    0.0000000 ]
  distance:    0.0480997
  band:
  - # 1
    frequency:    1.1366295273
  - # 2
    frequency:    1.9179825943
  - # 3
    frequency:    2.8457072660
  - # 4
    frequency:    4.4134362650
  - # 5
    frequency:    4.9046183698
  - # 6
    frequency:    5.5848960116
  - # 7
    frequency:    5.6978421068
  - # 8
    frequency:    6.6028965407
  - # 9
    frequency:    6.9783044552
  - # 10
    frequency:    7.2225657994
  - # 11
    frequency:    9.1225306199
  - # 12
    frequency:   11.6660680365
  - # 13
    frequency:   14.4541717431
  - # 14
    frequency:   14.7336715276
  - # 15
    frequency:   15.7669011521
  - # 16
    frequency:   17.7416017961
  - # 17
    frequency:   17.9550295350
  - # 18
    frequency:  111.4883754732

- q-position: [    0.1464646,    0.0000000,    0.0000000 ]
  distance:    0.0498175
  band:
  - # 1
    frequency:    1.2030793860
  - # 2
    frequency:    1.9827933230
  - # 3
    frequency:    2.9446900287
  - # 4
    frequency:    4.4242926075
  - # 5
    frequency:    4.9423875269
  - # 6
    frequency:    5.5859652088
  - # 7
    frequency:    5.7016586921
  - # 8
    frequency:    6.6239613970
  - # 9
    frequency:    6.9852605458
  - # 10
    frequency:    7.2396458816
  - # 11
    frequency:    9.0938191628
  - # 12
    frequency:   11.6410458998
  - # 13
    frequency:   14.4690778316
  - # 14
    frequency:   14.7436048700
  - # 15
    frequency:   15.7652307611
  - # 16
    frequency:   17.7496062972
  - # 17
    frequency:   17.9681346187
  - # 18
    frequency:  111.4846368188

- q-position: [    0.1515152,    0.0000000,    0.0000000 ]
  distance:    0.0515354
  band:
  - # 1
    frequency:    1.2702751535
  - # 2
    frequency:    2.0470788565
  - # 3
    frequency:    3.0427541622
  - # 4
    frequency:    4.4350408607
  - # 5
    frequency:    4.9800989809
  - # 6
    frequency:    5.5873075993
  - # 7
    frequency:    5.7051245954
  - # 8
    frequency:    6.6452289397
  - # 9
    frequency:    6.9921481290
  - # 10
    frequency:    7.2562210468
  - # 11
    frequency:    9.0644836706
  - # 12
    frequency:   11.6153761459
  - # 13
    frequency:   14.4870684870
  - # 14
    frequency:   14.7536788112
  - # 15
    frequency:   15.7633678791
  - # 16
    frequency:   17.7571653530
  - # 17
    frequency:   17.9797011226
  - # 18
    frequency:  111.4815153941

- q-position: [    0.1565657,    0.0000000,    0.0000000 ]
  distance:    0.0532532
  band:
  - # 1
    frequency:    1.3381372372
  - # 2
    frequency:    2.1108080874
  - # 3
    frequency:    3.1397651018
  - # 4
    frequency:    4.4456641259
  - # 5
    frequency:    5.0176772956
  - # 6
    frequency:    5.5889914181
  - # 7
    frequency:    5.7082429406
  - # 8
    frequency:    6.6666465289
  - # 9
    frequency:    6.9989358900
  - # 10
    frequency:    7.2722224666
  - # 11
    frequency:    9.0345729449
  - # 12
    frequency:   11.5891059842
  - # 13
    frequency:   14.5082408772
  - # 14
    frequency:   14.7638763803
  - # 15
    frequency:   15.7613109211
  - # 16
    frequency:   17.7642569356
  - # 17
    frequency:   17.9896287768
  - # 18
    frequency:  111.4790384046

- q-position: [    0.1616162,    0.0000000,    0.0000000 ]
  distance:    0.0549711
  band:
  - # 1
    frequency:    1.4065899406
  - # 2
    frequency:    2.1739503666
  - # 3
    frequency:    3.2355794078
  - # 4
    frequency:    4.4561487165
  - # 5
    frequency:    5.0550473898
  - # 6
    frequency:    5.5910939656
  - # 7
    frequency:    5.7110217440
  - # 8
    frequency:    6.6881624208
  - # 9
    frequency:    7.0055924260
  - # 10
    frequency:    7.2875837997
  - # 11
    frequency:    9.0041384133
  - # 12
    frequency:   11.5622862091
  - # 13
    frequency:   14.5326723697
  - # 14
    frequency:   14.7741807566
  - # 15
    frequency:   15.7590589340
  - # 16
    frequency:   17.7708644742
  - # 17
    frequency:   17.9978287905
  - # 18
    frequency:  111.4772277733

- q-position: [    0.1666667,    0.0000000,    0.0000000 ]
  distance:    0.0566889
  band:
  - # 1
    frequency:    1.4755613999
  - # 2
    frequency:    2.2364756602
  - # 3
    frequency:    3.3300446976
  - # 4
    frequency:    4.4664842244
  - # 5
    frequency:    5.0921336605
  - # 6
    frequency:    5.5937027267
  - # 7
    frequency:    5.7134736499
  - # 8
    frequency:    6.7097259494
  - # 9
    frequency:    7.0120864966
  - # 10
    frequency:    7.3022413426
  - # 11
    frequency:    8.9732341012
  - # 12
    frequency:   11.5349706444
  - # 13
    frequency:   14.5604199913
  - # 14
    frequency:   14.7845753465
  - # 15
    frequency:   15.7566117144
  - # 16
    frequency:   17.7769769390
  - # 17
    frequency:   18.0042243925
  - # 18
    frequency:  111.4760999785

- q-position: [    0.1717172,    0.0000000,    0.0000000 ]
  distance:    0.0584068
  band:
  - # 1
    frequency:    1.5449835114
  - # 2
    frequency:    2.2983547003
  - # 3
    frequency:    3.4229996368
  - # 4
    frequency:    4.4766635576
  - # 5
    frequency:    5.1288589160
  - # 6
    frequency:    5.5969166575
  - # 7
    frequency:    5.7156156087
  - # 8
    frequency:    6.7312876586
  - # 9
    frequency:    7.0183872854
  - # 10
    frequency:    7.3161341980
  - # 11
    frequency:    8.9419165766
  - # 12
    frequency:   11.5072155065
  - # 13
    frequency:   14.5915200759
  - # 14
    frequency:   14.7950438624
  - # 15
    frequency:   15.7539699907
  - # 16
    frequency:   17.7825888698
  - # 17
    frequency:   18.0087512640
  - # 18
    frequency:  111.4756659385

- q-position: [    0.1767677,    0.0000000,    0.0000000 ]
  distance:    0.0601246
  band:
  - # 1
    frequency:    1.6147918490
  - # 2
    frequency:    2.3595591289
  - # 3
    frequency:    3.5142740236
  - # 4
    frequency:    4.4866829458
  - # 5
    frequency:    5.1651431031
  - # 6
    frequency:    5.6008476181
  - # 7
    frequency:    5.7174685059
  - # 8
    frequency:    6.7527993847
  - # 9
    frequency:    7.0244646664
  - # 10
    frequency:    7.3292044697
  - # 11
    frequency:    8.9102448631
  - # 12
    frequency:   11.4790787141
  - # 13
    frequency:   14.6259880581
  - # 14