nqpoint: 300    
npath: 3      
segment_nqpoint:
- 100
- 100
- 100
labels:
- [ 'G', 'M' ]
- [ 'M', 'K' ]
- [ 'K', 'G' ]
reciprocal_lattice:
- [   0.31148933,   0.17983845,   0.00000000 ] # a*
- [   0.00000000,   0.35967690,   0.00000000 ] # b*
- [   0.00000000,   0.00000000,   0.03915797 ] # c*
natom: 7      
lattice:
- [     3.210382809845382,     0.000000000000000,     0.000000000000000 ] # a
- [    -1.605191404922691,     2.780273069200193,     0.000000000000000 ] # b
- [     0.000000000000000,     0.000000000000000,    25.537583677506731 ] # c
points:
- symbol: C # 1
  coordinates: [  0.666666984744047,  0.333332985985145,  0.398930465165681 ]
  mass: 12.010700
- symbol: Cl # 2
  coordinates: [  0.333332985432215,  0.666666983183674,  0.647578247274541 ]
  mass: 35.453000
- symbol: N # 3
  coordinates: [  0.000000000000000,  0.000000000000000,  0.540840658823233 ]
  mass: 14.006700
- symbol: N # 4
  coordinates: [  0.666666984744047,  0.333332985985145,  0.352421752725459 ]
  mass: 14.006700
- symbol: O # 5
  coordinates: [  0.666666984744047,  0.333332985985145,  0.451222444427554 ]
  mass: 15.999400
- symbol: Ti # 6
  coordinates: [  0.333332985432215,  0.666666983183674,  0.501127464526201 ]
  mass: 47.867000
- symbol: Ti # 7
  coordinates: [  0.666666984744047,  0.333332985985145,  0.581607982524208 ]
  mass: 47.867000

phonon:
- q-position: [    0.0000000,    0.0000000,    0.0000000 ]
  distance:    0.0000000
  band:
  - # 1
    frequency:   -0.0000074901
  - # 2
    frequency:    0.0000004257
  - # 3
    frequency:    0.0000081443
  - # 4
    frequency:    0.1713988997
  - # 5
    frequency:    0.1713988998
  - # 6
    frequency:    4.5203481036
  - # 7
    frequency:    4.5203481036
  - # 8
    frequency:    6.2807444416
  - # 9
    frequency:    7.1360335630
  - # 10
    frequency:    7.1360335631
  - # 11
    frequency:    8.0468795900
  - # 12
    frequency:    8.0468795900
  - # 13
    frequency:    9.7722657175
  - # 14
    frequency:   12.6745079323
  - # 15
    frequency:   14.1373460661
  - # 16
    frequency:   14.1373460661
  - # 17
    frequency:   15.7152571128
  - # 18
    frequency:   17.6299784011
  - # 19
    frequency:   17.6299784011
  - # 20
    frequency:   31.9476694840
  - # 21
    frequency:   67.8106144745

- q-position: [    0.0050505,    0.0000000,    0.0000000 ]
  distance:    0.0018166
  band:
  - # 1
    frequency:    0.0023925742
  - # 2
    frequency:    0.0496586388
  - # 3
    frequency:    0.1095989147
  - # 4
    frequency:    0.1893250866
  - # 5
    frequency:    0.2090642008
  - # 6
    frequency:    4.5208033132
  - # 7
    frequency:    4.5217924935
  - # 8
    frequency:    6.2799829225
  - # 9
    frequency:    7.1360174793
  - # 10
    frequency:    7.1374020700
  - # 11
    frequency:    8.0465131752
  - # 12
    frequency:    8.0470357393
  - # 13
    frequency:    9.7720993292
  - # 14
    frequency:   12.6731651064
  - # 15
    frequency:   14.1373660005
  - # 16
    frequency:   14.1376240616
  - # 17
    frequency:   15.7150869322
  - # 18
    frequency:   17.6298750858
  - # 19
    frequency:   17.6301041485
  - # 20
    frequency:   31.9472565852
  - # 21
    frequency:   67.8104003893

- q-position: [    0.0101010,    0.0000000,    0.0000000 ]
  distance:    0.0036331
  band:
  - # 1
    frequency:    0.0091283268
  - # 2
    frequency:    0.0936763068
  - # 3
    frequency:    0.2027423598
  - # 4
    frequency:    0.2373004858
  - # 5
    frequency:    0.3059121882
  - # 6
    frequency:    4.5221676711
  - # 7
    frequency:    4.5261151645
  - # 8
    frequency:    6.2777187470
  - # 9
    frequency:    7.1359695715
  - # 10
    frequency:    7.1414853934
  - # 11
    frequency:    8.0454140847
  - # 12
    frequency:    8.0475044217
  - # 13
    frequency:    9.7716006823
  - # 14
    frequency:   12.6691399528
  - # 15
    frequency:   14.1374259243
  - # 16
    frequency:   14.1384570414
  - # 17
    frequency:   15.7145761005
  - # 18
    frequency:   17.6295653955
  - # 19
    frequency:   17.6304810271
  - # 20
    frequency:   31.9460188930
  - # 21
    frequency:   67.8097585640

- q-position: [    0.0151515,    0.0000000,    0.0000000 ]
  distance:    0.0054497
  band:
  - # 1
    frequency:    0.0199772791
  - # 2
    frequency:    0.1335689608
  - # 3
    frequency:    0.2879168959
  - # 4
    frequency:    0.3029956368
  - # 5
    frequency:    0.4280390463
  - # 6
    frequency:    4.5244373713
  - # 7
    frequency:    4.5332848735
  - # 8
    frequency:    6.2740115155
  - # 9
    frequency:    7.1358908660
  - # 10
    frequency:    7.1482185102
  - # 11
    frequency:    8.0435827881
  - # 12
    frequency:    8.0482863239
  - # 13
    frequency:    9.7707713302
  - # 14
    frequency:   12.6624424124
  - # 15
    frequency:   14.1375261984
  - # 16
    frequency:   14.1398420118
  - # 17
    frequency:   15.7137237610
  - # 18
    frequency:   17.6290500893
  - # 19
    frequency:   17.6311079448
  - # 20
    frequency:   31.9439594174
  - # 21
    frequency:   67.8086902882

- q-position: [    0.0202020,    0.0000000,    0.0000000 ]
  distance:    0.0072662
  band:
  - # 1
    frequency:    0.0349476190
  - # 2
    frequency:    0.1721773441
  - # 3
    frequency:    0.3728977588
  - # 4
    frequency:    0.3771530374
  - # 5
    frequency:    0.5573844936
  - # 6
    frequency:    4.5276060934
  - # 7
    frequency:    4.5432503789
  - # 8
    frequency:    6.2689556845
  - # 9
    frequency:    7.1357830594
  - # 10
    frequency:    7.1574980074
  - # 11
    frequency:    8.0410200946
  - # 12
    frequency:    8.0493825349
  - # 13
    frequency:    9.7696138613
  - # 14
    frequency:   12.6530889508
  - # 15
    frequency:   14.1376674203
  - # 16
    frequency:   14.1417740669
  - # 17
    frequency:   15.7125285306
  - # 18
    frequency:   17.6283304065
  - # 19
    frequency:   17.6319830764
  - # 20
    frequency:   31.9410831630
  - # 21
    frequency:   67.8071977069

- q-position: [    0.0252525,    0.0000000,    0.0000000 ]
  distance:    0.0090828
  band:
  - # 1
    frequency:    0.0540113932
  - # 2
    frequency:    0.2106590802
  - # 3
    frequency:    0.4552974092
  - # 4
    frequency:    0.4586729054
  - # 5
    frequency:    0.6890414291
  - # 6
    frequency:    4.5316650370
  - # 7
    frequency:    4.5559416375
  - # 8
    frequency:    6.2626741183
  - # 9
    frequency:    7.1356484973
  - # 10
    frequency:    7.1691886501
  - # 11
    frequency:    8.0377271921
  - # 12
    frequency:    8.0507944642
  - # 13
    frequency:    9.7681318971
  - # 14
    frequency:   12.6411024109
  - # 15
    frequency:   14.1378504173
  - # 16
    frequency:   14.1442465079
  - # 17
    frequency:   15.7109885640
  - # 18
    frequency:   17.6274080291
  - # 19
    frequency:   17.6331038560
  - # 20
    frequency:   31.9373971124
  - # 21
    frequency:   67.8052838138

- q-position: [    0.0303030,    0.0000000,    0.0000000 ]
  distance:    0.0108993
  band:
  - # 1
    frequency:    0.0770994961
  - # 2
    frequency:    0.2492987320
  - # 3
    frequency:    0.5354134593
  - # 4
    frequency:    0.5450418313
  - # 5
    frequency:    0.8214892104
  - # 6
    frequency:    4.5366029693
  - # 7
    frequency:    4.5712713891
  - # 8
    frequency:    6.2553105396
  - # 9
    frequency:    7.1354901454
  - # 10
    frequency:    7.1831310975
  - # 11
    frequency:    8.0337057018
  - # 12
    frequency:    8.0525237298
  - # 13
    frequency:    9.7663300892
  - # 14
    frequency:   12.6265118176
  - # 15
    frequency:   14.1380762378
  - # 16
    frequency:   14.1472509997
  - # 17
    frequency:   15.7091016440
  - # 18
    frequency:   17.6262850304
  - # 19
    frequency:   17.6344669669
  - # 20
    frequency:   31.9329102020
  - # 21
    frequency:   67.8029524422

- q-position: [    0.0353535,    0.0000000,    0.0000000 ]
  distance:    0.0127159
  band:
  - # 1
    frequency:    0.1041167427
  - # 2
    frequency:    0.2881213121
  - # 3
    frequency:    0.6165148370
  - # 4
    frequency:    0.6317543770
  - # 5
    frequency:    0.9540938323
  - # 6
    frequency:    4.5424062852
  - # 7
    frequency:    4.5891370486
  - # 8
    frequency:    6.2470218620
  - # 9
    frequency:    7.1353115526
  - # 10
    frequency:    7.1991497806
  - # 11
    frequency:    8.0289577461
  - # 12
    frequency:    8.0545720182
  - # 13
    frequency:    9.7642141128
  - # 14
    frequency:   12.6093521460
  - # 15
    frequency:   14.1383461405
  - # 16
    frequency:   14.1507777536
  - # 17
    frequency:   15.7068652918
  - # 18
    frequency:   17.6249638105
  - # 19
    frequency:   17.6360683290
  - # 20
    frequency:   31.9276332913
  - # 21
    frequency:   67.8002082527

- q-position: [    0.0404040,    0.0000000,    0.0000000 ]
  distance:    0.0145324
  band:
  - # 1
    frequency:    0.1349499860
  - # 2
    frequency:    0.3270907291
  - # 3
    frequency:    0.6980617313
  - # 4
    frequency:    0.7186250208
  - # 5
    frequency:    1.0865188176
  - # 6
    frequency:    4.5490590802
  - # 7
    frequency:    4.6094228150
  - # 8
    frequency:    6.2379711941
  - # 9
    frequency:    7.1351168067
  - # 10
    frequency:    7.2170601491
  - # 11
    frequency:    8.0234860304
  - # 12
    frequency:    8.0569409212
  - # 13
    frequency:    9.7617906565
  - # 14
    frequency:   12.5896640636
  - # 15
    frequency:   14.1386615799
  - # 16
    frequency:   14.1548157279
  - # 17
    frequency:   15.7042768976
  - # 18
    frequency:   17.6234470218
  - # 19
    frequency:   17.6379030834
  - # 20
    frequency:   31.9215791256
  - # 21
    frequency:   67.7970567196

- q-position: [    0.0454545,    0.0000000,    0.0000000 ]
  distance:    0.0163490
  band:
  - # 1
    frequency:    0.1694727395
  - # 2
    frequency:    0.3661634001
  - # 3
    frequency:    0.7797261045
  - # 4
    frequency:    0.8055214340
  - # 5
    frequency:    1.2185493191
  - # 6
    frequency:    4.5565432343
  - # 7
    frequency:    4.6320019075
  - # 8
    frequency:    6.2283220140
  - # 9
    frequency:    7.1349104831
  - # 10
    frequency:    7.2366747856
  - # 11
    frequency:    8.0172939358
  - # 12
    frequency:    8.0596317519
  - # 13
    frequency:    9.7590674069
  - # 14
    frequency:   12.5674936584
  - # 15
    frequency:   14.1390241913
  - # 16
    frequency:   14.1593528326
  - # 17
    frequency:   15.7013338677
  - # 18
    frequency:   17.6217374850
  - # 19
    frequency:   17.6399655761
  - # 20
    frequency:   31.9147622928
  - # 21
    frequency:   67.7935041133

- q-position: [    0.0505051,    0.0000000,    0.0000000 ]
  distance:    0.0181655
  band:
  - # 1
    frequency:    0.2075484173
  - # 2
    frequency:    0.4053008885
  - # 3
    frequency:    0.8612895899
  - # 4
    frequency:    0.8923461448
  - # 5
    frequency:    1.3500278096
  - # 6
    frequency:    4.5648385069
  - # 7
    frequency:    4.6567388414
  - # 8
    frequency:    6.2182337198
  - # 9
    frequency:    7.1346975872
  - # 10
    frequency:    7.2578081770
  - # 11
    frequency:    8.0103856233
  - # 12
    frequency:    8.0626453457
  - # 13
    frequency:    9.7560530248
  - # 14
    frequency:   12.5428921631
  - # 15
    frequency:   14.1394357724
  - # 16
    frequency:   14.1643761324
  - # 17
    frequency:   15.6980337836
  - # 18
    frequency:   17.6198380981
  - # 19
    frequency:   17.6422493394
  - # 20
    frequency:   31.9071991731
  - # 21
    frequency:   67.7895574818

- q-position: [    0.0555556,    0.0000000,    0.0000000 ]
  distance:    0.0199821
  band:
  - # 1
    frequency:    0.2490329613
  - # 2
    frequency:    0.4444715762
  - # 3
    frequency:    0.9425951951
  - # 4
    frequency:    0.9790238795
  - # 5
    frequency:    1.4808267480
  - # 6
    frequency:    4.5739226422
  - # 7
    frequency:    4.6834916687
  - # 8
    frequency:    6.2078585374
  - # 9
    frequency:    7.1344834906
  - # 10
    frequency:    7.2802801561
  - # 11
    frequency:    8.0027661461
  - # 12
    frequency:    8.0659818515
  - # 13
    frequency:    9.7527571128
  - # 14
    frequency:   12.5159156844
  - # 15
    frequency:   14.1398982635
  - # 16
    frequency:   14.1698720364
  - # 17
    frequency:   15.6943745715
  - # 18
    frequency:   17.6177517414
  - # 19
    frequency:   17.6447470726
  - # 20
    frequency:   31.8989078837
  - # 21
    frequency:   67.7852246285

- q-position: [    0.0606061,    0.0000000,    0.0000000 ]
  distance:    0.0217986
  band:
  - # 1
    frequency:    0.2937771159
  - # 2
    frequency:    0.4836496979
  - # 3
    frequency:    1.0235226912
  - # 4
    frequency:    1.0654936982
  - # 5
    frequency:    1.6108355595
  - # 6
    frequency:    4.5837714826
  - # 7
    frequency:    4.7121141204
  - # 8
    frequency:    6.1973396194
  - # 9
    frequency:    7.1342738626
  - # 10
    frequency:    7.3039181740
  - # 11
    frequency:    7.9944415693
  - # 12
    frequency:    8.0696405195
  - # 13
    frequency:    9.7491901709
  - # 14
    frequency:   12.4866249457
  - # 15
    frequency:   14.1404137254
  - # 16
    frequency:   14.1758264705
  - # 17
    frequency:   15.6903546769
  - # 18
    frequency:   17.6154811804
  - # 19
    frequency:   17.6474506224
  - # 20
    frequency:   31.8899082170
  - # 21
    frequency:   67.7805140889

- q-position: [    0.0656566,    0.0000000,    0.0000000 ]
  distance:    0.0236152
  band:
  - # 1
    frequency:    0.3416284307
  - # 2
    frequency:    0.5228140024
  - # 3
    frequency:    1.1039752632
  - # 4
    frequency:    1.1517041581
  - # 5
    frequency:    1.7399538449
  - # 6
    frequency:    4.5943590918
  - # 7
    frequency:    4.7424576071
  - # 8
    frequency:    6.1868101069
  - # 9
    frequency:    7.1340745964
  - # 10
    frequency:    7.3285586250
  - # 11
    frequency:    7.9854190951
  - # 12
    frequency:    8.0736194926
  - # 13
    frequency:    9.7453635382
  - # 14
    frequency:   12.4550850463
  - # 15
    frequency:   14.1409843163
  - # 16
    frequency:   14.1822250282
  - # 17
    frequency:   15.6859732408
  - # 18
    frequency:   17.6130289688
  - # 19
    frequency:   17.6503509630
  - # 20
    frequency:   31.8802215740
  - # 21
    frequency:   67.7754351045

- q-position: [    0.0707071,    0.0000000,    0.0000000 ]
  distance:    0.0254317
  band:
  - # 1
    frequency:    0.3924330151
  - # 2
    frequency:    0.5619465991
  - # 3
    frequency:    1.1838718900
  - # 4
    frequency:    1.2376102938
  - # 5
    frequency:    1.8680875569
  - # 6
    frequency:    4.6056578836
  - # 7
    frequency:    4.7743730449
  - # 8
    frequency:    6.1763929113
  - # 9
    frequency:    7.1338917316
  - # 10
    frequency:    7.3540474566
  - # 11
    frequency:    7.9757071908
  - # 12
    frequency:    8.0779156079
  - # 13
    frequency:    9.7412893180
  - # 14
    frequency:   12.4213652430
  - # 15
    frequency:   14.1416122670
  - # 16
    frequency:   14.1890530967
  - # 17
    frequency:   15.6812302738
  - # 18
    frequency:   17.6103973558
  - # 19
    frequency:   17.6534381771
  - # 20
    frequency:   31.8698708916
  - # 21
    frequency:   67.7699975948

- q-position: [    0.0757576,    0.0000000,    0.0000000 ]
  distance:    0.0272483
  band:
  - # 1
    frequency:    0.4460370517
  - # 2
    frequency:    0.6010320722
  - # 3
    frequency:    1.2631428111
  - # 4
    frequency:    1.3231716903
  - # 5
    frequency:    1.9951466889
  - # 6
    frequency:    4.6176387586
  - # 7
    frequency:    4.8077124951
  - # 8
    frequency:    6.1662009988
  - # 9
    frequency:    7.1337313734
  - # 10
    frequency:    7.3802402753
  - # 11
    frequency:    7.9653157189
  - # 12
    frequency:    8.0825242183
  - # 13
    frequency:    9.7369802844
  - # 14
    frequency:   12.3855387533
  - # 15
    frequency:   14.1422998542
  - # 16
    frequency:   14.1962959579
  - # 17
    frequency:   15.6761268246
  - # 18
    frequency:   17.6075881984
  - # 19
    frequency:   17.6567014382
  - # 20
    frequency:   31.8588805662
  - # 21
    frequency:   67.7642121274

- q-position: [    0.0808081,    0.0000000,    0.0000000 ]
  distance:    0.0290648
  band:
  - # 1
    frequency:    0.5022880747
  - # 2
    frequency:    0.6400568275
  - # 3
    frequency:    1.3417267390
  - # 4
    frequency:    1.4083512239
  - # 5
    frequency:    2.1210437775
  - # 6
    frequency:    4.6302712451
  - # 7
    frequency:    4.8423306135
  - # 8
    frequency:    6.1563379975
  - # 9
    frequency:    7.1335996091
  - # 10
    frequency:    7.4070021163
  - # 11
    frequency:    7.9542560654
  - # 12
    frequency:    8.0874390402
  - # 13
    frequency:    9.7324497667
  - # 14
    frequency:   12.3476825819
  - # 15
    frequency:   14.1430493740
  - # 16
    frequency:   14.2039388673
  - # 17
    frequency:   15.6706651383
  - # 18
    frequency:   17.6046028821
  - # 19
    frequency:   17.6601289946
  - # 20
    frequency:   31.8472763718
  - # 21
    frequency:   67.7580898862

- q-position: [    0.0858586,    0.0000000,    0.0000000 ]
  distance:    0.0308814
  band:
  - # 1
    frequency:    0.5610360237
  - # 2
    frequency:    0.6790086131
  - # 3
    frequency:    1.4195691040
  - # 4
    frequency:    1.4931142216
  - # 5
    frequency:    2.2456928564
  - # 6
    frequency:    4.6435236451
  - # 7
    frequency:    4.8780859209
  - # 8
    frequency:    6.1468989843
  - # 9
    frequency:    7.1335024225
  - # 10
    frequency:    7.4342070077
  - # 11
    frequency:    7.9425412664
  - # 12
    frequency:    8.0926520378
  - # 13
    frequency:    9.7277115110
  - # 14
    frequency:   12.3078773682
  - # 15
    frequency:   14.1438631138
  - # 16
    frequency:   14.2119671099
  - # 17
    frequency:   15.6648488021
  - # 18
    frequency:   17.6014422534
  - # 19
    frequency:   17.6637081564
  - # 20
    frequency:   31.8350853739
  - # 21
    frequency:   67.7516426386

- q-position: [    0.0909091,    0.0000000,    0.0000000 ]
  distance:    0.0326979
  band:
  - # 1
    frequency:    0.6221340888
  - # 2
    frequency:    0.7178761703
  - # 3
    frequency:    1.4966209278
  - # 4
    frequency:    1.5774278895
  - # 5
    frequency:    2.3690086685
  - # 6
    frequency:    4.6573631840
  - # 7
    frequency:    4.9148419102
  - # 8
    frequency:    6.1379713494
  - # 9
    frequency:    7.1334456070
  - # 10
    frequency:    7.4617374212
  - # 11
    frequency:    7.9301861282
  - # 12
    frequency:    8.0981533518
  - # 13
    frequency:    9.7227795138
  - # 14
    frequency:   12.2662072550
  - # 15
    frequency:   14.1447433236
  - # 16
    frequency:   14.2203660375
  - # 17
    frequency:   15.6586828757
  - # 18
    frequency:   17.5981065630
  - # 19
    frequency:   17.6674252854
  - # 20
    frequency:   31.8223358403
  - # 21
    frequency:   67.7448826994

- q-position: [    0.0959596,    0.0000000,    0.0000000 ]
  distance:    0.0345145
  band:
  - # 1
    frequency:    0.6854393637
  - # 2
    frequency:    0.7566489757
  - # 3
    frequency:    1.5728380952
  - # 4
    frequency:    1.6612609152
  - # 5
    frequency:    2.4909060232
  - # 6
    frequency:    4.6717561626
  - # 7
    frequency:    4.9524680151
  - # 8
    frequency:    6.1296356626
  - # 9
    frequency:    7.1334346779
  - # 10
    frequency:    7.4894836687
  - # 11
    frequency:    7.9172073418
  - # 12
    frequency:    8.1039312820
  - # 13
    frequency:    9.7176678292
  - # 14
    frequency:   12.2227597740
  - # 15
    frequency:   14.1456921881
  - # 16
    frequency:   14.2291210908
  - # 17
    frequency:   15.6521740022
  - # 18
    frequency:   17.5945954260
  - # 19
    frequency:   17.6712657890
  - # 20
    frequency:   31.8090571476
  - # 21
    frequency:   67.7378228957

- q-position: [    0.1010101,    0.0000000,    0.0000000 ]
  distance:    0.0363310
  band:
  - # 1
    frequency:    0.7508133310
  - # 2
    frequency:    0.7953170495
  - # 3
    frequency:    1.6481808818
  - # 4
    frequency:    1.7445831899
  - # 5
    frequency:    2.6112992360
  - # 6
    frequency:    4.6866681115
  - # 7
    frequency:    4.9908404650
  - # 8
    frequency:    6.1219664896
  - # 9
    frequency:    7.1334747848
  - # 10
    frequency:    7.5173432841
  - # 11
    frequency:    7.9036235867
  - # 12
    frequency:    8.1099723299
  - # 13
    frequency:    9.7123903435
  - # 14
    frequency:   12.1776257489
  - # 15
    frequency:   14.1467117978
  - # 16
    frequency:   14.2382178076
  - # 17
    frequency:   15.6453304990
  - # 18
    frequency:   17.5909077958
  - # 19
    frequency:   17.6752141190
  - # 20
    frequency:   31.7952796847
  - # 21
    frequency:   67.7304765284

- q-position: [    0.1060606,    0.0000000,    0.0000000 ]
  distance:    0.0381476
  band:
  - # 1
    frequency:    0.8181221989
  - # 2
    frequency:    0.8338708112
  - # 3
    frequency:    1.7226136509
  - # 4
    frequency:    1.8273656088
  - # 5
    frequency:    2.7301016104
  - # 6
    frequency:    4.7020639461
  - # 7
    frequency:    5.0298430544
  - # 8
    frequency:    6.1150331235
  - # 9
    frequency:    7.1335706236
  - # 10
    frequency:    7.5452204104
  - # 11
    frequency:    7.8894556245
  - # 12
    frequency:    8.1162613104
  - # 13
    frequency:    9.7069605200
  - # 14
    frequency:   12.1308992120
  - # 15
    frequency:   14.1478041209
  - # 16
    frequency:   14.2476418218
  - # 17
    frequency:   15.6381624272
  - # 18
    frequency:   17.5870419570
  - # 19
    frequency:   17.6792537751
  - # 20
    frequency:   31.7810347539
  - # 21
    frequency:   67.7228573336

- q-position: [    0.1111111,    0.0000000,    0.0000000 ]
  distance:    0.0399641
  band:
  - # 1
    frequency:    0.8723009705
  - # 2
    frequency:    0.8872371126
  - # 3
    frequency:    1.7961046621
  - # 4
    frequency:    1.9095799293
  - # 5
    frequency:    2.8472249429
  - # 6
    frequency:    4.7179081226
  - # 7
    frequency:    5.0693678524
  - # 8
    frequency:    6.1089002087
  - # 9
    frequency:    7.1337263503
  - # 10
    frequency:    7.5730252016
  - # 11
    frequency:    7.8747263789
  - # 12
    frequency:    8.1227815368
  - # 13
    frequency:    9.7013911091
  - # 14
    frequency:   12.0826773336
  - # 15
    frequency:   14.1489709761
  - # 16
    frequency:   14.2573788550
  - # 17
    frequency:   15.6306816357
  - # 18
    frequency:   17.5829955343
  - # 19
    frequency:   17.6833673152
  - # 20
    frequency:   31.7663544693
  - # 21
    frequency:   67.7149794431

- q-position: [    0.1161616,    0.0000000,    0.0000000 ]
  distance:    0.0417807
  band:
  - # 1
    frequency:    0.9105984430
  - # 2
    frequency:    0.9580342611
  - # 3
    frequency:    1.8686259559
  - # 4
    frequency:    1.9911986675
  - # 5
    frequency:    2.9625790384
  - # 6
    frequency:    4.7341647929
  - # 7
    frequency:    5.1093158735
  - # 8
    frequency:    6.1036282417
  - # 9
    frequency:    7.1339454950
  - # 10
    frequency:    7.6006732419
  - # 11
    frequency:    7.8594610013
  - # 12
    frequency:    8.1295150828
  - # 13
    frequency:    9.6956938263
  - # 14
    frequency:   12.0330603632
  - # 15
    frequency:   14.1502140061
  - # 16
    frequency:   14.2674147033
  - # 17
    frequency:   15.6229017834
  - # 18
    frequency:   17.5787655206
  - # 19
    frequency:   17.6875363708
  - # 20
    frequency:   31.7512716528
  - # 21
    frequency:   67.7068573435

- q-position: [    0.1212121,    0.0000000,    0.0000000 ]
  distance:    0.0435972
  band:
  - # 1
    frequency:    0.9487542846
  - # 2
    frequency:    1.0303948986
  - # 3
    frequency:    1.9401532879
  - # 4
    frequency:    2.0721950237
  - # 5
    frequency:    3.0760712376
  - # 6
    frequency:    4.7507979591
  - # 7
    frequency:    5.1495977276
  - # 8
    frequency:    6.0992739415
  - # 9
    frequency:    7.1342308784
  - # 10
    frequency:    7.6280849814
  - # 11
    frequency:    7.8436869195
  - # 12
    frequency:    8.1364431214
  - # 13
    frequency:    9.6898789968
  - # 14
    frequency:   11.9821515812
  - # 15
    frequency:   14.1515346520
  - # 16
    frequency:   14.2777352212
  - # 17
    frequency:   15.6148383354
  - # 18
    frequency:   17.5743483223
  - # 19
    frequency:   17.6917416707
  - # 20
    frequency:   31.7358197298
  - # 21
    frequency:   67.6985058348

- q-position: [    0.1262626,    0.0000000,    0.0000000 ]
  distance:    0.0454138
  band:
  - # 1
    frequency:    0.9867596405
  - # 2
    frequency:    1.1042052972
  - # 3
    frequency:    2.0106660962
  - # 4
    frequency:    2.1525428289
  - # 5
    frequency:    3.1876059620
  - # 6
    frequency:    4.7677716254
  - # 7
    frequency:    5.1901342528
  - # 8
    frequency:    6.0958904885
  - # 9
    frequency:    7.1345845289
  - # 10
    frequency:    7.6551851875
  - # 11
    frequency:    7.8274338698
  - # 12
    frequency:    8.1435463389
  - # 13
    frequency:    9.6839551681
  - # 14
    frequency:   11.9300572603
  - # 15
    frequency:   14.1529341302
  - # 16
    frequency:   14.2883263042
  - # 17
    frequency:   15.6065085360
  - # 18
    frequency:   17.5697398213
  - # 19
    frequency:   17.6959630716
  - # 20
    frequency:   31.7200326221
  - # 21
    frequency:   67.6899399889

- q-position: [    0.1313131,    0.0000000,    0.0000000 ]
  distance:    0.0472303
  band:
  - # 1
    frequency:    1.0246057041
  - # 2
    frequency:    1.1793566465
  - # 3
    frequency:    2.0801474875
  - # 4
    frequency:    2.2322165065
  - # 5
    frequency:    3.2970842951
  - # 6
    frequency:    4.7850499481
  - # 7
    frequency:    5.2308571275
  - # 8
    frequency:    6.0935276353
  - # 9
    frequency:    7.1350076030
  - # 10
    frequency:    7.6819024108
  - # 11
    frequency:    7.8107339089
  - # 12
    frequency:    8.1508054144
  - # 13
    frequency:    9.6779286937
  - # 14
    frequency:   11.8768866375
  - # 15
    frequency:   14.1544134097
  - # 16
    frequency:   14.2991738721
  - # 17
    frequency:   15.5979313585
  - # 18
    frequency:   17.5649354541
  - # 19
    frequency:   17.7001795961
  - # 20
    frequency:   31.7039446409
  - # 21
    frequency:   67.6811751074

- q-position: [    0.1363636,    0.0000000,    0.0000000 ]
  distance:    0.0490469
  band:
  - # 1
    frequency:    1.0622836845
  - # 2
    frequency:    1.2557449130
  - # 3
    frequency:    2.1485842356
  - # 4
    frequency:    2.3111910459
  - # 5
    frequency:    3.4044036234
  - # 6
    frequency:    4.8025973820
  - # 7
    frequency:    5.2717094330
  - # 8
    frequency:    6.0922317059
  - # 9
    frequency:    7.1355003057
  - # 10
    frequency:    7.7081684707
  - # 11
    frequency:    7.7936214077
  - # 12
    frequency:    8.1582015529
  - # 13
    frequency:    9.6718032903
  - # 14
    frequency:   11.8227518948
  - # 15
    frequency:   14.1559731928
  - # 16
    frequency:   14.3102638522
  - # 17
    frequency:   15.5891274318
  - # 18
    frequency:   17.5599303045
  - # 19
    frequency:   17.7043694799
  - # 20
    frequency:   31.6875903796
  - # 21
    frequency:   67.6722266785

- q-position: [    0.1414141,    0.0000000,    0.0000000 ]
  distance:    0.0508634
  band:
  - # 1
    frequency:    1.0997847798
  - # 2
    frequency:    1.3332706696
  - # 3
    frequency:    2.2159667824
  - # 4
    frequency:    2.3894419850
  - # 5
    frequency:    3.5094573781
  - # 6
    frequency:    4.8203788232
  - # 7
    frequency:    5.3126461200
  - # 8
    frequency:    6.0920455067
  - # 9
    frequency:    7.1360618149
  - # 10
    frequency:    7.7339179680
  - # 11
    frequency:    7.7761330246
  - # 12
    frequency:    8.1657170521
  - # 13
    frequency:    9.6655795735
  - # 14
    frequency:   11.7677681503
  - # 15
    frequency:   14.1576138968
  - # 16
    frequency:   14.3215821656
  - # 17
    frequency:   15.5801189468
  - # 18
    frequency:   17.5547192104
  - # 19
    frequency:   17.7085102268
  - # 20
    frequency:   31.6710046056
  - # 21
    frequency:   67.6631103353

- q-position: [    0.1464646,    0.0000000,    0.0000000 ]
  distance:    0.0526800
  band:
  - # 1
    frequency:    1.1371001557
  - # 2
    frequency:    1.4118389050
  - # 3
    frequency:    2.2822892383
  - # 4
    frequency:    2.4669453994
  - # 5
    frequency:    3.6121349274
  - # 6
    frequency:    4.8383597468
  - # 7
    frequency:    5.3536342977
  - # 8
    frequency:    6.0930081955
  - # 9
    frequency:    7.1366902050
  - # 10
    frequency:    7.7583076587
  - # 11
    frequency:    7.7590878403
  - # 12
    frequency:    8.1733358746
  - # 13
    frequency:    9.6592545779
  - # 14
    frequency:   11.7120534584
  - # 15
    frequency:   14.1593356389
  - # 16
    frequency:   14.3331147144
  - # 17
    frequency:   15.5709295430
  - # 18
    frequency:   17.5492968810
  - # 19
    frequency:   17.7125786725
  - # 20
    frequency:   31.6542221531
  - # 21
    frequency:   67.6538418129

- q-position: [    0.1515152,    0.0000000,    0.0000000 ]
  distance:    0.0544965
  band:
  - # 1
    frequency:    1.1742209273
  - # 2
    frequency:    1.4913588194
  - # 3
    frequency:    2.3475493769
  - # 4
    frequency:    2.5436778979
  - # 5
    frequency:    3.7123216861
  - # 6
    frequency:    4.8565063396
  - # 7
    frequency:    5.3946532243
  - # 8
    frequency:    6.0951551720
  - # 9
    frequency:    7.1373823733
  - # 10
    frequency:    7.7401863836
  - # 11
    frequency:    7.7836169823
  - # 12
    frequency:    8.1810441914
  - # 13
    frequency:    9.6528212698
  - # 14
    frequency:   11.6557288181
  - # 15
    frequency:   14.1611382230
  - # 16
    frequency:   14.3448473729
  - # 17
    frequency:   15.5615841773
  - # 18
    frequency:   17.5436580237
  - # 19
    frequency:   17.7165510572
  - # 20
    frequency:   31.6372778170
  - # 21