nqpoint: 300    
npath: 3      
segment_nqpoint:
- 100
- 100
- 100
labels:
- [ 'G', 'M' ]
- [ 'M', 'K' ]
- [ 'K', 'G' ]
reciprocal_lattice:
- [   0.31148933,   0.17983845,   0.00000000 ] # a*
- [   0.00000000,   0.35967690,   0.00000000 ] # b*
- [   0.00000000,   0.00000000,   0.03915797 ] # c*
natom: 7      
lattice:
- [     3.210382809845382,     0.000000000000000,     0.000000000000000 ] # a
- [    -1.605191404922691,     2.780273069200193,     0.000000000000000 ] # b
- [     0.000000000000000,     0.000000000000000,    25.537583677506731 ] # c
points:
- symbol: C # 1
  coordinates: [  0.666666984744047,  0.333332985985145,  0.398930465165681 ]
  mass: 12.010700
- symbol: Cl # 2
  coordinates: [  0.333332985432215,  0.666666983183674,  0.647578247274541 ]
  mass: 35.453000
- symbol: N # 3
  coordinates: [  0.000000000000000,  0.000000000000000,  0.540840658823233 ]
  mass: 14.006700
- symbol: N # 4
  coordinates: [  0.666666984744047,  0.333332985985145,  0.352421752725459 ]
  mass: 14.006700
- symbol: O # 5
  coordinates: [  0.666666984744047,  0.333332985985145,  0.451222444427554 ]
  mass: 15.999400
- symbol: Ti # 6
  coordinates: [  0.333332985432215,  0.666666983183674,  0.501127464526201 ]
  mass: 47.867000
- symbol: Ti # 7
  coordinates: [  0.666666984744047,  0.333332985985145,  0.581607982524208 ]
  mass: 47.867000

phonon:
- q-position: [    0.0000000,    0.0000000,    0.0000000 ]
  distance:    0.0000000
  band:
  - # 1
    frequency:   -0.0000012725
  - # 2
    frequency:   -0.0000005007
  - # 3
    frequency:    0.0000009574
  - # 4
    frequency:    0.1528954122
  - # 5
    frequency:    0.1528954122
  - # 6
    frequency:    4.5109631079
  - # 7
    frequency:    4.5109631079
  - # 8
    frequency:    6.3328958228
  - # 9
    frequency:    7.0493795913
  - # 10
    frequency:    7.0493795913
  - # 11
    frequency:    8.0294015370
  - # 12
    frequency:    8.0294015370
  - # 13
    frequency:    9.7887228771
  - # 14
    frequency:   12.7680001147
  - # 15
    frequency:   14.1444860925
  - # 16
    frequency:   14.1444860925
  - # 17
    frequency:   15.7369647632
  - # 18
    frequency:   17.7239035429
  - # 19
    frequency:   17.7239035429
  - # 20
    frequency:   32.0064615773
  - # 21
    frequency:   67.8254259697

- q-position: [    0.0050505,    0.0000000,    0.0000000 ]
  distance:    0.0018166
  band:
  - # 1
    frequency:    0.0029581767
  - # 2
    frequency:    0.0870096484
  - # 3
    frequency:    0.1350144522
  - # 4
    frequency:    0.1625534940
  - # 5
    frequency:    0.1887708710
  - # 6
    frequency:    4.5112864530
  - # 7
    frequency:    4.5124605716
  - # 8
    frequency:    6.3319813237
  - # 9
    frequency:    7.0493652364
  - # 10
    frequency:    7.0509963912
  - # 11
    frequency:    8.0291203000
  - # 12
    frequency:    8.0298054807
  - # 13
    frequency:    9.7885178538
  - # 14
    frequency:   12.7664789424
  - # 15
    frequency:   14.1445169742
  - # 16
    frequency:   14.1447694604
  - # 17
    frequency:   15.7367587657
  - # 18
    frequency:   17.7234378490
  - # 19
    frequency:   17.7239290561
  - # 20
    frequency:   32.0059035713
  - # 21
    frequency:   67.8251777470

- q-position: [    0.0101010,    0.0000000,    0.0000000 ]
  distance:    0.0036331
  band:
  - # 1
    frequency:    0.0249403296
  - # 2
    frequency:    0.1560208464
  - # 3
    frequency:    0.2036291606
  - # 4
    frequency:    0.2281375892
  - # 5
    frequency:    0.3043731432
  - # 6
    frequency:    4.5122564286
  - # 7
    frequency:    4.5169413222
  - # 8
    frequency:    6.3292665907
  - # 9
    frequency:    7.0493228715
  - # 10
    frequency:    7.0558151675
  - # 11
    frequency:    8.0282765853
  - # 12
    frequency:    8.0310158332
  - # 13
    frequency:    9.7879037297
  - # 14
    frequency:   12.7619196284
  - # 15
    frequency:   14.1446096485
  - # 16
    frequency:   14.1456182994
  - # 17
    frequency:   15.7361403887
  - # 18
    frequency:   17.7220444387
  - # 19
    frequency:   17.7240057560
  - # 20
    frequency:   32.0042315951
  - # 21
    frequency:   67.8244337519

- q-position: [    0.0151515,    0.0000000,    0.0000000 ]
  distance:    0.0054497
  band:
  - # 1
    frequency:    0.0458039088
  - # 2
    frequency:    0.1940980911
  - # 3
    frequency:    0.2846499328
  - # 4
    frequency:    0.3093437276
  - # 5
    frequency:    0.4469534099
  - # 6
    frequency:    4.5138728552
  - # 7
    frequency:    4.5243707128
  - # 8
    frequency:    6.3248349339
  - # 9
    frequency:    7.0492545849
  - # 10
    frequency:    7.0637440583
  - # 11
    frequency:    8.0268703846
  - # 12
    frequency:    8.0330281583
  - # 13
    frequency:    9.7868833426
  - # 14
    frequency:   12.7543347381
  - # 15
    frequency:   14.1447642021
  - # 16
    frequency:   14.1470288540
  - # 17
    frequency:   15.7351084957
  - # 18
    frequency:   17.7197342815
  - # 19
    frequency:   17.7241341188
  - # 20
    frequency:   32.0014517630
  - # 21
    frequency:   67.8231960010

- q-position: [    0.0202020,    0.0000000,    0.0000000 ]
  distance:    0.0072662
  band:
  - # 1
    frequency:    0.0681281055
  - # 2
    frequency:    0.2294332239
  - # 3
    frequency:    0.3739500415
  - # 4
    frequency:    0.3940191430
  - # 5
    frequency:    0.5920224694
  - # 6
    frequency:    4.5161354308
  - # 7
    frequency:    4.5346918975
  - # 8
    frequency:    6.3188159607
  - # 9
    frequency:    7.0491638206
  - # 10
    frequency:    7.0746392872
  - # 11
    frequency:    8.0249016955
  - # 12
    frequency:    8.0358350635
  - # 13
    frequency:    9.7854614205
  - # 14
    frequency:   12.7437450771
  - # 15
    frequency:   14.1449807790
  - # 16
    frequency:   14.1489949922
  - # 17
    frequency:   15.7336612491
  - # 18
    frequency:   17.7165255129
  - # 19
    frequency:   17.7243149233
  - # 20
    frequency:   31.9975742252
  - # 21
    frequency:   67.8214678435

- q-position: [    0.0252525,    0.0000000,    0.0000000 ]
  distance:    0.0090828
  band:
  - # 1
    frequency:    0.0925795598
  - # 2
    frequency:    0.2668672004
  - # 3
    frequency:    0.4643887196
  - # 4
    frequency:    0.4809651852
  - # 5
    frequency:    0.7372655425
  - # 6
    frequency:    4.5190437263
  - # 7
    frequency:    4.5478271298
  - # 8
    frequency:    6.3113738885
  - # 9
    frequency:    7.0490553248
  - # 10
    frequency:    7.0883169767
  - # 11
    frequency:    8.0223705389
  - # 12
    frequency:    8.0394261996
  - # 13
    frequency:    9.7836445799
  - # 14
    frequency:   12.7301794951
  - # 15
    frequency:   14.1452595797
  - # 16
    frequency:   14.1515083854
  - # 17
    frequency:   15.7317961946
  - # 18
    frequency:   17.7124432158
  - # 19
    frequency:   17.7245492287
  - # 20
    frequency:   31.9926131092
  - # 21
    frequency:   67.8192539451

- q-position: [    0.0303030,    0.0000000,    0.0000000 ]
  distance:    0.0108993
  band:
  - # 1
    frequency:    0.1196273813
  - # 2
    frequency:    0.3060790958
  - # 3
    frequency:    0.5548552874
  - # 4
    frequency:    0.5691605186
  - # 5
    frequency:    0.8821045652
  - # 6
    frequency:    4.5225971776
  - # 7
    frequency:    4.5636794818
  - # 8
    frequency:    6.3026946911
  - # 9
    frequency:    7.0489350703
  - # 10
    frequency:    7.1045661820
  - # 11
    frequency:    8.0192769832
  - # 12
    frequency:    8.0437882595
  - # 13
    frequency:    9.7814413205
  - # 14
    frequency:   12.7136746316
  - # 15
    frequency:   14.1456008593
  - # 16
    frequency:   14.1545587418
  - # 17
    frequency:   15.7295103786
  - # 18
    frequency:   17.7075191160
  - # 19
    frequency:   17.7248383435
  - # 20
    frequency:   31.9865864362
  - # 21
    frequency:   67.8165602642

- q-position: [    0.0353535,    0.0000000,    0.0000000 ]
  distance:    0.0127159
  band:
  - # 1
    frequency:    0.1495630637
  - # 2
    frequency:    0.3465345063
  - # 3
    frequency:    0.6449822636
  - # 4
    frequency:    0.6580265946
  - # 5
    frequency:    1.0262564429
  - # 6
    frequency:    4.5267950746
  - # 7
    frequency:    4.5821349020
  - # 8
    frequency:    6.2929740873
  - # 9
    frequency:    7.0488101629
  - # 10
    frequency:    7.1231611367
  - # 11
    frequency:    8.0156211761
  - # 12
    frequency:    8.0489049736
  - # 13
    frequency:    9.7788620172
  - # 14
    frequency:   12.6942746182
  - # 15
    frequency:   14.1460049261
  - # 16
    frequency:   14.1581340759
  - # 17
    frequency:   15.7268004964
  - # 18
    frequency:   17.7017911967
  - # 19
    frequency:   17.7251837870
  - # 20
    frequency:   31.9795160168
  - # 21
    frequency:   67.8133940223

- q-position: [    0.0404040,    0.0000000,    0.0000000 ]
  distance:    0.0145324
  band:
  - # 1
    frequency:    0.1825461949
  - # 2
    frequency:    0.3878351109
  - # 3
    frequency:    0.7345739358
  - # 4
    frequency:    0.7472220612
  - # 5
    frequency:    1.1695253055
  - # 6
    frequency:    4.5316365440
  - # 7
    frequency:    4.6030645133
  - # 8
    frequency:    6.2824076869
  - # 9
    frequency:    7.0486887278
  - # 10
    frequency:    7.1438713992
  - # 11
    frequency:    8.0114033836
  - # 12
    frequency:    8.0547570988
  - # 13
    frequency:    9.7759189056
  - # 14
    frequency:   12.6720307562
  - # 15
    frequency:   14.1464721392
  - # 16
    frequency:   14.1622209978
  - # 17
    frequency:   15.7236630705
  - # 18
    frequency:   17.6953032343
  - # 19
    frequency:   17.7255872419
  - # 20
    frequency:   31.9714273238
  - # 21
    frequency:   67.8097636679

- q-position: [    0.0454545,    0.0000000,    0.0000000 ]
  distance:    0.0163490
  band:
  - # 1
    frequency:    0.2186423899
  - # 2
    frequency:    0.4297045916
  - # 3
    frequency:    0.8234931185
  - # 4
    frequency:    0.8365297579
  - # 5
    frequency:    1.3117511011
  - # 6
    frequency:    4.5371205271
  - # 7
    frequency:    4.6263270580
  - # 8
    frequency:    6.2711838326
  - # 9
    frequency:    7.0485797803
  - # 10
    frequency:    7.1664693638
  - # 11
    frequency:    8.0066240369
  - # 12
    frequency:    8.0613224011
  - # 13
    frequency:    9.7726260603
  - # 14
    frequency:   12.6470011840
  - # 15
    frequency:   14.1470029058
  - # 16
    frequency:   14.1668050043
  - # 17
    frequency:   15.7200946572
  - # 18
    frequency:   17.6881042609
  - # 19
    frequency:   17.7260505000
  - # 20
    frequency:   31.9623493442
  - # 21
    frequency:   67.8056788350

- q-position: [    0.0505051,    0.0000000,    0.0000000 ]
  distance:    0.0181655
  band:
  - # 1
    frequency:    0.2578509843
  - # 2
    frequency:    0.4719500145
  - # 3
    frequency:    0.9116285503
  - # 4
    frequency:    0.9258008272
  - # 5
    frequency:    1.4527926103
  - # 6
    frequency:    4.5432457478
  - # 7
    frequency:    4.6517713960
  - # 8
    frequency:    6.2594790679
  - # 9
    frequency:    7.0484930804
  - # 10
    frequency:    7.1907352099
  - # 11
    frequency:    8.0012837870
  - # 12
    frequency:    8.0685756264
  - # 13
    frequency:    9.7689993628
  - # 14
    frequency:   12.6192505511
  - # 15
    frequency:   14.1475976778
  - # 16
    frequency:   14.1718707599
  - # 17
    frequency:   15.7160920766
  - # 18
    frequency:   17.6802479594
  - # 19
    frequency:   17.7265754014
  - # 20
    frequency:   31.9523144122
  - # 21
    frequency:   67.8011502956

- q-position: [    0.0555556,    0.0000000,    0.0000000 ]
  distance:    0.0199821
  band:
  - # 1
    frequency:    0.3001248189
  - # 2
    frequency:    0.5144332219
  - # 3
    frequency:    0.9988831756
  - # 4
    frequency:    1.0149261198
  - # 5
    frequency:    1.5925207396
  - # 6
    frequency:    4.5500106726
  - # 7
    frequency:    4.6792389775
  - # 8
    frequency:    6.2474558080
  - # 9
    frequency:    7.0484389745
  - # 10
    frequency:    7.2164597134
  - # 11
    frequency:    7.9953835667
  - # 12
    frequency:    8.0764884593
  - # 13
    frequency:    9.7650564545
  - # 14
    frequency:   12.5888497070
  - # 15
    frequency:   14.1482569484
  - # 16
    frequency:   14.1774023530
  - # 17
    frequency:   15.7116526652
  - # 18
    frequency:   17.6717919983
  - # 19
    frequency:   17.7271637667
  - # 20
    frequency:   31.9413580223
  - # 21
    frequency:   67.7961899070

- q-position: [    0.0606061,    0.0000000,    0.0000000 ]
  distance:    0.0217986
  band:
  - # 1
    frequency:    0.3453843686
  - # 2
    frequency:    0.5570522524
  - # 3
    frequency:    1.0851693185
  - # 4
    frequency:    1.1038207935
  - # 5
    frequency:    1.7308155215
  - # 6
    frequency:    4.5574134589
  - # 7
    frequency:    4.7085662245
  - # 8
    frequency:    6.2352616666
  - # 9
    frequency:    7.0484282264
  - # 10
    frequency:    7.2434454742
  - # 11
    frequency:    7.9889246607
  - # 12
    frequency:    8.0850294667
  - # 13
    frequency:    9.7608166740
  - # 14
    frequency:   12.5558754155
  - # 15
    frequency:   14.1489812474
  - # 16
    frequency:   14.1833835232
  - # 17
    frequency:   15.7067745447
  - # 18
    frequency:   17.6627973145
  - # 19
    frequency:   17.7278173243
  - # 20
    frequency:   31.9295186271
  - # 21
    frequency:   67.7908105541

- q-position: [    0.0656566,    0.0000000,    0.0000000 ]
  distance:    0.0236152
  band:
  - # 1
    frequency:    0.3935278956
  - # 2
    frequency:    0.5997295201
  - # 3
    frequency:    1.1704065395
  - # 4
    frequency:    1.1924155964
  - # 5
    frequency:    1.8675646214
  - # 6
    frequency:    4.5654518904
  - # 7
    frequency:    4.7395867732
  - # 8
    frequency:    6.2230299043
  - # 9
    frequency:    7.0484718397
  - # 10
    frequency:    7.2715070891
  - # 11
    frequency:    7.9819087831
  - # 12
    frequency:    8.0941640250
  - # 13
    frequency:    9.7563009712
  - # 14
    frequency:   12.5204100953
  - # 15
    frequency:   14.1497711363
  - # 16
    frequency:   14.1897978520
  - # 17
    frequency:   15.7014569031
  - # 18
    frequency:   17.6533273538
  - # 19
    frequency:   17.7285376330
  - # 20
    frequency:   31.9168374174
  - # 21
    frequency:   67.7850260879

- q-position: [    0.0707071,    0.0000000,    0.0000000 ]
  distance:    0.0254317
  band:
  - # 1
    frequency:    0.4444388076
  - # 2
    frequency:    0.6424042296
  - # 3
    frequency:    1.2545206742
  - # 4
    frequency:    1.2806517110
  - # 5
    frequency:    2.0026624920
  - # 6
    frequency:    4.5741232992
  - # 7
    frequency:    4.7721335456
  - # 8
    frequency:    6.2108805633
  - # 9
    frequency:    7.0485808739
  - # 10
    frequency:    7.3004707108
  - # 11
    frequency:    7.9743381615
  - # 12
    frequency:    8.1038542306
  - # 13
    frequency:    9.7515317962
  - # 14
    frequency:   12.4825415904
  - # 15
    frequency:   14.1506272030
  - # 16
    frequency:   14.1966289190
  - # 17
    frequency:   15.6957002816
  - # 18
    frequency:   17.6434472798
  - # 19
    frequency:   17.7293260002
  - # 20
    frequency:   31.9033580899
  - # 21
    frequency:   67.7788512587

- q-position: [    0.0757576,    0.0000000,    0.0000000 ]
  distance:    0.0272483
  band:
  - # 1
    frequency:    0.4979910368
  - # 2
    frequency:    0.6850274241
  - # 3
    frequency:    1.3374434387
  - # 4
    frequency:    1.3684775849
  - # 5
    frequency:    2.1360098010
  - # 6
    frequency:    4.5834244727
  - # 7
    frequency:    4.8060406358
  - # 8
    frequency:    6.1989219557
  - # 9
    frequency:    7.0487662585
  - # 10
    frequency:    7.3301733192
  - # 11
    frequency:    7.9662156282
  - # 12
    frequency:    8.1140587961
  - # 13
    frequency:    9.7465329559
  - # 14
    frequency:   12.4423629663
  - # 15
    frequency:   14.1515500551
  - # 16
    frequency:   14.2038604225
  - # 17
    frequency:   15.6895068604
  - # 18
    frequency:   17.6332231639
  - # 19
    frequency:   17.7301833979
  - # 20
    frequency:   31.8891266012
  - # 21
    frequency:   67.7723016473

- q-position: [    0.0808081,    0.0000000,    0.0000000 ]
  distance:    0.0290648
  band:
  - # 1
    frequency:    0.5540529990
  - # 2
    frequency:    0.7275586870
  - # 3
    frequency:    1.4191123292
  - # 4
    frequency:    1.4558469164
  - # 5
    frequency:    2.2675129553
  - # 6
    frequency:    4.5933515459
  - # 7
    frequency:    4.8411450098
  - # 8
    frequency:    6.1872522771
  - # 9
    frequency:    7.0490386051
  - # 10
    frequency:    7.3604619267
  - # 11
    frequency:    7.9575447162
  - # 12
    frequency:    8.1247329348
  - # 13
    frequency:    9.7413294338
  - # 14
    frequency:   12.3999723309
  - # 15
    frequency:   14.1525403134
  - # 16
    frequency:   14.2114762689
  - # 17
    frequency:   15.6828807371
  - # 18
    frequency:   17.6227211676
  - # 19
    frequency:   17.7311103761
  - # 20
    frequency:   31.8741909123
  - # 21
    frequency:   67.7653935918

- q-position: [    0.0858586,    0.0000000,    0.0000000 ]
  distance:    0.0308814
  band:
  - # 1
    frequency:    0.6124905175
  - # 2
    frequency:    0.7699639001
  - # 3
    frequency:    1.4994706795
  - # 4
    frequency:    1.5427173374
  - # 5
    frequency:    2.3970836271
  - # 6
    frequency:    4.6038998773
  - # 7
    frequency:    4.8772880293
  - # 8
    frequency:    6.1759611968
  - # 9
    frequency:    7.0494080237
  - # 10
    frequency:    7.3911928569
  - # 11
    frequency:    7.9483297615
  - # 12
    frequency:    8.1358282423
  - # 13
    frequency:    9.7359471667
  - # 14
    frequency:   12.3554726732
  - # 15
    frequency:   14.1535986041
  - # 16
    frequency:   14.2194606350
  - # 17
    frequency:   15.6758281887
  - # 18
    frequency:   17.6120067337
  - # 19
    frequency:   17.7321069755
  - # 20
    frequency:   31.8586007232
  - # 21
    frequency:   67.7581441127

- q-position: [    0.0909091,    0.0000000,    0.0000000 ]
  distance:    0.0326979
  band:
  - # 1
    frequency:    0.6731689795
  - # 2
    frequency:    0.8122136893
  - # 3
    frequency:    1.5784678069
  - # 4
    frequency:    1.6290495299
  - # 5
    frequency:    2.5246382337
  - # 6
    frequency:    4.6150639106
  - # 7
    frequency:    4.9143168206
  - # 8
    frequency:    6.1651313309
  - # 9
    frequency:    7.0498839428
  - # 10
    frequency:    7.4222311726
  - # 11
    frequency:    7.9385760071
  - # 12
    frequency:    8.1472925838
  - # 13
    frequency:    9.7304127710
  - # 14
    frequency:   12.3089717173
  - # 15
    frequency:   14.1547255505
  - # 16
    frequency:   14.2277980074
  - # 17
    frequency:   15.6683579090
  - # 18
    frequency:   17.6011437976
  - # 19
    frequency:   17.7331726399
  - # 20
    frequency:   31.8424072016
  - # 21
    frequency:   67.7505708349

- q-position: [    0.0959596,    0.0000000,    0.0000000 ]
  distance:    0.0345145
  band:
  - # 1
    frequency:    0.7359549161
  - # 2
    frequency:    0.8542823296
  - # 3
    frequency:    1.6560592057
  - # 4
    frequency:    1.7148066205
  - # 5
    frequency:    2.6500973435
  - # 6
    frequency:    4.6268370231
  - # 7
    frequency:    4.9520855150
  - # 8
    frequency:    6.1548395468
  - # 9
    frequency:    7.0504749376
  - # 10
    frequency:    7.4534502809
  - # 11
    frequency:    7.9282897118
  - # 12
    frequency:    8.1590700031
  - # 13
    frequency:    9.7247532140
  - # 14
    frequency:   12.2605817852
  - # 15
    frequency:   14.1559217640
  - # 16
    frequency:   14.2364732040
  - # 17
    frequency:   15.6604812149
  - # 18
    frequency:   17.5901940348
  - # 19
    frequency:   17.7343061301
  - # 20
    frequency:   31.8256627057
  - # 21
    frequency:   67.7426919096

- q-position: [    0.1010101,    0.0000000,    0.0000000 ]
  distance:    0.0363310
  band:
  - # 1
    frequency:    0.8007171435
  - # 2
    frequency:    0.8961469577
  - # 3
    frequency:    1.7322067650
  - # 4
    frequency:    1.7999537571
  - # 5
    frequency:    2.7733849917
  - # 6
    frequency:    4.6392113618
  - # 7
    frequency:    4.9904563927
  - # 8
    frequency:    6.1451580705
  - # 9
    frequency:    7.0511885688
  - # 10
    frequency:    7.4847317170
  - # 11
    frequency:    7.9174782581
  - # 12
    frequency:    8.1711006717
  - # 13
    frequency:    9.7189954224
  - # 14
    frequency:   12.2104196652
  - # 15
    frequency:   14.1571878343
  - # 16
    frequency:   14.2454713820
  - # 17
    frequency:   15.6522122107
  - # 18
    frequency:   17.5792161583
  - # 19
    frequency:   17.7355054398
  - # 20
    frequency:   31.8084205052
  - # 21
    frequency:   67.7345259336

- q-position: [    0.1060606,    0.0000000,    0.0000000 ]
  distance:    0.0381476
  band:
  - # 1
    frequency:    0.8673275669
  - # 2
    frequency:    0.9377869996
  - # 3
    frequency:    1.8068789946
  - # 4
    frequency:    1.8844578080
  - # 5
    frequency:    2.8944279006
  - # 6
    frequency:    4.6521776716
  - # 7
    frequency:    5.0293009644
  - # 8
    frequency:    6.1361553809
  - # 9
    frequency:    7.0520312327
  - # 10
    frequency:    7.5159650827
  - # 11
    frequency:    7.9061502617
  - # 12
    frequency:    8.1833208991
  - # 13
    frequency:    9.7131658231
  - # 14
    frequency:   12.1586064828
  - # 15
    frequency:   14.1585243191
  - # 16
    frequency:   14.2547780355
  - # 17
    frequency:   15.6435679074
  - # 18
    frequency:   17.5682652778
  - # 19
    frequency:   17.7367677144
  - # 20
    frequency:   31.7907344998
  - # 21
    frequency:   67.7260918690

- q-position: [    0.1111111,    0.0000000,    0.0000000 ]
  distance:    0.0399641
  band:
  - # 1
    frequency:    0.9356617263
  - # 2
    frequency:    0.9791837463
  - # 3
    frequency:    1.8800512458
  - # 4
    frequency:    1.9682871448
  - # 5
    frequency:    3.0131546043
  - # 6
    frequency:    4.6657251178
  - # 7
    frequency:    5.0685010252
  - # 8
    frequency:    6.1278968864
  - # 9
    frequency:    7.0530080255
  - # 10
    frequency:    7.5470481045
  - # 11
    frequency:    7.8943156780
  - # 12
    frequency:    8.1956632317
  - # 13
    frequency:    9.7072898113
  - # 14
    frequency:   12.1052675699
  - # 15
    frequency:   14.1599317328
  - # 16
    frequency:   14.2643789866
  - # 17
    frequency:   15.6345682867
  - # 18
    frequency:   17.5573923342
  - # 19
    frequency:   17.7380891748
  - # 20
    frequency:   31.7726589399
  - # 21
    frequency:   67.7174089626

- q-position: [    0.1161616,    0.0000000,    0.0000000 ]
  distance:    0.0417807
  band:
  - # 1
    frequency:    1.0055991417
  - # 2
    frequency:    1.0203200361
  - # 3
    frequency:    1.9517059200
  - # 4
    frequency:    2.0514114833
  - # 5
    frequency:    3.1294944814
  - # 6
    frequency:    4.6798411087
  - # 7
    frequency:    5.1079497136
  - # 8
    frequency:    6.1204453782
  - # 9
    frequency:    7.0541226230
  - # 10
    frequency:    7.5778867661
  - # 11
    frequency:    7.8819859067
  - # 12
    frequency:    8.2080566655
  - # 13
    frequency:    9.7013911434
  - # 14
    frequency:   12.0505323331
  - # 15
    frequency:   14.1614105354
  - # 16
    frequency:   14.2742603720
  - # 17
    frequency:   15.6252363086
  - # 18
    frequency:   17.5466436177
  - # 19
    frequency:   17.7394650461
  - # 20
    frequency:   31.7542481494
  - # 21
    frequency:   67.7084966657

- q-position: [    0.1212121,    0.0000000,    0.0000000 ]
  distance:    0.0435972
  band:
  - # 1
    frequency:    1.0611800131
  - # 2
    frequency:    1.0770235066
  - # 3
    frequency:    2.0218326538
  - # 4
    frequency:    2.1338017651
  - # 5
    frequency:    3.2433767110
  - # 6
    frequency:    4.6945111215
  - # 7
    frequency:    5.1475526021
  - # 8
    frequency:    6.1138612607
  - # 9
    frequency:    7.0553771764
  - # 10
    frequency:    7.6083954679
  - # 11
    frequency:    7.8691738911
  - # 12
    frequency:    8.2204270011
  - # 13
    frequency:    9.6954912537
  - # 14
    frequency:   11.9945341184
  - # 15
    frequency:   14.1629611197
  - # 16
    frequency:   14.2844086263
  - # 17
    frequency:   15.6155978584
  - # 18
    frequency:   17.5360603786
  - # 19
    frequency:   17.7408894925
  - # 20
    frequency:   31.7355562534
  - # 21
    frequency:   67.6993745552

- q-position: [    0.1262626,    0.0000000,    0.0000000 ]
  distance:    0.0454138
  band:
  - # 1
    frequency:    1.1017489411
  - # 2
    frequency:    1.1498227648
  - # 3
    frequency:    2.0904284751
  - # 4
    frequency:    2.2154300695
  - # 5
    frequency:    3.3547291687
  - # 6
    frequency:    4.7097185394
  - # 7
    frequency:    5.1872288382
  - # 8
    frequency:    6.1082025571
  - # 9
    frequency:    7.0567722248
  - # 10
    frequency:    7.6384971640
  - # 11
    frequency:    7.8558942125
  - # 12
    frequency:    8.2326973627
  - # 13
    frequency:    9.6896084975
  - # 14
    frequency:   11.9374100720
  - # 15
    frequency:   14.1645837988
  - # 16
    frequency:   14.2948104645
  - # 17
    frequency:   15.6056816317
  - # 18
    frequency:   17.5256785347
  - # 19
    frequency:   17.7423555608
  - # 20
    frequency:   31.7166369122
  - # 21
    frequency:   67.6900622551

- q-position: [    0.1313131,    0.0000000,    0.0000000 ]
  distance:    0.0472303
  band:
  - # 1
    frequency:    1.1420130588
  - # 2
    frequency:    1.2238891013
  - # 3
    frequency:    2.1574979209
  - # 4
    frequency:    2.2962695460
  - # 5
    frequency:    3.4634772945
  - # 6
    frequency:    4.7254445043
  - # 7
    frequency:    5.2269123385
  - # 8
    frequency:    6.1035246951
  - # 9
    frequency:    7.0583066246
  - # 10
    frequency:    7.6681234299
  - # 11
    frequency:    7.8421631766
  - # 12
    frequency:    8.2447889022
  - # 13
    frequency:    9.6837573266
  - # 14
    frequency:   11.8793009999
  - # 15
    frequency:   14.1662787933
  - # 16
    frequency:   14.3054528627
  - # 17
    frequency:   15.5955189604
  - # 18
    frequency:   17.5155284800
  - # 19
    frequency:   17.7438551309
  - # 20
    frequency:   31.6975430643
  - # 21
    frequency:   67.6805793613

- q-position: [    0.1363636,    0.0000000,    0.0000000 ]
  distance:    0.0490469
  band:
  - # 1
    frequency:    1.1819594645
  - # 2
    frequency:    1.2991188689
  - # 3
    frequency:    2.2230531100
  - # 4
    frequency:    2.3762943623
  - # 5
    frequency:    3.5695429751
  - # 6
    frequency:    4.7416677915
  - # 7
    frequency:    5.2665530155
  - # 8
    frequency:    6.0998800832
  - # 9
    frequency:    7.0599774958
  - # 10
    frequency:    7.6972144230
  - # 11
    frequency:    7.8279988934
  - # 12
    frequency:    8.2566216946
  - # 13
    frequency:    9.6779474090
  - # 14
    frequency:   11.8203512230
  - # 15
    frequency:   14.1680462177
  - # 16
    frequency:   14.3163230388
  - # 17
    frequency:   15.5851435819
  - # 18
    frequency:   17.5056349914
  - # 19
    frequency:   17.7453788766
  - # 20
    frequency:   31.6783266783
  - # 21
    frequency:   67.6709453674

- q-position: [    0.1414141,    0.0000000,    0.0000000 ]
  distance:    0.0508634
  band:
  - # 1
    frequency:    1.2215760245
  - # 2
    frequency:    1.3754124708
  - # 3
    frequency:    2.2871137636
  - # 4
    frequency:    2.4554796647
  - # 5
    frequency:    3.6728435013
  - # 6
    frequency:    4.7583647135
  - # 7
    frequency:    5.3061179867
  - # 8
    frequency:    6.0973174999
  - # 9
    frequency:    7.0617801842
  - # 10
    frequency:    7.7257187010
  - # 11
    frequency:    7.8134213468
  - # 12
    frequency:    8.2681158266
  - # 13
    frequency:    9.6721827088
  - # 14
    frequency:   11.7607084325
  - # 15
    frequency:   14.1698860667
  - # 16
    frequency:   14.3274084327
  - # 17
    frequency:   15.5745913574
  - # 18
    frequency:   17.4960172343
  - # 19
    frequency:   17.7469162365
  - # 20
    frequency:   31.6590385168
  - # 21
    frequency:   67.6611795940

- q-position: [    0.1464646,    0.0000000,    0.0000000 ]
  distance:    0.0526800
  band:
  - # 1
    frequency:    1.2608512979
  - # 2
    frequency:    1.4526742126
  - # 3
    frequency:    2.3497071670
  - # 4
    frequency:    2.5338015466
  - # 5
    frequency:    3.7732906832
  - # 6
    frequency:    4.7755090566
  - # 7
    frequency:    5.3455926691
  - # 8
    frequency:    6.0958813387
  - # 9
    frequency:    7.0637082377
  - # 10
    frequency:    7.7535928775
  - # 11
    frequency:    7.7984524555
  - # 12
    frequency:    8.2791926621
  - # 13
    frequency:    9.6664605486
  - # 14
    frequency:   11.7005235411
  - # 15
    frequency:   14.1717982021
  - # 16
    frequency:   14.3386966854
  - # 17
    frequency:   15.5638999461
  - # 18
    frequency:   17.4866888582
  - # 19
    frequency:   17.7484553958
  - # 20
    frequency:   31.6397279135
  - # 21
    frequency:   67.6513011206

- q-position: [    0.1515152,    0.0000000,    0.0000000 ]
  distance:    0.0544965
  band:
  - # 1
    frequency:    1.2997744749
  - # 2
    frequency:    1.5308121357
  - # 3
    frequency:    2.4108680657
  - # 4
    frequency:    2.6112370237
  - # 5
    frequency:    3.8707902341
  - # 6
    frequency:    4.7930720579
  - # 7
    frequency:    5.3849816055
  - # 8
    frequency:    6.0956107788
  - # 9
    frequency:    7.0657533982
  - # 10
    frequency:    7.7808011038
  - # 11
    frequency:    7.7831161238
  - # 12
    frequency:    8.2897762582
  - # 13
    frequency:    9.6607706838
  - # 14
    frequency:   11.6399505317
  - # 15
    frequency:   14.1737823388
  - # 16
    frequency:   14.3501756179
  - # 17
    frequency:   15.5531084446
  - # 18
    frequency:   17.4776581772
  - # 19
    frequency:   17.7499832795
  - # 20
    frequency:   31.6204425641
  - # 21