nqpoint: 300    
npath: 3      
segment_nqpoint:
- 100
- 100
- 100
labels:
- [ 'G', 'M' ]
- [ 'M', 'K' ]
- [ 'K', 'G' ]
reciprocal_lattice:
- [   0.30187799,   0.17428934,   0.00000000 ] # a*
- [   0.00000000,   0.34857868,   0.00000000 ] # b*
- [   0.00000000,   0.00000000,   0.03777026 ] # c*
natom: 7      
lattice:
- [     3.312596571608782,     0.000000000000000,     0.000000000000000 ] # a
- [    -1.656298285804391,     2.868792783493681,     0.000000000000000 ] # b
- [     0.000000000000000,     0.000000000000000,    26.475860022481662 ] # c
points:
- symbol: C # 1
  coordinates: [  0.000000000000000,  0.000000000000000,  0.515547415224639 ]
  mass: 12.010700
- symbol: Hf # 2
  coordinates: [  0.333332985432215,  0.666666983183674,  0.469668701825750 ]
  mass: 178.490000
- symbol: Hf # 3
  coordinates: [  0.666666984744047,  0.333332985985145,  0.566341516184960 ]
  mass: 178.490000
- symbol: N # 4
  coordinates: [  0.333332985432215,  0.666666983183674,  0.610033421766769 ]
  mass: 14.006700
- symbol: O # 5
  coordinates: [  0.333332985432215,  0.666666983183674,  0.660067699694826 ]
  mass: 15.999400
- symbol: O # 6
  coordinates: [  0.666666984744047,  0.333332985985145,  0.339932300305175 ]
  mass: 15.999400
- symbol: P # 7
  coordinates: [  0.666666984744047,  0.333332985985145,  0.396372900635889 ]
  mass: 30.973762

phonon:
- q-position: [    0.0000000,    0.0000000,    0.0000000 ]
  distance:    0.0000000
  band:
  - # 1
    frequency:   -7.5278146154
  - # 2
    frequency:   -7.5278146153
  - # 3
    frequency:   -0.0000150502
  - # 4
    frequency:   -0.0000003420
  - # 5
    frequency:    0.0000100334
  - # 6
    frequency:    2.1908147868
  - # 7
    frequency:    2.1908147868
  - # 8
    frequency:    3.2736906208
  - # 9
    frequency:    3.2736906208
  - # 10
    frequency:    4.5036011053
  - # 11
    frequency:    4.5517379097
  - # 12
    frequency:    4.5517379097
  - # 13
    frequency:    5.3306581373
  - # 14
    frequency:    5.3306581373
  - # 15
    frequency:    7.6106658612
  - # 16
    frequency:    8.3238818690
  - # 17
    frequency:   15.6765880107
  - # 18
    frequency:   15.6765880107
  - # 19
    frequency:   17.2067198950
  - # 20
    frequency:   34.0366566514
  - # 21
    frequency:   39.0265742600

- q-position: [    0.0050505,    0.0000000,    0.0000000 ]
  distance:    0.0017605
  band:
  - # 1
    frequency:   -7.5269656904
  - # 2
    frequency:   -7.5242402244
  - # 3
    frequency:    0.0011498321
  - # 4
    frequency:    0.0437704160
  - # 5
    frequency:    0.0830791791
  - # 6
    frequency:    2.1898964991
  - # 7
    frequency:    2.1909700555
  - # 8
    frequency:    3.2738818965
  - # 9
    frequency:    3.2746332030
  - # 10
    frequency:    4.4998682826
  - # 11
    frequency:    4.5514318599
  - # 12
    frequency:    4.5554327353
  - # 13
    frequency:    5.3313994909
  - # 14
    frequency:    5.3320574029
  - # 15
    frequency:    7.6104384062
  - # 16
    frequency:    8.3235309199
  - # 17
    frequency:   15.6767472348
  - # 18
    frequency:   15.6771087468
  - # 19
    frequency:   17.2064781057
  - # 20
    frequency:   34.0364588045
  - # 21
    frequency:   39.0258428645

- q-position: [    0.0101010,    0.0000000,    0.0000000 ]
  distance:    0.0035210
  band:
  - # 1
    frequency:   -7.5244213194
  - # 2
    frequency:   -7.5135226596
  - # 3
    frequency:    0.0045933286
  - # 4
    frequency:    0.0875271262
  - # 5
    frequency:    0.1661337238
  - # 6
    frequency:    2.1871354858
  - # 7
    frequency:    2.1914363788
  - # 8
    frequency:    3.2744559649
  - # 9
    frequency:    3.2774568699
  - # 10
    frequency:    4.4908554935
  - # 11
    frequency:    4.5505171909
  - # 12
    frequency:    4.5643336470
  - # 13
    frequency:    5.3336230117
  - # 14
    frequency:    5.3362570926
  - # 15
    frequency:    7.6097562051
  - # 16
    frequency:    8.3224792083
  - # 17
    frequency:   15.6772250212
  - # 18
    frequency:   15.6786701408
  - # 19
    frequency:   17.2057533606
  - # 20
    frequency:   34.0358656656
  - # 21
    frequency:   39.0236498353

- q-position: [    0.0151515,    0.0000000,    0.0000000 ]
  distance:    0.0052815
  band:
  - # 1
    frequency:   -7.5201886978
  - # 2
    frequency:   -7.4956788082
  - # 3
    frequency:    0.0103129677
  - # 4
    frequency:    0.1312556360
  - # 5
    frequency:    0.2491376973
  - # 6
    frequency:    2.1825133950
  - # 7
    frequency:    2.1922155267
  - # 8
    frequency:    3.2754135388
  - # 9
    frequency:    3.2821494128
  - # 10
    frequency:    4.4794045631
  - # 11
    frequency:    4.5490043273
  - # 12
    frequency:    4.5756051467
  - # 13
    frequency:    5.3373270421
  - # 14
    frequency:    5.3432628848
  - # 15
    frequency:    7.6086197579
  - # 16
    frequency:    8.3207301415
  - # 17
    frequency:   15.6780217058
  - # 18
    frequency:   15.6812697606
  - # 19
    frequency:   17.2045475255
  - # 20
    frequency:   34.0348784392
  - # 21
    frequency:   39.0199986415

- q-position: [    0.0202020,    0.0000000,    0.0000000 ]
  distance:    0.0070420
  band:
  - # 1
    frequency:   -7.5142797616
  - # 2
    frequency:   -7.4707370217
  - # 3
    frequency:    0.0182798491
  - # 4
    frequency:    0.1749398387
  - # 5
    frequency:    0.3320625118
  - # 6
    frequency:    2.1759999716
  - # 7
    frequency:    2.1933111779
  - # 8
    frequency:    3.2767557702
  - # 9
    frequency:    3.2886905856
  - # 10
    frequency:    4.4668517447
  - # 11
    frequency:    4.5469105853
  - # 12
    frequency:    4.5879214791
  - # 13
    frequency:    5.3425086952
  - # 14
    frequency:    5.3530842438
  - # 15
    frequency:    7.6070299242
  - # 16
    frequency:    8.3182894014
  - # 17
    frequency:   15.6791378276
  - # 18
    frequency:   15.6849035866
  - # 19
    frequency:   17.2028637013
  - # 20
    frequency:   34.0334991288
  - # 21
    frequency:   39.0148950561

- q-position: [    0.0252525,    0.0000000,    0.0000000 ]
  distance:    0.0088025
  band:
  - # 1
    frequency:   -7.5067111036
  - # 2
    frequency:   -7.4387374273
  - # 3
    frequency:    0.0284542536
  - # 4
    frequency:    0.2185611266
  - # 5
    frequency:    0.4148754632
  - # 6
    frequency:    2.1675535637
  - # 7
    frequency:    2.1947300099
  - # 8
    frequency:    3.2784841972
  - # 9
    frequency:    3.2970522580
  - # 10
    frequency:    4.4537386130
  - # 11
    frequency:    4.5442600724
  - # 12
    frequency:    4.6007556700
  - # 13
    frequency:    5.3491636812
  - # 14
    frequency:    5.3657344107
  - # 15
    frequency:    7.6049879628
  - # 16
    frequency:    8.3151649500
  - # 17
    frequency:   15.6805740986
  - # 18
    frequency:   15.6895660626
  - # 19
    frequency:   17.2007062108
  - # 20
    frequency:   34.0317305308
  - # 21
    frequency:   39.0083471435

- q-position: [    0.0303030,    0.0000000,    0.0000000 ]
  distance:    0.0105630
  band:
  - # 1
    frequency:   -7.4975038565
  - # 2
    frequency:   -7.3997323626
  - # 3
    frequency:    0.0407863369
  - # 4
    frequency:    0.2620973893
  - # 5
    frequency:    0.4975380920
  - # 6
    frequency:    2.1571218525
  - # 7
    frequency:    2.1964832247
  - # 8
    frequency:    3.2806006680
  - # 9
    frequency:    3.3071986335
  - # 10
    frequency:    4.4403079235
  - # 11
    frequency:    4.5410835239
  - # 12
    frequency:    4.6138835778
  - # 13
    frequency:    5.3572860889
  - # 14
    frequency:    5.3812303780
  - # 15
    frequency:    7.6024955856
  - # 16
    frequency:    8.3113670408
  - # 17
    frequency:   15.6823313612
  - # 18
    frequency:   15.6952501655
  - # 19
    frequency:   17.1980805800
  - # 20
    frequency:   34.0295762260
  - # 21
    frequency:   39.0003652406

- q-position: [    0.0353535,    0.0000000,    0.0000000 ]
  distance:    0.0123235
  band:
  - # 1
    frequency:   -7.4866835422
  - # 2
    frequency:   -7.3537869349
  - # 3
    frequency:    0.0552169552
  - # 4
    frequency:    0.3055218493
  - # 5
    frequency:    0.5800042929
  - # 6
    frequency:    2.1446428285
  - # 7
    frequency:    2.1985885188
  - # 8
    frequency:    3.2831072464
  - # 9
    frequency:    3.3190865304
  - # 10
    frequency:    4.4266854675
  - # 11
    frequency:    4.5374180593
  - # 12
    frequency:    4.6272019320
  - # 13
    frequency:    5.3668681411
  - # 14
    frequency:    5.3995928303
  - # 15
    frequency:    7.5995550245
  - # 16
    frequency:    8.3069082395
  - # 17
    frequency:   15.6844105341
  - # 18
    frequency:   15.7019474932
  - # 19
    frequency:   17.1949935145
  - # 20
    frequency:   34.0270405689
  - # 21
    frequency:   38.9909619341

- q-position: [    0.0404040,    0.0000000,    0.0000000 ]
  distance:    0.0140840
  band:
  - # 1
    frequency:   -7.4742798902
  - # 2
    frequency:   -7.3009797047
  - # 3
    frequency:    0.0716785852
  - # 4
    frequency:    0.3488016585
  - # 5
    frequency:    0.6622180803
  - # 6
    frequency:    2.1300460495
  - # 7
    frequency:    2.2010725251
  - # 8
    frequency:    3.2860060952
  - # 9
    frequency:    3.3326657251
  - # 10
    frequency:    4.4129470447
  - # 11
    frequency:    4.5333068371
  - # 12
    frequency:    4.6406612435
  - # 13
    frequency:    5.3778999452
  - # 14
    frequency:    5.4208460349
  - # 15
    frequency:    7.5961691107
  - # 16
    frequency:    8.3018034576
  - # 17
    frequency:   15.6868125479
  - # 18
    frequency:   15.7096483675
  - # 19
    frequency:   17.1914528703
  - # 20
    frequency:   34.0241286749
  - # 21
    frequency:   38.9801520322

- q-position: [    0.0454545,    0.0000000,    0.0000000 ]
  distance:    0.0158445
  band:
  - # 1
    frequency:   -7.4603266225
  - # 2
    frequency:   -7.2414034877
  - # 3
    frequency:    0.0900962943
  - # 4
    frequency:    0.3918961587
  - # 5
    frequency:    0.7441108936
  - # 6
    frequency:    2.1132542356
  - # 7
    frequency:    2.2039737789
  - # 8
    frequency:    3.2892993437
  - # 9
    frequency:    3.3478793517
  - # 10
    frequency:    4.3991456986
  - # 11
    frequency:    4.5287985977
  - # 12
    frequency:    4.6542384470
  - # 13
    frequency:    5.3903692593
  - # 14
    frequency:    5.4450176578
  - # 15
    frequency:    7.5923413657
  - # 16
    frequency:    8.2960700056
  - # 17
    frequency:   15.6895382706
  - # 18
    frequency:   15.7183419533
  - # 19
    frequency:   17.1874676196
  - # 20
    frequency:   34.0208464042
  - # 21
    frequency:   38.9679525308

- q-position: [    0.0505051,    0.0000000,    0.0000000 ]
  distance:    0.0176050
  band:
  - # 1
    frequency:   -7.4448612100
  - # 2
    frequency:   -7.1751662725
  - # 3
    frequency:    0.1103887224
  - # 4
    frequency:    0.4347546644
  - # 5
    frequency:    0.8255982984
  - # 6
    frequency:    2.0941852837
  - # 7
    frequency:    2.2073462952
  - # 8
    frequency:    3.2929889392
  - # 9
    frequency:    3.3646643477
  - # 10
    frequency:    4.3853239766
  - # 11
    frequency:    4.5239470816
  - # 12
    frequency:    4.6679245221
  - # 13
    frequency:    5.4042612892
  - # 14
    frequency:    5.4721384797
  - # 15
    frequency:    7.5880760997
  - # 16
    frequency:    8.2897276719
  - # 17
    frequency:   15.6925884228
  - # 18
    frequency:   15.7280163875
  - # 19
    frequency:   17.1830478119
  - # 20
    frequency:   34.0172003449
  - # 21
    frequency:   38.9543825758

- q-position: [    0.0555556,    0.0000000,    0.0000000 ]
  distance:    0.0193655
  band:
  - # 1
    frequency:   -7.4279245969
  - # 2
    frequency:   -7.1023922420
  - # 3
    frequency:    0.1324690383
  - # 4
    frequency:    0.4773135623
  - # 5
    frequency:    0.9065759064
  - # 6
    frequency:    2.0727548279
  - # 7
    frequency:    2.2112638882
  - # 8
    frequency:    3.2970764876
  - # 9
    frequency:    3.3829519318
  - # 10
    frequency:    4.3715199676
  - # 11
    frequency:    4.5188103235
  - # 12
    frequency:    4.6817183466
  - # 13
    frequency:    5.4195585298
  - # 14
    frequency:    5.5022419790
  - # 15
    frequency:    7.5833785205
  - # 16
    frequency:    8.2827988355
  - # 17
    frequency:   15.6959634857
  - # 18
    frequency:   15.7386589198
  - # 19
    frequency:   17.1782045294
  - # 20
    frequency:   34.0131977931
  - # 21
    frequency:   38.9394634199

- q-position: [    0.0606061,    0.0000000,    0.0000000 ]
  distance:    0.0211260
  band:
  - # 1
    frequency:   -7.4095608995
  - # 2
    frequency:   -7.0232228845
  - # 3
    frequency:    0.1562458407
  - # 4
    frequency:    0.5194924283
  - # 5
    frequency:    0.9869142980
  - # 6
    frequency:    2.0488795485
  - # 7
    frequency:    2.2158254098
  - # 8
    frequency:    3.3015630873
  - # 9
    frequency:    3.4026680926
  - # 10
    frequency:    4.3577705271
  - # 11
    frequency:    4.5134498279
  - # 12
    frequency:    4.6956233854
  - # 13
    frequency:    5.4362406570
  - # 14
    frequency:    5.5353637421
  - # 15
    frequency:    7.5782548478
  - # 16
    frequency:    8.2753086235
  - # 17
    frequency:   15.6996636006
  - # 18
    frequency:   15.7502560578
  - # 19
    frequency:   17.1729498391
  - # 20
    frequency:   34.0088467307
  - # 21
    frequency:   38.9232183747

- q-position: [    0.0656566,    0.0000000,    0.0000000 ]
  distance:    0.0228865
  band:
  - # 1
    frequency:   -7.3898170765
  - # 2
    frequency:   -6.9378181705
  - # 3
    frequency:    0.1816239798
  - # 4
    frequency:    0.5611887124
  - # 5
    frequency:    1.0664527080
  - # 6
    frequency:    2.0224815454
  - # 7
    frequency:    2.2211611220
  - # 8
    frequency:    3.3064491623
  - # 9
    frequency:    3.4237340634
  - # 10
    frequency:    4.3441131467
  - # 11
    frequency:    4.5079296413
  - # 12
    frequency:    4.7096457688
  - # 13
    frequency:    5.4542844749
  - # 14
    frequency:    5.5715406571
  - # 15
    frequency:    7.5727124363
  - # 16
    frequency:    8.2672851246
  - # 17
    frequency:   15.7036884630
  - # 18
    frequency:   15.7627937171
  - # 19
    frequency:   17.1672967397
  - # 20
    frequency:   34.0041558021
  - # 21
    frequency:   38.9056727590

- q-position: [    0.0707071,    0.0000000,    0.0000000 ]
  distance:    0.0246470
  band:
  - # 1
    frequency:   -7.3687425770
  - # 2
    frequency:   -6.8463577641
  - # 3
    frequency:    0.2085052829
  - # 4
    frequency:    0.6022703073
  - # 5
    frequency:    1.1449912354
  - # 6
    frequency:    1.9934942823
  - # 7
    frequency:    2.2274404247
  - # 8
    frequency:    3.3117343000
  - # 9
    frequency:    3.4460667525
  - # 10
    frequency:    4.3305871520
  - # 11
    frequency:    4.5023153433
  - # 12
    frequency:    4.7237930974
  - # 13
    frequency:    5.4736639164
  - # 14
    frequency:    5.6108098355
  - # 15
    frequency:    7.5667599051
  - # 16
    frequency:    8.2587596725
  - # 17
    frequency:   15.7080372109
  - # 18
    frequency:   15.7762573702
  - # 19
    frequency:   17.1612591063
  - # 20
    frequency:   33.9991342878
  - # 21
    frequency:   38.8868538411

- q-position: [    0.0757576,    0.0000000,    0.0000000 ]
  distance:    0.0264075
  band:
  - # 1
    frequency:   -7.3463889661
  - # 2
    frequency:   -6.7490422235
  - # 3
    frequency:    0.2367891753
  - # 4
    frequency:    0.6425649477
  - # 5
    frequency:    1.2222814280
  - # 6
    frequency:    1.9618709170
  - # 7
    frequency:    2.2348810841
  - # 8
    frequency:    3.3174171006
  - # 9
    frequency:    3.4695790920
  - # 10
    frequency:    4.3172345766
  - # 11
    frequency:    4.4966729845
  - # 12
    frequency:    4.7380736480
  - # 13
    frequency:    5.4943500948
  - # 14
    frequency:    5.6532072009
  - # 15
    frequency:    7.5604072786
  - # 16
    frequency:    8.2497672196
  - # 17
    frequency:   15.7127083100
  - # 18
    frequency:   15.7906321918
  - # 19
    frequency:   17.1548516317
  - # 20
    frequency:   33.9937920776
  - # 21
    frequency:   38.8667907787

- q-position: [    0.0808081,    0.0000000,    0.0000000 ]
  distance:    0.0281680
  band:
  - # 1
    frequency:   -7.3228095324
  - # 2
    frequency:   -6.6460941344
  - # 3
    frequency:    0.2663731925
  - # 4
    frequency:    0.6818447962
  - # 5
    frequency:    1.2980153645
  - # 6
    frequency:    1.9275963311
  - # 7
    frequency:    2.2437598397
  - # 8
    frequency:    3.3234950419
  - # 9
    frequency:    3.4941802624
  - # 10
    frequency:    4.3041009148
  - # 11
    frequency:    4.4910680036
  - # 12
    frequency:    4.7524958107
  - # 13
    frequency:    5.5163114004
  - # 14
    frequency:    5.6987656739
  - # 15
    frequency:    7.5536661397
  - # 16
    frequency:    8.2403468199
  - # 17
    frequency:   15.7176994363
  - # 18
    frequency:   15.8059031956
  - # 19
    frequency:   17.1480897669
  - # 20
    frequency:   33.9881396404
  - # 21
    frequency:   38.8455145530

- q-position: [    0.0858586,    0.0000000,    0.0000000 ]
  distance:    0.0299285
  band:
  - # 1
    frequency:   -7.2980588808
  - # 2
    frequency:   -6.5377591016
  - # 3
    frequency:    0.2971533856
  - # 4
    frequency:    0.7198036223
  - # 5
    frequency:    1.3718139894
  - # 6
    frequency:    1.8907049845
  - # 7
    frequency:    2.2544236498
  - # 8
    frequency:    3.3299643666
  - # 9
    frequency:    3.5197757423
  - # 10
    frequency:    4.2912358861
  - # 11
    frequency:    4.4855641599
  - # 12
    frequency:    4.7670676675
  - # 13
    frequency:    5.5395136361
  - # 14
    frequency:    5.7475128750
  - # 15
    frequency:    7.5465498038
  - # 16
    frequency:    8.2305422514
  - # 17
    frequency:   15.7230073585
  - # 18
    frequency:   15.8220553582
  - # 19
    frequency:   17.1409896608
  - # 20
    frequency:   33.9821879937
  - # 21
    frequency:   38.8230578996

- q-position: [    0.0909091,    0.0000000,    0.0000000 ]
  distance:    0.0316890
  band:
  - # 1
    frequency:   -7.2721925137
  - # 2
    frequency:   -6.4243065076
  - # 3
    frequency:    0.3290246291
  - # 4
    frequency:    0.7560224906
  - # 5
    frequency:    1.4432167251
  - # 6
    frequency:    1.8513079987
  - # 7
    frequency:    2.2672995655
  - # 8
    frequency:    3.3368199938
  - # 9
    frequency:    3.5462671209
  - # 10
    frequency:    4.2786943192
  - # 11
    frequency:    4.4802225133
  - # 12
    frequency:    4.7817966600
  - # 13
    frequency:    5.5639201860
  - # 14
    frequency:    5.7994682604
  - # 15
    frequency:    7.5390735232
  - # 16
    frequency:    8.2204028126
  - # 17
    frequency:   15.7286278206
  - # 18
    frequency:   15.8390737257
  - # 19
    frequency:   17.1335681030
  - # 20
    frequency:   33.9759486713
  - # 21
    frequency:   38.7994552357

- q-position: [    0.0959596,    0.0000000,    0.0000000 ]
  distance:    0.0334495
  band:
  - # 1
    frequency:   -7.2452664069
  - # 2
    frequency:   -6.3060299329
  - # 3
    frequency:    0.3618808388
  - # 4
    frequency:    0.7899175958
  - # 5
    frequency:    1.5116765923
  - # 6
    frequency:    1.8096348046
  - # 7
    frequency:    2.2828990315
  - # 8
    frequency:    3.3440554585
  - # 9
    frequency:    3.5735515952
  - # 10
    frequency:    4.2665372606
  - # 11
    frequency:    4.4751004883
  - # 12
    frequency:    4.7966893177
  - # 13
    frequency:    5.5894922099
  - # 14
    frequency:    5.8546395990
  - # 15
    frequency:    7.5312547354
  - # 16
    frequency:    8.2099843385
  - # 17
    frequency:   15.7345554273
  - # 18
    frequency:   15.8569434973
  - # 19
    frequency:   17.1258424691
  - # 20
    frequency:   33.9694336889
  - # 21
    frequency:   38.7747425830

- q-position: [    0.1010101,    0.0000000,    0.0000000 ]
  distance:    0.0352100
  band:
  - # 1
    frequency:   -7.2173365820
  - # 2
    frequency:   -6.1832471118
  - # 3
    frequency:    0.3956151165
  - # 4
    frequency:    0.8206607715
  - # 5
    frequency:    1.5765682154
  - # 6
    frequency:    1.7660972208
  - # 7
    frequency:    2.3018092679
  - # 8
    frequency:    3.3516628779
  - # 9
    frequency:    3.6015210529
  - # 10
    frequency:    4.2548334251
  - # 11
    frequency:    4.4702510471
  - # 12
    frequency:    4.8117510300
  - # 13
    frequency:    5.6161888586
  - # 14
    frequency:    5.9130186946
  - # 15
    frequency:    7.5231133794
  - # 16
    frequency:    8.1993504957
  - # 17
    frequency:   15.7407835343
  - # 18
    frequency:   15.8756500800
  - # 19
    frequency:   17.1178306740
  - # 20
    frequency:   33.9626555091
  - # 21
    frequency:   38.7489574878

- q-position: [    0.1060606,    0.0000000,    0.0000000 ]
  distance:    0.0369705
  band:
  - # 1
    frequency:   -7.1884586843
  - # 2
    frequency:   -6.0562992939
  - # 3
    frequency:    0.4301198365
  - # 4
    frequency:    0.8470601279
  - # 5
    frequency:    1.6372190722
  - # 6
    frequency:    1.7213858858
  - # 7
    frequency:    2.3246614111
  - # 8
    frequency:    3.3596329453
  - # 9
    frequency:    3.6300606096
  - # 10
    frequency:    4.2436611318
  - # 11
    frequency:    4.4657219985
  - # 12
    frequency:    4.8269858515
  - # 13
    frequency:    5.6439675047
  - # 14
    frequency:    5.9745762503
  - # 15
    frequency:    7.5146723092
  - # 16
    frequency:    8.1885744359
  - # 17
    frequency:   15.7473041436
  - # 18
    frequency:   15.8951791098
  - # 19
    frequency:   17.1095511349
  - # 20
    frequency:   33.9556270052
  - # 21
    frequency:   38.7221389374

- q-position: [    0.1111111,    0.0000000,    0.0000000 ]
  distance:    0.0387310
  band:
  - # 1
    frequency:   -7.1586875674
  - # 2
    frequency:   -5.9255498720
  - # 3
    frequency:    0.4652866925
  - # 4
    frequency:    0.8673893913
  - # 5
    frequency:    1.6766059873
  - # 6
    frequency:    1.6929738328
  - # 7
    frequency:    2.3520656131
  - # 8
    frequency:    3.3679549482
  - # 9
    frequency:    3.6590464292
  - # 10
    frequency:    4.2331109106
  - # 11
    frequency:    4.4615554571
  - # 12
    frequency:    4.8423963355
  - # 13
    frequency:    5.6727839851
  - # 14
    frequency:    6.0392557634
  - # 15
    frequency:    7.5059578540
  - # 16
    frequency:    8.1777409104
  - # 17
    frequency:   15.7541078066
  - # 18
    frequency:   15.9155164312
  - # 19
    frequency:   17.1010227481
  - # 20
    frequency:   33.9483614237
  - # 21
    frequency:   38.6943272738

- q-position: [    0.1161616,    0.0000000,    0.0000000 ]
  distance:    0.0404915
  band:
  - # 1
    frequency:   -7.1280768942
  - # 2
    frequency:   -5.7913821498
  - # 3
    frequency:    0.5010067270
  - # 4
    frequency:    0.8791722757
  - # 5
    frequency:    1.6334378723
  - # 6
    frequency:    1.7432922778
  - # 7
    frequency:    2.3845126519
  - # 8
    frequency:    3.3766168074
  - # 9
    frequency:    3.6883426053
  - # 10
    frequency:    4.2232890117
  - # 11
    frequency:    4.4577874631
  - # 12
    frequency:    4.8579833912
  - # 13
    frequency:    5.7025928513
  - # 14
    frequency:    6.1069663209
  - # 15
    frequency:    7.4970005901
  - # 16
    frequency:    8.1669489860
  - # 17
    frequency:   15.7611835374
  - # 18
    frequency:   15.9366480283
  - # 19
    frequency:   17.0922648861
  - # 20
    frequency:   33.9408723460
  - # 21
    frequency:   38.6655641042

- q-position: [    0.1212121,    0.0000000,    0.0000000 ]
  distance:    0.0422520
  band:
  - # 1
    frequency:   -7.0966787571
  - # 2
    frequency:   -5.6541961440
  - # 3
    frequency:    0.5371703651
  - # 4
    frequency:    0.8789864300
  - # 5
    frequency:    1.5942424479
  - # 6
    frequency:    1.7878609285
  - # 7
    frequency:    2.4222619664
  - # 8
    frequency:    3.3856051328
  - # 9
    frequency:    3.7177968322
  - # 10
    frequency:    4.2143221036
  - # 11
    frequency:    4.4544477642
  - # 12
    frequency:    4.8737461633
  - # 13
    frequency:    5.7333476243
  - # 14
    frequency:    6.1775741279
  - # 15
    frequency:    7.4878364275
  - # 16
    frequency:    8.1563155450
  - # 17
    frequency:   15.7685187360
  - # 18
    frequency:   15.9585599013
  - # 19
    frequency:   17.0832974198
  - # 20
    frequency:   33.9331736493
  - # 21
    frequency:   38.6358922093

- q-position: [    0.1262626,    0.0000000,    0.0000000 ]
  distance:    0.0440125
  band:
  - # 1
    frequency:   -7.0645433251
  - # 2
    frequency:   -5.5144043555
  - # 3
    frequency:    0.5736674801
  - # 4
    frequency:    0.8624530890
  - # 5
    frequency:    1.5619129319
  - # 6
    frequency:    1.8266774097
  - # 7
    frequency:    2.4652571337
  - # 8
    frequency:    3.3949052924
  - # 9
    frequency:    3.7472345677
  - # 10
    frequency:    4.2063634699
  - # 11
    frequency:    4.4515597548
  - # 12
    frequency:    4.8896819323
  - # 13
    frequency:    5.7650010520
  - # 14
    frequency:    6.2508925383
  - # 15
    frequency:    7.4785081631
  - # 16
    frequency:    8.1459798170
  - # 17
    frequency:   15.7760991243
  - # 18
    frequency:   15.9812378761
  - # 19
    frequency:   17.0741407742
  - # 20
    frequency:   33.9252794672
  - # 21
    frequency:   38.6053554491

- q-position: [    0.1313131,    0.0000000,    0.0000000 ]
  distance:    0.0457730
  band:
  - # 1
    frequency:   -7.0317185220
  - # 2
    frequency:   -5.3724265044
  - # 3
    frequency:    0.6103875178
  - # 4
    frequency:    0.8245744895
  - # 5
    frequency:    1.5392366163
  - # 6
    frequency:    1.8600667354
  - # 7
    frequency:    2.5131096238
  - # 8
    frequency:    3.4045014878
  - # 9
    frequency:    3.7764514676
  - # 10
    frequency:    4.1996009386
  - # 11
    frequency:    4.4491405609
  - # 12
    frequency:    4.9057860345
  - # 13
    frequency:    5.7975053667
  - # 14
    frequency:    6.3266702377
  - # 15
    frequency:    7.4690677305
  - # 16
    frequency:    8.1361092636
  - # 17
    frequency:   15.7839086967
  - # 18
    frequency:   16.0046673400
  - # 19
    frequency:   17.0648160279
  - # 20
    frequency:   33.9172041493
  - # 21
    frequency:   38.5739986665

- q-position: [    0.1363636,    0.0000000,    0.0000000 ]
  distance:    0.0475335
  band:
  - # 1
    frequency:   -6.9982497425
  - # 2
    frequency:   -5.2286832968
  - # 3
    frequency:    0.6472197134
  - # 4
    frequency:    0.7601001078
  - # 5
    frequency:    1.5278901231
  - # 6
    frequency:    1.8886200921
  - # 7
    frequency:    2.5651602670
  - # 8
    frequency:    3.4143768344
  - # 9
    frequency:    3.8052042113
  - # 10
    frequency:    4.1942664419
  - # 11
    frequency:    4.4472012549
  - # 12
    frequency:    4.9220518016
  - # 13
    frequency:    5.8308125403
  - # 14
    frequency:    6.4045770465
  - # 15
    frequency:    7.4595795081
  - # 16
    frequency:    8.1269072294
  - # 17
    frequency:   15.7919296850
  - # 18
    frequency:   16.0288328889
  - # 19
    frequency:   17.0553450679
  - # 20
    frequency:   33.9089622209
  - # 21
    frequency:   38.5418675892

- q-position: [    0.1414141,    0.0000000,    0.0000000 ]
  distance:    0.0492940
  band:
  - # 1
    frequency:   -6.9641796104
  - # 2
    frequency:   -5.0835893803
  - # 3
    frequency:    0.6625565735
  - # 4
    frequency:    0.6840534339
  - # 5
    frequency:    1.5278074753
  - # 6
    frequency:    1.9130865233
  - # 7
    frequency:    2.6205880126
  - # 8
    frequency:    3.4245134408
  - # 9
    frequency:    3.8332007740
  - # 10
    frequency:    4.1906461624
  - # 11
    frequency:    4.4457471800
  - # 12
    frequency:    4.9384705186
  - # 13
    frequency:    5.8648745352
  - # 14
    frequency:    6.4841865241
  - # 15
    frequency:    7.4501252467
  - # 16
    frequency:    8.1186228652
  - # 17
    frequency:   15.8001425408
  - # 18
    frequency:   16.0537178724
  - # 19
    frequency:   17.0457508158
  - # 20
    frequency:   33.9005683424
  - # 21
    frequency:   38.5090087301

- q-position: [    0.1464646,    0.0000000,    0.0000000 ]
  distance:    0.0510545
  band:
  - # 1
    frequency:   -6.9295477835
  - # 2
    frequency:   -4.9375457288
  - # 3
    frequency:    0.5186041057
  - # 4
    frequency:    0.7207786852
  - # 5
    frequency:    1.5374938036
  - # 6
    frequency:    1.9342630695
  - # 7
    frequency:    2.6785203773
  - # 8
    frequency:    3.4348924856
  - # 9
    frequency:    3.8600932830
  - # 10
    frequency:    4.1890881459
  - # 11
    frequency:    4.4447783632
  - # 12
    frequency:    4.9550314013
  - # 13
    frequency:    5.8996435501
  - # 14
    frequency:    6.5649541584
  - # 15
    frequency:    7.4408115152
  - # 16
    frequency:    8.1115638873
  - # 17
    frequency:   15.8085259343
  - # 18
    frequency:   16.0793038165
  - # 19
    frequency:   17.0360575470
  - # 20
    frequency:   33.8920372685
  - # 21
    frequency:   38.4754692861

- q-position: [    0.1515152,    0.0000000,    0.0000000 ]
  distance:    0.0528150
  band:
  - # 1
    frequency:   -6.8943908096
  - # 2
    frequency:   -4.7909317799
  - # 3
    frequency:    0.2725739042
  - # 4
    frequency:    0.7572868222
  - # 5
    frequency:    1.5548805449
  - # 6
    frequency:    1.9529142357
  - # 7
    frequency:    2.7381146299
  - # 8
    frequency:    3.4454942894
  - # 9
    frequency:    3.8854803212
  - # 10
    frequency:    4.1900005274
  - # 11
    frequency:    4.4442899936
  - # 12
    frequency:    4.9717215923
  - # 13
    frequency:    5.9350722572
  - # 14
    frequency:    6.6461894275
  - # 15
    frequency:    7.4317810836
  - # 16
    frequency:    8.1061126715
  - # 17
    frequency:   15.8170567725
  - # 18
    frequency:   16.1055697008
  - # 19
    frequency:   17.0262913282
  - # 20
    frequency:   33.8833838075
  - # 21