nqpoint: 300    
npath: 3      
segment_nqpoint:
- 100
- 100
- 100
labels:
- [ 'G', 'M' ]
- [ 'M', 'K' ]
- [ 'K', 'G' ]
reciprocal_lattice:
- [   0.29045310,   0.16769318,   0.00000000 ] # a*
- [   0.00000000,   0.33538636,   0.00000000 ] # b*
- [   0.00000000,   0.00000000,   0.03773999 ] # c*
natom: 7      
lattice:
- [     3.442896587605063,     0.000000000000000,     0.000000000000000 ] # a
- [    -1.721448293802531,     2.981635907456565,     0.000000000000000 ] # b
- [     0.000000000000000,     0.000000000000000,    26.497092568056445 ] # c
points:
- symbol: C # 1
  coordinates: [  0.333332985432215,  0.666666983183674,  0.615422490645950 ]
  mass: 12.010700
- symbol: Cl # 2
  coordinates: [  0.666666984744047,  0.333332985985145,  0.339659907096749 ]
  mass: 35.453000
- symbol: N # 3
  coordinates: [  0.000000000000000,  0.000000000000000,  0.445709694878439 ]
  mass: 14.006700
- symbol: N # 4
  coordinates: [  0.333332985432215,  0.666666983183674,  0.660340092903251 ]
  mass: 14.006700
- symbol: S # 5
  coordinates: [  0.333332985432215,  0.666666983183674,  0.552177690449698 ]
  mass: 32.065000
- symbol: Sc # 6
  coordinates: [  0.333332985432215,  0.666666983183674,  0.402497312853600 ]
  mass: 44.955912
- symbol: Sc # 7
  coordinates: [  0.666666984744047,  0.333332985985145,  0.491296549064269 ]
  mass: 44.955912

phonon:
- q-position: [    0.0000000,    0.0000000,    0.0000000 ]
  distance:    0.0000000
  band:
  - # 1
    frequency:   -0.0000149549
  - # 2
    frequency:    0.0000001961
  - # 3
    frequency:    0.0000188195
  - # 4
    frequency:    1.4062040842
  - # 5
    frequency:    1.4062040843
  - # 6
    frequency:    3.2936990868
  - # 7
    frequency:    3.2936990869
  - # 8
    frequency:    4.9948402234
  - # 9
    frequency:    5.9701469414
  - # 10
    frequency:    5.9701469415
  - # 11
    frequency:    7.3448583148
  - # 12
    frequency:    7.3448583148
  - # 13
    frequency:    8.7870441458
  - # 14
    frequency:   10.4398729586
  - # 15
    frequency:   10.4398729586
  - # 16
    frequency:   10.7014149081
  - # 17
    frequency:   11.9777730327
  - # 18
    frequency:   11.9777730327
  - # 19
    frequency:   12.4305842457
  - # 20
    frequency:   20.6783408295
  - # 21
    frequency:   65.1072654892

- q-position: [    0.0050505,    0.0000000,    0.0000000 ]
  distance:    0.0016939
  band:
  - # 1
    frequency:   -0.0591693987
  - # 2
    frequency:   -0.0582043170
  - # 3
    frequency:    0.0019091628
  - # 4
    frequency:    1.4097136604
  - # 5
    frequency:    1.4108379320
  - # 6
    frequency:    3.2942906696
  - # 7
    frequency:    3.2954145489
  - # 8
    frequency:    4.9942711374
  - # 9
    frequency:    5.9704057039
  - # 10
    frequency:    5.9707084475
  - # 11
    frequency:    7.3448881798
  - # 12
    frequency:    7.3449073572
  - # 13
    frequency:    8.7868486508
  - # 14
    frequency:   10.4399517347
  - # 15
    frequency:   10.4399820487
  - # 16
    frequency:   10.7008999032
  - # 17
    frequency:   11.9742149457
  - # 18
    frequency:   11.9777410996
  - # 19
    frequency:   12.4311217273
  - # 20
    frequency:   20.6782826049
  - # 21
    frequency:   65.1071832274

- q-position: [    0.0101010,    0.0000000,    0.0000000 ]
  distance:    0.0033877
  band:
  - # 1
    frequency:   -0.1170709389
  - # 2
    frequency:   -0.1145942373
  - # 3
    frequency:    0.0076393341
  - # 4
    frequency:    1.4200798334
  - # 5
    frequency:    1.4245016456
  - # 6
    frequency:    3.2960638888
  - # 7
    frequency:    3.3005480016
  - # 8
    frequency:    4.9925714554
  - # 9
    frequency:    5.9711801552
  - # 10
    frequency:    5.9723875317
  - # 11
    frequency:    7.3449752266
  - # 12
    frequency:    7.3450547992
  - # 13
    frequency:    8.7862638190
  - # 14
    frequency:   10.4401827427
  - # 15
    frequency:   10.4403078768
  - # 16
    frequency:   10.6993556536
  - # 17
    frequency:   11.9636396424
  - # 18
    frequency:   11.9776450216
  - # 19
    frequency:   12.4326430647
  - # 20
    frequency:   20.6781079322
  - # 21
    frequency:   65.1069365545

- q-position: [    0.0151515,    0.0000000,    0.0000000 ]
  distance:    0.0050816
  band:
  - # 1
    frequency:   -0.1725577717
  - # 2
    frequency:   -0.1675472781
  - # 3
    frequency:    0.0171956704
  - # 4
    frequency:    1.4368467731
  - # 5
    frequency:    1.4465373073
  - # 6
    frequency:    3.2990141438
  - # 7
    frequency:    3.3090608728
  - # 8
    frequency:    4.9897636853
  - # 9
    frequency:    5.9724648127
  - # 10
    frequency:    5.9751679801
  - # 11
    frequency:    7.3451118841
  - # 12
    frequency:    7.3453015772
  - # 13
    frequency:    8.7852945914
  - # 14
    frequency:   10.4405496941
  - # 15
    frequency:   10.4408461362
  - # 16
    frequency:   10.6967845722
  - # 17
    frequency:   11.9463212459
  - # 18
    frequency:   11.9774839487
  - # 19
    frequency:   12.4348979426
  - # 20
    frequency:   20.6778168151
  - # 21
    frequency:   65.1065258083

- q-position: [    0.0202020,    0.0000000,    0.0000000 ]
  distance:    0.0067755
  band:
  - # 1
    frequency:   -0.2246894367
  - # 2
    frequency:   -0.2157581805
  - # 3
    frequency:    0.0305878471
  - # 4
    frequency:    1.4593474086
  - # 5
    frequency:    1.4760061143
  - # 6
    frequency:    3.3031337247
  - # 7
    frequency:    3.3208896268
  - # 8
    frequency:    4.9858846213
  - # 9
    frequency:    5.9742506213
  - # 10
    frequency:    5.9790230490
  - # 11
    frequency:    7.3452857753
  - # 12
    frequency:    7.3456492250
  - # 13
    frequency:    8.7839491402
  - # 14
    frequency:   10.4410243081
  - # 15
    frequency:   10.4415897154
  - # 16
    frequency:   10.6931911026
  - # 17
    frequency:   11.9226525913
  - # 18
    frequency:   11.9772564188
  - # 19
    frequency:   12.4375340732
  - # 20
    frequency:   20.6774092610
  - # 21
    frequency:   65.1059515507

- q-position: [    0.0252525,    0.0000000,    0.0000000 ]
  distance:    0.0084694
  band:
  - # 1
    frequency:   -0.2727648415
  - # 2
    frequency:   -0.2582716382
  - # 3
    frequency:    0.0478304437
  - # 4
    frequency:    1.4868046107
  - # 5
    frequency:    1.5118506924
  - # 6
    frequency:    3.3084117509
  - # 7
    frequency:    3.3359468406
  - # 8
    frequency:    4.9809843197
  - # 9
    frequency:    5.9765250767
  - # 10
    frequency:    5.9839158414
  - # 11
    frequency:    7.3454800727
  - # 12
    frequency:    7.3460998336
  - # 13
    frequency:    8.7822387721
  - # 14
    frequency:   10.4415644526
  - # 15
    frequency:   10.4425287964
  - # 16
    frequency:   10.6885824562
  - # 17
    frequency:   11.8930807823
  - # 18
    frequency:   11.9769602896
  - # 19
    frequency:   12.4401630008
  - # 20
    frequency:   20.6768852827
  - # 21
    frequency:   65.1052145669

- q-position: [    0.0303030,    0.0000000,    0.0000000 ]
  distance:    0.0101632
  band:
  - # 1
    frequency:   -0.3163088384
  - # 2
    frequency:   -0.2944408202
  - # 3
    frequency:    0.0689435527
  - # 4
    frequency:    1.5184217598
  - # 5
    frequency:    1.5530284366
  - # 6
    frequency:    3.3148340936
  - # 7
    frequency:    3.3541226180
  - # 8
    frequency:    4.9751247652
  - # 9
    frequency:    5.9792723945
  - # 10
    frequency:    5.9897997560
  - # 11
    frequency:    7.3456739829
  - # 12
    frequency:    7.3466559961
  - # 13
    frequency:    8.7801777886
  - # 14
    frequency:   10.4421112006
  - # 15
    frequency:   10.4436509905
  - # 16
    frequency:   10.6829698742
  - # 17
    frequency:   11.8580563880
  - # 18
    frequency:   11.9765926465
  - # 19
    frequency:   12.4424129332
  - # 20
    frequency:   20.6762449011
  - # 21
    frequency:   65.1043158640

- q-position: [    0.0353535,    0.0000000,    0.0000000 ]
  distance:    0.0118571
  band:
  - # 1
    frequency:   -0.3550308834
  - # 2
    frequency:   -0.3238485816
  - # 3
    frequency:    0.0939528445
  - # 4
    frequency:    1.5534466799
  - # 5
    frequency:    1.5985943659
  - # 6
    frequency:    3.3223832871
  - # 7
    frequency:    3.3752862584
  - # 8
    frequency:    4.9683783132
  - # 9
    frequency:    5.9824737235
  - # 10
    frequency:    5.9966189450
  - # 11
    frequency:    7.3458433452
  - # 12
    frequency:    7.3473207368
  - # 13
    frequency:    8.7777832982
  - # 14
    frequency:   10.4425843927
  - # 15
    frequency:   10.4449415091
  - # 16
    frequency:   10.6763706976
  - # 17
    frequency:   11.8180046928
  - # 18
    frequency:   11.9761496872
  - # 19
    frequency:   12.4439603227
  - # 20
    frequency:   20.6754881478
  - # 21
    frequency:   65.1032566684

- q-position: [    0.0404040,    0.0000000,    0.0000000 ]
  distance:    0.0135510
  band:
  - # 1
    frequency:   -0.3887743404
  - # 2
    frequency:   -0.3462216461
  - # 3
    frequency:    0.1228883544
  - # 4
    frequency:    1.5912071200
  - # 5
    frequency:    1.6477376661
  - # 6
    frequency:    3.3310384366
  - # 7
    frequency:    3.3992880863
  - # 8
    frequency:    4.9608259972
  - # 9
    frequency:    5.9861073987
  - # 10
    frequency:    6.0043087151
  - # 11
    frequency:    7.3459613303
  - # 12
    frequency:    7.3480974261
  - # 13
    frequency:    8.7750749747
  - # 14
    frequency:   10.4428760894
  - # 15
    frequency:   10.4463833666
  - # 16
    frequency:   10.6688116854
  - # 17
    frequency:   11.7733168054
  - # 18
    frequency:   11.9756265864
  - # 19
    frequency:   12.4445425831
  - # 20
    frequency:   20.6746150687
  - # 21
    frequency:   65.1020384239

- q-position: [    0.0454545,    0.0000000,    0.0000000 ]
  distance:    0.0152448
  band:
  - # 1
    frequency:   -0.4174685512
  - # 2
    frequency:   -0.3613519552
  - # 3
    frequency:    0.1557809201
  - # 4
    frequency:    1.6311239824
  - # 5
    frequency:    1.6997867597
  - # 6
    frequency:    3.3407751328
  - # 7
    frequency:    3.4259613455
  - # 8
    frequency:    4.9525557905
  - # 9
    frequency:    5.9901492311
  - # 10
    frequency:    6.0127958120
  - # 11
    frequency:    7.3459992202
  - # 12
    frequency:    7.3489896826
  - # 13
    frequency:    8.7720747544
  - # 14
    frequency:   10.4428410131
  - # 15
    frequency:   10.4479576128
  - # 16
    frequency:   10.6603342340
  - # 17
    frequency:   11.7243544118
  - # 18
    frequency:   11.9750173439
  - # 19
    frequency:   12.4439584236
  - # 20
    frequency:   20.6736257270
  - # 21
    frequency:   65.1006627886

- q-position: [    0.0505051,    0.0000000,    0.0000000 ]
  distance:    0.0169387
  band:
  - # 1
    frequency:   -0.4410888890
  - # 2
    frequency:   -0.3690246930
  - # 3
    frequency:    0.1926548892
  - # 4
    frequency:    1.6727104220
  - # 5
    frequency:    1.7541974453
  - # 6
    frequency:    3.3515653821
  - # 7
    frequency:    3.4551240641
  - # 8
    frequency:    4.9436608970
  - # 9
    frequency:    5.9945728291
  - # 10
    frequency:    6.0219985427
  - # 11
    frequency:    7.3459272474
  - # 12
    frequency:    7.3500012613
  - # 13
    frequency:    8.7688064629
  - # 14
    frequency:   10.4422827675
  - # 15
    frequency:   10.4496435907
  - # 16
    frequency:   10.6510023840
  - # 17
    frequency:   11.6714624816
  - # 18
    frequency:   11.9743146195
  - # 19
    frequency:   12.4420618410
  - # 20
    frequency:   20.6725202070
  - # 21
    frequency:   65.0991316316

- q-position: [    0.0555556,    0.0000000,    0.0000000 ]
  distance:    0.0186326
  band:
  - # 1
    frequency:   -0.4596253333
  - # 2
    frequency:   -0.3689408098
  - # 3
    frequency:    0.2335157167
  - # 4
    frequency:    1.7155635794
  - # 5
    frequency:    1.8105342511
  - # 6
    frequency:    3.3633775618
  - # 7
    frequency:    3.4865808051
  - # 8
    frequency:    4.9342381360
  - # 9
    frequency:    5.9993499463
  - # 10
    frequency:    6.0318267005
  - # 11
    frequency:    7.3457154729
  - # 12
    frequency:    7.3511359320
  - # 13
    frequency:    8.7652953615
  - # 14
    frequency:   10.4409344162
  - # 15
    frequency:   10.4514192141
  - # 16
    frequency:   10.6409146085
  - # 17
    frequency:   11.6149863140
  - # 18
    frequency:   11.9735095596
  - # 19
    frequency:   12.4387538399
  - # 20
    frequency:   20.6712986171
  - # 21
    frequency:   65.0974470295

- q-position: [    0.0606061,    0.0000000,    0.0000000 ]
  distance:    0.0203264
  band:
  - # 1
    frequency:   -0.4730577208
  - # 2
    frequency:   -0.3606085643
  - # 3
    frequency:    0.2783318917
  - # 4
    frequency:    1.7593534628
  - # 5
    frequency:    1.8684507576
  - # 6
    frequency:    3.3761764114
  - # 7
    frequency:    3.5201242267
  - # 8
    frequency:    4.9243864674
  - # 9
    frequency:    6.0044508505
  - # 10
    frequency:    6.0421812761
  - # 11
    frequency:    7.3453346764
  - # 12
    frequency:    7.3523973473
  - # 13
    frequency:    8.7615676010
  - # 14
    frequency:   10.4384323830
  - # 15
    frequency:   10.4532612630
  - # 16
    frequency:   10.6302199050
  - # 17
    frequency:   11.5552912555
  - # 18
    frequency:   11.9725916197
  - # 19
    frequency:   12.4339741008
  - # 20
    frequency:   20.6699610931
  - # 21
    frequency:   65.0956112619

- q-position: [    0.0656566,    0.0000000,    0.0000000 ]
  distance:    0.0220203
  band:
  - # 1
    frequency:   -0.4813348753
  - # 2
    frequency:   -0.3431524634
  - # 3
    frequency:    0.3270127840
  - # 4
    frequency:    1.8038115495
  - # 5
    frequency:    1.9276715869
  - # 6
    frequency:    3.3899230675
  - # 7
    frequency:    3.5555363937
  - # 8
    frequency:    4.9142056892
  - # 9
    frequency:    6.0098447085
  - # 10
    frequency:    6.0529539522
  - # 11
    frequency:    7.3447572325
  - # 12
    frequency:    7.3537889030
  - # 13
    frequency:    8.7576495664
  - # 14
    frequency:   10.4342846854
  - # 15
    frequency:   10.4551456880
  - # 16
    frequency:   10.6191366144
  - # 17
    frequency:   11.4927847126
  - # 18
    frequency:   11.9715483886
  - # 19
    frequency:   12.4276935878
  - # 20
    frequency:   20.6685078004
  - # 21
    frequency:   65.0936268070

- q-position: [    0.0707071,    0.0000000,    0.0000000 ]
  distance:    0.0237142
  band:
  - # 1
    frequency:   -0.4843543847
  - # 2
    frequency:   -0.3149142310
  - # 3
    frequency:    0.3793873742
  - # 4
    frequency:    1.8487203519
  - # 5
    frequency:    1.9879769953
  - # 6
    frequency:    3.4045751510
  - # 7
    frequency:    3.5925897894
  - # 8
    frequency:    4.9037953220
  - # 9
    frequency:    6.0154999798
  - # 10
    frequency:    6.0640263889
  - # 11
    frequency:    7.3439579409
  - # 12
    frequency:    7.3553135923
  - # 13
    frequency:    8.7535670963
  - # 14
    frequency:   10.4278400370
  - # 15
    frequency:   10.4570479215
  - # 16
    frequency:   10.6079669566
  - # 17
    frequency:   11.4279406916
  - # 18
    frequency:   11.9703654188
  - # 19
    frequency:   12.4199083950
  - # 20
    frequency:   20.6669389362
  - # 21
    frequency:   65.0914963372

- q-position: [    0.0757576,    0.0000000,    0.0000000 ]
  distance:    0.0254081
  band:
  - # 1
    frequency:   -0.4819391690
  - # 2
    frequency:   -0.2724419673
  - # 3
    frequency:    0.4351917102
  - # 4
    frequency:    1.8939044055
  - # 5
    frequency:    2.0491901217
  - # 6
    frequency:    3.4200869117
  - # 7
    frequency:    3.6310479954
  - # 8
    frequency:    4.8932536838
  - # 9
    frequency:    6.0213848138
  - # 10
    frequency:    6.0752693211
  - # 11
    frequency:    7.3429147779
  - # 12
    frequency:    7.3569738573
  - # 13
    frequency:    8.7493445532
  - # 14
    frequency:   10.4182741819
  - # 15
    frequency:   10.4589431874
  - # 16
    frequency:   10.5970908815
  - # 17
    frequency:   11.3613270059
  - # 18
    frequency:   11.9690260695
  - # 19
    frequency:   12.4106348038
  - # 20
    frequency:   20.6652547303
  - # 21
    frequency:   65.0892227129

- q-position: [    0.0808081,    0.0000000,    0.0000000 ]
  distance:    0.0271019
  band:
  - # 1
    frequency:   -0.4738054450
  - # 2
    frequency:   -0.2068955783
  - # 3
    frequency:    0.4940723349
  - # 4
    frequency:    1.9392227289
  - # 5
    frequency:    2.1111665693
  - # 6
    frequency:    3.4364094350
  - # 7
    frequency:    3.6706660162
  - # 8
    frequency:    4.8826771423
  - # 9
    frequency:    6.0274674442
  - # 10
    frequency:    6.0865414966
  - # 11
    frequency:    7.3416095259
  - # 12
    frequency:    7.3587714387
  - # 13
    frequency:    8.7450037146
  - # 14
    frequency:   10.4046179609
  - # 15
    frequency:   10.4608068050
  - # 16
    frequency:   10.5869158367
  - # 17
    frequency:   11.2936342985
  - # 18
    frequency:   11.9675113672
  - # 19
    frequency:   12.3999053912
  - # 20
    frequency:   20.6634554459
  - # 21
    frequency:   65.0868089779

- q-position: [    0.0858586,    0.0000000,    0.0000000 ]
  distance:    0.0287958
  band:
  - # 1
    frequency:   -0.4595130107
  - # 2
    frequency:   -0.0686518057
  - # 3
    frequency:    0.5556072957
  - # 4
    frequency:    1.9845626141
  - # 5
    frequency:    2.1737858812
  - # 6
    frequency:    3.4534909130
  - # 7
    frequency:    3.7111902389
  - # 8
    frequency:    4.8721595193
  - # 9
    frequency:    6.0337165740
  - # 10
    frequency:    6.0976884931
  - # 11
    frequency:    7.3400282372
  - # 12
    frequency:    7.3607072272
  - # 13
    frequency:    8.7405624481
  - # 14
    frequency:   10.3858401861
  - # 15
    frequency:   10.4626144808
  - # 16
    frequency:   10.5777728845
  - # 17
    frequency:   11.2257036699
  - # 18
    frequency:   11.9657998901
  - # 19
    frequency:   12.3877659983
  - # 20
    frequency:   20.6615413791
  - # 21
    frequency:   65.0842583527

- q-position: [    0.0909091,    0.0000000,    0.0000000 ]
  distance:    0.0304897
  band:
  - # 1
    frequency:   -0.4383799448
  - # 2
    frequency:    0.2009196224
  - # 3
    frequency:    0.6193385139
  - # 4
    frequency:    2.0298345447
  - # 5
    frequency:    2.2369444708
  - # 6
    frequency:    3.4712769781
  - # 7
    frequency:    3.7523580299
  - # 8
    frequency:    4.8617916022
  - # 9
    frequency:    6.0401017455
  - # 10
    frequency:    6.1085414628
  - # 11
    frequency:    7.3381614761
  - # 12
    frequency:    7.3627811205
  - # 13
    frequency:    8.7360331179
  - # 14
    frequency:   10.3609575176
  - # 15
    frequency:   10.4643425827
  - # 16
    frequency:   10.5697946782
  - # 17
    frequency:   11.1585455255
  - # 18
    frequency:   11.9638676800
  - # 19
    frequency:   12.3742733791
  - # 20
    frequency:   20.6595128576
  - # 21
    frequency:   65.0815742284

- q-position: [    0.0959596,    0.0000000,    0.0000000 ]
  distance:    0.0321835
  band:
  - # 1
    frequency:   -0.4093211174
  - # 2
    frequency:    0.3047324180
  - # 3
    frequency:    0.6848048818
  - # 4
    frequency:    2.0749680331
  - # 5
    frequency:    2.3005496123
  - # 6
    frequency:    3.4897110976
  - # 7
    frequency:    3.7938969863
  - # 8
    frequency:    4.8516606985
  - # 9
    frequency:    6.0465936896
  - # 10
    frequency:    6.1189158670
  - # 11
    frequency:    7.3360042799
  - # 12
    frequency:    7.3649918866
  - # 13
    frequency:    8.7314206528
  - # 14
    frequency:   10.3291141045
  - # 15
    frequency:   10.4659683909
  - # 16
    frequency:   10.5628458784
  - # 17
    frequency:   11.0933366173
  - # 18
    frequency:   11.9616881894
  - # 19
    frequency:   12.3594933757
  - # 20
    frequency:   20.6573702389
  - # 21
    frequency:   65.0787601603

- q-position: [    0.1010101,    0.0000000,    0.0000000 ]
  distance:    0.0338774
  band:
  - # 1
    frequency:   -0.3705031172
  - # 2
    frequency:    0.3914978123
  - # 3
    frequency:    0.7515672009
  - # 4
    frequency:    2.1199081922
  - # 5
    frequency:    2.3645141487
  - # 6
    frequency:    3.5087350240
  - # 7
    frequency:    3.8355238801
  - # 8
    frequency:    4.8418501357
  - # 9
    frequency:    6.0531646491
  - # 10
    frequency:    6.1286102812
  - # 11
    frequency:    7.3335557725
  - # 12
    frequency:    7.3673370376
  - # 13
    frequency:    8.7267201797
  - # 14
    frequency:   10.2896124562
  - # 15
    frequency:   10.4674703217
  - # 16
    frequency:   10.5565420447
  - # 17
    frequency:   11.0313781038
  - # 18
    frequency:   11.9592322643
  - # 19
    frequency:   12.3434994930
  - # 20
    frequency:   20.6551139072
  - # 21
    frequency:   65.0758198608

- q-position: [    0.1060606,    0.0000000,    0.0000000 ]
  distance:    0.0355713
  band:
  - # 1
    frequency:   -0.3184657829
  - # 2
    frequency:    0.4713260899
  - # 3
    frequency:    0.8192214886
  - # 4
    frequency:    2.1646128844
  - # 5
    frequency:    2.4287516196
  - # 6
    frequency:    3.5282892926
  - # 7
    frequency:    3.8769433605
  - # 8
    frequency:    4.8324385690
  - # 9
    frequency:    6.0597886696
  - # 10
    frequency:    6.1374053786
  - # 11
    frequency:    7.3308183626
  - # 12
    frequency:    7.3698127176
  - # 13
    frequency:    8.7219140915
  - # 14
    frequency:   10.2419431301
  - # 15
    frequency:   10.4688281186
  - # 16
    frequency:   10.5503228298
  - # 17
    frequency:   10.9740015586
  - # 18
    frequency:   11.9564681700
  - # 19
    frequency:   12.3263717747
  - # 20
    frequency:   20.6527442710
  - # 21
    frequency:   65.0727571924

- q-position: [    0.1111111,    0.0000000,    0.0000000 ]
  distance:    0.0372652
  band:
  - # 1
    frequency:   -0.2451076170
  - # 2
    frequency:    0.5477835474
  - # 3
    frequency:    0.8874019879
  - # 4
    frequency:    2.2090503262
  - # 5
    frequency:    2.4931715408
  - # 6
    frequency:    3.5483137605
  - # 7
    frequency:    3.9178465215
  - # 8
    frequency:    4.8234989024
  - # 9
    frequency:    6.0664418568
  - # 10
    frequency:    6.1450632357
  - # 11
    frequency:    7.3277964658
  - # 12
    frequency:    7.3724136052
  - # 13
    frequency:    8.7169683705
  - # 14
    frequency:   10.1858598041
  - # 15
    frequency:   10.4700230087
  - # 16
    frequency:   10.5435275313
  - # 17
    frequency:   10.9224286625
  - # 18
    frequency:   11.9533616608
  - # 19
    frequency:   12.3081958980
  - # 20
    frequency:   20.6502617584
  - # 21
    frequency:   65.0695761601

- q-position: [    0.1161616,    0.0000000,    0.0000000 ]
  distance:    0.0389590
  band:
  - # 1
    frequency:   -0.1156049257
  - # 2
    frequency:    0.6225673807
  - # 3
    frequency:    0.9557773351
  - # 4
    frequency:    2.2531970488
  - # 5
    frequency:    2.5576745837
  - # 6
    frequency:    3.5687481745
  - # 7
    frequency:    3.9579094979
  - # 8
    frequency:    4.8150965553
  - # 9
    frequency:    6.0731025926
  - # 10
    frequency:    6.1513271614
  - # 11
    frequency:    7.3244947081
  - # 12
    frequency:    7.3751328344
  - # 13
    frequency:    8.7118279276
  - # 14
    frequency:   10.1214815816
  - # 15
    frequency:   10.4710378199
  - # 16
    frequency:   10.5354586959
  - # 17
    frequency:   10.8776174211
  - # 18
    frequency:   11.9498760960
  - # 19
    frequency:   12.2890624280
  - # 20
    frequency:   20.6476668138
  - # 21
    frequency:   65.0662809039

- q-position: [    0.1212121,    0.0000000,    0.0000000 ]
  distance:    0.0406529
  band:
  - # 1
    frequency:    0.1963982366
  - # 2
    frequency:    0.6966020344
  - # 3
    frequency:    1.0240432236
  - # 4
    frequency:    2.2970361429
  - # 5
    frequency:    2.6221473907
  - # 6
    frequency:    3.5895327597
  - # 7
    frequency:    3.9967923230
  - # 8
    frequency:    4.8072867225
  - # 9
    frequency:    6.0797517101
  - # 10
    frequency:    6.1559223257
  - # 11
    frequency:    7.3209156041
  - # 12
    frequency:    7.3779619360
  - # 13
    frequency:    8.7064106502
  - # 14
    frequency:   10.0493582310
  - # 15
    frequency:   10.4718570586
  - # 16
    frequency:   10.5254545792
  - # 17
    frequency:   10.8401387878
  - # 18
    frequency:   11.9459726035
  - # 19
    frequency:   12.2690661783
  - # 20
    frequency:   20.6449598933
  - # 21
    frequency:   65.0628756909

- q-position: [    0.1262626,    0.0000000,    0.0000000 ]
  distance:    0.0423468
  band:
  - # 1
    frequency:    0.3091295322
  - # 2
    frequency:    0.7704234159
  - # 3
    frequency:    1.0919138321
  - # 4
    frequency:    2.3405557297
  - # 5
    frequency:    2.6864567323
  - # 6
    frequency:    3.6106088172
  - # 7
    frequency:    4.0341383651
  - # 8
    frequency:    4.8001101905
  - # 9
    frequency:    6.0863726239
  - # 10
    frequency:    6.1585575793
  - # 11
    frequency:    7.3170567688
  - # 12
    frequency:    7.3808907989
  - # 13
    frequency:    8.7005997862
  - # 14
    frequency:    9.9704538000
  - # 15
    frequency:   10.4724669457
  - # 16
    frequency:   10.5129898426
  - # 17
    frequency:   10.8101092159
  - # 18
    frequency:   11.9416102925
  - # 19
    frequency:   12.2483056419
  - # 20
    frequency:   20.6421414610
  - # 21
    frequency:   65.0593649071

- q-position: [    0.1313131,    0.0000000,    0.0000000 ]
  distance:    0.0440406
  band:
  - # 1
    frequency:    0.3967469352
  - # 2
    frequency:    0.8443460095
  - # 3
    frequency:    1.1591131816
  - # 4
    frequency:    2.3837476168
  - # 5
    frequency:    2.7504426402
  - # 6
    frequency:    3.6319193205
  - # 7
    frequency:    4.0695747278
  - # 8
    frequency:    4.7935872265
  - # 9
    frequency:    6.0929514147
  - # 10
    frequency:    6.1589290175
  - # 11
    frequency:    7.3129078202
  - # 12
    frequency:    7.3839076554
  - # 13
    frequency:    8.6942342802
  - # 14
    frequency:    9.8860620917
  - # 15
    frequency:   10.4728554106
  - # 16
    frequency:   10.4977843995
  - # 17
    frequency:   10.7871859200
  - # 18
    frequency:   11.9367465125
  - # 19
    frequency:   12.2268824574
  - # 20
    frequency:   20.6392119849
  - # 21
    frequency:   65.0557530496

- q-position: [    0.1363636,    0.0000000,    0.0000000 ]
  distance:    0.0457345
  band:
  - # 1
    frequency:    0.4731800884
  - # 2
    frequency:    0.9185460054
  - # 3
    frequency:    1.2253667957
  - # 4
    frequency:    2.4266061086
  - # 5
    frequency:    2.8139100324
  - # 6
    frequency:    3.6534095024
  - # 7
    frequency:    4.1027140190
  - # 8
    frequency:    4.7877091204
  - # 9
    frequency:    6.0994768679
  - # 10
    frequency:    6.1567260630
  - # 11
    frequency:    7.3084472644
  - # 12
    frequency:    7.3869990873
  - # 13
    frequency:    8.6870968242
  - # 14
    frequency:    9.7977046772
  - # 15
    frequency:   10.4730120439
  - # 16
    frequency:   10.4798569319
  - # 17
    frequency:   10.7706374237
  - # 18
    frequency:   11.9313371599
  - # 19
    frequency:   12.2049008889
  - # 20
    frequency:   20.6361719341
  - # 21
    frequency:   65.0520447179

- q-position: [    0.1414141,    0.0000000,    0.0000000 ]
  distance:    0.0474284
  band:
  - # 1
    frequency:    0.5429570759
  - # 2
    frequency:    0.9931059504
  - # 3
    frequency:    1.2903935961
  - # 4
    frequency:    2.4691269464
  - # 5
    frequency:    2.8766181521
  - # 6
    frequency:    3.6750274215
  - # 7
    frequency:    4.1331578043
  - # 8
    frequency:    4.7824272390
  - # 9
    frequency:    6.1059404675
  - # 10
    frequency:    6.1516411476
  - # 11
    frequency:    7.3036398380
  - # 12
    frequency:    7.3901500550
  - # 13
    frequency:    8.6788999373
  - # 14
    frequency:    9.7070545482
  - # 15
    frequency:   10.4594751873
  - # 16
    frequency:   10.4729280092
  - # 17
    frequency:   10.7594929996
  - # 18
    frequency:   11.9253370284
  - # 19
    frequency:   12.1824672963
  - # 20
    frequency:   20.6330217756
  - # 21
    frequency:   65.0482446053

- q-position: [    0.1464646,    0.0000000,    0.0000000 ]
  distance:    0.0491222
  band:
  - # 1
    frequency:    0.6081677435
  - # 2
    frequency:    1.0680388209
  - # 3
    frequency:    1.3538978140
  - # 4
    frequency:    2.5113063633
  - # 5
    frequency:    2.9382668407
  - # 6
    frequency:    3.6967245022
  - # 7
    frequency:    4.1605018015
  - # 8
    frequency:    4.7776401247
  - # 9
    frequency:    6.1123363452
  - # 10
    frequency:    6.1433844292
  - # 11
    frequency:    7.2984349809
  - # 12
    frequency:    7.3933439478
  - # 13
    frequency:    8.6692718373
  - # 14
    frequency:    9.6158984203
  - # 15
    frequency:   10.4370322635
  - # 16
    frequency:   10.4725959163
  - # 17
    frequency:   10.7527256167
  - # 18
    frequency:   11.9187002017
  - # 19
    frequency:   12.1596895821
  - # 20
    frequency:   20.6297619733
  - # 21
    frequency:   65.0443574908

- q-position: [    0.1515152,    0.0000000,    0.0000000 ]
  distance:    0.0508161
  band:
  - # 1
    frequency:    0.6699494776
  - # 2
    frequency:    1.1432986182
  - # 3
    frequency:    1.4155608945
  - # 4
    frequency:    2.5531402414
  - # 5
    frequency:    2.9984781992
  - # 6
    frequency:    3.7184560404
  - # 7
    frequency:    4.1843424695
  - # 8
    frequency:    4.7731803724
  - # 9
    frequency:    6.1186611889
  - # 10
    frequency:    6.1317053331
  - # 11
    frequency:    7.2927673183
  - # 12
    frequency:    7.3965626539
  - # 13
    frequency:    8.6577470803
  - # 14
    frequency:    9.5261251491
  - # 15
    frequency:   10.4129258492
  - # 16
    frequency:   10.4720096565
  - # 17
    frequency:   10.7493969097
  - # 18
    frequency:   11.9113804855
  - # 19
    frequency:   12.1366766018
  - # 20
    frequency:   20.6263929868
  - # 21