nqpoint: 300    
npath: 3      
segment_nqpoint:
- 100
- 100
- 100
labels:
- [ 'G', 'M' ]
- [ 'M', 'K' ]
- [ 'K', 'G' ]
reciprocal_lattice:
- [   0.29449095,   0.17002443,   0.00000000 ] # a*
- [   0.00000000,   0.34004885,   0.00000000 ] # b*
- [   0.00000000,   0.00000000,   0.04024199 ] # c*
natom: 6      
lattice:
- [     3.395690125626860,     0.000000000000000,     0.000000000000000 ] # a
- [    -1.697845062813430,     2.940753912172028,     0.000000000000000 ] # b
- [     0.000000000000000,     0.000000000000000,    24.849663214421128 ] # c
points:
- symbol: Br # 1
  coordinates: [  0.666666984744048,  0.333332985985145,  0.362177946732774 ]
  mass: 79.904000
- symbol: C # 2
  coordinates: [  0.333332985432215,  0.666666983183674,  0.589187384118054 ]
  mass: 12.010700
- symbol: Hf # 3
  coordinates: [  0.333332985432215,  0.666666983183674,  0.440843601723483 ]
  mass: 178.490000
- symbol: Hf # 4
  coordinates: [  0.666666984744048,  0.333332985985145,  0.531318126338111 ]
  mass: 178.490000
- symbol: N # 5
  coordinates: [  0.000000000000000,  0.000000000000000,  0.485588955810392 ]
  mass: 14.006700
- symbol: N # 6
  coordinates: [  0.333332985432215,  0.666666983183674,  0.637822053267226 ]
  mass: 14.006700

phonon:
- q-position: [    0.0000000,    0.0000000,    0.0000000 ]
  distance:    0.0000000
  band:
  - # 1
    frequency:   -2.1906806717
  - # 2
    frequency:   -2.1906806717
  - # 3
    frequency:   -0.0000039909
  - # 4
    frequency:   -0.0000002356
  - # 5
    frequency:    0.0000029767
  - # 6
    frequency:    2.6749049496
  - # 7
    frequency:    2.6749049496
  - # 8
    frequency:    4.1074494549
  - # 9
    frequency:    4.1074494549
  - # 10
    frequency:    4.2101164028
  - # 11
    frequency:    6.5128028416
  - # 12
    frequency:    7.1347124560
  - # 13
    frequency:    7.1347124560
  - # 14
    frequency:    8.6087514618
  - # 15
    frequency:   13.7604314695
  - # 16
    frequency:   15.6789091185
  - # 17
    frequency:   15.6789091185
  - # 18
    frequency:   59.1809069780

- q-position: [    0.0050505,    0.0000000,    0.0000000 ]
  distance:    0.0017174
  band:
  - # 1
    frequency:   -2.1903897324
  - # 2
    frequency:   -2.1902947222
  - # 3
    frequency:    0.0011711742
  - # 4
    frequency:    0.0303410998
  - # 5
    frequency:    0.0678389257
  - # 6
    frequency:    2.6753356174
  - # 7
    frequency:    2.6756722072
  - # 8
    frequency:    4.1068299794
  - # 9
    frequency:    4.1073144818
  - # 10
    frequency:    4.2107629665
  - # 11
    frequency:    6.5122156843
  - # 12
    frequency:    7.1344180597
  - # 13
    frequency:    7.1349630225
  - # 14
    frequency:    8.6087076934
  - # 15
    frequency:   13.7600416358
  - # 16
    frequency:   15.6787105810
  - # 17
    frequency:   15.6791453443
  - # 18
    frequency:   59.1807518114

- q-position: [    0.0101010,    0.0000000,    0.0000000 ]
  distance:    0.0034348
  band:
  - # 1
    frequency:   -2.1895199300
  - # 2
    frequency:   -2.1891486764
  - # 3
    frequency:    0.0046753965
  - # 4
    frequency:    0.0608341280
  - # 5
    frequency:    0.1358028081
  - # 6
    frequency:    2.6766190155
  - # 7
    frequency:    2.6779679948
  - # 8
    frequency:    4.1050041258
  - # 9
    frequency:    4.1069095802
  - # 10
    frequency:    4.2126757743
  - # 11
    frequency:    6.5104560546
  - # 12
    frequency:    7.1335348353
  - # 13
    frequency:    7.1357128974
  - # 14
    frequency:    8.6085752821
  - # 15
    frequency:   13.7588735308
  - # 16
    frequency:   15.6781141353
  - # 17
    frequency:   15.6798519993
  - # 18
    frequency:   59.1802865789

- q-position: [    0.0151515,    0.0000000,    0.0000000 ]
  distance:    0.0051523
  band:
  - # 1
    frequency:   -2.1880802970
  - # 2
    frequency:   -2.1872776257
  - # 3
    frequency:    0.0104852767
  - # 4
    frequency:    0.0916273264
  - # 5
    frequency:    0.2040119308
  - # 6
    frequency:    2.6787297642
  - # 7
    frequency:    2.6817744844
  - # 8
    frequency:    4.1020599903
  - # 9
    frequency:    4.1062348143
  - # 10
    frequency:    4.2157836196
  - # 11
    frequency:    6.5075294221
  - # 12
    frequency:    7.1320626828
  - # 13
    frequency:    7.1369566893
  - # 14
    frequency:    8.6083509284
  - # 15
    frequency:   13.7569313140
  - # 16
    frequency:   15.6771172927
  - # 17
    frequency:   15.6810230213
  - # 18
    frequency:   59.1795120823

- q-position: [    0.0202020,    0.0000000,    0.0000000 ]
  distance:    0.0068697
  band:
  - # 1
    frequency:   -2.1860858385
  - # 2
    frequency:   -2.1847389954
  - # 3
    frequency:    0.0185564838
  - # 4
    frequency:    0.1228617642
  - # 5
    frequency:    0.2725773262
  - # 6
    frequency:    2.6816269960
  - # 7
    frequency:    2.6870623820
  - # 8
    frequency:    4.0981184211
  - # 9
    frequency:    4.1052903251
  - # 10
    frequency:    4.2199932126
  - # 11
    frequency:    6.5034447137
  - # 12
    frequency:    7.1300014542
  - # 13
    frequency:    7.1386856792
  - # 14
    frequency:    8.6080291958
  - # 15
    frequency:   13.7542218253
  - # 16
    frequency:   15.6757159453
  - # 17
    frequency:   15.6826483236
  - # 18
    frequency:   59.1784296541

- q-position: [    0.0252525,    0.0000000,    0.0000000 ]
  distance:    0.0085871
  band:
  - # 1
    frequency:   -2.1835574571
  - # 2
    frequency:   -2.1816109503
  - # 3
    frequency:    0.0288296722
  - # 4
    frequency:    0.1546682292
  - # 5
    frequency:    0.3415963982
  - # 6
    frequency:    2.6852564131
  - # 7
    frequency:    2.6937915347
  - # 8
    frequency:    4.0933093672
  - # 9
    frequency:    4.1040763820
  - # 10
    frequency:    4.2252119636
  - # 11
    frequency:    6.4982140505
  - # 12
    frequency:    7.1273509817
  - # 13
    frequency:    7.1408882004
  - # 14
    frequency:    8.6076026036
  - # 15
    frequency:   13.7507544459
  - # 16
    frequency:   15.6739044237
  - # 17
    frequency:   15.6847138211
  - # 18
    frequency:   59.1770411521

- q-position: [    0.0303030,    0.0000000,    0.0000000 ]
  distance:    0.0103045
  band:
  - # 1
    frequency:   -2.1805218429
  - # 2
    frequency:   -2.1779901642
  - # 3
    frequency:    0.0412329919
  - # 4
    frequency:    0.1871646367
  - # 5
    frequency:    0.4111488706
  - # 6
    frequency:    2.6895530014
  - # 7
    frequency:    2.7019117380
  - # 8
    frequency:    4.0877557826
  - # 9
    frequency:    4.1025934529
  - # 10
    frequency:    4.2313629023
  - # 11
    frequency:    6.4918524149
  - # 12
    frequency:    7.1241111167
  - # 13
    frequency:    7.1435501341
  - # 14
    frequency:    8.6070617559
  - # 15
    frequency:   13.7465409092
  - # 16
    frequency:   15.6716755786
  - # 17
    frequency:   15.6872014665
  - # 18
    frequency:   59.1753489520

- q-position: [    0.0353535,    0.0000000,    0.0000000 ]
  distance:    0.0120219
  band:
  - # 1
    frequency:   -2.1770113262
  - # 2
    frequency:   -2.1739889769
  - # 3
    frequency:    0.0556850440
  - # 4
    frequency:    0.2204540409
  - # 5
    frequency:    0.4812932053
  - # 6
    frequency:    2.6944442419
  - # 7
    frequency:    2.7113637056
  - # 8
    frequency:    4.0815664816
  - # 9
    frequency:    4.1008422935
  - # 10
    frequency:    4.2383903774
  - # 11
    frequency:    6.4843772779
  - # 12
    frequency:    7.1202817791
  - # 13
    frequency:    7.1466554884
  - # 14
    frequency:    8.6063955032
  - # 15
    frequency:   13.7415950610
  - # 16
    frequency:   15.6690208823
  - # 17
    frequency:   15.6900892966
  - # 18
    frequency:   59.1733559380

- q-position: [    0.0404040,    0.0000000,    0.0000000 ]
  distance:    0.0137393
  band:
  - # 1
    frequency:   -2.1730636879
  - # 2
    frequency:   -2.1697319951
  - # 3
    frequency:    0.0720981047
  - # 4
    frequency:    0.2546232837
  - # 5
    frequency:    0.5520636520
  - # 6
    frequency:    2.6998536442
  - # 7
    frequency:    2.7220801590
  - # 8
    frequency:    4.0748352986
  - # 9
    frequency:    4.0988240528
  - # 10
    frequency:    4.2462592353
  - # 11
    frequency:    6.4758082159
  - # 12
    frequency:    7.1158630171
  - # 13
    frequency:    7.1501870284
  - # 14
    frequency:    8.6055911369
  - # 15
    frequency:   13.7359325760
  - # 16
    frequency:   15.6659305518
  - # 17
    frequency:   15.6933514899
  - # 18
    frequency:   59.1710654911

- q-position: [    0.0454545,    0.0000000,    0.0000000 ]
  distance:    0.0154568
  band:
  - # 1
    frequency:   -2.1687219232
  - # 2
    frequency:   -2.1653522385
  - # 3
    frequency:    0.0903814404
  - # 4
    frequency:    0.2897422632
  - # 5
    frequency:    0.6234680879
  - # 6
    frequency:    2.7057044061
  - # 7
    frequency:    2.7339869920
  - # 8
    frequency:    4.0676433869
  - # 9
    frequency:    4.0965403952
  - # 10
    frequency:    4.2549507087
  - # 11
    frequency:    6.4661665483
  - # 12
    frequency:    7.1108550761
  - # 13
    frequency:    7.1541269276
  - # 14
    frequency:    8.6046346123
  - # 15
    frequency:   13.7295706337
  - # 16
    frequency:   15.6623936902
  - # 17
    frequency:   15.6969584336
  - # 18
    frequency:   59.1684814764

- q-position: [    0.0505051,    0.0000000,    0.0000000 ]
  distance:    0.0171742
  band:
  - # 1
    frequency:   -2.1640339538
  - # 2
    frequency:   -2.1609869797
  - # 3
    frequency:    0.1104445350
  - # 4
    frequency:    0.3258637676
  - # 5
    frequency:    0.6954867890
  - # 6
    frequency:    2.7119230060
  - # 7
    frequency:    2.7470044661
  - # 8
    frequency:    4.0600624806
  - # 9
    frequency:    4.0939936353
  - # 10
    frequency:    4.2644572652
  - # 11
    frequency:    6.4554750142
  - # 12
    frequency:    7.1052584766
  - # 13
    frequency:    7.1584574113
  - # 14
    frequency:    8.6035107968
  - # 15
    frequency:   13.7225275605
  - # 16
    frequency:   15.6583984447
  - # 17
    frequency:   15.7008768023
  - # 18
    frequency:   59.1656082276

- q-position: [    0.0555556,    0.0000000,    0.0000000 ]
  distance:    0.0188916
  band:
  - # 1
    frequency:   -2.1590522860
  - # 2
    frequency:   -2.1567734731
  - # 3
    frequency:    0.1322000680
  - # 4
    frequency:    0.3630237918
  - # 5
    frequency:    0.7680722264
  - # 6
    frequency:    2.7184425379
  - # 7
    frequency:    2.7610483975
  - # 8
    frequency:    4.0521580194
  - # 9
    frequency:    4.0911868860
  - # 10
    frequency:    4.2747776022
  - # 11
    frequency:    6.4437575091
  - # 12
    frequency:    7.0990741010
  - # 13
    frequency:    7.1631613730
  - # 14
    frequency:    8.6022037410
  - # 15
    frequency:   13.7148224430
  - # 16
    frequency:   15.6539321819
  - # 17
    frequency:   15.7050696468
  - # 18
    frequency:   59.1624505313

- q-position: [    0.0606061,    0.0000000,    0.0000000 ]
  distance:    0.0206090
  band:
  - # 1
    frequency:   -2.1538336103
  - # 2
    frequency:   -2.1528447968
  - # 3
    frequency:    0.1555665015
  - # 4
    frequency:    0.4012422422
  - # 5
    frequency:    0.8411499161
  - # 6
    frequency:    2.7252056199
  - # 7
    frequency:    2.7760313020
  - # 8
    frequency:    4.0439917299
  - # 9
    frequency:    4.0881242151
  - # 10
    frequency:    4.2859122812
  - # 11
    frequency:    6.4310388873
  - # 12
    frequency:    7.0923032879
  - # 13
    frequency:    7.1682229468
  - # 14
    frequency:    8.6006969670
  - # 15
    frequency:   13.7064747198
  - # 16
    frequency:   15.6489816755
  - # 17
    frequency:   15.7094964937
  - # 18
    frequency:   59.1590136090

- q-position: [    0.0656566,    0.0000000,    0.0000000 ]
  distance:    0.0223264
  band:
  - # 1
    frequency:   -2.1493260354
  - # 2
    frequency:   -2.1484383443
  - # 3
    frequency:    0.1804701631
  - # 4
    frequency:    0.4405239322
  - # 5
    frequency:    0.9146202666
  - # 6
    frequency:    2.7321667290
  - # 7
    frequency:    2.7918634679
  - # 8
    frequency:    4.0356236088
  - # 9
    frequency:    4.0848108100
  - # 10
    frequency:    4.2978601425
  - # 11
    frequency:    6.4173448338
  - # 12
    frequency:    7.0849479335
  - # 13
    frequency:    7.1736280260
  - # 14
    frequency:    8.5989737702
  - # 15
    frequency:   13.6975037605
  - # 16
    frequency:   15.6435333065
  - # 17
    frequency:   15.7141134562
  - # 18
    frequency:   59.1553030984

- q-position: [    0.0707071,    0.0000000,    0.0000000 ]
  distance:    0.0240439
  band:
  - # 1
    frequency:   -2.1463310088
  - # 2
    frequency:   -2.1429301174
  - # 3
    frequency:    0.2068467389
  - # 4
    frequency:    0.4808597809
  - # 5
    frequency:    0.9883612861
  - # 6
    frequency:    2.7392938501
  - # 7
    frequency:    2.8084539384
  - # 8
    frequency:    4.0271133962
  - # 9
    frequency:    4.0812531471
  - # 10
    frequency:    4.3106154930
  - # 11
    frequency:    6.4027018022
  - # 12
    frequency:    7.0770106007
  - # 13
    frequency:    7.1793647227
  - # 14
    frequency:    8.5970175298
  - # 15
    frequency:   13.6879284366
  - # 16
    frequency:   15.6375732744
  - # 17
    frequency:   15.7188733553
  - # 18
    frequency:   59.1513250338

- q-position: [    0.0757576,    0.0000000,    0.0000000 ]
  distance:    0.0257613
  band:
  - # 1
    frequency:   -2.1439596962
  - # 2
    frequency:   -2.1373752046
  - # 3
    frequency:    0.2346421277
  - # 4
    frequency:    0.5222281355
  - # 5
    frequency:    1.0622319420
  - # 6
    frequency:    2.7465693620
  - # 7
    frequency:    2.8257113897
  - # 8
    frequency:    4.0185216582
  - # 9
    frequency:    4.0774591645
  - # 10
    frequency:    4.3241660108
  - # 11
    frequency:    6.3871370113
  - # 12
    frequency:    7.0684946331
  - # 13
    frequency:    7.1854237657
  - # 14
    frequency:    8.5948120213
  - # 15
    frequency:   13.6777666957
  - # 16
    frequency:   15.6310878159
  - # 17
    frequency:   15.7237258527
  - # 18
    frequency:   59.1470858251

- q-position: [    0.0808081,    0.0000000,    0.0000000 ]
  distance:    0.0274787
  band:
  - # 1
    frequency:   -2.1422964359
  - # 2
    frequency:   -2.1318419139
  - # 3
    frequency:    0.2638126352
  - # 4
    frequency:    0.5645961567
  - # 5
    frequency:    1.1360759183
  - # 6
    frequency:    2.7539901274
  - # 7
    frequency:    2.8435448949
  - # 8
    frequency:    4.0099105944
  - # 9
    frequency:    4.0734384331
  - # 10
    frequency:    4.3384912994
  - # 11
    frequency:    6.3706784899
  - # 12
    frequency:    7.0594042763
  - # 13
    frequency:    7.1917988351
  - # 14
    frequency:    8.5923417278
  - # 15
    frequency:   13.6670351451
  - # 16
    frequency:   15.6240634299
  - # 17
    frequency:   15.7286175941
  - # 18
    frequency:   59.1425922372

- q-position: [    0.0858586,    0.0000000,    0.0000000 ]
  distance:    0.0291961
  band:
  - # 1
    frequency:   -2.1414088968
  - # 2
    frequency:   -2.1263999395
  - # 3
    frequency:    0.2943245248
  - # 4
    frequency:    0.6079212200
  - # 5
    frequency:    1.2097255095
  - # 6
    frequency:    2.7615667928
  - # 7
    frequency:    2.8618645744
  - # 8
    frequency:    4.0013446545
  - # 9
    frequency:    4.0692023264
  - # 10
    frequency:    4.3535620259
  - # 11
    frequency:    6.3533551585
  - # 12
    frequency:    7.0497448037
  - # 13
    frequency:    7.1984868340
  - # 14
    frequency:    8.5895921423
  - # 15
    frequency:   13.6557486530
  - # 16
    frequency:   15.6164871077
  - # 17
    frequency:   15.7334923640
  - # 18
    frequency:   59.1378513677

- q-position: [    0.0909091,    0.0000000,    0.0000000 ]
  distance:    0.0309135
  band:
  - # 1
    frequency:   -2.1413477497
  - # 2
    frequency:   -2.1211196927
  - # 3
    frequency:    0.3261529721
  - # 4
    frequency:    0.6521522968
  - # 5
    frequency:    1.2830054100
  - # 6
    frequency:    2.7693223493
  - # 7
    frequency:    2.8805821336
  - # 8
    frequency:    3.9928910267
  - # 9
    frequency:    4.0647641830
  - # 10
    frequency:    4.3693395806
  - # 11
    frequency:    6.3351969367
  - # 12
    frequency:    7.0395226476
  - # 13
    frequency:    7.2054880965
  - # 14
    frequency:    8.5865500574
  - # 15
    frequency:   13.6439199771
  - # 16
    frequency:   15.6083465641
  - # 17
    frequency:   15.7382912517
  - # 18
    frequency:   59.1328706259

- q-position: [    0.0959596,    0.0000000,    0.0000000 ]
  distance:    0.0326310
  band:
  - # 1
    frequency:   -2.1421469116
  - # 2
    frequency:   -2.1160716255
  - # 3
    frequency:    0.3592805024
  - # 4
    frequency:    0.6972312925
  - # 5
    frequency:    1.3557362106
  - # 6
    frequency:    2.7772900358
  - # 7
    frequency:    2.8996112936
  - # 8
    frequency:    3.9846200342
  - # 9
    frequency:    4.0601394615
  - # 10
    frequency:    4.3857761928
  - # 11
    frequency:    6.3162348638
  - # 12
    frequency:    7.0287455356
  - # 13
    frequency:    7.2128065307
  - # 14
    frequency:    8.5832038357
  - # 15
    frequency:   13.6315594264
  - # 16
    frequency:   15.5996304700
  - # 17
    frequency:   15.7429528285
  - # 18
    frequency:   59.1276577101

- q-position: [    0.1010101,    0.0000000,    0.0000000 ]
  distance:    0.0343484
  band:
  - # 1
    frequency:   -2.1438242098
  - # 2
    frequency:   -2.1113255643
  - # 3
    frequency:    0.3936950184
  - # 4
    frequency:    0.7430943242
  - # 5
    frequency:    1.4277374801
  - # 6
    frequency:    2.7855107002
  - # 7
    frequency:    2.9188681232
  - # 8
    frequency:    3.9766054552
  - # 9
    frequency:    4.0553458828
  - # 10
    frequency:    4.4028154360
  - # 11
    frequency:    6.2965012241
  - # 12
    frequency:    7.0174226309
  - # 13
    frequency:    7.2204496950
  - # 14
    frequency:    8.5795436570
  - # 15
    frequency:   13.6186745648
  - # 16
    frequency:   15.5903286811
  - # 17
    frequency:   15.7474133358
  - # 18
    frequency:   59.1222205861

- q-position: [    0.1060606,    0.0000000,    0.0000000 ]
  distance:    0.0360658
  band:
  - # 1
    frequency:   -2.1463823150
  - # 2
    frequency:   -2.1069500690
  - # 3
    frequency:    0.4293875497
  - # 4
    frequency:    0.7896729265
  - # 5
    frequency:    1.4988303812
  - # 6
    frequency:    2.7940297503
  - # 7
    frequency:    2.9382712820
  - # 8
    frequency:    3.9689247685
  - # 9
    frequency:    4.0504035577
  - # 10
    frequency:    4.4203930550
  - # 11
    frequency:    6.2760296688
  - # 12
    frequency:    7.0055646768
  - # 13
    frequency:    7.2284288028
  - # 14
    frequency:    8.5755617375
  - # 15
    frequency:   13.6052699635
  - # 16
    frequency:   15.5804324629
  - # 17
    frequency:   15.7516068846
  - # 18
    frequency:   59.1165674656

- q-position: [    0.1111111,    0.0000000,    0.0000000 ]
  distance:    0.0377832
  band:
  - # 1
    frequency:   -2.1498098095
  - # 2
    frequency:   -2.1030118347
  - # 3
    frequency:    0.4663498697
  - # 4
    frequency:    0.8368951755
  - # 5
    frequency:    1.5688398349
  - # 6
    frequency:    2.8028938371
  - # 7
    frequency:    2.9577421859
  - # 8
    frequency:    3.9616593115
  - # 9
    frequency:    4.0453350959
  - # 10
    frequency:    4.4384380449
  - # 11
    frequency:    6.2548553258
  - # 12
    frequency:    6.9931841462
  - # 13
    frequency:    7.2367586540
  - # 14
    frequency:    8.5712525183
  - # 15
    frequency:   13.5913470079
  - # 16
    frequency:   15.5699347067
  - # 17
    frequency:   15.7554656657
  - # 18
    frequency:   59.1107067848

- q-position: [    0.1161616,    0.0000000,    0.0000000 ]
  distance:    0.0395006
  band:
  - # 1
    frequency:   -2.1540822988
  - # 2
    frequency:   -2.0995751487
  - # 3
    frequency:    0.5045721335
  - # 4
    frequency:    0.8846867225
  - # 5
    frequency:    1.6375962996
  - # 6
    frequency:    2.8121474145
  - # 7
    frequency:    2.9772051066
  - # 8
    frequency:    3.9548943309
  - # 9
    frequency:    4.0401656930
  - # 10
    frequency:    4.4568739187
  - # 11
    frequency:    6.2330148942
  - # 12
    frequency:    6.9802953926
  - # 13
    frequency:    7.2454574876
  - # 14
    frequency:    8.5666128183
  - # 15
    frequency:   13.5769037650
  - # 16
    frequency:   15.5588301364
  - # 17
    frequency:   15.7589201717
  - # 18
    frequency:   59.1046471833

- q-position: [    0.1212121,    0.0000000,    0.0000000 ]
  distance:    0.0412180
  band:
  - # 1
    frequency:   -2.1591635093
  - # 2
    frequency:   -2.0967014153
  - # 3
    frequency:    0.5440406827
  - # 4
    frequency:    0.9329717295
  - # 5
    frequency:    1.7049372639
  - # 6
    frequency:    2.8218293081
  - # 7
    frequency:    2.9965872160
  - # 8
    frequency:    3.9487188938
  - # 9
    frequency:    4.0349231920
  - # 10
    frequency:    4.4756201007
  - # 11
    frequency:    6.2105467191
  - # 12
    frequency:    6.9669148062
  - # 13
    frequency:    7.2545467519
  - # 14
    frequency:    8.5616419528
  - # 15
    frequency:   13.5619349152
  - # 16
    frequency:   15.5471154997
  - # 17
    frequency:   15.7618994285
  - # 18
    frequency:   59.0983974845

- q-position: [    0.1262626,    0.0000000,    0.0000000 ]
  distance:    0.0429355
  band:
  - # 1
    frequency:   -2.1650063570
  - # 2
    frequency:   -2.0944487545
  - # 3
    frequency:    0.5847361486
  - # 4
    frequency:    0.9816736985
  - # 5
    frequency:    1.7707085693
  - # 6
    frequency:    2.8319694162
  - # 7
    frequency:    3.0158185902
  - # 8
    frequency:    3.9432256256
  - # 9
    frequency:    4.0296381137
  - # 10
    frequency:    4.4945933954
  - # 11
    frequency:    6.1874908443
  - # 12
    frequency:    6.9530609706
  - # 13
    frequency:    7.2640507895
  - # 14
    frequency:    8.5563418131
  - # 15
    frequency:   13.5464317539
  - # 16
    frequency:   15.5347897436
  - # 17
    frequency:   15.7643312384
  - # 18
    frequency:   59.0919666751

- q-position: [    0.1313131,    0.0000000,    0.0000000 ]
  distance:    0.0446529
  band:
  - # 1
    frequency:   -2.1715539993
  - # 2
    frequency:   -2.0928716786
  - # 3
    frequency:    0.6266319541
  - # 4
    frequency:    1.0307161872
  - # 5
    frequency:    1.8347656763
  - # 6
    frequency:    2.8425856507
  - # 7
    frequency:    3.0348321837
  - # 8
    frequency:    3.9385102303
  - # 9
    frequency:    4.0243436543
  - # 10
    frequency:    4.5137094871
  - # 11
    frequency:    6.1638890402
  - # 12
    frequency:    6.9387548221
  - # 13
    frequency:    7.2739964353
  - # 14
    frequency:    8.5507169117
  - # 15
    frequency:   13.5303822632
  - # 16
    frequency:   15.5218541675
  - # 17
    frequency:   15.7661424327
  - # 18
    frequency:   59.0853638868

- q-position: [    0.1363636,    0.0000000,    0.0000000 ]
  distance:    0.0463703
  band:
  - # 1
    frequency:   -2.1787409000
  - # 2
    frequency:   -2.0920208470
  - # 3
    frequency:    0.6696932839
  - # 4
    frequency:    1.0800234036
  - # 5
    frequency:    1.8969749691
  - # 6
    frequency:    2.8536812139
  - # 7
    frequency:    3.0535637874
  - # 8
    frequency:    3.9346707487
  - # 9
    frequency:    4.0190756413
  - # 10
    frequency:    4.5328844379
  - # 11
    frequency:    6.1397848076
  - # 12
    frequency:    6.9240198091
  - # 13
    frequency:    7.2844125274
  - # 14
    frequency:    8.5447743893
  - # 15
    frequency:   13.5137712574
  - # 16
    frequency:   15.5083125525
  - # 17
    frequency:   15.7672591349
  - # 18
    frequency:   59.0785983778

- q-position: [    0.1414141,    0.0000000,    0.0000000 ]
  distance:    0.0480877
  band:
  - # 1
    frequency:   -2.1864939454
  - # 2
    frequency:   -2.0919428959
  - # 3
    frequency:    0.7138765472
  - # 4
    frequency:    1.1295206767
  - # 5
    frequency:    1.9572151645
  - # 6
    frequency:    2.8652423028
  - # 7
    frequency:    3.0719519847
  - # 8
    frequency:    3.9318065048
  - # 9
    frequency:    4.0138724467
  - # 10
    frequency:    4.5520361579
  - # 11
    frequency:    6.1152233560
  - # 12
    frequency:    6.9088820498
  - # 13
    frequency:    7.2953293335
  - # 14
    frequency:    8.5385239903
  - # 15
    frequency:   13.4965806023
  - # 16
    frequency:   15.4941712611
  - # 17
    frequency:   15.7676070328
  - # 18
    frequency:   59.0716795150

- q-position: [    0.1464646,    0.0000000,    0.0000000 ]
  distance:    0.0498051
  band:
  - # 1
    frequency:   -2.1947336433
  - # 2
    frequency:   -2.0926803354
  - # 3
    frequency:    0.7591293244
  - # 4
    frequency:    1.1791347991
  - # 5
    frequency:    2.0153788420
  - # 6
    frequency:    2.8772363383
  - # 7
    frequency:    3.0899381166
  - # 8
    frequency:    3.9300166951
  - # 9
    frequency:    4.0087748480
  - # 10
    frequency:    4.5710858309
  - # 11
    frequency:    6.0902515548
  - # 12
    frequency:    6.8933704891
  - # 13
    frequency:    7.3067778981
  - # 14
    frequency:    8.5319780063
  - # 15
    frequency:   13.4787895070
  - # 16
    frequency:   15.4794393057
  - # 17
    frequency:   15.7671116601
  - # 18
    frequency:   59.0646167581

- q-position: [    0.1515152,    0.0000000,    0.0000000 ]
  distance:    0.0515226
  band:
  - # 1
    frequency:   -2.2033754258
  - # 2
    frequency:   -2.0942715075
  - # 3
    frequency:    0.8053907507
  - # 4
    frequency:    1.2287942428
  - # 5
    frequency:    2.0713740599
  - # 6
    frequency:    2.8896108254
  - # 7
    frequency:    3.1074662730
  - # 8
    frequency:    3.9293985785
  - # 9
    frequency:    4.0038258333
  - # 10
    frequency:    4.5899592836
  - # 11
    frequency:    6.0649178590
  - # 12
    frequency:    6.8775170487
  - # 13
    frequency:    7.3187893178
  - # 14
    frequency:    8.5251511931
  - # 15
    frequency:   13.4603748880
  - # 16
    frequency:   15.4641283792
  - # 17
    frequency:   15.7656986864
  - # 18
    frequency:   59.0574196428

- q-position: [    0.1565657,    0.0000000,    0.0000000 ]
  distance:    0.0532400
  band:
  - # 1
    frequency:   -2.2123310623
  - # 2
    frequency:   -2.0967505957
  - # 3
    frequency:    0.8525922652
  - # 4
    frequency:    1.2784292514
  - # 5
    frequency:    2.1251259598
  - # 6
    frequency:    2.9022929723
  - # 7
    frequency:    3.1244833216
  - # 8
    frequency:    3.9300452446
  - # 9
    frequency:    3.9990703431
  - # 10
    frequency:    4.6085882897
  - # 11
    frequency:    6.0392722071
  - # 12
    frequency:    6.8613567721
  - # 13
    frequency:    7.3313939558
  - # 14
    frequency:    8.5180606649
  - # 15
    frequency:   13.4413118020
  - # 16
    frequency:   15.4482528477
  - # 17
    frequency:   15.7632942148
  - # 18
    frequency:   59.0500977658

- q-position: [    0.1616162,    0.0000000,    0.0000000 ]
  distance:    0.0549574
  band:
  - # 1
    frequency:   -2.2215101712
  - # 2
    frequency:   -2.1001476764
  - # 3
    frequency:    0.9006586380
  - # 4
    frequency:    1.3279718154
  - # 5
    frequency:    2.1765782030
  - # 6
    frequency:    2.9151902028
  - # 7
    frequency:    3.1409389890
  - # 8
    frequency:    3.9320429597
  - # 9
    frequency:    3.9945549436
  - # 10
    frequency:    4.6269118002
  - # 11
    frequency:    6.0133658906
  - # 12
    frequency:    6.8449279584
  - # 13
    frequency:    7.3446206093
  - # 14
    frequency:    8.5107257702
  - # 15
    frequency:   13.4215739435
  - # 16
    frequency:   15.4318296999
  - # 17
    frequency:   15.7598250873
  - # 18
    frequency:   59.0426607704

- q-position: [    0.1666667,    0.0000000,    0.0000000 ]
  distance:    0.0566748
  band:
  - # 1
    frequency:   -2.2308218045
  - # 2
    frequency:   -2.1044888050
  - # 3
    frequency:    0.9495091810
  - # 4
    frequency:    1.3773555384
  - # 5
    frequency:    2.2256940322
  - # 6
    frequency:    2.9281917012
  - # 7
    frequency:    3.1567860072
  - # 8
    frequency:    3.9354681320
  - # 9
    frequency:    3.9903274261
  - # 10
    frequency:    4.6448770936
  - # 11
    frequency:    5.9872513949
  - # 12
    frequency:    6.8282722839
  - # 13
    frequency:    7.3584956450
  - # 14
    frequency:    8.5031679547
  - # 15
    frequency:   13.4011342027
  - # 16
    frequency:   15.4148784517
  - # 17
    frequency:   15.7552191965
  - # 18
    frequency:   59.0351183323

- q-position: [    0.1717172,    0.0000000,    0.0000000 ]
  distance:    0.0583922
  band:
  - # 1
    frequency:   -2.2401760698
  - # 2
    frequency:   -2.1097961274
  - # 3
    frequency:    0.9990590513
  - # 4
    frequency:    1.4265154075
  - # 5
    frequency:    2.2724567237
  - # 6
    frequency:    2.9411710934
  - # 7
    frequency:    3.1719803356
  - # 8
    frequency:    3.9403839875
  - # 9
    frequency:    3.9864363294
  - # 10
    frequency:    4.6624408318
  - # 11
    frequency:    5.9609822097
  - # 12
    frequency:    6.8114349066
  - # 13
    frequency:    7.3730421209
  - # 14
    frequency:    8.4954106162
  - # 15
    frequency:   13.3799652771
  - # 16
    frequency:   15.3974210063
  - # 17
    frequency:   15.7494058028
  - # 18
    frequency:   59.0274801462

- q-position: [    0.1767677,    0.0000000,    0.0000000 ]
  distance:    0.0601096
  band:
  - # 1
    frequency:   -2.2494857457
  - # 2
    frequency:   -2.1160880106
  - # 3
    frequency:    1.0492205644
  - # 4
    frequency:    1.4753874796
  - # 5
    frequency:    2.3168692009
  - # 6
    frequency:    2.9539903130
  - # 7
    frequency:    3.1864814670
  - # 8
    frequency:    3.9468371085
  - # 9
    frequency:    3.9829303838
  - # 10
    frequency:    4.6795700071
  - # 11
    frequency:    5.9346126092
  - # 12
    frequency:    6.7944645499
  - # 13
    frequency:    7.3882789130
  - # 14