nqpoint: 300    
npath: 3      
segment_nqpoint:
- 100
- 100
- 100
labels:
- [ 'G', 'M' ]
- [ 'M', 'K' ]
- [ 'K', 'G' ]
reciprocal_lattice:
- [   0.30213685,   0.17443879,   0.00000000 ] # a*
- [   0.00000000,   0.34887759,   0.00000000 ] # b*
- [   0.00000000,   0.00000000,   0.03691154 ] # c*
natom: 6      
lattice:
- [     3.309758420901686,     0.000000000000000,     0.000000000000000 ] # a
- [    -1.654879210450843,     2.866334872889664,     0.000000000000000 ] # b
- [     0.000000000000000,     0.000000000000000,    27.091801981626535 ] # c
points:
- symbol: Cl # 1
  coordinates: [  0.333332985432215,  0.666666983183674,  0.667796184022616 ]
  mass: 35.453000
- symbol: Cl # 2
  coordinates: [  0.666666984744047,  0.333332985985145,  0.332203815977384 ]
  mass: 35.453000
- symbol: N # 3
  coordinates: [  0.000000000000000,  0.000000000000000,  0.433707073113710 ]
  mass: 14.006700
- symbol: O # 4
  coordinates: [  0.333332985432215,  0.666666983183674,  0.517855097732937 ]
  mass: 15.999400
- symbol: Sc # 5
  coordinates: [  0.333332985432215,  0.666666983183674,  0.396805452280333 ]
  mass: 44.955912
- symbol: Sc # 6
  coordinates: [  0.666666984744047,  0.333332985985145,  0.493313016736075 ]
  mass: 44.955912

phonon:
- q-position: [    0.0000000,    0.0000000,    0.0000000 ]
  distance:    0.0000000
  band:
  - # 1
    frequency:   -0.0000068191
  - # 2
    frequency:   -0.0000000945
  - # 3
    frequency:    0.0000047677
  - # 4
    frequency:    0.3622848316
  - # 5
    frequency:    0.3622848316
  - # 6
    frequency:    0.3829886807
  - # 7
    frequency:    3.1445123718
  - # 8
    frequency:    3.1445123718
  - # 9
    frequency:    5.5627763666
  - # 10
    frequency:    5.5627763666
  - # 11
    frequency:    5.9205413092
  - # 12
    frequency:   10.4593336023
  - # 13
    frequency:   12.3600501251
  - # 14
    frequency:   12.3600501251
  - # 15
    frequency:   13.7411133012
  - # 16
    frequency:   14.5583481362
  - # 17
    frequency:   14.5583481362
  - # 18
    frequency:   17.1517123861

- q-position: [    0.0050505,    0.0000000,    0.0000000 ]
  distance:    0.0017620
  band:
  - # 1
    frequency:   -0.0559076488
  - # 2
    frequency:   -0.0060083226
  - # 3
    frequency:    0.0652811510
  - # 4
    frequency:    0.3566562668
  - # 5
    frequency:    0.3620395068
  - # 6
    frequency:    0.3877171609
  - # 7
    frequency:    3.1451396495
  - # 8
    frequency:    3.1479541252
  - # 9
    frequency:    5.5624358063
  - # 10
    frequency:    5.5630544121
  - # 11
    frequency:    5.9221633562
  - # 12
    frequency:   10.4587272067
  - # 13
    frequency:   12.3597993042
  - # 14
    frequency:   12.3642993999
  - # 15
    frequency:   13.7382137402
  - # 16
    frequency:   14.5580456507
  - # 17
    frequency:   14.5602846612
  - # 18
    frequency:   17.1522505483

- q-position: [    0.0101010,    0.0000000,    0.0000000 ]
  distance:    0.0035240
  band:
  - # 1
    frequency:   -0.1279391543
  - # 2
    frequency:   -0.1017461911
  - # 3
    frequency:    0.0296749498
  - # 4
    frequency:    0.3666521505
  - # 5
    frequency:    0.3750641992
  - # 6
    frequency:    0.4026625881
  - # 7
    frequency:    3.1470212247
  - # 8
    frequency:    3.1582430400
  - # 9
    frequency:    5.5614274949
  - # 10
    frequency:    5.5638882999
  - # 11
    frequency:    5.9270149733
  - # 12
    frequency:   10.4569086640
  - # 13
    frequency:   12.3590476874
  - # 14
    frequency:   12.3769641375
  - # 15
    frequency:   13.7296879539
  - # 16
    frequency:   14.5571386010
  - # 17
    frequency:   14.5659709213
  - # 18
    frequency:   17.1538695891

- q-position: [    0.0151515,    0.0000000,    0.0000000 ]
  distance:    0.0052860
  band:
  - # 1
    frequency:   -0.2719342540
  - # 2
    frequency:   -0.2175256331
  - # 3
    frequency:    0.0325381547
  - # 4
    frequency:    0.3860160365
  - # 5
    frequency:    0.3964407156
  - # 6
    frequency:    0.4782782518
  - # 7
    frequency:    3.1501563159
  - # 8
    frequency:    3.1752718806
  - # 9
    frequency:    5.5597897238
  - # 10
    frequency:    5.5652772853
  - # 11
    frequency:    5.9350544349
  - # 12
    frequency:   10.4538799093
  - # 13
    frequency:   12.3577978104
  - # 14
    frequency:   12.3977899391
  - # 15
    frequency:   13.7160378331
  - # 16
    frequency:   14.5556282075
  - # 17
    frequency:   14.5750594703
  - # 18
    frequency:   17.1565831225

- q-position: [    0.0202020,    0.0000000,    0.0000000 ]
  distance:    0.0070480
  band:
  - # 1
    frequency:   -0.4232031175
  - # 2
    frequency:   -0.3153089655
  - # 3
    frequency:    0.0437655407
  - # 4
    frequency:    0.4090980191
  - # 5
    frequency:    0.4223568249
  - # 6
    frequency:    0.5926142164
  - # 7
    frequency:    3.1545435948
  - # 8
    frequency:    3.1988677019
  - # 9
    frequency:    5.5575808166
  - # 10
    frequency:    5.5672201299
  - # 11
    frequency:    5.9462177928
  - # 12
    frequency:   10.4496441748
  - # 13
    frequency:   12.3560538951
  - # 14
    frequency:   12.4263346972
  - # 15
    frequency:   13.6980538532
  - # 16
    frequency:   14.5535165022
  - # 17
    frequency:   14.5870371999
  - # 18
    frequency:   17.1604136784

- q-position: [    0.0252525,    0.0000000,    0.0000000 ]
  distance:    0.0088100
  band:
  - # 1
    frequency:   -0.5642626476
  - # 2
    frequency:   -0.4143979989
  - # 3
    frequency:    0.0593384744
  - # 4
    frequency:    0.4235716687
  - # 5
    frequency:    0.4709694074
  - # 6
    frequency:    0.7173301347
  - # 7
    frequency:    3.1601811467
  - # 8
    frequency:    3.2287997961
  - # 9
    frequency:    5.5548725631
  - # 10
    frequency:    5.5697151063
  - # 11
    frequency:    5.9604255910
  - # 12
    frequency:   10.4442060004
  - # 13
    frequency:   12.3538218421
  - # 14
    frequency:   12.4619378836
  - # 15
    frequency:   13.6767750886
  - # 16
    frequency:   14.5508063263
  - # 17
    frequency:   14.6012987363
  - # 18
    frequency:   17.1653924685

- q-position: [    0.0303030,    0.0000000,    0.0000000 ]
  distance:    0.0105720
  band:
  - # 1
    frequency:   -0.6995140443
  - # 2
    frequency:   -0.5124337397
  - # 3
    frequency:    0.0793791374
  - # 4
    frequency:    0.4407257324
  - # 5
    frequency:    0.5271566351
  - # 6
    frequency:    0.8461196182
  - # 7
    frequency:    3.1670664160
  - # 8
    frequency:    3.2647895270
  - # 9
    frequency:    5.5517435759
  - # 10
    frequency:    5.5727600047
  - # 11
    frequency:    5.9775897190
  - # 12
    frequency:   10.4375712519
  - # 13
    frequency:   12.3511092211
  - # 14
    frequency:   12.5036702264
  - # 15
    frequency:   13.6534755575
  - # 16
    frequency:   14.5475013267
  - # 17
    frequency:   14.6172140547
  - # 18
    frequency:   17.1715590704

- q-position: [    0.0353535,    0.0000000,    0.0000000 ]
  distance:    0.0123341
  band:
  - # 1
    frequency:   -0.8310235103
  - # 2
    frequency:   -0.6089246427
  - # 3
    frequency:    0.1040746128
  - # 4
    frequency:    0.4605749880
  - # 5
    frequency:    0.5879777971
  - # 6
    frequency:    0.9768024184
  - # 7
    frequency:    3.1751961338
  - # 8
    frequency:    3.3065210745
  - # 9
    frequency:    5.5482737857
  - # 10
    frequency:    5.5763521406
  - # 11
    frequency:    5.9976191883
  - # 12
    frequency:   10.4297471455
  - # 13
    frequency:   12.3479252577
  - # 14
    frequency:   12.5502566232
  - # 15
    frequency:   13.6296957526
  - # 16
    frequency:   14.5436059505
  - # 17
    frequency:   14.6341784739
  - # 18
    frequency:   17.1789610421

- q-position: [    0.0404040,    0.0000000,    0.0000000 ]
  distance:    0.0140961
  band:
  - # 1
    frequency:   -0.9598099682
  - # 2
    frequency:   -0.7038741616
  - # 3
    frequency:    0.1334148318
  - # 4
    frequency:    0.4829202085
  - # 5
    frequency:    0.6517291313
  - # 6
    frequency:    1.1084017641
  - # 7
    frequency:    3.1845662310
  - # 8
    frequency:    3.3536521713
  - # 9
    frequency:    5.5445406495
  - # 10
    frequency:    5.5804883655
  - # 11
    frequency:    6.0204242587
  - # 12
    frequency:   10.4207422798
  - # 13
    frequency:   12.3442808173
  - # 14
    frequency:   12.5999662115
  - # 15
    frequency:   13.6073274352
  - # 16
    frequency:   14.5391254398
  - # 17
    frequency:   14.6516428780
  - # 18
    frequency:   17.1876534830

- q-position: [    0.0454545,    0.0000000,    0.0000000 ]
  distance:    0.0158581
  band:
  - # 1
    frequency:   -1.0863997741
  - # 2
    frequency:   -0.7973704581
  - # 3
    frequency:    0.1672240686
  - # 4
    frequency:    0.5074869027
  - # 5
    frequency:    0.7173996037
  - # 6
    frequency:    1.2403938056
  - # 7
    frequency:    3.1951717352
  - # 8
    frequency:    3.4058240879
  - # 9
    frequency:    5.5406170849
  - # 10
    frequency:    5.5851650779
  - # 11
    frequency:    6.0459189031
  - # 12
    frequency:   10.4105666782
  - # 13
    frequency:   12.3401883852
  - # 14
    frequency:   12.6504752088
  - # 15
    frequency:   13.5887421996
  - # 16
    frequency:   14.5340658238
  - # 17
    frequency:   14.6691278796
  - # 18
    frequency:   17.1976985574

- q-position: [    0.0505051,    0.0000000,    0.0000000 ]
  distance:    0.0176201
  band:
  - # 1
    frequency:   -1.2110679321
  - # 2
    frequency:   -0.8894863692
  - # 3
    frequency:    0.2052284623
  - # 4
    frequency:    0.5339860505
  - # 5
    frequency:    0.7843600518
  - # 6
    frequency:    1.3724552482
  - # 7
    frequency:    3.2070066539
  - # 8
    frequency:    3.4626703459
  - # 9
    frequency:    5.5365708067
  - # 10
    frequency:    5.5903782373
  - # 11
    frequency:    6.0740219345
  - # 12
    frequency:   10.3992318381
  - # 13
    frequency:   12.3356620433
  - # 14
    frequency:   12.6987477851
  - # 15
    frequency:   13.5769128733
  - # 16
    frequency:   14.5284339105
  - # 17
    frequency:   14.6862274218
  - # 18
    frequency:   17.2091650029

- q-position: [    0.0555556,    0.0000000,    0.0000000 ]
  distance:    0.0193821
  band:
  - # 1
    frequency:   -1.3339514887
  - # 2
    frequency:   -0.9802626957
  - # 3
    frequency:    0.2471095525
  - # 4
    frequency:    0.5621450480
  - # 5
    frequency:    0.8521991510
  - # 6
    frequency:    1.5043619460
  - # 7
    frequency:    3.2200638457
  - # 8
    frequency:    3.5238238694
  - # 9
    frequency:    5.5324646414
  - # 10
    frequency:    5.5961233795
  - # 11
    frequency:    6.1046572242
  - # 12
    frequency:   10.3867507895
  - # 13
    frequency:   12.3307174431
  - # 14
    frequency:   12.7410686141
  - # 15
    frequency:   13.5753890426
  - # 16
    frequency:   14.5222372769
  - # 17
    frequency:   14.7026067184
  - # 18
    frequency:   17.2221276406

- q-position: [    0.0606061,    0.0000000,    0.0000000 ]
  distance:    0.0211441
  band:
  - # 1
    frequency:   -1.4551071293
  - # 2
    frequency:   -1.0697115256
  - # 3
    frequency:    0.2925379691
  - # 4
    frequency:    0.5917217658
  - # 5
    frequency:    0.9206354260
  - # 6
    frequency:    1.6359425878
  - # 7
    frequency:    3.2343348821
  - # 8
    frequency:    3.5889224759
  - # 9
    frequency:    5.5283574345
  - # 10
    frequency:    5.6023956329
  - # 11
    frequency:    6.1377533967
  - # 12
    frequency:   10.3731381622
  - # 13
    frequency:   12.3253717737
  - # 14
    frequency:   12.7734625083
  - # 15
    frequency:   13.5878875822
  - # 16
    frequency:   14.5154842572
  - # 17
    frequency:   14.7179980933
  - # 18
    frequency:   17.2366669082

- q-position: [    0.0656566,    0.0000000,    0.0000000 ]
  distance:    0.0229061
  band:
  - # 1
    frequency:   -1.5745424656
  - # 2
    frequency:   -1.1578229004
  - # 3
    frequency:    0.3411919272
  - # 4
    frequency:    0.6225088162
  - # 5
    frequency:    0.9894681623
  - # 6
    frequency:    1.7670554219
  - # 7
    frequency:    3.2498099032
  - # 8
    frequency:    3.6576127504
  - # 9
    frequency:    5.5243052719
  - # 10
    frequency:    5.6091897379
  - # 11
    frequency:    6.1732432905
  - # 12
    frequency:   10.3584102596
  - # 13
    frequency:   12.3196437264
  - # 14
    frequency:   12.7926391884
  - # 15
    frequency:   13.6173576282
  - # 16
    frequency:   14.5081839304
  - # 17
    frequency:   14.7321971007
  - # 18
    frequency:   17.2528684264

- q-position: [    0.0707071,    0.0000000,    0.0000000 ]
  distance:    0.0246681
  band:
  - # 1
    frequency:   -1.6922340339
  - # 2
    frequency:   -1.2445707809
  - # 3
    frequency:    0.3927659813
  - # 4
    frequency:    0.6543327654
  - # 5
    frequency:    1.0585488275
  - # 6
    frequency:    1.8975756787
  - # 7
    frequency:    3.2664774711
  - # 8
    frequency:    3.7295524334
  - # 9
    frequency:    5.5203628457
  - # 10
    frequency:    5.6165000661
  - # 11
    frequency:    6.2110633628
  - # 12
    frequency:   10.3425851408
  - # 13
    frequency:   12.3135534539
  - # 14
    frequency:   12.7970712762
  - # 15
    frequency:   13.6649101051
  - # 16
    frequency:   14.5003461059
  - # 17
    frequency:   14.7450606210
  - # 18
    frequency:   17.2708226033

- q-position: [    0.0757576,    0.0000000,    0.0000000 ]
  distance:    0.0264301
  band:
  - # 1
    frequency:   -1.8081381708
  - # 2
    frequency:   -1.3299176438
  - # 3
    frequency:    0.4469739598
  - # 4
    frequency:    0.6870513252
  - # 5
    frequency:    1.1277637528
  - # 6
    frequency:    2.0273883887
  - # 7
    frequency:    3.2843244238
  - # 8
    frequency:    3.8044114960
  - # 9
    frequency:    5.5165848908
  - # 10
    frequency:    5.6243206423
  - # 11
    frequency:    6.2511531317
  - # 12
    frequency:   10.3256827092
  - # 13
    frequency:   12.3071225245
  - # 14
    frequency:   12.7873548059
  - # 15
    frequency:   13.7294608269
  - # 16
    frequency:   14.4919813070
  - # 17
    frequency:   14.7565085472
  - # 18
    frequency:   17.2906242694

- q-position: [    0.0808081,    0.0000000,    0.0000000 ]
  distance:    0.0281921
  band:
  - # 1
    frequency:   -1.9221978740
  - # 2
    frequency:   -1.4138178665
  - # 3
    frequency:    0.5035483447
  - # 4
    frequency:    0.7205504378
  - # 5
    frequency:    1.1970232526
  - # 6
    frequency:    2.1563841098
  - # 7
    frequency:    3.3033357357
  - # 8
    frequency:    3.8818720815
  - # 9
    frequency:    5.5130276870
  - # 10
    frequency:    5.6326451670
  - # 11
    frequency:    6.2934546914
  - # 12
    frequency:   10.3077248086
  - # 13
    frequency:   12.3003738710
  - # 14
    frequency:   12.7655600232
  - # 15
    frequency:   13.8083770811
  - # 16
    frequency:   14.4831007541
  - # 17
    frequency:   14.7665313520
  - # 18
    frequency:   17.3123723135

- q-position: [    0.0858586,    0.0000000,    0.0000000 ]
  distance:    0.0299541
  band:
  - # 1
    frequency:   -2.0343472975
  - # 2
    frequency:   -1.4962201920
  - # 3
    frequency:    0.5622369517
  - # 4
    frequency:    0.7547426898
  - # 5
    frequency:    1.2662545656
  - # 6
    frequency:    2.2844563110
  - # 7
    frequency:    3.3234943852
  - # 8
    frequency:    3.9616274718
  - # 9
    frequency:    5.5097506733
  - # 10
    frequency:    5.6414670404
  - # 11
    frequency:    6.3379122957
  - # 12
    frequency:   10.2887353261
  - # 13
    frequency:   12.2933317342
  - # 14
    frequency:   12.7342320825
  - # 15
    frequency:   13.8984639251
  - # 16
    frequency:   14.4737163451
  - # 17
    frequency:   14.7752077072
  - # 18
    frequency:   17.3361692729

- q-position: [    0.0909091,    0.0000000,    0.0000000 ]
  distance:    0.0317161
  band:
  - # 1
    frequency:   -2.1445147993
  - # 2
    frequency:   -1.5770695307
  - # 3
    frequency:    0.6227962457
  - # 4
    frequency:    0.7895688833
  - # 5
    frequency:    1.3353971457
  - # 6
    frequency:    2.4114997357
  - # 7
    frequency:    3.3447812365
  - # 8
    frequency:    4.0433801969
  - # 9
    frequency:    5.5068182683
  - # 10
    frequency:    5.6507793872
  - # 11
    frequency:    6.3844719902
  - # 12
    frequency:   10.2687403026
  - # 13
    frequency:   12.2860216005
  - # 14
    frequency:   12.6957156791
  - # 15
    frequency:   13.9966077381
  - # 16
    frequency:   14.4638406346
  - # 17
    frequency:   14.7827406262
  - # 18
    frequency:   17.3621208004

- q-position: [    0.0959596,    0.0000000,    0.0000000 ]
  distance:    0.0334782
  band:
  - # 1
    frequency:   -2.2526250727
  - # 2
    frequency:   -1.6563082917
  - # 3
    frequency:    0.6849778095
  - # 4
    frequency:    0.8250067772
  - # 5
    frequency:    1.4043994399
  - # 6
    frequency:    2.5374093559
  - # 7
    frequency:    3.3671749356
  - # 8
    frequency:    4.1268393509
  - # 9
    frequency:    5.5043020311
  - # 10
    frequency:    5.6605750824
  - # 11
    frequency:    6.4330812606
  - # 12
    frequency:   10.2477680511
  - # 13
    frequency:   12.2784701333
  - # 14
    frequency:   12.6519112333
  - # 15
    frequency:   14.0999512879
  - # 16
    frequency:   14.4534868117
  - # 17
    frequency:   14.7895303531
  - # 18
    frequency:   17.3903349040

- q-position: [    0.1010101,    0.0000000,    0.0000000 ]
  distance:    0.0352402
  band:
  - # 1
    frequency:   -2.3586006799
  - # 2
    frequency:   -1.7338773798
  - # 3
    frequency:    0.7484963579
  - # 4
    frequency:    0.8610988108
  - # 5
    frequency:    1.4732166350
  - # 6
    frequency:    2.6620796806
  - # 7
    frequency:    3.3906518250
  - # 8
    frequency:    4.2117171006
  - # 9
    frequency:    5.5022833574
  - # 10
    frequency:    5.6708467770
  - # 11
    frequency:    6.4836886644
  - # 12
    frequency:   10.2258492850
  - # 13
    frequency:   12.2707050980
  - # 14
    frequency:   12.6042785193
  - # 15
    frequency:   14.2057437607
  - # 16
    frequency:   14.4426686762
  - # 17
    frequency:   14.7963247937
  - # 18
    frequency:   17.4209208256

- q-position: [    0.1060606,    0.0000000,    0.0000000 ]
  distance:    0.0370022
  band:
  - # 1
    frequency:   -2.4623631843
  - # 2
    frequency:   -1.8097169553
  - # 3
    frequency:    0.8129368666
  - # 4
    frequency:    0.8980412779
  - # 5
    frequency:    1.5418090519
  - # 6
    frequency:    2.7854042560
  - # 7
    frequency:    3.4151858785
  - # 8
    frequency:    4.2977242705
  - # 9
    frequency:    5.5008569886
  - # 10
    frequency:    5.6815869251
  - # 11
    frequency:    6.5362434139
  - # 12
    frequency:   10.2030172551
  - # 13
    frequency:   12.2627552809
  - # 14
    frequency:   12.5539237476
  - # 15
    frequency:   14.3109378582
  - # 16
    frequency:   14.4314006128
  - # 17
    frequency:   14.8045395480
  - # 18
    frequency:   17.4539874020

- q-position: [    0.1111111,    0.0000000,    0.0000000 ]
  distance:    0.0387642
  band:
  - # 1
    frequency:   -2.5638340078
  - # 2
    frequency:   -1.8837670229
  - # 3
    frequency:    0.8774129274
  - # 4
    frequency:    0.9365228090
  - # 5
    frequency:    1.6101409798
  - # 6
    frequency:    2.9072752441
  - # 7
    frequency:    3.4407486578
  - # 8
    frequency:    4.3845647430
  - # 9
    frequency:    5.5001357372
  - # 10
    frequency:    5.6927878095
  - # 11
    frequency:    6.5906948789
  - # 12
    frequency:   10.1793079002
  - # 13
    frequency:   12.2546504018
  - # 14
    frequency:   12.5016925548
  - # 15
    frequency:   14.4114273417
  - # 16
    frequency:   14.4196975649
  - # 17
    frequency:   14.8169319036
  - # 18
    frequency:   17.4896407359

- q-position: [    0.1161616,    0.0000000,    0.0000000 ]
  distance:    0.0405262
  band:
  - # 1
    frequency:   -2.6629350949
  - # 2
    frequency:   -1.9559678959
  - # 3
    frequency:    0.9390955221
  - # 4
    frequency:    0.9791929025
  - # 5
    frequency:    1.6781798189
  - # 6
    frequency:    3.0275829838
  - # 7
    frequency:    3.4673092912
  - # 8
    frequency:    4.4719281975
  - # 9
    frequency:    5.5002570328
  - # 10
    frequency:    5.7044415682
  - # 11
    frequency:    6.6469919841
  - # 12
    frequency:   10.1547600101
  - # 13
    frequency:   12.2464210191
  - # 14
    frequency:   12.4482450432
  - # 15
    frequency:   14.4075750061
  - # 16
    frequency:   14.5008157758
  - # 17
    frequency:   14.8387620845
  - # 18
    frequency:   17.5279810117

- q-position: [    0.1212121,    0.0000000,    0.0000000 ]
  distance:    0.0422882
  band:
  - # 1
    frequency:   -2.7595894380
  - # 2
    frequency:   -2.0262605698
  - # 3
    frequency:    0.9910877773
  - # 4
    frequency:    1.0327848795
  - # 5
    frequency:    1.7458954401
  - # 6
    frequency:    3.1462154541
  - # 7
    frequency:    3.4948344762
  - # 8
    frequency:    4.5594803930
  - # 9
    frequency:    5.5013922009
  - # 10
    frequency:    5.7165402192
  - # 11
    frequency:    6.7050824765
  - # 12
    frequency:   10.1294154068
  - # 13
    frequency:   12.2380984297
  - # 14
    frequency:   12.3941106488
  - # 15
    frequency:   14.3950489113
  - # 16
    frequency:   14.5700757518
  - # 17
    frequency:   14.8780848625
  - # 18
    frequency:   17.5690983205

- q-position: [    0.1262626,    0.0000000,    0.0000000 ]
  distance:    0.0440502
  band:
  - # 1
    frequency:   -2.8537215015
  - # 2
    frequency:   -2.0945870277
  - # 3
    frequency:    1.0335632448
  - # 4
    frequency:    1.0969756476
  - # 5
    frequency:    1.8132597017
  - # 6
    frequency:    3.2630575610
  - # 7
    frequency:    3.5232885039
  - # 8
    frequency:    4.6468497122
  - # 9
    frequency:    5.5037598586
  - # 10
    frequency:    5.7290756845
  - # 11
    frequency:    6.7649120455
  - # 12
    frequency:   10.1033191449
  - # 13
    frequency:   12.2297145611
  - # 14
    frequency:   12.3397267573
  - # 15
    frequency:   14.3821357264
  - # 16
    frequency:   14.6128418060
  - # 17
    frequency:   14.9404244899
  - # 18
    frequency:   17.6130674289

- q-position: [    0.1313131,    0.0000000,    0.0000000 ]
  distance:    0.0458122
  band:
  - # 1
    frequency:   -2.9452575718
  - # 2
    frequency:   -2.1608904946
  - # 3
    frequency:    1.0727853966
  - # 4
    frequency:    1.1653645327
  - # 5
    frequency:    1.8802460812
  - # 6
    frequency:    3.3779901731
  - # 7
    frequency:    3.5526333071
  - # 8
    frequency:    4.7336079995
  - # 9
    frequency:    5.5076454932
  - # 10
    frequency:    5.7420398130
  - # 11
    frequency:    6.8264232804
  - # 12
    frequency:   10.0765197370
  - # 13
    frequency:   12.2213018587
  - # 14
    frequency:   12.2854655669
  - # 15
    frequency:   14.3688523372
  - # 16
    frequency:   14.6324547219
  - # 17
    frequency:   15.0217107480
  - # 18
    frequency:   17.6599415367

- q-position: [    0.1363636,    0.0000000,    0.0000000 ]
  distance:    0.0475742
  band:
  - # 1
    frequency:   -3.0341260500
  - # 2
    frequency:   -2.2251156531
  - # 3
    frequency:    1.1110690807
  - # 4
    frequency:    1.2355103822
  - # 5
    frequency:    1.9468293922
  - # 6
    frequency:    3.4908888304
  - # 7
    frequency:    3.5828285291
  - # 8
    frequency:    4.8192428622
  - # 9
    frequency:    5.5134301394
  - # 10
    frequency:    5.7554243999
  - # 11
    frequency:    6.8895544607
  - # 12
    frequency:   10.0490694097
  - # 13
    frequency:   12.2128931658
  - # 14
    frequency:   12.2316527992
  - # 15
    frequency:   14.3552160376
  - # 16
    frequency:   14.6370489386
  - # 17
    frequency:   15.1131806183
  - # 18
    frequency:   17.7097452205

- q-position: [    0.1414141,    0.0000000,    0.0000000 ]
  distance:    0.0493362
  band:
  - # 1
    frequency:   -3.1202577021
  - # 2
    frequency:   -2.2872088286
  - # 3
    frequency:    1.1490419517
  - # 4
    frequency:    1.3066688854
  - # 5
    frequency:    2.0129855645
  - # 6
    frequency:    3.6016220509
  - # 7
    frequency:    3.6138316132
  - # 8
    frequency:    4.9031180073
  - # 9
    frequency:    5.5216316595
  - # 10
    frequency:    5.7692212051
  - # 11
    frequency:    6.9542381768
  - # 12
    frequency:   10.0210243961
  - # 13
    frequency:   12.1785808265
  - # 14
    frequency:   12.2045215986
  - # 15
    frequency:   14.3412444976
  - # 16
    frequency:   14.6326322359
  - # 17
    frequency:   15.2082934777
  - # 18
    frequency:   17.7624669461

- q-position: [    0.1464646,    0.0000000,    0.0000000 ]
  distance:    0.0510982
  band:
  - # 1
    frequency:   -3.2035858755
  - # 2
    frequency:   -2.3471181508
  - # 3
    frequency:    1.1869082232
  - # 4
    frequency:    1.3785277340
  - # 5
    frequency:    2.0786914736
  - # 6
    frequency:    3.6455979109
  - # 7
    frequency:    3.7100491637
  - # 8
    frequency:    4.9844195658
  - # 9
    frequency:    5.5329607369
  - # 10
    frequency:    5.7834219678
  - # 11
    frequency:    7.0203997916
  - # 12
    frequency:    9.9924452751
  - # 13
    frequency:   12.1265179721
  - # 14
    frequency:   12.1962204162
  - # 15
    frequency:   14.3269557304
  - # 16
    frequency:   14.6224810865
  - # 17
    frequency:   15.3033341256
  - # 18
    frequency:   17.8180517139

- q-position: [    0.1515152,    0.0000000,    0.0000000 ]
  distance:    0.0528602
  band:
  - # 1
    frequency:   -3.2840466903
  - # 2
    frequency:   -2.4047936973
  - # 3
    frequency:    1.2247431784
  - # 4
    frequency:    1.4509111568
  - # 5
    frequency:    2.1439248061
  - # 6
    frequency:    3.6780808075
  - # 7
    frequency:    3.8160176059
  - # 8
    frequency:    5.0620949288
  - # 9
    frequency:    5.5483850982
  - # 10
    frequency:    5.7980184174
  - # 11
    frequency:    7.0879557601
  - # 12
    frequency:    9.9633973677
  - # 13
    frequency:   12.0757151577
  - # 14
    frequency:   12.1880228850
  - # 15
    frequency:   14.3123680601
  - # 16
    frequency:   14.6083223469
  - # 17
    frequency:   15.3962310940
  - # 18
    frequency:   17.8763945554

- q-position: [    0.1565657,    0.0000000,    0.0000000 ]
  distance:    0.0546222
  band:
  - # 1
    frequency:   -3.3615792087
  - # 2
    frequency:   -2.4601876213
  - # 3
    frequency:    1.2625740089
  - # 4
    frequency:    1.5236982396
  - # 5
    frequency:    2.2086639543
  - # 6
    frequency:    3.7112318640
  - # 7
    frequency:    3.9193596506
  - # 8
    frequency:    5.1348181136
  - # 9
    frequency:    5.5691679501
  - # 10
    frequency:    5.8130022805
  - # 11
    frequency:    7.1568118358
  - # 12
    frequency:    9.9339512054
  - # 13
    frequency:   12.0264106845
  - # 14
    frequency:   12.1799621396
  - # 15
    frequency:   14.2975000888
  - # 16
    frequency:   14.5911200258
  - # 17
    frequency:   15.4857699458
  - # 18
    frequency:   17.9373356602

- q-position: [    0.1616162,    0.0000000,    0.0000000 ]
  distance:    0.0563843
  band:
  - # 1
    frequency:   -3.4361255887
  - # 2
    frequency:   -2.5132542673
  - # 3
    frequency:    1.3004070711
  - # 4
    frequency:    1.5967949230
  - # 5
    frequency:    2.2728879324
  - # 6
    frequency:    3.7450009714
  - # 7
    frequency:    4.0198885806
  - # 8
    frequency:    5.2010739034
  - # 9
    frequency:    5.5967883247
  - # 10
    frequency:    5.8283652839
  - # 11
    frequency:    7.2268611997
  - # 12
    frequency:    9.9041830878
  - # 13
    frequency:   11.9788336704
  - # 14
    frequency:   12.1720710399
  - # 15
    frequency:   14.2823706643
  - # 16
    frequency:   14.5714583001
  - # 17
    frequency:   15.5712091506
  - # 18
    frequency:   18.0006578573

- q-position: [    0.1666667,    0.0000000,    0.0000000 ]
  distance:    0.0581463
  band:
  - # 1
    frequency:   -3.5076312247
  - # 2
    frequency:   -2.5639502776
  - # 3
    frequency:    1.3382386388
  - # 4
    frequency:    1.6701225841
  - # 5
    frequency:    2.3365763101
  - # 6
    frequency:    3.7793365182
  - # 7
    frequency:    4.1173944351
  - # 8
    frequency:    5.2595021910
  - # 9
    frequency:    5.6326017317
  - # 10
    frequency:    5.8440991517
  - # 11
    frequency:    7.2979825544
  - # 12
    frequency:    9.8741757528
  - # 13
    frequency:   11.9332064899
  - # 14
    frequency:   12.1643820258
  - # 15
    frequency:   14.2669988483
  - # 16
    frequency:   14.5497223300
  - # 17
    frequency:   15.6520961102
  - # 18
    frequency:   18.0660869762

- q-position: [    0.1717172,    0.0000000,    0.0000000 ]
  distance:    0.0599083
  band:
  - # 1
    frequency:   -3.5760448766
  - # 2
    frequency:   -2.6122346888
  - # 3
    frequency:    1.3760596674
  - # 4
    frequency:    1.7436126771
  - # 5
    frequency:    2.3997091588
  - # 6
    frequency:    3.8141855678
  - # 7
    frequency:    4.2116396369
  - # 8
    frequency:    5.3095095982
  - # 9
    frequency:    5.6772336723
  - # 10
    frequency:    5.8601955972
  - # 11
    frequency:    7.3700382309
  - # 12
    frequency:    9.8440191878
  - # 13
    frequency:   11.8897464472
  - # 14
    frequency:   12.1569269692
  - # 15
    frequency:   14.2514038850
  - # 16
    frequency:   14.5261868160
  - # 17
    frequency:   15.7281729431
  - # 18
    frequency:   18.1332953014

- q-position: [    0.1767677,    0.0000000,    0.0000000 ]
  distance:    0.0616703
  band:
  - # 1
    frequency:   -3.6413187902
  - # 2
    frequency:   -2.6580690229
  - # 3
    frequency:    1.4138580978
  - # 4
    frequency:    1.8172038947
  - # 5
    frequency:    2.4622670087
  - # 6
    frequency:    3.8494940442
  - # 7
    frequency:    4.3023551357
  - # 8
    frequency:    5.3517499066
  - # 9
    frequency:    5.7301037958
  - # 10
    frequency:    5.8766463097
  - # 11
    frequency:    7.4428723505
  - # 12
    frequency:    9.8138116174
  - # 13
    frequency:   11.8486668321
  - # 14