nqpoint: 300    
npath: 3      
segment_nqpoint:
- 100
- 100
- 100
labels:
- [ 'G', 'M' ]
- [ 'M', 'K' ]
- [ 'K', 'G' ]
reciprocal_lattice:
- [   0.31486114,   0.18178516,   0.00000000 ] # a*
- [   0.00000000,   0.36357033,   0.00000000 ] # b*
- [   0.00000000,   0.00000000,   0.03593760 ] # c*
natom: 9      
lattice:
- [     3.176003253995154,     0.000000000000000,     0.000000000000000 ] # a
- [    -1.588001626997577,     2.750499500461708,     0.000000000000000 ] # b
- [     0.000000000000000,     0.000000000000000,    27.826009668342699 ] # c
points:
- symbol: C # 1
  coordinates: [  0.000000000000000,  0.000000000000000,  0.500170253999922 ]
  mass: 12.010700
- symbol: C # 2
  coordinates: [  0.333332985432215,  0.666666983183674,  0.633308122968611 ]
  mass: 12.010700
- symbol: C # 3
  coordinates: [  0.666666984744048,  0.333332985985145,  0.366136323237321 ]
  mass: 12.010700
- symbol: N # 4
  coordinates: [  0.333332985432215,  0.666666983183674,  0.588485603298258 ]
  mass: 14.006700
- symbol: N # 5
  coordinates: [  0.666666984744048,  0.333332985985145,  0.323438398364361 ]
  mass: 14.006700
- symbol: O # 6
  coordinates: [  0.333332985432215,  0.666666983183674,  0.676561601635639 ]
  mass: 15.999400
- symbol: O # 7
  coordinates: [  0.666666984744048,  0.333332985985145,  0.414118589725239 ]
  mass: 15.999400
- symbol: Ti # 8
  coordinates: [  0.333332985432215,  0.666666983183674,  0.460602063215094 ]
  mass: 47.867000
- symbol: Ti # 9
  coordinates: [  0.666666984744048,  0.333332985985145,  0.540495429039565 ]
  mass: 47.867000

phonon:
- q-position: [    0.0000000,    0.0000000,    0.0000000 ]
  distance:    0.0000000
  band:
  - # 1
    frequency:   -1.1580979918
  - # 2
    frequency:   -1.1580979918
  - # 3
    frequency:   -0.0000005014
  - # 4
    frequency:   -0.0000003378
  - # 5
    frequency:    0.0000005618
  - # 6
    frequency:    0.3858174856
  - # 7
    frequency:    0.3858174856
  - # 8
    frequency:    5.1802896176
  - # 9
    frequency:    5.1802896176
  - # 10
    frequency:    6.1554119954
  - # 11
    frequency:    7.0937860077
  - # 12
    frequency:    7.0937860077
  - # 13
    frequency:    7.4095829486
  - # 14
    frequency:    7.4095829486
  - # 15
    frequency:    9.7627785899
  - # 16
    frequency:   12.6137900418
  - # 17
    frequency:   14.0977099491
  - # 18
    frequency:   14.0977099491
  - # 19
    frequency:   17.3524128871
  - # 20
    frequency:   17.3524128871
  - # 21
    frequency:   18.0615415623
  - # 22
    frequency:   18.3544704325
  - # 23
    frequency:   18.3544704325
  - # 24
    frequency:   31.7777221769
  - # 25
    frequency:   38.4939082883
  - # 26
    frequency:   67.5024271999
  - # 27
    frequency:   69.2548059653

- q-position: [    0.0050505,    0.0000000,    0.0000000 ]
  distance:    0.0018362
  band:
  - # 1
    frequency:   -1.1570075328
  - # 2
    frequency:   -1.1547663211
  - # 3
    frequency:   -0.1244988654
  - # 4
    frequency:    0.0863740181
  - # 5
    frequency:    0.1748899710
  - # 6
    frequency:    0.3895746942
  - # 7
    frequency:    0.3988036458
  - # 8
    frequency:    5.1809425418
  - # 9
    frequency:    5.1818679005
  - # 10
    frequency:    6.1547118750
  - # 11
    frequency:    7.0936280961
  - # 12
    frequency:    7.0946613772
  - # 13
    frequency:    7.4103413960
  - # 14
    frequency:    7.4108665595
  - # 15
    frequency:    9.7626715411
  - # 16
    frequency:   12.6129062305
  - # 17
    frequency:   14.0978349524
  - # 18
    frequency:   14.0981086722
  - # 19
    frequency:   17.3524753281
  - # 20
    frequency:   17.3527186812
  - # 21
    frequency:   18.0613333028
  - # 22
    frequency:   18.3550290584
  - # 23
    frequency:   18.3556565126
  - # 24
    frequency:   31.7772777582
  - # 25
    frequency:   38.4939055760
  - # 26
    frequency:   67.5022496735
  - # 27
    frequency:   69.2532329221

- q-position: [    0.0101010,    0.0000000,    0.0000000 ]
  distance:    0.0036724
  band:
  - # 1
    frequency:   -1.1537605085
  - # 2
    frequency:   -1.1448151492
  - # 3
    frequency:   -0.1534025871
  - # 4
    frequency:    0.1719463001
  - # 5
    frequency:    0.2886958972
  - # 6
    frequency:    0.4010447723
  - # 7
    frequency:    0.4363812252
  - # 8
    frequency:    5.1828976998
  - # 9
    frequency:    5.1865895888
  - # 10
    frequency:    6.1526269672
  - # 11
    frequency:    7.0931559962
  - # 12
    frequency:    7.0972807401
  - # 13
    frequency:    7.4126097971
  - # 14
    frequency:    7.4147024739
  - # 15
    frequency:    9.7623513151
  - # 16
    frequency:   12.6102563093
  - # 17
    frequency:   14.0982094247
  - # 18
    frequency:   14.0993035745
  - # 19
    frequency:   17.3526623801
  - # 20
    frequency:   17.3536348323
  - # 21
    frequency:   18.0607084997
  - # 22
    frequency:   18.3567001108
  - # 23
    frequency:   18.3592053683
  - # 24
    frequency:   31.7759459913
  - # 25
    frequency:   38.4938973678
  - # 26
    frequency:   67.5017174709
  - # 27
    frequency:   69.2485184772

- q-position: [    0.0151515,    0.0000000,    0.0000000 ]
  distance:    0.0055086
  band:
  - # 1
    frequency:   -1.1484269161
  - # 2
    frequency:   -1.1283623833
  - # 3
    frequency:   -0.1688340401
  - # 4
    frequency:    0.2551252147
  - # 5
    frequency:    0.3992205879
  - # 6
    frequency:    0.4212300796
  - # 7
    frequency:    0.4971151473
  - # 8
    frequency:    5.1861442881
  - # 9
    frequency:    5.1944155386
  - # 10
    frequency:    6.1492027409
  - # 11
    frequency:    7.0923744824
  - # 12
    frequency:    7.1016242847
  - # 13
    frequency:    7.4163675261
  - # 14
    frequency:    7.4210464575
  - # 15
    frequency:    9.7618206699
  - # 16
    frequency:   12.6058447961
  - # 17
    frequency:   14.0988317587
  - # 18
    frequency:   14.1012908691
  - # 19
    frequency:   17.3529732332
  - # 20
    frequency:   17.3551576555
  - # 21
    frequency:   18.0596671307
  - # 22
    frequency:   18.3594691575
  - # 23
    frequency:   18.3650888872
  - # 24
    frequency:   31.7737313361
  - # 25
    frequency:   38.4938834516
  - # 26
    frequency:   67.5008317198
  - # 27
    frequency:   69.2406766616

- q-position: [    0.0202020,    0.0000000,    0.0000000 ]
  distance:    0.0073449
  band:
  - # 1
    frequency:   -1.1411137094
  - # 2
    frequency:   -1.1055614452
  - # 3
    frequency:   -0.1789371221
  - # 4
    frequency:    0.3318590364
  - # 5
    frequency:    0.4535213397
  - # 6
    frequency:    0.4993222211
  - # 7
    frequency:    0.5842155005
  - # 8
    frequency:    5.1906644327
  - # 9
    frequency:    5.2052816164
  - # 10
    frequency:    6.1445121238
  - # 11
    frequency:    7.0912910990
  - # 12
    frequency:    7.1076603223
  - # 13
    frequency:    7.4215808396
  - # 14
    frequency:    7.4298264888
  - # 15
    frequency:    9.7610841903
  - # 16
    frequency:   12.5996791520
  - # 17
    frequency:   14.0996992938
  - # 18
    frequency:   14.1040642889
  - # 19
    frequency:   17.3534065519
  - # 20
    frequency:   17.3572810407
  - # 21
    frequency:   18.0582093177
  - # 22
    frequency:   18.3633122899
  - # 23
    frequency:   18.3732603706
  - # 24
    frequency:   31.7706411974
  - # 25
    frequency:   38.4938634772
  - # 26
    frequency:   67.4995942950
  - # 27
    frequency:   69.2297307815

- q-position: [    0.0252525,    0.0000000,    0.0000000 ]
  distance:    0.0091811
  band:
  - # 1
    frequency:   -1.1319519007
  - # 2
    frequency:   -1.0765446949
  - # 3
    frequency:   -0.1851971362
  - # 4
    frequency:    0.3944343670
  - # 5
    frequency:    0.5049203963
  - # 6
    frequency:    0.5865079636
  - # 7
    frequency:    0.6956060882
  - # 8
    frequency:    5.1964333845
  - # 9
    frequency:    5.2191002914
  - # 10
    frequency:    6.1386516088
  - # 11
    frequency:    7.0899156182
  - # 12
    frequency:    7.1153470068
  - # 13
    frequency:    7.4282037431
  - # 14
    frequency:    7.4409452010
  - # 15
    frequency:    9.7601482698
  - # 16
    frequency:   12.5917696821
  - # 17
    frequency:   14.1008083429
  - # 18
    frequency:   14.1076151520
  - # 19
    frequency:   17.3539604947
  - # 20
    frequency:   17.3599964970
  - # 21
    frequency:   18.0563355218
  - # 22
    frequency:   18.3681963394
  - # 23
    frequency:   18.3836548033
  - # 24
    frequency:   31.7666858828
  - # 25
    frequency:   38.4938369624
  - # 26
    frequency:   67.4980078111
  - # 27
    frequency:   69.2157133023

- q-position: [    0.0303030,    0.0000000,    0.0000000 ]
  distance:    0.0110173
  band:
  - # 1
    frequency:   -1.1210815738
  - # 2
    frequency:   -1.0413595179
  - # 3
    frequency:   -0.1869252783
  - # 4
    frequency:    0.4409888014
  - # 5
    frequency:    0.5765734683
  - # 6
    frequency:    0.6696183051
  - # 7
    frequency:    0.8191214825
  - # 8
    frequency:    5.2034197897
  - # 9
    frequency:    5.2357627407
  - # 10
    frequency:    6.1317364899
  - # 11
    frequency:    7.0882594122
  - # 12
    frequency:    7.1246342740
  - # 13
    frequency:    7.4361790640
  - # 14
    frequency:    7.4542830825
  - # 15
    frequency:    9.7590210844
  - # 16
    frequency:   12.5821294029
  - # 17
    frequency:   14.1021542296
  - # 18
    frequency:   14.1119324497
  - # 19
    frequency:   17.3546327412
  - # 20
    frequency:   17.3632932135
  - # 21
    frequency:   18.0540467498
  - # 22
    frequency:   18.3740791796
  - # 23
    frequency:   18.3961892906
  - # 24
    frequency:   31.7618785445
  - # 25
    frequency:   38.4938033005
  - # 26
    frequency:   67.4960756118
  - # 27
    frequency:   69.1986656857

- q-position: [    0.0353535,    0.0000000,    0.0000000 ]
  distance:    0.0128535
  band:
  - # 1
    frequency:   -1.1086372058
  - # 2
    frequency:   -0.9999082474
  - # 3
    frequency:   -0.1821907595
  - # 4
    frequency:    0.4797959790
  - # 5
    frequency:    0.6595237990
  - # 6
    frequency:    0.7531493903
  - # 7
    frequency:    0.9479699440
  - # 8
    frequency:    5.2115860287
  - # 9
    frequency:    5.2551413567
  - # 10
    frequency:    6.1238957357
  - # 11
    frequency:    7.0863348280
  - # 12
    frequency:    7.1354656938
  - # 13
    frequency:    7.4454396313
  - # 14
    frequency:    7.4697022313
  - # 15
    frequency:    9.7577125562
  - # 16
    frequency:   12.5707738837
  - # 17
    frequency:   14.1037313336
  - # 18
    frequency:   14.1170029536
  - # 19
    frequency:   17.3554205249
  - # 20
    frequency:   17.3671581312
  - # 21
    frequency:   18.0513447358
  - # 22
    frequency:   18.3809101091
  - # 23
    frequency:   18.4107636916
  - # 24
    frequency:   31.7562351046
  - # 25
    frequency:   38.4937617700
  - # 26
    frequency:   67.4938017576
  - # 27
    frequency:   69.1786381825

- q-position: [    0.0404040,    0.0000000,    0.0000000 ]
  distance:    0.0146897
  band:
  - # 1
    frequency:   -1.0947354180
  - # 2
    frequency:   -0.9518990074
  - # 3
    frequency:   -0.1674339216
  - # 4
    frequency:    0.5166416239
  - # 5
    frequency:    0.7473576542
  - # 6
    frequency:    0.8379265215
  - # 7
    frequency:    1.0797106141
  - # 8
    frequency:    5.2208886206
  - # 9
    frequency:    5.2770925328
  - # 10
    frequency:    6.1152669680
  - # 11
    frequency:    7.0841546347
  - # 12
    frequency:    7.1477799998
  - # 13
    frequency:    7.4559094820
  - # 14
    frequency:    7.4870504332
  - # 15
    frequency:    9.7562343071
  - # 16
    frequency:   12.5577210667
  - # 17
    frequency:   14.1055331462
  - # 18
    frequency:   14.1228113392
  - # 19
    frequency:   17.3563206713
  - # 20
    frequency:   17.3715760251
  - # 21
    frequency:   18.0482320776
  - # 22
    frequency:   18.3886303161
  - # 23
    frequency:   18.4272614554
  - # 24
    frequency:   31.7497741655
  - # 25
    frequency:   38.4937115462
  - # 26
    frequency:   67.4911910096
  - # 27
    frequency:   69.1556895819

- q-position: [    0.0454545,    0.0000000,    0.0000000 ]
  distance:    0.0165259
  band:
  - # 1
    frequency:   -1.0794664897
  - # 2
    frequency:   -0.8968081523
  - # 3
    frequency:   -0.1348100070
  - # 4
    frequency:    0.5535366248
  - # 5
    frequency:    0.8375005633
  - # 6
    frequency:    0.9238497442
  - # 7
    frequency:    1.2132679961
  - # 8
    frequency:    5.2312786860
  - # 9
    frequency:    5.3014596020
  - # 10
    frequency:    6.1059919116
  - # 11
    frequency:    7.0817315856
  - # 12
    frequency:    7.1615121653
  - # 13
    frequency:    7.4675050380
  - # 14
    frequency:    7.5061653262
  - # 15
    frequency:    9.7545995997
  - # 16
    frequency:   12.5429910763
  - # 17
    frequency:   14.1075523316
  - # 18
    frequency:   14.1293403222
  - # 19
    frequency:   17.3573296386
  - # 20
    frequency:   17.3765295905
  - # 21
    frequency:   18.0447123251
  - # 22
    frequency:   18.3971734176
  - # 23
    frequency:   18.4455506557
  - # 24
    frequency:   31.7425169052
  - # 25
    frequency:   38.4936517149
  - # 26
    frequency:   67.4882488113
  - # 27
    frequency:   69.1298869191

- q-position: [    0.0505051,    0.0000000,    0.0000000 ]
  distance:    0.0183621
  band:
  - # 1
    frequency:   -1.0628899547
  - # 2
    frequency:   -0.8338512929
  - # 3
    frequency:   -0.0445573530
  - # 4
    frequency:    0.5910594685
  - # 5
    frequency:    0.9288763253
  - # 6
    frequency:    1.0106508598
  - # 7
    frequency:    1.3480296480
  - # 8
    frequency:    5.2427024611
  - # 9
    frequency:    5.3280758072
  - # 10
    frequency:    6.0962125514
  - # 11
    frequency:    7.0790781108
  - # 12
    frequency:    7.1765940029
  - # 13
    frequency:    7.4801362235
  - # 14
    frequency:    7.5268784415
  - # 15
    frequency:    9.7528232650
  - # 16
    frequency:   12.5266060232
  - # 17
    frequency:   14.1097807955
  - # 18
    frequency:   14.1365708026
  - # 19
    frequency:   17.3584435614
  - # 20
    frequency:   17.3819995310
  - # 21
    frequency:   18.0407900305
  - # 22
    frequency:   18.4064660717
  - # 23
    frequency:   18.4654851987
  - # 24
    frequency:   31.7344869592
  - # 25
    frequency:   38.4935812872
  - # 26
    frequency:   67.4849812678
  - # 27
    frequency:   69.1013051422

- q-position: [    0.0555556,    0.0000000,    0.0000000 ]
  distance:    0.0201984
  band:
  - # 1
    frequency:   -1.0450337033
  - # 2
    frequency:   -0.7619632924
  - # 3
    frequency:    0.1505139621
  - # 4
    frequency:    0.6293192318
  - # 5
    frequency:    1.0209411967
  - # 6
    frequency:    1.0980665365
  - # 7
    frequency:    1.4835844332
  - # 8
    frequency:    5.2551018557
  - # 9
    frequency:    5.3567671948
  - # 10
    frequency:    6.0860681125
  - # 11
    frequency:    7.0762061308
  - # 12
    frequency:    7.1929543412
  - # 13
    frequency:    7.4937075168
  - # 14
    frequency:    7.5490189511
  - # 15
    frequency:    9.7509216137
  - # 16
    frequency:   12.5085898112
  - # 17
    frequency:   14.1122097580
  - # 18
    frequency:   14.1444820157
  - # 19
    frequency:   17.3596582958
  - # 20
    frequency:   17.3879646427
  - # 21
    frequency:   18.0364707753
  - # 22
    frequency:   18.4164286558
  - # 23
    frequency:   18.4869061768
  - # 24
    frequency:   31.7257102886
  - # 25
    frequency:   38.4934992162
  - # 26
    frequency:   67.4813951225
  - # 27
    frequency:   69.0700267420

- q-position: [    0.0606061,    0.0000000,    0.0000000 ]
  distance:    0.0220346
  band:
  - # 1
    frequency:   -1.0258954802
  - # 2
    frequency:   -0.6797941527
  - # 3
    frequency:    0.2421762178
  - # 4
    frequency:    0.6682685904
  - # 5
    frequency:    1.1133659118
  - # 6
    frequency:    1.1858724963
  - # 7
    frequency:    1.6196308736
  - # 8
    frequency:    5.2684150476
  - # 9
    frequency:    5.3873553385
  - # 10
    frequency:    6.0756928796
  - # 11
    frequency:    7.0731269718
  - # 12
    frequency:    7.2105188792
  - # 13
    frequency:    7.5081189420
  - # 14
    frequency:    7.5724170114
  - # 15
    frequency:    9.7489123312
  - # 16
    frequency:   12.4889679534
  - # 17
    frequency:   14.1148298315
  - # 18
    frequency:   14.1530516845
  - # 19
    frequency:   17.3609694637
  - # 20
    frequency:   17.3944018893
  - # 21
    frequency:   18.0317611910
  - # 22
    frequency:   18.4269760065
  - # 23
    frequency:   18.5096433368
  - # 24
    frequency:   31.7162150371
  - # 25
    frequency:   38.4934044144
  - # 26
    frequency:   67.4774977313
  - # 27
    frequency:   69.0361413450

- q-position: [    0.0656566,    0.0000000,    0.0000000 ]
  distance:    0.0238708
  band:
  - # 1
    frequency:   -1.0054455441
  - # 2
    frequency:   -0.5856762844
  - # 3
    frequency:    0.3317454054
  - # 4
    frequency:    0.7078111664
  - # 5
    frequency:    1.2059223592
  - # 6
    frequency:    1.2738840646
  - # 7
    frequency:    1.7559367091
  - # 8
    frequency:    5.2825771031
  - # 9
    frequency:    5.4196598182
  - # 10
    frequency:    6.0652148051
  - # 11
    frequency:    7.0698513536
  - # 12
    frequency:    7.2292098333
  - # 13
    frequency:    7.5232670112
  - # 14
    frequency:    7.5969066466
  - # 15
    frequency:    9.7468143532
  - # 16
    frequency:   12.4677674034
  - # 17
    frequency:   14.1176311003
  - # 18
    frequency:   14.1622561734
  - # 19
    frequency:   17.3623724970
  - # 20
    frequency:   17.4012864636
  - # 21
    frequency:   18.0266689880
  - # 22
    frequency:   18.4380182132
  - # 23
    frequency:   18.5335166350
  - # 24
    frequency:   31.7060313760
  - # 25
    frequency:   38.4932957726
  - # 26
    frequency:   67.4732970355
  - # 27
    frequency:   68.9997452741

- q-position: [    0.0707071,    0.0000000,    0.0000000 ]
  distance:    0.0257070
  band:
  - # 1
    frequency:   -0.9836294216
  - # 2
    frequency:   -0.4770332092
  - # 3
    frequency:    0.4267408180
  - # 4
    frequency:    0.7478406856
  - # 5
    frequency:    1.2984381069
  - # 6
    frequency:    1.3619494960
  - # 7
    frequency:    1.8923164738
  - # 8
    frequency:    5.2975206167
  - # 9
    frequency:    5.4535003908
  - # 10
    frequency:    6.0547548239
  - # 11
    frequency:    7.0663894261
  - # 12
    frequency:    7.2489454824
  - # 13
    frequency:    7.5390456321
  - # 14
    frequency:    7.6223281634
  - # 15
    frequency:    9.7446477216
  - # 16
    frequency:   12.4450164058
  - # 17
    frequency:   14.1206032026
  - # 18
    frequency:   14.1720706397
  - # 19
    frequency:   17.3638626808
  - # 20
    frequency:   17.4085918293
  - # 21
    frequency:   18.0212030042
  - # 22
    frequency:   18.4494614593
  - # 23
    frequency:   18.5583378541
  - # 24
    frequency:   31.6951913404
  - # 25
    frequency:   38.4931721797
  - # 26
    frequency:   67.4688015316
  - # 27
    frequency:   68.9609410777

- q-position: [    0.0757576,    0.0000000,    0.0000000 ]
  distance:    0.0275432
  band:
  - # 1
    frequency:   -0.9603699702
  - # 2
    frequency:   -0.3460527970
  - # 3
    frequency:    0.5289042748
  - # 4
    frequency:    0.7882553998
  - # 5
    frequency:    1.3907757535
  - # 6
    frequency:    1.4499429147
  - # 7
    frequency:    2.0286167788
  - # 8
    frequency:    5.3131763610
  - # 9
    frequency:    5.4886988008
  - # 10
    frequency:    6.0444267890
  - # 11
    frequency:    7.0627508286
  - # 12
    frequency:    7.2696396983
  - # 13
    frequency:    7.5553469875
  - # 14
    frequency:    7.6485301217
  - # 15
    frequency:    9.7424334192
  - # 16
    frequency:   12.4207443690
  - # 17
    frequency:   14.1237354125
  - # 18
    frequency:   14.1824691826
  - # 19
    frequency:   17.3654351932
  - # 20
    frequency:   17.4162897354
  - # 21
    frequency:   18.0153732829
  - # 22
    frequency:   18.4612089017
  - # 23
    frequency:   18.5839122598
  - # 24
    frequency:   31.6837286556
  - # 25
    frequency:   38.4930325420
  - # 26
    frequency:   67.4640202403
  - # 27
    frequency:   68.9198370324

- q-position: [    0.0808081,    0.0000000,    0.0000000 ]
  distance:    0.0293794
  band:
  - # 1
    frequency:   -0.9355682325
  - # 2
    frequency:   -0.1421510510
  - # 3
    frequency:    0.6359665591
  - # 4
    frequency:    0.8289629122
  - # 5
    frequency:    1.4828222666
  - # 6
    frequency:    1.5377584484
  - # 7
    frequency:    2.1647057129
  - # 8
    frequency:    5.3294739364
  - # 9
    frequency:    5.5250801722
  - # 10
    frequency:    6.0343379648
  - # 11
    frequency:    7.0589447588
  - # 12
    frequency:    7.2912015246
  - # 13
    frequency:    7.5720623927
  - # 14
    frequency:    7.6753709104
  - # 15
    frequency:    9.7401931822
  - # 16
    frequency:   12.3949817635
  - # 17
    frequency:   14.1270167219
  - # 18
    frequency:   14.1934249893
  - # 19
    frequency:   17.3670851446
  - # 20
    frequency:   17.4243501982
  - # 21
    frequency:   18.0091911876
  - # 22
    frequency:   18.4731615823
  - # 23
    frequency:   18.6100402801
  - # 24
    frequency:   31.6716785575
  - # 25
    frequency:   38.4928758042
  - # 26
    frequency:   67.4589626738
  - # 27
    frequency:   68.8765466204

- q-position: [    0.0858586,    0.0000000,    0.0000000 ]
  distance:    0.0312156
  band:
  - # 1
    frequency:   -0.9091027229
  - # 2
    frequency:    0.2736176809
  - # 3
    frequency:    0.7438327708
  - # 4
    frequency:    0.8698811623
  - # 5
    frequency:    1.5744827344
  - # 6
    frequency:    1.6253056932
  - # 7
    frequency:    2.3004648825
  - # 8
    frequency:    5.3463424155
  - # 9
    frequency:    5.5624738989
  - # 10
    frequency:    6.0245900660
  - # 11
    frequency:    7.0549800365
  - # 12
    frequency:    7.3135348508
  - # 13
    frequency:    7.5890831317
  - # 14
    frequency:    7.7027199782
  - # 15
    frequency:    9.7379492919
  - # 16
    frequency:   12.3677600448
  - # 17
    frequency:   14.1304359210
  - # 18
    frequency:   14.2049104762
  - # 19
    frequency:   17.3688076132
  - # 20
    frequency:   17.4327414402
  - # 21
    frequency:   18.0026695612
  - # 22
    frequency:   18.4852193597
  - # 23
    frequency:   18.6365191892
  - # 24
    frequency:   31.6590776055
  - # 25
    frequency:   38.4927009694
  - # 26
    frequency:   67.4536388007
  - # 27
    frequency:   68.8311879855

- q-position: [    0.0909091,    0.0000000,    0.0000000 ]
  distance:    0.0330518
  band:
  - # 1
    frequency:   -0.8808268253
  - # 2
    frequency:    0.4134221593
  - # 3
    frequency:    0.8494414989
  - # 4
    frequency:    0.9109379056
  - # 5
    frequency:    1.6656762882
  - # 6
    frequency:    1.7125062951
  - # 7
    frequency:    2.4357833137
  - # 8
    frequency:    5.3637109713
  - # 9
    frequency:    5.6007138841
  - # 10
    frequency:    6.0152809262
  - # 11
    frequency:    7.0508651577
  - # 12
    frequency:    7.3365382100
  - # 13
    frequency:    7.6063012681
  - # 14
    frequency:    7.7304587725
  - # 15
    frequency:    9.7357243445
  - # 16
    frequency:   12.3391116030
  - # 17
    frequency:   14.1339816767
  - # 18
    frequency:   14.2168974269
  - # 19
    frequency:   17.3705976784
  - # 20
    frequency:   17.4414297774
  - # 21
    frequency:   17.9958229380
  - # 22
    frequency:   18.4972818554
  - # 23
    frequency:   18.6631447836
  - # 24
    frequency:   31.6459634919
  - # 25
    frequency:   38.4925071193
  - # 26
    frequency:   67.4480590109
  - # 27
    frequency:   68.7838833721

- q-position: [    0.0959596,    0.0000000,    0.0000000 ]
  distance:    0.0348881
  band:
  - # 1
    frequency:   -0.8505638632
  - # 2
    frequency:    0.5220560275
  - # 3
    frequency:    0.9514899133
  - # 4
    frequency:    0.9520696714
  - # 5
    frequency:    1.7563332287
  - # 6
    frequency:    1.7992913898
  - # 7
    frequency:    2.5705527129
  - # 8
    frequency:    5.3815094842
  - # 9
    frequency:    5.6396378248
  - # 10
    frequency:    6.0065070604
  - # 11
    frequency:    7.0466083363
  - # 12
    frequency:    7.3601047246
  - # 13
    frequency:    7.6236104288
  - # 14
    frequency:    7.7584814234
  - # 15
    frequency:    9.7335410015
  - # 16
    frequency:   12.3090697358
  - # 17
    frequency:   14.1376426082
  - # 18
    frequency:   14.2293571264
  - # 19
    frequency:   17.3724504516
  - # 20
    frequency:   17.4503794439
  - # 21
    frequency:   17.9886678176
  - # 22
    frequency:   18.5092494026
  - # 23
    frequency:   18.6897130365
  - # 24
    frequency:   31.6323748472
  - # 25
    frequency:   38.4922934340
  - # 26
    frequency:   67.4422340788
  - # 27
    frequency:   68.7347585488

- q-position: [    0.1010101,    0.0000000,    0.0000000 ]
  distance:    0.0367243
  band:
  - # 1
    frequency:   -0.8180991202
  - # 2
    frequency:    0.6188423766
  - # 3
    frequency:    0.9932206149
  - # 4
    frequency:    1.0497682123
  - # 5
    frequency:    1.8463929058
  - # 6
    frequency:    1.8855996838
  - # 7
    frequency:    2.7046637180
  - # 8
    frequency:    5.3996691193
  - # 9
    frequency:    5.6790848742
  - # 10
    frequency:    5.9983677716
  - # 11
    frequency:    7.0422175324
  - # 12
    frequency:    7.3841222181
  - # 13
    frequency:    7.6409065505
  - # 14
    frequency:    7.7866952022
  - # 15
    frequency:    9.7314217230
  - # 16
    frequency:   12.2776686457
  - # 17
    frequency:   14.1414073592
  - # 18
    frequency:   14.2422604915
  - # 19
    frequency:   17.3743611045
  - # 20
    frequency:   17.4595523390
  - # 21
    frequency:   17.9812230139
  - # 22
    frequency:   18.5210239902
  - # 23
    frequency:   18.7160217182
  - # 24
    frequency:   31.6183510438
  - # 25
    frequency:   38.4920592108
  - # 26
    frequency:   67.4361751261
  - # 27
    frequency:   68.6839422222

- q-position: [    0.1060606,    0.0000000,    0.0000000 ]
  distance:    0.0385605
  band:
  - # 1
    frequency:   -0.7831675432
  - # 2
    frequency:    0.7101972201
  - # 3
    frequency:    1.0343414341
  - # 4
    frequency:    1.1445186995
  - # 5
    frequency:    1.9358021185
  - # 6
    frequency:    1.9713760073
  - # 7
    frequency:    2.8380028550
  - # 8
    frequency:    5.4181228704
  - # 9
    frequency:    5.7188901248
  - # 10
    frequency:    5.9909723591
  - # 11
    frequency:    7.0377004700
  - # 12
    frequency:    7.4084735128
  - # 13
    frequency:    7.6580885870
  - # 14
    frequency:    7.8150207604
  - # 15
    frequency:    9.7293884870
  - # 16
    frequency:   12.2449434569
  - # 17
    frequency:   14.1452646662
  - # 18
    frequency:   14.2555781978
  - # 19
    frequency:   17.3763248950
  - # 20
    frequency:   17.4689076815
  - # 21
    frequency:   17.9735100929
  - # 22
    frequency:   18.5325101919
  - # 23
    frequency:   18.7418719729
  - # 24
    frequency:   31.6039319984
  - # 25
    frequency:   38.4918038820
  - # 26
    frequency:   67.4298935832
  - # 27
    frequency:   68.6315654427

- q-position: [    0.1111111,    0.0000000,    0.0000000 ]
  distance:    0.0403967
  band:
  - # 1
    frequency:   -0.7454348651
  - # 2
    frequency:    0.7989481527
  - # 3
    frequency:    1.0753884103
  - # 4
    frequency:    1.2361110442
  - # 5
    frequency:    2.0245138970
  - # 6
    frequency:    2.0565702170
  - # 7
    frequency:    2.9704499826
  - # 8
    frequency:    5.4368060630
  - # 9
    frequency:    5.7588719450
  - # 10
    frequency:    5.9844544139
  - # 11
    frequency:    7.0330646464
  - # 12
    frequency:    7.4330369362
  - # 13
    frequency:    7.6750591683
  - # 14
    frequency:    7.8433921471
  - # 15
    frequency:    9.7274624996
  - # 16
    frequency:   12.2109302514
  - # 17
    frequency:   14.1492034229
  - # 18
    frequency:   14.2692808044
  - # 19
    frequency:   17.3783371908
  - # 20
    frequency:   17.4784015512
  - # 21
    frequency:   17.9655539185
  - # 22
    frequency:   18.5436160718
  - # 23
    frequency:   18.7670698415
  - # 24
    frequency:   31.5891579764
  - # 25
    frequency:   38.4915270325
  - # 26
    frequency:   67.4234011511
  - # 27
    frequency:   68.5777610077

- q-position: [    0.1161616,    0.0000000,    0.0000000 ]
  distance:    0.0422329
  band:
  - # 1
    frequency:   -0.7044679828
  - # 2
    frequency:    0.8865094411
  - # 3
    frequency:    1.1163225859
  - # 4
    frequency:    1.3249135305
  - # 5
    frequency:    2.1124865756
  - # 6
    frequency:    2.1411363553
  - # 7
    frequency:    3.1018760523
  - # 8
    frequency:    5.4556568144
  - # 9
    frequency:    5.7988008589
  - # 10
    frequency:    5.9790045387
  - # 11
    frequency:    7.0283173375
  - # 12
    frequency:    7.4576870621
  - # 13
    frequency:    7.6917252077
  - # 14
    frequency:    7.8717565836
  - # 15
    frequency:    9.7256638999
  - # 16
    frequency:   12.1756661197
  - # 17
    frequency:   14.1532127404
  - # 18
    frequency:   14.2833388748
  - # 19
    frequency:   17.3803934910
  - # 20
    frequency:   17.4879862952
  - # 21
    frequency:   17.9573833288
  - # 22
    frequency:   18.5542540585
  - # 23
    frequency:   18.7914277215
  - # 24
    frequency:   31.5740693968
  - # 25
    frequency:   38.4912284140
  - # 26
    frequency:   67.4167097623
  - # 27
    frequency:   68.5226628643

- q-position: [    0.1212121,    0.0000000,    0.0000000 ]
  distance:    0.0440691
  band:
  - # 1
    frequency:   -0.6596865622
  - # 2
    frequency:    0.9736371435
  - # 3
    frequency:    1.1571090702
  - # 4
    frequency:    1.4112513043
  - # 5
    frequency:    2.1996830884
  - # 6
    frequency:    2.2250320028
  - # 7
    frequency:    3.2321410524
  - # 8
    frequency:    5.4746164454
  - # 9
    frequency:    5.8383126551
  - # 10
    frequency:    5.9749588372