nqpoint: 300    
npath: 3      
segment_nqpoint:
- 100
- 100
- 100
labels:
- [ 'G', 'M' ]
- [ 'M', 'K' ]
- [ 'K', 'G' ]
reciprocal_lattice:
- [   0.29924783,   0.17277081,   0.00000000 ] # a*
- [   0.00000000,   0.34554163,   0.00000000 ] # b*
- [   0.00000000,   0.00000000,   0.03775983 ] # c*
natom: 8      
lattice:
- [     3.341711834360182,     0.000000000000000,     0.000000000000000 ] # a
- [    -1.670855917180091,     2.894007340678288,     0.000000000000000 ] # b
- [     0.000000000000000,     0.000000000000000,    26.483171905871359 ] # c
points:
- symbol: C # 1
  coordinates: [  0.000000000000000,  0.000000000000000,  0.529086166102365 ]
  mass: 12.010700
- symbol: C # 2
  coordinates: [  0.666666984744047,  0.333332985985145,  0.384693227824867 ]
  mass: 12.010700
- symbol: H # 3
  coordinates: [  0.333332985432215,  0.666666983183674,  0.660161553457851 ]
  mass: 1.007940
- symbol: N # 4
  coordinates: [  0.666666984744047,  0.333332985985145,  0.339838446542149 ]
  mass: 14.006700
- symbol: O # 5
  coordinates: [  0.333332985432215,  0.666666983183674,  0.623023819206492 ]
  mass: 15.999400
- symbol: O # 6
  coordinates: [  0.666666984744047,  0.333332985985145,  0.435107499519355 ]
  mass: 15.999400
- symbol: Sc # 7
  coordinates: [  0.333332985432215,  0.666666983183674,  0.482066581572237 ]
  mass: 44.955912
- symbol: Sc # 8
  coordinates: [  0.666666984744047,  0.333332985985145,  0.577032782421877 ]
  mass: 44.955912

phonon:
- q-position: [    0.0000000,    0.0000000,    0.0000000 ]
  distance:    0.0000000
  band:
  - # 1
    frequency:   -0.8149724395
  - # 2
    frequency:   -0.8149724394
  - # 3
    frequency:   -0.0000168404
  - # 4
    frequency:   -0.0000007008
  - # 5
    frequency:    0.0000114658
  - # 6
    frequency:    4.6898141377
  - # 7
    frequency:    4.6898141377
  - # 8
    frequency:    6.4369106695
  - # 9
    frequency:    6.5319231279
  - # 10
    frequency:    6.5319231279
  - # 11
    frequency:    7.2325190224
  - # 12
    frequency:    7.2325190224
  - # 13
    frequency:   10.6837126210
  - # 14
    frequency:   11.2230892443
  - # 15
    frequency:   11.2230892443
  - # 16
    frequency:   12.6080436050
  - # 17
    frequency:   12.6080436051
  - # 18
    frequency:   13.8443320234
  - # 19
    frequency:   13.8443320234
  - # 20
    frequency:   14.0309987519
  - # 21
    frequency:   19.4882316173
  - # 22
    frequency:   32.2092554903
  - # 23
    frequency:   68.0639916896
  - # 24
    frequency:  115.3227998094

- q-position: [    0.0050505,    0.0000000,    0.0000000 ]
  distance:    0.0017452
  band:
  - # 1
    frequency:   -0.8138324265
  - # 2
    frequency:   -0.8100136542
  - # 3
    frequency:    0.0022704705
  - # 4
    frequency:    0.0804428252
  - # 5
    frequency:    0.1416777765
  - # 6
    frequency:    4.6899443898
  - # 7
    frequency:    4.6911566910
  - # 8
    frequency:    6.4334633202
  - # 9
    frequency:    6.5317199429
  - # 10
    frequency:    6.5379898751
  - # 11
    frequency:    7.2325488163
  - # 12
    frequency:    7.2340528670
  - # 13
    frequency:   10.6825785845
  - # 14
    frequency:   11.2230042770
  - # 15
    frequency:   11.2243527560
  - # 16
    frequency:   12.6077932024
  - # 17
    frequency:   12.6125405098
  - # 18
    frequency:   13.8443868125
  - # 19
    frequency:   13.8444884842
  - # 20
    frequency:   14.0323515169
  - # 21
    frequency:   19.4869327310
  - # 22
    frequency:   32.2088070405
  - # 23
    frequency:   68.0637252884
  - # 24
    frequency:  115.3227749227

- q-position: [    0.0101010,    0.0000000,    0.0000000 ]
  distance:    0.0034903
  band:
  - # 1
    frequency:   -0.8104431069
  - # 2
    frequency:   -0.7953855382
  - # 3
    frequency:    0.0090315584
  - # 4
    frequency:    0.1610488487
  - # 5
    frequency:    0.2844591040
  - # 6
    frequency:    4.6903354032
  - # 7
    frequency:    4.6951747934
  - # 8
    frequency:    6.4250181511
  - # 9
    frequency:    6.5311119505
  - # 10
    frequency:    6.5541816716
  - # 11
    frequency:    7.2326372637
  - # 12
    frequency:    7.2386784811
  - # 13
    frequency:   10.6792071577
  - # 14
    frequency:   11.2227500847
  - # 15
    frequency:   11.2280622238
  - # 16
    frequency:   12.6070429502
  - # 17
    frequency:   12.6260792771
  - # 18
    frequency:   13.8445511608
  - # 19
    frequency:   13.8449681706
  - # 20
    frequency:   14.0364000381
  - # 21
    frequency:   19.4830380521
  - # 22
    frequency:   32.2074627864
  - # 23
    frequency:   68.0629266338
  - # 24
    frequency:  115.3227003284

- q-position: [    0.0151515,    0.0000000,    0.0000000 ]
  distance:    0.0052355
  band:
  - # 1
    frequency:   -0.8048897846
  - # 2
    frequency:   -0.7716703094
  - # 3
    frequency:    0.0203759076
  - # 4
    frequency:    0.2419537405
  - # 5
    frequency:    0.4290527430
  - # 6
    frequency:    4.6909879484
  - # 7
    frequency:    4.7018400414
  - # 8
    frequency:    6.4145311820
  - # 9
    frequency:    6.5301038137
  - # 10
    frequency:    6.5772133785
  - # 11
    frequency:    7.2327815785
  - # 12
    frequency:    7.2464668025
  - # 13
    frequency:   10.6736860480
  - # 14
    frequency:   11.2223287933
  - # 15
    frequency:   11.2339821443
  - # 16
    frequency:   12.6057957136
  - # 17
    frequency:   12.6487993479
  - # 18
    frequency:   13.8448250113
  - # 19
    frequency:   13.8458000465
  - # 20
    frequency:   14.0431168902
  - # 21
    frequency:   19.4765535194
  - # 22
    frequency:   32.2052260090
  - # 23
    frequency:   68.0615973701
  - # 24
    frequency:  115.3225762235

- q-position: [    0.0202020,    0.0000000,    0.0000000 ]
  distance:    0.0069806
  band:
  - # 1
    frequency:   -0.7972937836
  - # 2
    frequency:   -0.7393917254
  - # 3
    frequency:    0.0364468165
  - # 4
    frequency:    0.3232448806
  - # 5
    frequency:    0.5755948524
  - # 6
    frequency:    4.6919033080
  - # 7
    frequency:    4.7111059658
  - # 8
    frequency:    6.4036742312
  - # 9
    frequency:    6.5287032203
  - # 10
    frequency:    6.6048834908
  - # 11
    frequency:    7.2329771742
  - # 12
    frequency:    7.2575311617
  - # 13
    frequency:   10.6661483917
  - # 14
    frequency:   11.2217439355
  - # 15
    frequency:   11.2417441740
  - # 16
    frequency:   12.6040562624
  - # 17
    frequency:   12.6809175388
  - # 18
    frequency:   13.8452082681
  - # 19
    frequency:   13.8470266048
  - # 20
    frequency:   14.0524619923
  - # 21
    frequency:   19.4674890290
  - # 22
    frequency:   32.2021021615
  - # 23
    frequency:   68.0597402321
  - # 24
    frequency:  115.3224029355

- q-position: [    0.0252525,    0.0000000,    0.0000000 ]
  distance:    0.0087258
  band:
  - # 1
    frequency:   -0.7877874428
  - # 2
    frequency:   -0.6986129177
  - # 3
    frequency:    0.0575163406
  - # 4
    frequency:    0.4049518582
  - # 5
    frequency:    0.7237528890
  - # 6
    frequency:    4.6930832750
  - # 7
    frequency:    4.7229092602
  - # 8
    frequency:    6.3931021163
  - # 9
    frequency:    6.5269207601
  - # 10
    frequency:    6.6358360113
  - # 11
    frequency:    7.2332177471
  - # 12
    frequency:    7.2720180822
  - # 13
    frequency:   10.6567574087
  - # 14
    frequency:   11.2210004347
  - # 15
    frequency:   11.2508787818
  - # 16
    frequency:   12.6018312620
  - # 17
    frequency:   12.7227052716
  - # 18
    frequency:   13.8457007955
  - # 19
    frequency:   13.8486972981
  - # 20
    frequency:   14.0643890377
  - # 21
    frequency:   19.4558584304
  - # 22
    frequency:   32.1980988472
  - # 23
    frequency:   68.0573590362
  - # 24
    frequency:  115.3221809214

- q-position: [    0.0303030,    0.0000000,    0.0000000 ]
  distance:    0.0104710
  band:
  - # 1
    frequency:   -0.7764892522
  - # 2
    frequency:   -0.6486890902
  - # 3
    frequency:    0.0841016618
  - # 4
    frequency:    0.4870489763
  - # 5
    frequency:    0.8729782736
  - # 6
    frequency:    4.6945301485
  - # 7
    frequency:    4.7371713570
  - # 8
    frequency:    6.3830028693
  - # 9
    frequency:    6.5247697593
  - # 10
    frequency:    6.6690522358
  - # 11
    frequency:    7.2334953877
  - # 12
    frequency:    7.2900911185
  - # 13
    frequency:   10.6456911702
  - # 14
    frequency:   11.2201045830
  - # 15
    frequency:   11.2608522069
  - # 16
    frequency:   12.5991292612
  - # 17
    frequency:   12.7744582457
  - # 18
    frequency:   13.8463024164
  - # 19
    frequency:   13.8508624526
  - # 20
    frequency:   14.0788515817
  - # 21
    frequency:   19.4416795239
  - # 22
    frequency:   32.1932257878
  - # 23
    frequency:   68.0544586677
  - # 24
    frequency:  115.3219107660

- q-position: [    0.0353535,    0.0000000,    0.0000000 ]
  distance:    0.0122161
  band:
  - # 1
    frequency:   -0.7634845322
  - # 2
    frequency:   -0.5881624186
  - # 3
    frequency:    0.1172199732
  - # 4
    frequency:    0.5694668641
  - # 5
    frequency:    1.0227228773
  - # 6
    frequency:    4.6962467301
  - # 7
    frequency:    4.7538002424
  - # 8
    frequency:    6.3733807915
  - # 9
    frequency:    6.5222660752
  - # 10
    frequency:    6.7036228569
  - # 11
    frequency:    7.2338007184
  - # 12
    frequency:    7.3119057272
  - # 13
    frequency:   10.6331302156
  - # 14
    frequency:   11.2190640121
  - # 15
    frequency:   11.2711042843
  - # 16
    frequency:   12.5959606754
  - # 17
    frequency:   12.8364606293
  - # 18
    frequency:   13.8470129107
  - # 19
    frequency:   13.8535690792
  - # 20
    frequency:   14.0958076270
  - # 21
    frequency:   19.4249740561
  - # 22
    frequency:   32.1874947840
  - # 23
    frequency:   68.0510450656
  - # 24
    frequency:  115.3215931799

- q-position: [    0.0404040,    0.0000000,    0.0000000 ]
  distance:    0.0139613
  band:
  - # 1
    frequency:   -0.7488140999
  - # 2
    frequency:   -0.5147445926
  - # 3
    frequency:    0.1589756349
  - # 4
    frequency:    0.6521082915
  - # 5
    frequency:    1.1725414180
  - # 6
    frequency:    4.6982363175
  - # 7
    frequency:    4.7726923987
  - # 8
    frequency:    6.3641793631
  - # 9
    frequency:    6.5194278595
  - # 10
    frequency:    6.7386915828
  - # 11
    frequency:    7.2341230505
  - # 12
    frequency:    7.3375749762
  - # 13
    frequency:   10.6192491098
  - # 14
    frequency:   11.2178876571
  - # 15
    frequency:   11.2810835044
  - # 16
    frequency:   12.5923377656
  - # 17
    frequency:   12.9089466315
  - # 18
    frequency:   13.8478320123
  - # 19
    frequency:   13.8568593447
  - # 20
    frequency:   14.1152223921
  - # 21
    frequency:   19.4057677190
  - # 22
    frequency:   32.1809196680
  - # 23
    frequency:   68.0471252030
  - # 24
    frequency:  115.3212289972

- q-position: [    0.0454545,    0.0000000,    0.0000000 ]
  distance:    0.0157064
  band:
  - # 1
    frequency:   -0.7324701990
  - # 2
    frequency:   -0.4257793800
  - # 3
    frequency:    0.2138540292
  - # 4
    frequency:    0.7348635049
  - # 5
    frequency:    1.3221059361
  - # 6
    frequency:    4.7005026976
  - # 7
    frequency:    4.7937347754
  - # 8
    frequency:    6.3553331605
  - # 9
    frequency:    6.5162752949
  - # 10
    frequency:    6.7734755473
  - # 11
    frequency:    7.2344505581
  - # 12
    frequency:    7.3671296236
  - # 13
    frequency:   10.6042117117
  - # 14
    frequency:   11.2165857134
  - # 15
    frequency:   11.2902765125
  - # 16
    frequency:   12.5882746121
  - # 17
    frequency:   12.9920624905
  - # 18
    frequency:   13.8487594069
  - # 19
    frequency:   13.8607721905
  - # 20
    frequency:   14.1370696296
  - # 21
    frequency:   19.3840901508
  - # 22
    frequency:   32.1735162472
  - # 23
    frequency:   68.0427070648
  - # 24
    frequency:  115.3208191721

- q-position: [    0.0505051,    0.0000000,    0.0000000 ]
  distance:    0.0174516
  band:
  - # 1
    frequency:   -0.7143969641
  - # 2
    frequency:   -0.3212219339
  - # 3
    frequency:    0.2900092095
  - # 4
    frequency:    0.8176221514
  - # 5
    frequency:    1.4711824433
  - # 6
    frequency:    4.7030501371
  - # 7
    frequency:    4.8168067116
  - # 8
    frequency:    6.3467888056
  - # 9
    frequency:    6.5128303134
  - # 10
    frequency:    6.8073123030
  - # 11
    frequency:    7.2347704620
  - # 12
    frequency:    7.4004808397
  - # 13
    frequency:   10.5881692541
  - # 14
    frequency:   11.2151695866
  - # 15
    frequency:   11.2982301053
  - # 16
    frequency:   12.5837870836
  - # 17
    frequency:   13.0858308234
  - # 18
    frequency:   13.8497947288
  - # 19
    frequency:   13.8653490881
  - # 20
    frequency:   14.1613322803
  - # 21
    frequency:   19.3599749419
  - # 22
    frequency:   32.1653022417
  - # 23
    frequency:   68.0377996225
  - # 24
    frequency:  115.3203647764

- q-position: [    0.0555556,    0.0000000,    0.0000000 ]
  distance:    0.0191968
  band:
  - # 1
    frequency:   -0.6944921814
  - # 2
    frequency:   -0.2071077495
  - # 3
    frequency:    0.3916006338
  - # 4
    frequency:    0.9002808864
  - # 5
    frequency:    1.6196012286
  - # 6
    frequency:    4.7058833714
  - # 7
    frequency:    4.8417817482
  - # 8
    frequency:    6.3385121384
  - # 9
    frequency:    6.5091163019
  - # 10
    frequency:    6.8397032454
  - # 11
    frequency:    7.2350692204
  - # 12
    frequency:    7.4373968886
  - # 13
    frequency:   10.5712602166
  - # 14
    frequency:   11.2136518336
  - # 15
    frequency:   11.3045648000
  - # 16
    frequency:   12.5788927998
  - # 17
    frequency:   13.1901159388
  - # 18
    frequency:   13.8509375571
  - # 19
    frequency:   13.8706470255
  - # 20
    frequency:   14.1880035425
  - # 21
    frequency:   19.3334596497
  - # 22
    frequency:   32.1562972140
  - # 23
    frequency:   68.0324128051
  - # 24
    frequency:  115.3198669950

- q-position: [    0.0606061,    0.0000000,    0.0000000 ]
  distance:    0.0209419
  band:
  - # 1
    frequency:   -0.6726075591
  - # 2
    frequency:   -0.0287550001
  - # 3
    frequency:    0.5045546944
  - # 4
    frequency:    0.9827471709
  - # 5
    frequency:    1.7672326335
  - # 6
    frequency:    4.7090075917
  - # 7
    frequency:    4.8685292903
  - # 8
    frequency:    6.3304893051
  - # 9
    frequency:    6.5051578015
  - # 10
    frequency:    6.8703350238
  - # 11
    frequency:    7.2353327226
  - # 12
    frequency:    7.4775032758
  - # 13
    frequency:   10.5536111474
  - # 14
    frequency:   11.2120460971
  - # 15
    frequency:   11.3089802003
  - # 16
    frequency:   12.5736110871
  - # 17
    frequency:   13.3045801593
  - # 18
    frequency:   13.8521874118
  - # 19
    frequency:   13.8767684409
  - # 20
    frequency:   14.2170898664
  - # 21
    frequency:   19.3045858241
  - # 22
    frequency:   32.1465224931
  - # 23
    frequency:   68.0265574680
  - # 24
    frequency:  115.3193271223

- q-position: [    0.0656566,    0.0000000,    0.0000000 ]
  distance:    0.0226871
  band:
  - # 1
    frequency:   -0.6485453302
  - # 2
    frequency:    0.1839062524
  - # 3
    frequency:    0.6145241520
  - # 4
    frequency:    1.0649403567
  - # 5
    frequency:    1.9139701431
  - # 6
    frequency:    4.7124284294
  - # 7
    frequency:    4.8969160931
  - # 8
    frequency:    6.3227253368
  - # 9
    frequency:    6.5009802078
  - # 10
    frequency:    6.8990723144
  - # 11
    frequency:    7.2355464802
  - # 12
    frequency:    7.5203086293
  - # 13
    frequency:   10.5353378645
  - # 14
    frequency:   11.2103670304
  - # 15
    frequency:   11.3112534363
  - # 16
    frequency:   12.5679629287
  - # 17
    frequency:   13.4285947917
  - # 18
    frequency:   13.8535437498
  - # 19
    frequency:   13.8839416116
  - # 20
    frequency:   14.2486184625
  - # 21
    frequency:   19.2733990506
  - # 22
    frequency:   32.1360010921
  - # 23
    frequency:   68.0202453585
  - # 24
    frequency:  115.3187465576

- q-position: [    0.0707071,    0.0000000,    0.0000000 ]
  distance:    0.0244322
  band:
  - # 1
    frequency:   -0.6220491862
  - # 2
    frequency:    0.2618414690
  - # 3
    frequency:    0.7181001401
  - # 4
    frequency:    1.1467911631
  - # 5
    frequency:    2.0597193772
  - # 6
    frequency:    4.7161519373
  - # 7
    frequency:    4.9268075583
  - # 8
    frequency:    6.3152419061
  - # 9
    frequency:    6.4966094751
  - # 10
    frequency:    6.9259267552
  - # 11
    frequency:    7.2356958155
  - # 12
    frequency:    7.5652495408
  - # 13
    frequency:   10.5165467014
  - # 14
    frequency:   11.2086302156
  - # 15
    frequency:   11.3112326198
  - # 16
    frequency:   12.5619709062
  - # 17
    frequency:   13.5609559272
  - # 18
    frequency:   13.8550059599
  - # 19
    frequency:   13.8927943633
  - # 20
    frequency:   14.2826548047
  - # 21
    frequency:   19.2399490170
  - # 22
    frequency:   32.1247576207
  - # 23
    frequency:   68.0134890788
  - # 24
    frequency:  115.3181268001

- q-position: [    0.0757576,    0.0000000,    0.0000000 ]
  distance:    0.0261774
  band:
  - # 1
    frequency:   -0.5927868591
  - # 2
    frequency:    0.3270776855
  - # 3
    frequency:    0.8158851299
  - # 4
    frequency:    1.2282403861
  - # 5
    frequency:    2.2043911277
  - # 6
    frequency:    4.7201845693
  - # 7
    frequency:    4.9580688354
  - # 8
    frequency:    6.3080750351
  - # 9
    frequency:    6.4920718312
  - # 10
    frequency:    6.9510137430
  - # 11
    frequency:    7.2357660444
  - # 12
    frequency:    7.6117420638
  - # 13
    frequency:   10.4973356394
  - # 14
    frequency:   11.2068520713
  - # 15
    frequency:   11.3088274253
  - # 16
    frequency:   12.5556591336
  - # 17
    frequency:   13.6985199007
  - # 18
    frequency:   13.8565733582
  - # 19
    frequency:   13.9056904020
  - # 20
    frequency:   14.3193438989
  - # 21
    frequency:   19.2042896124
  - # 22
    frequency:   32.1128181933
  - # 23
    frequency:   68.0063020470
  - # 24
    frequency:  115.3174694440

- q-position: [    0.0808081,    0.0000000,    0.0000000 ]
  distance:    0.0279226
  band:
  - # 1
    frequency:   -0.5603195878
  - # 2
    frequency:    0.3885817545
  - # 3
    frequency:    0.9090027195
  - # 4
    frequency:    1.3092373764
  - # 5
    frequency:    2.3478969803
  - # 6
    frequency:    4.7245331558
  - # 7
    frequency:    4.9905657342
  - # 8
    frequency:    6.3012730863
  - # 9
    frequency:    6.4873935051
  - # 10
    frequency:    6.9745091805
  - # 11
    frequency:    7.2357426510
  - # 12
    frequency:    7.6592280066
  - # 13
    frequency:   10.4777952704
  - # 14
    frequency:   11.2050497526
  - # 15
    frequency:   11.3039986406
  - # 16
    frequency:   12.5490531831
  - # 17
    frequency:   13.8253228443
  - # 18
    frequency:   13.8582451824
  - # 19
    frequency:   13.9375212767
  - # 20
    frequency:   14.3590156677
  - # 21
    frequency:   19.1664790724
  - # 22
    frequency:   32.1002103330
  - # 23
    frequency:   67.9986984551
  - # 24
    frequency:  115.3167761730

- q-position: [    0.0858586,    0.0000000,    0.0000000 ]
  distance:    0.0296677
  band:
  - # 1
    frequency:   -0.5240488677
  - # 2
    frequency:    0.4492864242
  - # 3
    frequency:    0.9983958636
  - # 4
    frequency:    1.3897385823
  - # 5
    frequency:    2.4901465257
  - # 6
    frequency:    4.7292048766
  - # 7
    frequency:    5.0241654573
  - # 8
    frequency:    6.2948951465
  - # 9
    frequency:    6.4826004704
  - # 10
    frequency:    6.9966140978
  - # 11
    frequency:    7.2356114555
  - # 12
    frequency:    7.7072088087
  - # 13
    frequency:   10.4580095925
  - # 14
    frequency:   11.2032410427
  - # 15
    frequency:   11.2967480331
  - # 16
    frequency:   12.5421800029
  - # 17
    frequency:   13.8600205869
  - # 18
    frequency:   13.8849635621
  - # 19
    frequency:   14.0430323160
  - # 20
    frequency:   14.4024949131
  - # 21
    frequency:   19.1265801860
  - # 22
    frequency:   32.0869628714
  - # 23
    frequency:   67.9906932254
  - # 24
    frequency:  115.3160487543

- q-position: [    0.0909091,    0.0000000,    0.0000000 ]
  distance:    0.0314129
  band:
  - # 1
    frequency:   -0.4831194751
  - # 2
    frequency:    0.5104090688
  - # 3
    frequency:    1.0847708688
  - # 4
    frequency:    1.4697062855
  - # 5
    frequency:    2.6310455267
  - # 6
    frequency:    4.7342072302
  - # 7
    frequency:    5.0587371722
  - # 8
    frequency:    6.2890098103
  - # 9
    frequency:    6.4777182078
  - # 10
    frequency:    7.0175299711
  - # 11
    frequency:    7.2353587742
  - # 12
    frequency:    7.7552651469
  - # 13
    frequency:   10.4380566634
  - # 14
    frequency:   11.2014442345
  - # 15
    frequency:   11.2871093385
  - # 16
    frequency:   12.5350678256
  - # 17
    frequency:   13.8618986368
  - # 18
    frequency:   13.9038107579
  - # 19
    frequency:   14.1925194381
  - # 20
    frequency:   14.4522163708
  - # 21
    frequency:   19.0846605905
  - # 22
    frequency:   32.0731058472
  - # 23
    frequency:   67.9823019648
  - # 24
    frequency:  115.3152890328

- q-position: [    0.0959596,    0.0000000,    0.0000000 ]
  distance:    0.0331580
  band:
  - # 1
    frequency:   -0.4362278274
  - # 2
    frequency:    0.5725096073
  - # 3
    frequency:    1.1686469275
  - # 4
    frequency:    1.5491075703
  - # 5
    frequency:    2.7704946500
  - # 6
    frequency:    4.7395479997
  - # 7
    frequency:    5.0941524494
  - # 8
    frequency:    6.2836943250
  - # 9
    frequency:    6.4727714869
  - # 10
    frequency:    7.0374439458
  - # 11
    frequency:    7.2349715711
  - # 12
    frequency:    7.8030640976
  - # 13
    frequency:   10.4180091417
  - # 14
    frequency:   11.1996780049
  - # 15
    frequency:   11.2751407272
  - # 16
    frequency:   12.5277460684
  - # 17
    frequency:   13.8638783020
  - # 18
    frequency:   13.9159856229
  - # 19
    frequency:   14.3420297845
  - # 20
    frequency:   14.5170597523
  - # 21
    frequency:   19.0407931847
  - # 22
    frequency:   32.0586704008
  - # 23
    frequency:   67.9735409174
  - # 24
    frequency:  115.3144989245

- q-position: [    0.1010101,    0.0000000,    0.0000000 ]
  distance:    0.0349032
  band:
  - # 1
    frequency:   -0.3811923508
  - # 2
    frequency:    0.6358509761
  - # 3
    frequency:    1.2504077302
  - # 4
    frequency:    1.6279135133
  - # 5
    frequency:    2.9083885167
  - # 6
    frequency:    4.7452352157
  - # 7
    frequency:    5.1302856004
  - # 8
    frequency:    6.2790340357
  - # 9
    frequency:    6.4677841691
  - # 10
    frequency:    7.0565215792
  - # 11
    frequency:    7.2344376029
  - # 12
    frequency:    7.8503572252
  - # 13
    frequency:   10.3979347456
  - # 14
    frequency:   11.1979612797
  - # 15
    frequency:   11.2609187919
  - # 16
    frequency:   12.5202452252
  - # 17
    frequency:   13.8659584514
  - # 18
    frequency:   13.9266675306
  - # 19
    frequency:   14.4589409696
  - # 20
    frequency:   14.6234814584
  - # 21
    frequency:   18.9950567122
  - # 22
    frequency:   32.0436886684
  - # 23
    frequency:   67.9644269154
  - # 24
    frequency:  115.3136804104

- q-position: [    0.1060606,    0.0000000,    0.0000000 ]
  distance:    0.0366484
  band:
  - # 1
    frequency:   -0.3137785473
  - # 2
    frequency:    0.7005467814
  - # 3
    frequency:    1.3303401712
  - # 4
    frequency:    1.7060985646
  - # 5
    frequency:    3.0446149217
  - # 6
    frequency:    4.7512771142
  - # 7
    frequency:    5.1670139646
  - # 8
    frequency:    6.2751220627
  - # 9
    frequency:    6.4627790321
  - # 10
    frequency:    7.0749045429
  - # 11
    frequency:    7.2337455572
  - # 12
    frequency:    7.8969730042
  - # 13
    frequency:   10.3778966502
  - # 14
    frequency:   11.1963130913
  - # 15
    frequency:   11.2445339228
  - # 16
    frequency:   12.5125967499
  - # 17
    frequency:   13.8681378466
  - # 18
    frequency:   13.9369594586
  - # 19
    frequency:   14.5335136027
  - # 20
    frequency:   14.7791111803
  - # 21
    frequency:   18.9475365806
  - # 22
    frequency:   32.0281936749
  - # 23
    frequency:   67.9549773290
  - # 24
    frequency:  115.3128355294

- q-position: [    0.1111111,    0.0000000,    0.0000000 ]
  distance:    0.0383935
  band:
  - # 1
    frequency:   -0.2230713484
  - # 2
    frequency:    0.7666297625
  - # 3
    frequency:    1.4086614664
  - # 4
    frequency:    1.7836400817
  - # 5
    frequency:    3.1790541208
  - # 6
    frequency:    4.7576820929
  - # 7
    frequency:    5.2042182028
  - # 8
    frequency:    6.2720591379
  - # 9
    frequency:    6.4577776162
  - # 10
    frequency:    7.0927112216
  - # 11
    frequency:    7.2328851846
  - # 12
    frequency:    7.9428063064
  - # 13
    frequency:   10.3579538387
  - # 14
    frequency:   11.1947524285
  - # 15
    frequency:   11.2260868590
  - # 16
    frequency:   12.5048329329
  - # 17
    frequency:   13.8704151362
  - # 18
    frequency:   13.9472110267
  - # 19
    frequency:   14.5922552188
  - # 20
    frequency:   14.9560770583
  - # 21
    frequency:   18.8983260219
  - # 22
    frequency:   32.0122192258
  - # 23
    frequency:   67.9452100150
  - # 24
    frequency:  115.3119663714

- q-position: [    0.1161616,    0.0000000,    0.0000000 ]
  distance:    0.0401387
  band:
  - # 1
    frequency:    0.0275495879
  - # 2
    frequency:    0.8340865597
  - # 3
    frequency:    1.4855379553
  - # 4
    frequency:    1.8605179857
  - # 5
    frequency:    3.3115781171
  - # 6
    frequency:    4.7644586622
  - # 7
    frequency:    5.2417826766
  - # 8
    frequency:    6.2699535182
  - # 9
    frequency:    6.4528000926
  - # 10
    frequency:    7.1100387802
  - # 11
    frequency:    7.2318474242
  - # 12
    frequency:    7.9878068671
  - # 13
    frequency:   10.3381614203
  - # 14
    frequency:   11.1932980796
  - # 15
    frequency:   11.2056861907
  - # 16
    frequency:   12.4969867698
  - # 17
    frequency:   13.8727888494
  - # 18
    frequency:   13.9575580434
  - # 19
    frequency:   14.6471454573
  - # 20
    frequency:   15.1412504654
  - # 21
    frequency:   18.8475277453
  - # 22
    frequency:   31.9957998001
  - # 23
    frequency:   67.9351432642
  - # 24
    frequency:  115.3110750706

- q-position: [    0.1212121,    0.0000000,    0.0000000 ]
  distance:    0.0418838
  band:
  - # 1
    frequency:    0.2303844451
  - # 2
    frequency:    0.9028766456
  - # 3
    frequency:    1.5610982413
  - # 4
    frequency:    1.9367145071
  - # 5
    frequency:    3.4420498984
  - # 6
    frequency:    4.7716153936
  - # 7
    frequency:    5.2795960121
  - # 8
    frequency:    6.2689208832
  - # 9
    frequency:    6.4478651530
  - # 10
    frequency:    7.1269658174
  - # 11
    frequency:    7.2306245248
  - # 12
    frequency:    8.0319679237
  - # 13
    frequency:   10.3185709169
  - # 14
    frequency:   11.1834466104
  - # 15
    frequency:   11.1919684693
  - # 16
    frequency:   12.4890918250
  - # 17
    frequency:   13.8752573903
  - # 18
    frequency:   13.9680580961
  - # 19
    frequency:   14.7013885418
  - # 20
    frequency:   15.3303646749
  - # 21
    frequency:   18.7952563198
  - # 22
    frequency:   31.9789704422
  - # 23
    frequency:   67.9247957485
  - # 24
    frequency:  115.3101637979

- q-position: [    0.1262626,    0.0000000,    0.0000000 ]
  distance:    0.0436290
  band:
  - # 1
    frequency:    0.3273597907
  - # 2
    frequency:    0.9729432136
  - # 3
    frequency:    1.6354425085
  - # 4
    frequency:    2.0122139992
  - # 5
    frequency:    3.5703225830
  - # 6
    frequency:    4.7791608641
  - # 7
    frequency:    5.3175519694
  - # 8
    frequency:    6.2690841093
  - # 9
    frequency:    6.4429899211
  - # 10
    frequency:    7.1435551102
  - # 11
    frequency:    7.2292101581
  - # 12
    frequency:    8.0753156854
  - # 13
    frequency:   10.2992305238
  - # 14
    frequency:   11.1594877451
  - # 15
    frequency:   11.1907814903
  - # 16
    frequency:   12.4811820900
  - # 17
    frequency:   13.8778190320
  - # 18
    frequency:   13.9787352245
  - # 19
    frequency:   14.7559860233
  - # 20
    frequency:   15.5214011869
  - # 21
    frequency:   18.7416416541
  - # 22
    frequency:   31.9617666566
  - # 23
    frequency:   67.9141864673
  - # 24
    frequency:  115.3092347537

- q-position: [    0.1313131,    0.0000000,    0.0000000 ]
  distance:    0.0453742
  band:
  - # 1
    frequency:    0.4037194860
  - # 2
    frequency:    1.0442197165
  - # 3
    frequency:    1.7086492378
  - # 4
    frequency:    2.0870027997
  - # 5
    frequency:    3.6962384425
  - # 6
    frequency:    4.7871035975
  - # 7
    frequency:    5.3555507663
  - # 8
    frequency:    6.2705727907
  - # 9
    frequency:    6.4381898852
  - # 10
    frequency:    7.1598562036
  - # 11
    frequency:    7.2275995267
  - # 12
    frequency:    8.1178999336
  - # 13
    frequency:   10.2801853426
  - # 14
    frequency:   11.1339334403
  - # 15
    frequency:   11.1897543319
  - # 16
    frequency:   12.4732918380
  - # 17
    frequency:   13.8804719110
  - # 18
    frequency:   13.9895975053
  - # 19
    frequency:   14.8112894341
  - # 20
    frequency:   15.7130198500
  - # 21
    frequency:   18.6868341697
  - # 22
    frequency:   31.9442243023
  - # 23
    frequency:   67.9033346932
  - # 24
    frequency:  115.3082901608

- q-position: [    0.1363636,    0.0000000,    0.0000000 ]
  distance:    0.0471193
  band:
  - # 1
    frequency:    0.4695925850
  - # 2
    frequency:    1.1166339282
  - # 3
    frequency:    1.7807801285
  - # 4
    frequency:    2.1610691253
  - # 5
    frequency:    3.8196277748
  - # 6
    frequency:    4.7954520020
  - # 7