nqpoint: 300    
npath: 3      
segment_nqpoint:
- 100
- 100
- 100
labels:
- [ 'G', 'M' ]
- [ 'M', 'K' ]
- [ 'K', 'G' ]
reciprocal_lattice:
- [   0.29456990,   0.17007001,   0.00000000 ] # a*
- [   0.00000000,   0.34014002,   0.00000000 ] # b*
- [   0.00000000,   0.00000000,   0.04023205 ] # c*
natom: 6      
lattice:
- [     3.394780006702482,     0.000000000000000,     0.000000000000000 ] # a
- [    -1.697390003351241,     2.939965726064550,     0.000000000000000 ] # b
- [     0.000000000000000,     0.000000000000000,    24.855806619307636 ] # c
points:
- symbol: Br # 1
  coordinates: [  0.666666984744047,  0.333332985985144,  0.362088430194373 ]
  mass: 79.904000
- symbol: C # 2
  coordinates: [  0.333332985432215,  0.666666983183674,  0.589629754204618 ]
  mass: 12.010700
- symbol: N # 3
  coordinates: [  0.000000000000000,  0.000000000000000,  0.484173515478852 ]
  mass: 14.006700
- symbol: N # 4
  coordinates: [  0.333332985432215,  0.666666983183674,  0.637911569805627 ]
  mass: 14.006700
- symbol: Sc # 5
  coordinates: [  0.333332985432215,  0.666666983183674,  0.437137169756857 ]
  mass: 44.955912
- symbol: Sc # 6
  coordinates: [  0.666666984744047,  0.333332985985144,  0.532962895236214 ]
  mass: 44.955912

phonon:
- q-position: [    0.0000000,    0.0000000,    0.0000000 ]
  distance:    0.0000000
  band:
  - # 1
    frequency:   -3.0957916121
  - # 2
    frequency:   -3.0957916121
  - # 3
    frequency:   -0.0000004828
  - # 4
    frequency:    0.0000007185
  - # 5
    frequency:    0.0000009002
  - # 6
    frequency:    3.1527485518
  - # 7
    frequency:    3.1527485518
  - # 8
    frequency:    4.8573579970
  - # 9
    frequency:    5.9851027142
  - # 10
    frequency:    5.9851027142
  - # 11
    frequency:    7.5681529752
  - # 12
    frequency:    7.5681529752
  - # 13
    frequency:    8.5030339822
  - # 14
    frequency:   10.8274172143
  - # 15
    frequency:   12.2229710914
  - # 16
    frequency:   12.2229710914
  - # 17
    frequency:   12.9641509206
  - # 18
    frequency:   61.8459025344

- q-position: [    0.0050505,    0.0000000,    0.0000000 ]
  distance:    0.0017179
  band:
  - # 1
    frequency:   -3.0964956518
  - # 2
    frequency:   -3.0956624891
  - # 3
    frequency:   -0.0874846405
  - # 4
    frequency:    0.0665648748
  - # 5
    frequency:    0.1521934628
  - # 6
    frequency:    3.1531708175
  - # 7
    frequency:    3.1548620833
  - # 8
    frequency:    4.8569118262
  - # 9
    frequency:    5.9851436259
  - # 10
    frequency:    5.9858814992
  - # 11
    frequency:    7.5678992230
  - # 12
    frequency:    7.5683580542
  - # 13
    frequency:    8.5028841975
  - # 14
    frequency:   10.8245354009
  - # 15
    frequency:   12.2230514557
  - # 16
    frequency:   12.2238591727
  - # 17
    frequency:   12.9632190315
  - # 18
    frequency:   61.8457744791

- q-position: [    0.0101010,    0.0000000,    0.0000000 ]
  distance:    0.0034358
  band:
  - # 1
    frequency:   -3.0986092799
  - # 2
    frequency:   -3.0952766743
  - # 3
    frequency:   -0.0940893961
  - # 4
    frequency:    0.1331325249
  - # 5
    frequency:    0.2662339807
  - # 6
    frequency:    3.1544388504
  - # 7
    frequency:    3.1611828376
  - # 8
    frequency:    4.8555766933
  - # 9
    frequency:    5.9852678752
  - # 10
    frequency:    5.9882105085
  - # 11
    frequency:    7.5671401735
  - # 12
    frequency:    7.5689707376
  - # 13
    frequency:    8.5024379812
  - # 14
    frequency:   10.8159388085
  - # 15
    frequency:   12.2232906688
  - # 16
    frequency:   12.2264764449
  - # 17
    frequency:   12.9604317691
  - # 18
    frequency:   61.8453909474

- q-position: [    0.0151515,    0.0000000,    0.0000000 ]
  distance:    0.0051536
  band:
  - # 1
    frequency:   -3.1021366018
  - # 2
    frequency:   -3.0946388004
  - # 3
    frequency:   -0.0859148525
  - # 4
    frequency:    0.1997053342
  - # 5
    frequency:    0.3832814190
  - # 6
    frequency:    3.1565563512
  - # 7
    frequency:    3.1716519864
  - # 8
    frequency:    4.8533626920
  - # 9
    frequency:    5.9854799789
  - # 10
    frequency:    5.9920678659
  - # 11
    frequency:    7.5658824686
  - # 12
    frequency:    7.5699834067
  - # 13
    frequency:    8.5017046886
  - # 14
    frequency:   10.8017701071
  - # 15
    frequency:   12.2236830933
  - # 16
    frequency:   12.2306858421
  - # 17
    frequency:   12.9558143012
  - # 18
    frequency:   61.8447538369

- q-position: [    0.0202020,    0.0000000,    0.0000000 ]
  distance:    0.0068715
  band:
  - # 1
    frequency:   -3.1070831073
  - # 2
    frequency:   -3.0937564907
  - # 3
    frequency:   -0.0640845233
  - # 4
    frequency:    0.2662849044
  - # 5
    frequency:    0.5020334783
  - # 6
    frequency:    3.1595294616
  - # 7
    frequency:    3.1861737202
  - # 8
    frequency:    4.8502865018
  - # 9
    frequency:    5.9857873779
  - # 10
    frequency:    5.9974176354
  - # 11
    frequency:    7.5641372501
  - # 12
    frequency:    7.5713835045
  - # 13
    frequency:    8.5006997171
  - # 14
    frequency:   10.7822549201
  - # 15
    frequency:   12.2242193415
  - # 16
    frequency:   12.2362710022
  - # 17
    frequency:   12.9494084158
  - # 18
    frequency:   61.8438662950

- q-position: [    0.0252525,    0.0000000,    0.0000000 ]
  distance:    0.0085894
  band:
  - # 1
    frequency:   -3.1134538138
  - # 2
    frequency:   -3.0926402159
  - # 3
    frequency:    0.0311630404
  - # 4
    frequency:    0.3328716675
  - # 5
    frequency:    0.6214214160
  - # 6
    frequency:    3.1633667253
  - # 7
    frequency:    3.2046183685
  - # 8
    frequency:    4.8463711934
  - # 9
    frequency:    5.9862003087
  - # 10
    frequency:    6.0042105811
  - # 11
    frequency:    7.5619202689
  - # 12
    frequency:    7.5731537440
  - # 13
    frequency:    8.4994442124
  - # 14
    frequency:   10.7576859634
  - # 15
    frequency:   12.2248862895
  - # 16
    frequency:   12.2429520280
  - # 17
    frequency:   12.9412722706
  - # 18
    frequency:   61.8427326969

- q-position: [    0.0303030,    0.0000000,    0.0000000 ]
  distance:    0.0103073
  band:
  - # 1
    frequency:   -3.1212509809
  - # 2
    frequency:   -3.0913031033
  - # 3
    frequency:    0.0901556825
  - # 4
    frequency:    0.3994645011
  - # 5
    frequency:    0.7408283417
  - # 6
    frequency:    3.1680790290
  - # 7
    frequency:    3.2268263358
  - # 8
    frequency:    4.8416459967
  - # 9
    frequency:    5.9867316288
  - # 10
    frequency:    6.0123851769
  - # 11
    frequency:    7.5592520395
  - # 12
    frequency:    7.5752723923
  - # 13
    frequency:    8.4979646515
  - # 14
    frequency:   10.7284048045
  - # 15
    frequency:   12.2256670999
  - # 16
    frequency:   12.2504036224
  - # 17
    frequency:   12.9314800166
  - # 18
    frequency:   61.8413586142

- q-position: [    0.0353535,    0.0000000,    0.0000000 ]
  distance:    0.0120252
  band:
  - # 1
    frequency:   -3.1304716429
  - # 2
    frequency:   -3.0897607042
  - # 3
    frequency:    0.1332448947
  - # 4
    frequency:    0.4660603504
  - # 5
    frequency:    0.8598608482
  - # 6
    frequency:    3.1736795235
  - # 7
    frequency:    3.2526125008
  - # 8
    frequency:    4.8361460615
  - # 9
    frequency:    5.9873965993
  - # 10
    frequency:    6.0218688213
  - # 11
    frequency:    7.5561580431
  - # 12
    frequency:    7.5777136249
  - # 13
    frequency:    8.4962923016
  - # 14
    frequency:   10.6947837482
  - # 15
    frequency:   12.2265412567
  - # 16
    frequency:   12.2582731288
  - # 17
    frequency:   12.9201212659
  - # 18
    frequency:   61.8397507751

- q-position: [    0.0404040,    0.0000000,    0.0000000 ]
  distance:    0.0137430
  band:
  - # 1
    frequency:   -3.1411052034
  - # 2
    frequency:   -3.0880307308
  - # 3
    frequency:    0.1740607477
  - # 4
    frequency:    0.5326538565
  - # 5
    frequency:    0.9782319297
  - # 6
    frequency:    3.1801835202
  - # 7
    frequency:    3.2817707215
  - # 8
    frequency:    4.8299122475
  - # 9
    frequency:    5.9882126300
  - # 10
    frequency:    6.0325792063
  - # 11
    frequency:    7.5526689780
  - # 12
    frequency:    7.5804479418
  - # 13
    frequency:    8.4944625511
  - # 14
    frequency:   10.6572097297
  - # 15
    frequency:   12.2274846170
  - # 16
    frequency:   12.2661966487
  - # 17
    frequency:   12.9073003662
  - # 18
    frequency:   61.8379170172

- q-position: [    0.0454545,    0.0000000,    0.0000000 ]
  distance:    0.0154609
  band:
  - # 1
    frequency:   -3.1531312981
  - # 2
    frequency:   -3.0861327725
  - # 3
    frequency:    0.2150165479
  - # 4
    frequency:    0.5992369958
  - # 5
    frequency:    1.0957082260
  - # 6
    frequency:    3.1876083601
  - # 7
    frequency:    3.3140781225
  - # 8
    frequency:    4.8229909721
  - # 9
    frequency:    5.9891989926
  - # 10
    frequency:    6.0444257909
  - # 11
    frequency:    7.5488210568
  - # 12
    frequency:    7.5834426376
  - # 13
    frequency:    8.4925141133
  - # 14
    frequency:   10.6160712686
  - # 15
    frequency:   12.2284694822
  - # 16
    frequency:   12.2738122473
  - # 17
    frequency:   12.8931354273
  - # 18
    frequency:   61.8358662322

- q-position: [    0.0505051,    0.0000000,    0.0000000 ]
  distance:    0.0171788
  band:
  - # 1
    frequency:   -3.1665180762
  - # 2
    frequency:   -3.0840880019
  - # 3
    frequency:    0.2569870802
  - # 4
    frequency:    0.6657987327
  - # 5
    frequency:    1.2120859746
  - # 6
    frequency:    3.1959732518
  - # 7
    frequency:    3.3492989062
  - # 8
    frequency:    4.8154341449
  - # 9
    frequency:    5.9903765086
  - # 10
    frequency:    6.0573113290
  - # 11
    frequency:    7.5446563459
  - # 12
    frequency:    7.5866623137
  - # 13
    frequency:    8.4904881063
  - # 14
    frequency:   10.5717487896
  - # 15
    frequency:   12.2294646952
  - # 16
    frequency:   12.2807700243
  - # 17
    frequency:   12.8777570350
  - # 18
    frequency:   61.8336083033

- q-position: [    0.0555556,    0.0000000,    0.0000000 ]
  distance:    0.0188967
  band:
  - # 1
    frequency:   -3.1812209862
  - # 2
    frequency:   -3.0819188832
  - # 3
    frequency:    0.3003404645
  - # 4
    frequency:    0.7323246893
  - # 5
    frequency:    1.3271799561
  - # 6
    frequency:    3.2052990750
  - # 7
    frequency:    3.3871875069
  - # 8
    frequency:    4.8072992059
  - # 9
    frequency:    5.9917672156
  - # 10
    frequency:    6.0711334127
  - # 11
    frequency:    7.5402231381
  - # 12
    frequency:    7.5900694250
  - # 13
    frequency:    8.4884270168
  - # 14
    frequency:   10.5246080856
  - # 15
    frequency:   12.2304357666
  - # 16
    frequency:   12.2867393698
  - # 17
    frequency:   12.8613065772
  - # 18
    frequency:   61.8311540364

- q-position: [    0.0606061,    0.0000000,    0.0000000 ]
  distance:    0.0206145
  band:
  - # 1
    frequency:   -3.1971820910
  - # 2
    frequency:   -3.0796488926
  - # 3
    frequency:    0.3452199497
  - # 4
    frequency:    0.7987968377
  - # 5
    frequency:    1.4408185945
  - # 6
    frequency:    3.2156081449
  - # 7
    frequency:    3.4274909877
  - # 8
    frequency:    4.7986492812
  - # 9
    frequency:    5.9933940194
  - # 10
    frequency:    6.0857859941
  - # 11
    frequency:    7.5355763454
  - # 12
    frequency:    7.5936248489
  - # 13
    frequency:    8.4863735604
  - # 14
    frequency:   10.4749964143
  - # 15
    frequency:   12.2313450355
  - # 16
    frequency:   12.2914140134
  - # 17
    frequency:   12.8439341018
  - # 18
    frequency:   61.8285150849

- q-position: [    0.0656566,    0.0000000,    0.0000000 ]
  distance:    0.0223324
  band:
  - # 1
    frequency:   -3.2143298935
  - # 2
    frequency:   -3.0773022601
  - # 3
    frequency:    0.3916529372
  - # 4
    frequency:    0.8651932202
  - # 5
    frequency:    1.5528420633
  - # 6
    frequency:    3.2269239354
  - # 7
    frequency:    3.4699506524
  - # 8
    frequency:    4.7895534629
  - # 9
    frequency:    5.9952803367
  - # 10
    frequency:    6.1011608590
  - # 11
    frequency:    7.5307778914
  - # 12
    frequency:    7.5972884678
  - # 13
    frequency:    8.4843694589
  - # 14
    frequency:   10.4232406315
  - # 15
    frequency:   12.2321518677
  - # 16
    frequency:   12.2945155515
  - # 17
    frequency:   12.8257956427
  - # 18
    frequency:   61.8257038700

- q-position: [    0.0707071,    0.0000000,    0.0000000 ]
  distance:    0.0240503
  band:
  - # 1
    frequency:   -3.2325796168
  - # 2
    frequency:   -3.0749037410
  - # 3
    frequency:    0.4396027522
  - # 4
    frequency:    0.9314877046
  - # 5
    frequency:    1.6631018503
  - # 6
    frequency:    3.2392707561
  - # 7
    frequency:    3.5143029022
  - # 8
    frequency:    4.7800872128
  - # 9
    frequency:    5.9974497322
  - # 10
    frequency:    6.1171490332
  - # 11
    frequency:    7.5258970776
  - # 12
    frequency:    7.6010197535
  - # 13
    frequency:    8.4824541587
  - # 14
    frequency:   10.3696467991
  - # 15
    frequency:   12.2328128953
  - # 16
    frequency:   12.2957960648
  - # 17
    frequency:   12.8070499892
  - # 18
    frequency:   61.8227334950

- q-position: [    0.0757576,    0.0000000,    0.0000000 ]
  distance:    0.0257682
  band:
  - # 1
    frequency:   -3.2518338715
  - # 2
    frequency:   -3.0724784237
  - # 3
    frequency:    0.4889967013
  - # 4
    frequency:    0.9976497832
  - # 5
    frequency:    1.7714609715
  - # 6
    frequency:    3.2526733818
  - # 7
    frequency:    3.5602794106
  - # 8
    frequency:    4.7703328905
  - # 9
    frequency:    5.9999255541
  - # 10
    frequency:    6.1336421079
  - # 11
    frequency:    7.5210108883
  - # 12
    frequency:    7.6047783460
  - # 13
    frequency:    8.4806635226
  - # 14
    frequency:   10.3145007995
  - # 15
    frequency:   12.2332823004
  - # 16
    frequency:   12.2950402611
  - # 17
    frequency:   12.7878549572
  - # 18
    frequency:   61.8196176568

- q-position: [    0.0808081,    0.0000000,    0.0000000 ]
  distance:    0.0274861
  band:
  - # 1
    frequency:   -3.2719836361
  - # 2
    frequency:   -3.0700515769
  - # 3
    frequency:    0.5397426244
  - # 4
    frequency:    1.0636444235
  - # 5
    frequency:    1.8777943903
  - # 6
    frequency:    3.2671566305
  - # 7
    frequency:    3.6076067178
  - # 8
    frequency:    4.7603804035
  - # 9
    frequency:    6.0027305742
  - # 10
    frequency:    6.1505334803
  - # 11
    frequency:    7.5162041955
  - # 12
    frequency:    7.6085246164
  - # 13
    frequency:    8.4790285289
  - # 14
    frequency:   10.2580696016
  - # 15
    frequency:   12.2335121422
  - # 16
    frequency:   12.2920673416
  - # 17
    frequency:   12.7683633465
  - # 18
    frequency:   61.8163705539

- q-position: [    0.0858586,    0.0000000,    0.0000000 ]
  distance:    0.0292039
  band:
  - # 1
    frequency:   -3.2929094847
  - # 2
    frequency:   -3.0676485392
  - # 3
    frequency:    0.5917391638
  - # 4
    frequency:    1.1294319821
  - # 5
    frequency:    1.9819893861
  - # 6
    frequency:    3.2827448893
  - # 7
    frequency:    3.6560053612
  - # 8
    frequency:    4.7503279749
  - # 9
    frequency:    6.0058866315
  - # 10
    frequency:    6.1677195071
  - # 11
    frequency:    7.5115698174
  - # 12
    frequency:    7.6122202060
  - # 13
    frequency:    8.4775740167
  - # 14
    frequency:   10.2006029215
  - # 15
    frequency:   12.2334527302
  - # 16
    frequency:   12.2867325221
  - # 17
    frequency:   12.7487189361
  - # 18
    frequency:   61.8130067913

- q-position: [    0.0909091,    0.0000000,    0.0000000 ]
  distance:    0.0309218
  band:
  - # 1
    frequency:   -3.3144830031
  - # 2
    frequency:   -3.0652946493
  - # 3
    frequency:    0.6448822881
  - # 4
    frequency:    1.1949681924
  - # 5
    frequency:    2.0839457254
  - # 6
    frequency:    3.2994615858
  - # 7
    frequency:    3.7051886676
  - # 8
    frequency:    4.7402830252
  - # 9
    frequency:    6.0094142869
  - # 10
    frequency:    6.1851005792
  - # 11
    frequency:    7.5072083791
  - # 12
    frequency:    7.6158285345
  - # 13
    frequency:    8.4763175145
  - # 14
    frequency:   10.1423351085
  - # 15
    frequency:   12.2330530404
  - # 16
    frequency:   12.2789278916
  - # 17
    frequency:   12.7290530300
  - # 18
    frequency:   61.8095412848

- q-position: [    0.0959596,    0.0000000,    0.0000000 ]
  distance:    0.0326397
  band:
  - # 1
    frequency:   -3.3365683517
  - # 2
    frequency:   -3.0630152164
  - # 3
    frequency:    0.6990694419
  - # 4
    frequency:    1.2602042376
  - # 5
    frequency:    2.1835755463
  - # 6
    frequency:    3.3173286054
  - # 7
    frequency:    3.7548613380
  - # 8
    frequency:    4.7303631559
  - # 9
    frequency:    6.0133324882
  - # 10
    frequency:    6.2025821260
  - # 11
    frequency:    7.5032279255
  - # 12
    frequency:    7.6193152698
  - # 13
    frequency:    8.4752681888
  - # 14
    frequency:   10.0834871459
  - # 15
    frequency:   12.2322611730
  - # 16
    frequency:   12.2685821281
  - # 17
    frequency:   12.7094821720
  - # 18
    frequency:   61.8059891634

- q-position: [    0.1010101,    0.0000000,    0.0000000 ]
  distance:    0.0343576
  band:
  - # 1
    frequency:   -3.3590239387
  - # 2
    frequency:   -3.0608355246
  - # 3
    frequency:    0.7542021197
  - # 4
    frequency:    1.3250869198
  - # 5
    frequency:    2.2808029062
  - # 6
    frequency:    3.3363656551
  - # 7
    frequency:    3.8047179650
  - # 8
    frequency:    4.7206972094
  - # 9
    frequency:    6.0176582503
  - # 10
    frequency:    6.2200755617
  - # 11
    frequency:    7.4997432322
  - # 12
    frequency:    7.6226487530
  - # 13
    frequency:    8.4744259416
  - # 14
    frequency:   10.0242687001
  - # 15
    frequency:   12.2310248475
  - # 16
    frequency:   12.2556585885
  - # 17
    frequency:   12.6901075967
  - # 18
    frequency:   61.8023656721

- q-position: [    0.1060606,    0.0000000,    0.0000000 ]
  distance:    0.0360755
  band:
  - # 1
    frequency:   -3.3817041824
  - # 2
    frequency:   -3.0587808663
  - # 3
    frequency:    0.8101873713
  - # 4
    frequency:    1.3895589377
  - # 5
    frequency:    2.3755629670
  - # 6
    frequency:    3.3565895764
  - # 7
    frequency:    3.8544416509
  - # 8
    frequency:    4.7114263404
  - # 9
    frequency:    6.0224063531
  - # 10
    frequency:    6.2374991881
  - # 11
    frequency:    7.4968747705
  - # 12
    frequency:    7.6258003738
  - # 13
    frequency:    8.4737806848
  - # 14
    frequency:    9.9648801770
  - # 15
    frequency:   12.2292919299
  - # 16
    frequency:   12.2401515046
  - # 17
    frequency:   12.6710167491
  - # 18
    frequency:   61.7986860750

- q-position: [    0.1111111,    0.0000000,    0.0000000 ]
  distance:    0.0377933
  band:
  - # 1
    frequency:   -3.4044613444
  - # 2
    frequency:   -3.0568765978
  - # 3
    frequency:    0.8669385683
  - # 4
    frequency:    1.4535592796
  - # 5
    frequency:    2.4678008107
  - # 6
    frequency:    3.3780136122
  - # 7
    frequency:    3.9037029488
  - # 8
    frequency:    4.7027049719
  - # 9
    frequency:    6.0275890586
  - # 10
    frequency:    6.2547790610
  - # 11
    frequency:    7.4947472845
  - # 12
    frequency:    7.6287448901
  - # 13
    frequency:    8.4733118058
  - # 14
    frequency:    9.9055147623
  - # 15
    frequency:   12.2220804135
  - # 16
    frequency:   12.2270109868
  - # 17
    frequency:   12.6522867788
  - # 18
    frequency:   61.7949655595

- q-position: [    0.1161616,    0.0000000,    0.0000000 ]
  distance:    0.0395112
  band:
  - # 1
    frequency:   -3.4271474207
  - # 2
    frequency:   -3.0551482091
  - # 3
    frequency:    0.9243756632
  - # 4
    frequency:    1.5170237399
  - # 5
    frequency:    2.5574698960
  - # 6
    frequency:    3.4006466348
  - # 7
    frequency:    3.9521594568
  - # 8
    frequency:    4.6947013845
  - # 9
    frequency:    6.0332158536
  - # 10
    frequency:    6.2718498228
  - # 11
    frequency:    7.4934879571
  - # 12
    frequency:    7.6314606882
  - # 13
    frequency:    8.4729878375
  - # 14
    frequency:    9.8463604272
  - # 15
    frequency:   12.2014834304
  - # 16
    frequency:   12.2241318577
  - # 17
    frequency:   12.6339894287
  - # 18
    frequency:   61.7912191430

- q-position: [    0.1212121,    0.0000000,    0.0000000 ]
  distance:    0.0412291
  band:
  - # 1
    frequency:   -3.4496160788
  - # 2
    frequency:   -3.0536213995
  - # 3
    frequency:    0.9824251018
  - # 4
    frequency:    1.5798855609
  - # 5
    frequency:    2.6445301779
  - # 6
    frequency:    3.4244923472
  - # 7
    frequency:    3.9994565868
  - # 8
    frequency:    4.6875974897
  - # 9
    frequency:    6.0392932178
  - # 10
    frequency:    6.2886554894
  - # 11
    frequency:    7.4932241541
  - # 12
    frequency:    7.6339299780
  - # 13
    frequency:    8.4727663404
  - # 14
    frequency:    9.7876018799
  - # 15
    frequency:   12.1784103536
  - # 16
    frequency:   12.2206062386
  - # 17
    frequency:   12.6161963430
  - # 18
    frequency:   61.7874615816

- q-position: [    0.1262626,    0.0000000,    0.0000000 ]
  distance:    0.0429470
  band:
  - # 1
    frequency:   -3.4717246304
  - # 2
    frequency:   -3.0523221522
  - # 3
    frequency:    1.0410195044
  - # 4
    frequency:    1.6420761980
  - # 5
    frequency:    2.7289459271
  - # 6
    frequency:    3.4495484705
  - # 7
    frequency:    4.0452303202
  - # 8
    frequency:    4.6815870298
  - # 9
    frequency:    6.0458244241
  - # 10
    frequency:    6.3051501602
  - # 11
    frequency:    7.4940807597
  - # 12
    frequency:    7.6361389218
  - # 13
    frequency:    8.4725940045
  - # 14
    frequency:    9.7294224400
  - # 15
    frequency:   12.1529167334
  - # 16
    frequency:   12.2163882676
  - # 17
    frequency:   12.5989836728
  - # 18
    frequency:   61.7837072828

- q-position: [    0.1313131,    0.0000000,    0.0000000 ]
  distance:    0.0446649
  band:
  - # 1
    frequency:   -3.4933360246
  - # 2
    frequency:   -3.0512767989
  - # 3
    frequency:    1.1000972032
  - # 4
    frequency:    1.7035261999
  - # 5
    frequency:    2.8106832981
  - # 6
    frequency:    3.4758059409
  - # 7
    frequency:    4.0891131738
  - # 8
    frequency:    4.6768710302
  - # 9
    frequency:    6.0528093727
  - # 10
    frequency:    6.3212985978
  - # 11
    frequency:    7.4961771406
  - # 12
    frequency:    7.6380776918
  - # 13
    frequency:    8.4724069875
  - # 14
    frequency:    9.6720057965
  - # 15
    frequency:   12.1250598766
  - # 16
    frequency:   12.2114351031
  - # 17
    frequency:   12.5824350099
  - # 18
    frequency:   61.7799702212

- q-position: [    0.1363636,    0.0000000,    0.0000000 ]
  distance:    0.0463827
  band:
  - # 1
    frequency:   -3.5143208480
  - # 2
    frequency:   -3.0505120696
  - # 3
    frequency:    1.1596016949
  - # 4
    frequency:    1.7641661890
  - # 5
    frequency:    2.8897077061
  - # 6
    frequency:    3.5032481384
  - # 7
    frequency:    4.1307450398
  - # 8
    frequency:    4.6736488709
  - # 9
    frequency:    6.0602444645
  - # 10
    frequency:    6.3370765976
  - # 11
    frequency:    7.4996238014
  - # 12
    frequency:    7.6397404547
  - # 13
    frequency:    8.4721315260
  - # 14
    frequency:    9.6155375967
  - # 15
    frequency:   12.0948973596
  - # 16
    frequency:   12.2057074842
  - # 17
    frequency:   12.5666420728
  - # 18
    frequency:   61.7762638594

- q-position: [    0.1414141,    0.0000000,    0.0000000 ]
  distance:    0.0481006
  band:
  - # 1
    frequency:   -3.5345593128
  - # 2
    frequency:   -3.0500551201
  - # 3
    frequency:    1.2194810548
  - # 4
    frequency:    1.8239279199
  - # 5
    frequency:    2.9659810861
  - # 6
    frequency:    3.5318501788
  - # 7
    frequency:    4.1697908040
  - # 8
    frequency:    4.6721030919
  - # 9
    frequency:    6.0681225162
  - # 10
    frequency:    6.3524710482
  - # 11
    frequency:    7.5045188192
  - # 12
    frequency:    7.6411252817
  - # 13
    frequency:    8.4716848809
  - # 14
    frequency:    9.5602067808
  - # 15
    frequency:   12.0624881050
  - # 16
    frequency:   12.1991702646
  - # 17
    frequency:   12.5517030776
  - # 18
    frequency:   61.7726010734

- q-position: [    0.1464646,    0.0000000,    0.0000000 ]
  distance:    0.0498185
  band:
  - # 1
    frequency:   -3.5539432134
  - # 2
    frequency:   -3.0499335349
  - # 3
    frequency:    1.2796873423
  - # 4
    frequency:    1.8827453867
  - # 5
    frequency:    3.0394591243
  - # 6
    frequency:    3.5615783054
  - # 7
    frequency:    4.2059661632
  - # 8
    frequency:    4.6723764994
  - # 9
    frequency:    6.0764327209
  - # 10
    frequency:    6.3674795639
  - # 11
    frequency:    7.5109441602
  - # 12
    frequency:    7.6422339832
  - # 13
    frequency:    8.4709767283
  - # 14
    frequency:    9.5062065445
  - # 15
    frequency:   12.0278956076
  - # 16
    frequency:   12.1917929089
  - # 17
    frequency:   12.5377191894
  - # 18
    frequency:   61.7689940836

- q-position: [    0.1515152,    0.0000000,    0.0000000 ]
  distance:    0.0515364
  band:
  - # 1
    frequency:   -3.5723778283
  - # 2
    frequency:   -3.0501753007
  - # 3
    frequency:    1.3401760222
  - # 4
    frequency:    1.9405559434
  - # 5
    frequency:    3.1100885765
  - # 6
    frequency:    3.5923894157
  - # 7
    frequency:    4.2390711433
  - # 8
    frequency:    4.6745420241
  - # 9
    frequency:    6.0851606578
  - # 10
    frequency:    6.3821095756
  - # 11
    frequency:    7.5189619936
  - # 12
    frequency:    7.6430718688
  - # 13
    frequency:    8.4699111621
  - # 14
    frequency:    9.4537347608
  - # 15
    frequency:   11.9911925660
  - # 16
    frequency:   12.1835499419
  - # 17
    frequency:   12.5247897688
  - # 18
    frequency:   61.7654543916

- q-position: [    0.1565657,    0.0000000,    0.0000000 ]
  distance:    0.0532542
  band:
  - # 1
    frequency:   -3.5897837440
  - # 2
    frequency:   -3.0508087492
  - # 3
    frequency:    1.4009054130
  - # 4
    frequency:    1.9973013965
  - # 5
    frequency:    3.1778048229
  - # 6
    frequency:    3.6242307668
  - # 7
    frequency:    4.2690270380
  - # 8
    frequency:    4.6785695020
  - # 9
    frequency:    6.0942883516
  - # 10
    frequency:    6.3963767812
  - # 11
    frequency:    7.5286111093
  - # 12
    frequency:    7.6436474337
  - # 13
    frequency:    8.4683895459
  - # 14
    frequency:    9.4029936366
  - # 15
    frequency:   11.9524660532
  - # 16
    frequency:   12.1744213416
  - # 17
    frequency:   12.5130072428
  - # 18
    frequency:   61.7619927231

- q-position: [    0.1616162,    0.0000000,    0.0000000 ]
  distance:    0.0549721
  band:
  - # 1
    frequency:   -3.6060985739
  - # 2
    frequency:   -3.0518624687
  - # 3
    frequency:    1.4618361721
  - # 4
    frequency:    2.0529290291
  - # 5
    frequency:    3.2425298613
  - # 6
    frequency:    3.6570398957
  - # 7
    frequency:    4.2959077916
  - # 8
    frequency:    4.6842981621
  - # 9
    frequency:    6.1037943839
  - # 10
    frequency:    6.4103029034
  - # 11
    frequency:    7.5399035268
  - # 12
    frequency:    7.6439719753
  - # 13
    frequency:    8.4663145244
  - # 14
    frequency:    9.3541883203
  - # 15
    frequency:   11.9118224209
  - # 16
    frequency:   12.1643928665
  - # 17
    frequency:   12.5024523558
  - # 18
    frequency:   61.7586189775

- q-position: [    0.1666667,    0.0000000,    0.0000000 ]
  distance:    0.0566900
  band:
  - # 1
    frequency:   -3.6212785453
  - # 2
    frequency:   -3.0533651836
  - # 3
    frequency:    1.5229308205
  - # 4
    frequency:    2.1073925112
  - # 5
    frequency:    3.3041710084
  - # 6
    frequency:    3.6907447907
  - # 7
    frequency:    4.3199542270
  - # 8
    frequency:    4.6914261191
  - # 9
    frequency:    6.1136540562
  - # 10
    frequency:    6.4239127641
  - # 11
    frequency:    7.5528213501
  - # 12
    frequency:    7.6440591454
  - # 13
    frequency:    8.4635955590
  - # 14
    frequency:    9.3075241379
  - # 15
    frequency:   11.8693913311
  - # 16
    frequency:   12.1534563091
  - # 17
    frequency:   12.4931903514
  - # 18
    frequency:   61.7553421843

- q-position: [    0.1717172,    0.0000000,    0.0000000 ]
  distance:    0.0584079
  band:
  - # 1
    frequency:   -3.6352999240
  - # 2
    frequency:   -3.0553456043
  - # 3
    frequency:    1.5841533066
  - # 4
    frequency:    2.1606526603
  - # 5
    frequency:    3.3626206628
  - # 6
    frequency:    3.7252643409
  - # 7
    frequency:    4.3415624864
  - # 8
    frequency:    4.6995250697
  - # 9
    frequency:    6.1238396023
  - # 10
    frequency:    6.4372307706
  - # 11
    frequency:    7.5673138783
  - # 12
    frequency:    7.6439244450
  - # 13
    frequency:    8.4601563545
  - # 14
    frequency:    9.2632021352
  - # 15
    frequency:   11.8253285577
  - # 16
    frequency:   12.1416096690
  - # 17
    frequency:   12.4852683751
  - # 18
    frequency:   61.7521704665

- q-position: [    0.1767677,    0.0000000,    0.0000000 ]
  distance:    0.0601258
  band:
  - # 1
    frequency:   -3.6481602454
  - # 2
    frequency:   -3.0578322463
  - # 3
    frequency:    1.6454686049
  - # 4
    frequency:    2.2126780185
  - # 5
    frequency:    3.4177575602
  - # 6
    frequency:    3.7605090811
  - # 7
    frequency:    4.3612467876
  - # 8
    frequency:    4.7080795363
  - # 9
    frequency:    6.1343204494
  - # 10
    frequency:    6.4502769978
  - # 11
    frequency:    7.5832949437
  - # 12
    frequency:    7.6435846708
  - # 13
    frequency:    8.4559444453
  - # 14