nqpoint: 300    
npath: 3      
segment_nqpoint:
- 100
- 100
- 100
labels:
- [ 'G', 'M' ]
- [ 'M', 'K' ]
- [ 'K', 'G' ]
reciprocal_lattice:
- [   0.29456990,   0.17007001,   0.00000000 ] # a*
- [   0.00000000,   0.34014002,   0.00000000 ] # b*
- [   0.00000000,   0.00000000,   0.04023205 ] # c*
natom: 6      
lattice:
- [     3.394780006702482,     0.000000000000000,     0.000000000000000 ] # a
- [    -1.697390003351241,     2.939965726064550,     0.000000000000000 ] # b
- [     0.000000000000000,     0.000000000000000,    24.855806619307636 ] # c
points:
- symbol: Br # 1
  coordinates: [  0.666666984744047,  0.333332985985144,  0.362088430194373 ]
  mass: 79.904000
- symbol: C # 2
  coordinates: [  0.333332985432215,  0.666666983183674,  0.589629754204618 ]
  mass: 12.010700
- symbol: N # 3
  coordinates: [  0.000000000000000,  0.000000000000000,  0.484173515478852 ]
  mass: 14.006700
- symbol: N # 4
  coordinates: [  0.333332985432215,  0.666666983183674,  0.637911569805627 ]
  mass: 14.006700
- symbol: Sc # 5
  coordinates: [  0.333332985432215,  0.666666983183674,  0.437137169756857 ]
  mass: 44.955912
- symbol: Sc # 6
  coordinates: [  0.666666984744047,  0.333332985985144,  0.532962895236214 ]
  mass: 44.955912

phonon:
- q-position: [    0.0000000,    0.0000000,    0.0000000 ]
  distance:    0.0000000
  band:
  - # 1
    frequency:   -3.3025486358
  - # 2
    frequency:   -3.3025486358
  - # 3
    frequency:   -0.0000043782
  - # 4
    frequency:   -0.0000002241
  - # 5
    frequency:    0.0000043111
  - # 6
    frequency:    3.1273043001
  - # 7
    frequency:    3.1273043001
  - # 8
    frequency:    4.8415758994
  - # 9
    frequency:    6.2548360483
  - # 10
    frequency:    6.2548360483
  - # 11
    frequency:    7.6794087986
  - # 12
    frequency:    7.6794087986
  - # 13
    frequency:    8.4551974916
  - # 14
    frequency:   10.4260425517
  - # 15
    frequency:   12.4627433065
  - # 16
    frequency:   12.5509492431
  - # 17
    frequency:   12.5509492431
  - # 18
    frequency:   61.8164832229

- q-position: [    0.0050505,    0.0000000,    0.0000000 ]
  distance:    0.0017179
  band:
  - # 1
    frequency:   -3.3025364061
  - # 2
    frequency:   -3.3024732396
  - # 3
    frequency:    0.0019417099
  - # 4
    frequency:    0.0874311661
  - # 5
    frequency:    0.0922147651
  - # 6
    frequency:    3.1278630852
  - # 7
    frequency:    3.1289991941
  - # 8
    frequency:    4.8412941972
  - # 9
    frequency:    6.2547624865
  - # 10
    frequency:    6.2548658839
  - # 11
    frequency:    7.6792201794
  - # 12
    frequency:    7.6792962430
  - # 13
    frequency:    8.4552340724
  - # 14
    frequency:   10.4246744658
  - # 15
    frequency:   12.4628644241
  - # 16
    frequency:   12.5501625552
  - # 17
    frequency:   12.5507752943
  - # 18
    frequency:   61.8164232484

- q-position: [    0.0101010,    0.0000000,    0.0000000 ]
  distance:    0.0034358
  band:
  - # 1
    frequency:   -3.3025025116
  - # 2
    frequency:   -3.3022467645
  - # 3
    frequency:    0.0077554370
  - # 4
    frequency:    0.1747284793
  - # 5
    frequency:    0.1844158087
  - # 6
    frequency:    3.1295406552
  - # 7
    frequency:    3.1340680557
  - # 8
    frequency:    4.8404492559
  - # 9
    frequency:    6.2545420528
  - # 10
    frequency:    6.2549574981
  - # 11
    frequency:    7.6786561846
  - # 12
    frequency:    7.6789597545
  - # 13
    frequency:    8.4553444156
  - # 14
    frequency:   10.4205751349
  - # 15
    frequency:   12.4632269219
  - # 16
    frequency:   12.5478025552
  - # 17
    frequency:   12.5502526769
  - # 18
    frequency:   61.8162434750

- q-position: [    0.0151515,    0.0000000,    0.0000000 ]
  distance:    0.0051536
  band:
  - # 1
    frequency:   -3.3024552553
  - # 2
    frequency:   -3.3018683721
  - # 3
    frequency:    0.0173980276
  - # 4
    frequency:    0.2617588286
  - # 5
    frequency:    0.2765887233
  - # 6
    frequency:    3.1323406368
  - # 7
    frequency:    3.1424639174
  - # 8
    frequency:    4.8390416141
  - # 9
    frequency:    6.2541755214
  - # 10
    frequency:    6.2551171138
  - # 11
    frequency:    7.6777224893
  - # 12
    frequency:    7.6784028333
  - # 13
    frequency:    8.4555302728
  - # 14
    frequency:   10.4137593316
  - # 15
    frequency:   12.4638272532
  - # 16
    frequency:   12.5438704245
  - # 17
    frequency:   12.5493790803
  - # 18
    frequency:   61.8159443530

- q-position: [    0.0202020,    0.0000000,    0.0000000 ]
  distance:    0.0068715
  band:
  - # 1
    frequency:   -3.3024082064
  - # 2
    frequency:   -3.3013367368
  - # 3
    frequency:    0.0308006779
  - # 4
    frequency:    0.3483905836
  - # 5
    frequency:    0.3687177450
  - # 6
    frequency:    3.1362690155
  - # 7
    frequency:    3.1541101072
  - # 8
    frequency:    4.8370723078
  - # 9
    frequency:    6.2536642439
  - # 10
    frequency:    6.2553547750
  - # 11
    frequency:    7.6764288352
  - # 12
    frequency:    7.6776312013
  - # 13
    frequency:    8.4557943959
  - # 14
    frequency:   10.4042516472
  - # 15
    frequency:   12.4646556342
  - # 16
    frequency:   12.5383720340
  - # 17
    frequency:   12.5481506633
  - # 18
    frequency:   61.8155266312

- q-position: [    0.0252525,    0.0000000,    0.0000000 ]
  distance:    0.0085894
  band:
  - # 1
    frequency:   -3.3023798054
  - # 2
    frequency:   -3.3006501482
  - # 3
    frequency:    0.0478701822
  - # 4
    frequency:    0.4344943237
  - # 5
    frequency:    0.4607851139
  - # 6
    frequency:    3.1413340439
  - # 7
    frequency:    3.1689025245
  - # 8
    frequency:    4.8345430715
  - # 9
    frequency:    6.2530102390
  - # 10
    frequency:    6.2556838736
  - # 11
    frequency:    7.6747894327
  - # 12
    frequency:    7.6766526364
  - # 13
    frequency:    8.4561402977
  - # 14
    frequency:   10.3920864448
  - # 15
    frequency:   12.4656874119
  - # 16
    frequency:   12.5313266254
  - # 17
    frequency:   12.5465620687
  - # 18
    frequency:   61.8149913551

- q-position: [    0.0303030,    0.0000000,    0.0000000 ]
  distance:    0.0103073
  band:
  - # 1
    frequency:   -3.3023928311
  - # 2
    frequency:   -3.2998066485
  - # 3
    frequency:    0.0684917588
  - # 4
    frequency:    0.5199435574
  - # 5
    frequency:    0.5527704802
  - # 6
    frequency:    3.1475461082
  - # 7
    frequency:    3.1867125752
  - # 8
    frequency:    4.8314566027
  - # 9
    frequency:    6.2522163136
  - # 10
    frequency:    6.2561205243
  - # 11
    frequency:    7.6728234810
  - # 12
    frequency:    7.6754767475
  - # 13
    frequency:    8.4565719373
  - # 14
    frequency:   10.3773077839
  - # 15
    frequency:   12.4668612961
  - # 16
    frequency:   12.5227886603
  - # 17
    frequency:   12.5446064442
  - # 18
    frequency:   61.8143398638

- q-position: [    0.0353535,    0.0000000,    0.0000000 ]
  distance:    0.0120252
  band:
  - # 1
    frequency:   -3.3024737450
  - # 2
    frequency:   -3.2988041956
  - # 3
    frequency:    0.0925323102
  - # 4
    frequency:    0.6046154293
  - # 5
    frequency:    0.6446503665
  - # 6
    frequency:    3.1549175459
  - # 7
    frequency:    3.2073905601
  - # 8
    frequency:    4.8278168773
  - # 9
    frequency:    6.2512862109
  - # 10
    frequency:    6.2566828191
  - # 11
    frequency:    7.6705557665
  - # 12
    frequency:    7.6741146953
  - # 13
    frequency:    8.4570933508
  - # 14
    frequency:   10.3599693144
  - # 15
    frequency:   12.4680159742
  - # 16
    frequency:   12.5129113238
  - # 17
    frequency:   12.5422754692
  - # 18
    frequency:   61.8135737862

- q-position: [    0.0404040,    0.0000000,    0.0000000 ]
  distance:    0.0137430
  band:
  - # 1
    frequency:   -3.3026519379
  - # 2
    frequency:   -3.2976408471
  - # 3
    frequency:    0.1198439088
  - # 4
    frequency:    0.6883914167
  - # 5
    frequency:    0.7363976970
  - # 6
    frequency:    3.1634624094
  - # 7
    frequency:    3.2307692938
  - # 8
    frequency:    4.8236294987
  - # 9
    frequency:    6.2502247789
  - # 10
    frequency:    6.2573900054
  - # 11
    frequency:    7.6680172911
  - # 12
    frequency:    7.6725788662
  - # 13
    frequency:    8.4577082478
  - # 14
    frequency:   10.3401341317
  - # 15
    frequency:   12.4686668195
  - # 16
    frequency:   12.5021699852
  - # 17
    frequency:   12.5395593890
  - # 18
    frequency:   61.8126950360

- q-position: [    0.0454545,    0.0000000,    0.0000000 ]
  distance:    0.0154609
  band:
  - # 1
    frequency:   -3.3029589029
  - # 2
    frequency:   -3.2963149546
  - # 3
    frequency:    0.1502673131
  - # 4
    frequency:    0.7711580171
  - # 5
    frequency:    0.8279813998
  - # 6
    frequency:    3.1731961680
  - # 7
    frequency:    3.2566677529
  - # 8
    frequency:    4.8189020592
  - # 9
    frequency:    6.2490381550
  - # 10
    frequency:    6.2582616327
  - # 11
    frequency:    7.6652458805
  - # 12
    frequency:    7.6708825091
  - # 13
    frequency:    8.4584195968
  - # 14
    frequency:   10.3178745901
  - # 15
    frequency:   12.4671513960
  - # 16
    frequency:   12.4922169188
  - # 17
    frequency:   12.5364470552
  - # 18
    frequency:   61.8117058070

- q-position: [    0.0505051,    0.0000000,    0.0000000 ]
  distance:    0.0171788
  band:
  - # 1
    frequency:   -3.3034273652
  - # 2
    frequency:   -3.2948253630
  - # 3
    frequency:    0.1836353485
  - # 4
    frequency:    0.8528074302
  - # 5
    frequency:    0.9193660855
  - # 6
    frequency:    3.1841353398
  - # 7
    frequency:    3.2848945745
  - # 8
    frequency:    4.8136444963
  - # 9
    frequency:    6.2477339563
  - # 10
    frequency:    6.2593167175
  - # 11
    frequency:    7.6622867194
  - # 12
    frequency:    7.6690393442
  - # 13
    frequency:    8.4592292221
  - # 14
    frequency:   10.2932720733
  - # 15
    frequency:   12.4596251145
  - # 16
    frequency:   12.4868859365
  - # 17
    frequency:   12.5329259741
  - # 18
    frequency:   61.8106085656

- q-position: [    0.0555556,    0.0000000,    0.0000000 ]
  distance:    0.0188967
  band:
  - # 1
    frequency:   -3.3040903995
  - # 2
    frequency:   -3.2931716047
  - # 3
    frequency:    0.2197760312
  - # 4
    frequency:    0.9332382384
  - # 5
    frequency:    1.0105118046
  - # 6
    frequency:    3.1962970486
  - # 7
    frequency:    3.3152512744
  - # 8
    frequency:    4.8078694224
  - # 9
    frequency:    6.2463214688
  - # 10
    frequency:    6.2605729767
  - # 11
    frequency:    7.6591927612
  - # 12
    frequency:    7.6670631553
  - # 13
    frequency:    8.4601374290
  - # 14
    frequency:   10.2664167218
  - # 15
    frequency:   12.4454613031
  - # 16
    frequency:   12.4867926737
  - # 17
    frequency:   12.5289823623
  - # 18
    frequency:   61.8094060446

- q-position: [    0.0606061,    0.0000000,    0.0000000 ]
  distance:    0.0206145
  band:
  - # 1
    frequency:   -3.3049805664
  - # 2
    frequency:   -3.2913540853
  - # 3
    frequency:    0.2585153535
  - # 4
    frequency:    1.0123560890
  - # 5
    frequency:    1.1013738798
  - # 6
    frequency:    3.2096984988
  - # 7
    frequency:    3.3475350944
  - # 8
    frequency:    4.8015924111
  - # 9
    frequency:    6.2448118276
  - # 10
    frequency:    6.2620461783
  - # 11
    frequency:    7.6560249659
  - # 12
    frequency:    7.6649673785
  - # 13
    frequency:    8.4611426731
  - # 14
    frequency:   10.2374071229
  - # 15
    frequency:   12.4274867822
  - # 16
    frequency:   12.4890994396
  - # 17
    frequency:   12.5246012113
  - # 18
    frequency:   61.8081012347

- q-position: [    0.0656566,    0.0000000,    0.0000000 ]
  distance:    0.0223324
  band:
  - # 1
    frequency:   -3.3061291017
  - # 2
    frequency:   -3.2893742538
  - # 3
    frequency:    0.2996796896
  - # 4
    frequency:    1.0900743787
  - # 5
    frequency:    1.1919028093
  - # 6
    frequency:    3.2243563659
  - # 7
    frequency:    3.3815414337
  - # 8
    frequency:    4.7948322232
  - # 9
    frequency:    6.2432181768
  - # 10
    frequency:    6.2637496535
  - # 11
    frequency:    7.6528523248
  - # 12
    frequency:    7.6627646966
  - # 13
    frequency:    8.4622412828
  - # 14
    frequency:   10.2063499693
  - # 15
    frequency:   12.4070003098
  - # 16
    frequency:   12.4924972621
  - # 17
    frequency:   12.5197663595
  - # 18
    frequency:   61.8066973755

- q-position: [    0.0707071,    0.0000000,    0.0000000 ]
  distance:    0.0240503
  band:
  - # 1
    frequency:   -3.3075651873
  - # 2
    frequency:   -3.2872347531
  - # 3
    frequency:    0.3430978178
  - # 4
    frequency:    1.1663149403
  - # 5
    frequency:    1.2820442342
  - # 6
    frequency:    3.2402861037
  - # 7
    frequency:    3.4170658542
  - # 8
    frequency:    4.7876109631
  - # 9
    frequency:    6.2415558023
  - # 10
    frequency:    6.2656940079
  - # 11
    frequency:    7.6497516384
  - # 12
    frequency:    7.6604666549
  - # 13
    frequency:    8.4634272375
  - # 14
    frequency:   10.1733596976
  - # 15
    frequency:   12.3844063592
  - # 16
    frequency:   12.4965726613
  - # 17
    frequency:   12.5144605747
  - # 18
    frequency:   61.8051979462

- q-position: [    0.0757576,    0.0000000,    0.0000000 ]
  distance:    0.0257682
  band:
  - # 1
    frequency:   -3.3093153328
  - # 2
    frequency:   -3.2849395489
  - # 3
    frequency:    0.3886025743
  - # 4
    frequency:    1.2410087237
  - # 5
    frequency:    1.3717389619
  - # 6
    frequency:    3.2575011733
  - # 7
    frequency:    3.4539056818
  - # 8
    frequency:    4.7799541586
  - # 9
    frequency:    6.2398422293
  - # 10
    frequency:    6.2678870597
  - # 11
    frequency:    7.6468070241
  - # 12
    frequency:    7.6580833075
  - # 13
    frequency:    8.4646919997
  - # 14
    frequency:   10.1385581175
  - # 15
    frequency:   12.3598547899
  - # 16
    frequency:   12.5011685828
  - # 17
    frequency:   12.5086656448
  - # 18
    frequency:   61.8036066548

- q-position: [    0.0808081,    0.0000000,    0.0000000 ]
  distance:    0.0274861
  band:
  - # 1
    frequency:   -3.3114028924
  - # 2
    frequency:   -3.2824940341
  - # 3
    frequency:    0.4360321749
  - # 4
    frequency:    1.3140964635
  - # 5
    frequency:    1.4609230369
  - # 6
    frequency:    3.2760122044
  - # 7
    frequency:    3.4918612427
  - # 8
    frequency:    4.7718907618
  - # 9
    frequency:    6.2380972750
  - # 10
    frequency:    6.2703340234
  - # 11
    frequency:    7.6441091387
  - # 12
    frequency:    7.6556229057
  - # 13
    frequency:    8.4660243938
  - # 14
    frequency:   10.1020740441
  - # 15
    frequency:   12.3334175217
  - # 16
    frequency:   12.5023624786
  - # 17
    frequency:   12.5062083713
  - # 18
    frequency:   61.8019274271

- q-position: [    0.0858586,    0.0000000,    0.0000000 ]
  distance:    0.0292039
  band:
  - # 1
    frequency:   -3.3138477362
  - # 2
    frequency:   -3.2799051083
  - # 3
    frequency:    0.4852312461
  - # 4
    frequency:    1.3855293130
  - # 5
    frequency:    1.5495278476
  - # 6
    frequency:    3.2958261073
  - # 7
    frequency:    3.5307367892
  - # 8
    frequency:    4.7634530775
  - # 9
    frequency:    6.2363430526
  - # 10
    frequency:    6.2730379423
  - # 11
    frequency:    7.6417541136
  - # 12
    frequency:    7.6530916384
  - # 13
    frequency:    8.4674105208
  - # 14
    frequency:   10.0640429474
  - # 15
    frequency:   12.3051411678
  - # 16
    frequency:   12.4955312169
  - # 17
    frequency:   12.5116438177
  - # 18
    frequency:   61.8001643947

- q-position: [    0.0909091,    0.0000000,    0.0000000 ]
  distance:    0.0309218
  band:
  - # 1
    frequency:   -3.3166660899
  - # 2
    frequency:   -3.2771812310
  - # 3
    frequency:    0.5360516102
  - # 4
    frequency:    1.4552694240
  - # 5
    frequency:    1.6374802640
  - # 6
    frequency:    3.3169451600
  - # 7
    frequency:    3.5703411777
  - # 8
    frequency:    4.7546766282
  - # 9
    frequency:    6.2346039209
  - # 10
    frequency:    6.2760003581
  - # 11
    frequency:    7.6398422079
  - # 12
    frequency:    7.6504934327
  - # 13
    frequency:    8.4688336948
  - # 14
    frequency:   10.0246066285
  - # 15
    frequency:   12.2750658880
  - # 16
    frequency:   12.4881513532
  - # 17
    frequency:   12.5174370087
  - # 18
    frequency:   61.7983218819

- q-position: [    0.0959596,    0.0000000,    0.0000000 ]
  distance:    0.0326397
  band:
  - # 1
    frequency:   -3.3198705509
  - # 2
    frequency:   -3.2743324497
  - # 3
    frequency:    0.5883528649
  - # 4
    frequency:    1.5232904424
  - # 5
    frequency:    1.7247027942
  - # 6
    frequency:    3.3393661012
  - # 7
    frequency:    3.6104883617
  - # 8
    frequency:    4.7455999707
  - # 9
    frequency:    6.2329063761
  - # 10
    frequency:    6.2792221915
  - # 11
    frequency:    7.6384761999
  - # 12
    frequency:    7.6478298195
  - # 13
    frequency:    8.4702743900
  - # 14
    frequency:    9.9839129346
  - # 15
    frequency:   12.2432333403
  - # 16
    frequency:   12.4802018647
  - # 17
    frequency:   12.5235530899
  - # 18
    frequency:   61.7964043928

- q-position: [    0.1010101,    0.0000000,    0.0000000 ]
  distance:    0.0343576
  band:
  - # 1
    frequency:   -3.3234702825
  - # 2
    frequency:   -3.2713704034
  - # 3
    frequency:    0.6420027954
  - # 4
    frequency:    1.5895778870
  - # 5
    frequency:    1.8111137565
  - # 6
    frequency:    3.3630792669
  - # 7
    frequency:    3.6509977635
  - # 8
    frequency:    4.7362644853
  - # 9
    frequency:    6.2312788860
  - # 10
    frequency:    6.2827047889
  - # 11
    frequency:    7.6377595423
  - # 12
    frequency:    7.6450998695
  - # 13
    frequency:    8.4717101842
  - # 14
    frequency:    9.9421155182
  - # 15
    frequency:   12.2096905226
  - # 16
    frequency:   12.4716613533
  - # 17
    frequency:   12.5299571389
  - # 18
    frequency:   61.7944165968

- q-position: [    0.1060606,    0.0000000,    0.0000000 ]
  distance:    0.0360755
  band:
  - # 1
    frequency:   -3.3274713794
  - # 2
    frequency:   -3.2683083017
  - # 3
    frequency:    0.6968776471
  - # 4
    frequency:    1.6541293742
  - # 5
    frequency:    1.8966274609
  - # 6
    frequency:    3.3880678108
  - # 7
    frequency:    3.6916945832
  - # 8
    frequency:    4.7267141591
  - # 9
    frequency:    6.2297516658
  - # 10
    frequency:    6.2864510738
  - # 11
    frequency:    7.6377943231
  - # 12
    frequency:    7.6423002003
  - # 13
    frequency:    8.4731156934
  - # 14
    frequency:    9.8993736437
  - # 15
    frequency:   12.1744918490
  - # 16
    frequency:   12.4625081967
  - # 17
    frequency:   12.5366127967
  - # 18
    frequency:   61.7923633141

- q-position: [    0.1111111,    0.0000000,    0.0000000 ]
  distance:    0.0377933
  band:
  - # 1
    frequency:   -3.3318773929
  - # 2
    frequency:   -3.2651608813
  - # 3
    frequency:    0.7528622812
  - # 4
    frequency:    1.7169546542
  - # 5
    frequency:    1.9811543972
  - # 6
    frequency:    3.4143070517
  - # 7
    frequency:    3.7324100996
  - # 8
    frequency:    4.7169953915
  - # 9
    frequency:    6.2283564011
  - # 10
    frequency:    6.2904667271
  - # 11
    frequency:    7.6386790757
  - # 12
    frequency:    7.6394250543
  - # 13
    frequency:    8.4744624950
  - # 14
    frequency:    9.8558520408
  - # 15
    frequency:   12.1377003758
  - # 16
    frequency:   12.4527207087
  - # 17
    frequency:   12.5434817321
  - # 18
    frequency:   61.7902495005

- q-position: [    0.1161616,    0.0000000,    0.0000000 ]
  distance:    0.0395112
  band:
  - # 1
    frequency:   -3.3366899986
  - # 2
    frequency:   -3.2619443412
  - # 3
    frequency:    0.8098502296
  - # 4
    frequency:    1.7780754260
  - # 5
    frequency:    2.0646014297
  - # 6
    frequency:    3.4417639856
  - # 7
    frequency:    3.7729820088
  - # 8
    frequency:    4.7071568486
  - # 9
    frequency:    6.2271259204
  - # 10
    frequency:    6.2947613063
  - # 11
    frequency:    7.6364664435
  - # 12
    frequency:    7.6405064964
  - # 13
    frequency:    8.4757190473
  - # 14
    frequency:    9.8117207948
  - # 15
    frequency:   12.0993885743
  - # 16
    frequency:   12.4422773081
  - # 17
    frequency:   12.5505235354
  - # 18
    frequency:   61.7880802310

- q-position: [    0.1212121,    0.0000000,    0.0000000 ]
  distance:    0.0412291
  band:
  - # 1
    frequency:   -3.3419097798
  - # 2
    frequency:   -3.2586762583
  - # 3
    frequency:    0.8677436589
  - # 4
    frequency:    1.8375249073
  - # 5
    frequency:    2.1468720000
  - # 6
    frequency:    3.4703969997
  - # 7
    frequency:    3.8132548379
  - # 8
    frequency:    4.6972493995
  - # 9
    frequency:    6.2260938253
  - # 10
    frequency:    6.2993492069
  - # 11
    frequency:    7.6334143575
  - # 12
    frequency:    7.6433611234
  - # 13
    frequency:    8.4768506230
  - # 14
    frequency:    9.7671552597
  - # 15
    frequency:   12.0596388363
  - # 16
    frequency:   12.4311566962
  - # 17
    frequency:   12.5576958483
  - # 18
    frequency:   61.7858606845

- q-position: [    0.1262626,    0.0000000,    0.0000000 ]
  distance:    0.0429470
  band:
  - # 1
    frequency:   -3.3475370996
  - # 2
    frequency:   -3.2553754846
  - # 3
    frequency:    0.9264532484
  - # 4
    frequency:    1.8953471455
  - # 5
    frequency:    2.2278663428
  - # 6
    frequency:    3.5001558105
  - # 7
    frequency:    3.8530804569
  - # 8
    frequency:    4.6873261635
  - # 9
    frequency:    6.2252940865
  - # 10
    frequency:    6.3042503655
  - # 11
    frequency:    7.6302570269
  - # 12
    frequency:    7.6473170388
  - # 13
    frequency:    8.4778192904
  - # 14
    frequency:    9.7223359667
  - # 15
    frequency:   12.0185438074
  - # 16
    frequency:   12.4193380413
  - # 17
    frequency:   12.5649546275
  - # 18
    frequency:   61.7835961259

- q-position: [    0.1313131,    0.0000000,    0.0000000 ]
  distance:    0.0446649
  band:
  - # 1
    frequency:   -3.3535730278
  - # 2
    frequency:   -3.2520620285
  - # 3
    frequency:    0.9858979833
  - # 4
    frequency:    1.9515960700
  - # 5
    frequency:    2.3074817221
  - # 6
    frequency:    3.5309816390
  - # 7
    frequency:    3.8923186964
  - # 8
    frequency:    4.6774427053
  - # 9
    frequency:    6.2247606138
  - # 10
    frequency:    6.3094906108
  - # 11
    frequency:    7.6269812329
  - # 12
    frequency:    7.6524356431
  - # 13
    frequency:    8.4785839922
  - # 14
    frequency:    9.6774484906
  - # 15
    frequency:   11.9762065981
  - # 16
    frequency:   12.4068011692
  - # 17
    frequency:   12.5722544884
  - # 18
    frequency:   61.7812918901

- q-position: [    0.1363636,    0.0000000,    0.0000000 ]
  distance:    0.0463827
  band:
  - # 1
    frequency:   -3.3600202845
  - # 2
    frequency:   -3.2487569222
  - # 3
    frequency:    1.0460048632
  - # 4
    frequency:    2.0063343026
  - # 5
    frequency:    2.3856127010
  - # 6
    frequency:    3.5628076225
  - # 7
    frequency:    3.9308380570
  - # 8
    frequency:    4.6676574148
  - # 9
    frequency:    6.2245268110
  - # 10
    frequency:    6.3151015819
  - # 11
    frequency:    7.6235726556
  - # 12
    frequency:    7.6587635466
  - # 13
    frequency:    8.4791007945
  - # 14
    frequency:    9.6326832191
  - # 15
    frequency:   11.9327408999
  - # 16
    frequency:   12.3935267584
  - # 17
    frequency:   12.5795490920
  - # 18
    frequency:   61.7789533639

- q-position: [    0.1414141,    0.0000000,    0.0000000 ]
  distance:    0.0481006
  band:
  - # 1
    frequency:   -3.3668841623
  - # 2
    frequency:   -3.2454820771
  - # 3
    frequency:    1.1067085204
  - # 4
    frequency:    2.0596317560
  - # 5
    frequency:    2.4621514596
  - # 6
    frequency:    3.5955594459
  - # 7
    frequency:    3.9685164676
  - # 8
    frequency:    4.6580321148
  - # 9
    frequency:    6.2246251250
  - # 10
    frequency:    6.3211201554
  - # 11
    frequency:    7.6200162481
  - # 12
    frequency:    7.6663306014
  - # 13
    frequency:    8.4793234049
  - # 14
    frequency:    9.5882349514
  - # 15
    frequency:   11.8882710225
  - # 16
    frequency:   12.3794965387
  - # 17
    frequency:   12.5867915558
  - # 18
    frequency:   61.7765859686

- q-position: [    0.1464646,    0.0000000,    0.0000000 ]
  distance:    0.0498185
  band:
  - # 1
    frequency:   -3.3741733839
  - # 2
    frequency:   -3.2422601292
  - # 3
    frequency:    1.1679507448
  - # 4
    frequency:    2.1115640652
  - # 5
    frequency:    2.5369881853
  - # 6
    frequency:    3.6291561641
  - # 7
    frequency:    4.0052420141
  - # 8
    frequency:    4.6486329488
  - # 9
    frequency:    6.2250865998
  - # 10
    frequency:    6.3275873557
  - # 11
    frequency:    7.6162966276
  - # 12
    frequency:    7.6751480785
  - # 13
    frequency:    8.4792040876
  - # 14
    frequency:    9.5443022306
  - # 15
    frequency:   11.8429318572
  - # 16
    frequency:   12.3646934913
  - # 17
    frequency:   12.5939348728
  - # 18
    frequency:   61.7741951424

- q-position: [    0.1515152,    0.0000000,    0.0000000 ]
  distance:    0.0515364
  band:
  - # 1
    frequency:   -3.3819008545
  - # 2
    frequency:   -3.2391142775
  - # 3
    frequency:    1.2296799092
  - # 4
    frequency:    2.1622109081
  - # 5
    frequency:    2.6100115644
  - # 6
    frequency:    3.6635111776
  - # 7
    frequency:    4.0409135163
  - # 8
    frequency:    4.6395316129
  - # 9
    frequency:    6.2259404450
  - # 10
    frequency:    6.3345467587
  - # 11
    frequency:    7.6123984713
  - # 12
    frequency:    7.6852069706
  - # 13
    frequency:    8.4786951367
  - # 14
    frequency:    9.5010862910
  - # 15
    frequency:   11.7968687705
  - # 16
    frequency:   12.3491020484
  - # 17
    frequency:   12.6009323292
  - # 18
    frequency:   61.7717863227

- q-position: [    0.1565657,    0.0000000,    0.0000000 ]
  distance:    0.0532542
  band:
  - # 1
    frequency:   -3.3900842655
  - # 2
    frequency:   -3.2360681174
  - # 3
    frequency:    1.2918502883
  - # 4
    frequency:    2.2116542744
  - # 5
    frequency:    2.6811094115
  - # 6
    frequency:    3.6985333133
  - # 7
    frequency:    4.0754407806
  - # 8
    frequency:    4.6308070108
  - # 9
    frequency:    6.2272136267
  - # 10
    frequency:    6.3420424396
  - # 11
    frequency:    7.6083069081
  - # 12
    frequency:    7.6964763732
  - # 13
    frequency:    8.4777510973
  - # 14
    frequency:    9.4587894777
  - # 15
    frequency:   11.7502374223
  - # 16
    frequency:   12.3327082910
  - # 17
    frequency:   12.6077379136
  - # 18
    frequency:   61.7693649275

- q-position: [    0.1616162,    0.0000000,    0.0000000 ]
  distance:    0.0549721
  band:
  - # 1
    frequency:   -3.3987465082
  - # 2
    frequency:   -3.2331454708
  - # 3
    frequency:    1.3544212652
  - # 4
    frequency:    2.2599767473
  - # 5
    frequency:    2.7501694844
  - # 6
    frequency:    3.7341279658
  - # 7
    frequency:    4.1087442979
  - # 8
    frequency:    4.6225474346
  - # 9
    frequency:    6.2289304911
  - # 10
    frequency:    6.3501165583
  - # 11
    frequency:    7.6040078945
  - # 12
    frequency:    7.7089018775
  - # 13
    frequency:    8.4763319465
  - # 14
    frequency:    9.4176129876
  - # 15
    frequency:   11.7032035045
  - # 16
    frequency:   12.3155001421
  - # 17
    frequency:   12.6143067106
  - # 18
    frequency:   61.7669363387

- q-position: [    0.1666667,    0.0000000,    0.0000000 ]
  distance:    0.0566900
  band:
  - # 1
    frequency:   -3.4079158595
  - # 2
    frequency:   -3.2303702154
  - # 3
    frequency:    1.4173564200
  - # 4
    frequency:    2.3072598580
  - # 5
    frequency:    2.8170805378
  - # 6
    frequency:    3.7701982514
  - # 7
    frequency:    4.1407541047
  - # 8
    frequency:    4.6148533921
  - # 9
    frequency:    6.2311124239
  - # 10
    frequency:    6.3588067100
  - # 11
    frequency:    7.5994885676
  - # 12
    frequency:    7.7224038893
  - # 13
    frequency:    8.4744074418
  - # 14
    frequency:    9.3777537814
  - # 15
    frequency:   11.6559423874
  - # 16
    frequency:   12.2974675530
  - # 17
    frequency:   12.6205952772
  - # 18
    frequency:   61.7645058838

- q-position: [    0.1717172,    0.0000000,    0.0000000 ]
  distance:    0.0584079
  band:
  - # 1
    frequency:   -3.4176259051
  - # 2
    frequency:   -3.2277661153
  - # 3
    frequency:    1.4806224952
  - # 4
    frequency:    2.3535825630
  - # 5
    frequency:    2.8817336767
  - # 6
    frequency:    3.8066461340
  - # 7
    frequency:    4.1714074881
  - # 8
    frequency:    4.6078412107
  - # 9
    frequency:    6.2337775545
  - # 10
    frequency:    6.3681431989
  - # 11
    frequency:    7.5947375657
  - # 12
    frequency:    7.7368757862
  - # 13
    frequency:    8.4719628058
  - # 14
    frequency:    9.3394005592
  - # 15
    frequency:   11.6086386619
  - # 16
    frequency:   12.2786026809
  - # 17
    frequency:   12.6265619957
  - # 18
    frequency:   61.7620788188

- q-position: [    0.1767677,    0.0000000,    0.0000000 ]
  distance:    0.0601258
  band:
  - # 1
    frequency:   -3.4279151710
  - # 2
    frequency:   -3.2253566536
  - # 3
    frequency:    1.5441882346
  - # 4
    frequency:    2.3990198908
  - # 5
    frequency:    2.9440240715
  - # 6
    frequency:    3.8433734923
  - # 7
    frequency:    4.2006452334
  - # 8
    frequency:    4.6016475182
  - # 9
    frequency:    6.2369405062
  - # 10
    frequency:    6.3781464075
  - # 11
    frequency:    7.5897453114
  - # 12
    frequency:    7.7521818435
  - # 13
    frequency:    8.4690058098
  - # 14