nqpoint: 300    
npath: 3      
segment_nqpoint:
- 100
- 100
- 100
labels:
- [ 'G', 'M' ]
- [ 'M', 'K' ]
- [ 'K', 'G' ]
reciprocal_lattice:
- [   0.29843967,   0.17230422,   0.00000000 ] # a*
- [   0.00000000,   0.34460844,   0.00000000 ] # b*
- [   0.00000000,   0.00000000,   0.03887264 ] # c*
natom: 6      
lattice:
- [     3.350761013818643,     0.000000000000000,     0.000000000000000 ] # a
- [    -1.675380506909321,     2.901844159976392,     0.000000000000000 ] # b
- [     0.000000000000000,     0.000000000000000,    25.725036974624356 ] # c
points:
- symbol: Br # 1
  coordinates: [  0.666666984744047,  0.333332985985145,  0.349853724559376 ]
  mass: 79.904000
- symbol: Hf # 2
  coordinates: [  0.333332985432215,  0.666666983183674,  0.426248037261424 ]
  mass: 178.490000
- symbol: Hf # 3
  coordinates: [  0.666666984744047,  0.333332985985145,  0.518534051352403 ]
  mass: 178.490000
- symbol: N # 4
  coordinates: [  0.000000000000000,  0.000000000000000,  0.469960205071681 ]
  mass: 14.006700
- symbol: O # 5
  coordinates: [  0.333332985432215,  0.666666983183674,  0.650146275440624 ]
  mass: 15.999400
- symbol: P # 6
  coordinates: [  0.333332985432215,  0.666666983183674,  0.591929246310770 ]
  mass: 30.973762

phonon:
- q-position: [    0.0000000,    0.0000000,    0.0000000 ]
  distance:    0.0000000
  band:
  - # 1
    frequency:   -0.5718760081
  - # 2
    frequency:   -0.5718760081
  - # 3
    frequency:   -0.0000043646
  - # 4
    frequency:    0.0000000939
  - # 5
    frequency:    0.0000035094
  - # 6
    frequency:    2.3531404564
  - # 7
    frequency:    2.3531404564
  - # 8
    frequency:    3.5757052102
  - # 9
    frequency:    3.7973636115
  - # 10
    frequency:    3.7973636115
  - # 11
    frequency:    4.3622636257
  - # 12
    frequency:    4.3622636257
  - # 13
    frequency:    6.3004117418
  - # 14
    frequency:    7.9933700861
  - # 15
    frequency:   11.2728063447
  - # 16
    frequency:   15.3322678572
  - # 17
    frequency:   15.3322678572
  - # 18
    frequency:   33.5958663297

- q-position: [    0.0050505,    0.0000000,    0.0000000 ]
  distance:    0.0017404
  band:
  - # 1
    frequency:   -0.5738600568
  - # 2
    frequency:   -0.5674783055
  - # 3
    frequency:    0.0013328050
  - # 4
    frequency:    0.0433520595
  - # 5
    frequency:    0.0726010708
  - # 6
    frequency:    2.3536655183
  - # 7
    frequency:    2.3543577377
  - # 8
    frequency:    3.5742028199
  - # 9
    frequency:    3.7974099290
  - # 10
    frequency:    3.7989722666
  - # 11
    frequency:    4.3621585975
  - # 12
    frequency:    4.3629401767
  - # 13
    frequency:    6.3000632003
  - # 14
    frequency:    7.9930722638
  - # 15
    frequency:   11.2732004785
  - # 16
    frequency:   15.3323317836
  - # 17
    frequency:   15.3323809926
  - # 18
    frequency:   33.5957528866

- q-position: [    0.0101010,    0.0000000,    0.0000000 ]
  distance:    0.0034809
  band:
  - # 1
    frequency:   -0.5797512341
  - # 2
    frequency:   -0.5541021158
  - # 3
    frequency:    0.0053642834
  - # 4
    frequency:    0.0866054507
  - # 5
    frequency:    0.1452569625
  - # 6
    frequency:    2.3552380418
  - # 7
    frequency:    2.3580007925
  - # 8
    frequency:    3.5698483500
  - # 9
    frequency:    3.7975492875
  - # 10
    frequency:    3.8036444434
  - # 11
    frequency:    4.3618440602
  - # 12
    frequency:    4.3649715558
  - # 13
    frequency:    6.2990181633
  - # 14
    frequency:    7.9921789737
  - # 15
    frequency:   11.2743822823
  - # 16
    frequency:   15.3325223835
  - # 17
    frequency:   15.3327203183
  - # 18
    frequency:   33.5954126950

- q-position: [    0.0151515,    0.0000000,    0.0000000 ]
  distance:    0.0052213
  band:
  - # 1
    frequency:   -0.5893776982
  - # 2
    frequency:   -0.5311542849
  - # 3
    frequency:    0.0122118520
  - # 4
    frequency:    0.1296835002
  - # 5
    frequency:    0.2180200058
  - # 6
    frequency:    2.3578500845
  - # 7
    frequency:    2.3640434447
  - # 8
    frequency:    3.5630442266
  - # 9
    frequency:    3.7977828963
  - # 10
    frequency:    3.8109748330
  - # 11
    frequency:    4.3613216557
  - # 12
    frequency:    4.3683625793
  - # 13
    frequency:    6.2972783945
  - # 14
    frequency:    7.9906907514
  - # 15
    frequency:   11.2763499645
  - # 16
    frequency:   15.3328361240
  - # 17
    frequency:   15.3332855923
  - # 18
    frequency:   33.5948461683

- q-position: [    0.0202020,    0.0000000,    0.0000000 ]
  distance:    0.0069618
  band:
  - # 1
    frequency:   -0.6024846456
  - # 2
    frequency:   -0.4974750853
  - # 3
    frequency:    0.0221471165
  - # 4
    frequency:    0.1725436305
  - # 5
    frequency:    0.2909373953
  - # 6
    frequency:    2.3614885515
  - # 7
    frequency:    2.3724426951
  - # 8
    frequency:    3.5543179496
  - # 9
    frequency:    3.7981127431
  - # 10
    frequency:    3.8204323710
  - # 11
    frequency:    4.3605941235
  - # 12
    frequency:    4.3731200970
  - # 13
    frequency:    6.2948468343
  - # 14
    frequency:    7.9886085094
  - # 15
    frequency:   11.2791005455
  - # 16
    frequency:   15.3332671354
  - # 17
    frequency:   15.3340764109
  - # 18
    frequency:   33.5940539946

- q-position: [    0.0252525,    0.0000000,    0.0000000 ]
  distance:    0.0087022
  band:
  - # 1
    frequency:   -0.6187675819
  - # 2
    frequency:   -0.4509687659
  - # 3
    frequency:    0.0357990666
  - # 4
    frequency:    0.2151767303
  - # 5
    frequency:    0.3640483017
  - # 6
    frequency:    2.3661354039
  - # 7
    frequency:    2.3831396222
  - # 8
    frequency:    3.5442057750
  - # 9
    frequency:    3.7985415536
  - # 10
    frequency:    3.8314783284
  - # 11
    frequency:    4.3596653032
  - # 12
    frequency:    4.3792513123
  - # 13
    frequency:    6.2917276024
  - # 14
    frequency:    7.9859335654
  - # 15
    frequency:   11.2826298658
  - # 16
    frequency:   15.3338072391
  - # 17
    frequency:   15.3350922085
  - # 18
    frequency:   33.5930371360

- q-position: [    0.0303030,    0.0000000,    0.0000000 ]
  distance:    0.0104427
  band:
  - # 1
    frequency:   -0.6379012500
  - # 2
    frequency:   -0.3877283483
  - # 3
    frequency:    0.0548249443
  - # 4
    frequency:    0.2575980532
  - # 5
    frequency:    0.4373807966
  - # 6
    frequency:    2.3717679358
  - # 7
    frequency:    2.3960605684
  - # 8
    frequency:    3.5331854219
  - # 9
    frequency:    3.7990727353
  - # 10
    frequency:    3.8436359034
  - # 11
    frequency:    4.3585401389
  - # 12
    frequency:    4.3867616104
  - # 13
    frequency:    6.2879260007
  - # 14
    frequency:    7.9826676812
  - # 15
    frequency:   11.2869325990
  - # 16
    frequency:   15.3344459857
  - # 17
    frequency:   15.3363322568
  - # 18
    frequency:   33.5917968269

- q-position: [    0.0353535,    0.0000000,    0.0000000 ]
  distance:    0.0121831
  band:
  - # 1
    frequency:   -0.6595602264
  - # 2
    frequency:   -0.2999233125
  - # 3
    frequency:    0.0848769377
  - # 4
    frequency:    0.2998359395
  - # 5
    frequency:    0.5109488259
  - # 6
    frequency:    2.3783591103
  - # 7
    frequency:    2.4111185472
  - # 8
    frequency:    3.5216538603
  - # 9
    frequency:    3.7997103093
  - # 10
    frequency:    3.8565150740
  - # 11
    frequency:    4.3572246826
  - # 12
    frequency:    4.3956520808
  - # 13
    frequency:    6.2834485168
  - # 14
    frequency:    7.9788131110
  - # 15
    frequency:   11.2920022683
  - # 16
    frequency:   15.3351707041
  - # 17
    frequency:   15.3377956643
  - # 18
    frequency:   33.5903345722

- q-position: [    0.0404040,    0.0000000,    0.0000000 ]
  distance:    0.0139236
  band:
  - # 1
    frequency:   -0.6834316719
  - # 2
    frequency:   -0.1783103076
  - # 3
    frequency:    0.1529523944
  - # 4
    frequency:    0.3419225880
  - # 5
    frequency:    0.5847496479
  - # 6
    frequency:    2.3858779403
  - # 7
    frequency:    2.4282148000
  - # 8
    frequency:    3.5099304721
  - # 9
    frequency:    3.8004588289
  - # 10
    frequency:    3.8698121789
  - # 11
    frequency:    4.3557260963
  - # 12
    frequency:    4.4059169662
  - # 13
    frequency:    6.2783028277
  - # 14
    frequency:    7.9743726561
  - # 15
    frequency:   11.2978312674
  - # 16
    frequency:   15.3359665614
  - # 17
    frequency:   15.3394813752
  - # 18
    frequency:   33.5886521455

- q-position: [    0.0454545,    0.0000000,    0.0000000 ]
  distance:    0.0156640
  band:
  - # 1
    frequency:   -0.7092223784
  - # 2
    frequency:   -0.0820708229
  - # 3
    frequency:    0.2871109152
  - # 4
    frequency:    0.3838882360
  - # 5
    frequency:    0.6587622419
  - # 6
    frequency:    2.3942898990
  - # 7
    frequency:    2.4472404338
  - # 8
    frequency:    3.4982697272
  - # 9
    frequency:    3.8013232898
  - # 10
    frequency:    3.8832998150
  - # 11
    frequency:    4.3540526523
  - # 12
    frequency:    4.4175413077
  - # 13
    frequency:    6.2724978047
  - # 14
    frequency:    7.9693497275
  - # 15
    frequency:   11.3044108851
  - # 16
    frequency:   15.3368166316
  - # 17
    frequency:   15.3413881686
  - # 18
    frequency:   33.5867515857

- q-position: [    0.0505051,    0.0000000,    0.0000000 ]
  distance:    0.0174045
  band:
  - # 1
    frequency:   -0.7366621459
  - # 2
    frequency:    0.0345728340
  - # 3
    frequency:    0.4102999111
  - # 4
    frequency:    0.4257583237
  - # 5
    frequency:    0.7329471210
  - # 6
    frequency:    2.4035573483
  - # 7
    frequency:    2.4680780775
  - # 8
    frequency:    3.4868751091
  - # 9
    frequency:    3.8023090324
  - # 10
    frequency:    3.8968150512
  - # 11
    frequency:    4.3522137295
  - # 12
    frequency:    4.4304990464
  - # 13
    frequency:    6.2660435180
  - # 14
    frequency:    7.9637484106
  - # 15
    frequency:   11.3117313356
  - # 16
    frequency:   15.3377019750
  - # 17
    frequency:   15.3435146574
  - # 18
    frequency:   33.5846351947

- q-position: [    0.0555556,    0.0000000,    0.0000000 ]
  distance:    0.0191449
  band:
  - # 1
    frequency:   -0.7655048896
  - # 2
    frequency:    0.0851868154
  - # 3
    frequency:    0.4675526508
  - # 4
    frequency:    0.5156594910
  - # 5
    frequency:    0.8072477109
  - # 6
    frequency:    2.4136399699
  - # 7
    frequency:    2.4906035046
  - # 8
    frequency:    3.4759111593
  - # 9
    frequency:    3.8034216396
  - # 10
    frequency:    3.9102488588
  - # 11
    frequency:    4.3502198051
  - # 12
    frequency:    4.4447518066
  - # 13
    frequency:    6.2589512417
  - # 14
    frequency:    7.9575735342
  - # 15
    frequency:   11.3197817925
  - # 16
    frequency:   15.3386017267
  - # 17
    frequency:   15.3458592870
  - # 18
    frequency:   33.5823055336

- q-position: [    0.0606061,    0.0000000,    0.0000000 ]
  distance:    0.0208854
  band:
  - # 1
    frequency:   -0.7955283483
  - # 2
    frequency:    0.1178339469
  - # 3
    frequency:    0.5092856179
  - # 4
    frequency:    0.6105179551
  - # 5
    frequency:    0.8815930876
  - # 6
    frequency:    2.4244951886
  - # 7
    frequency:    2.5146871843
  - # 8
    frequency:    3.4655129791
  - # 9
    frequency:    3.8046668322
  - # 10
    frequency:    3.9235372734
  - # 11
    frequency:    4.3480824397
  - # 12
    frequency:    4.4602484995
  - # 13
    frequency:    6.2512334580
  - # 14
    frequency:    7.9508307385
  - # 15
    frequency:   11.3285504282
  - # 16
    frequency:   15.3394931932
  - # 17
    frequency:   15.3484203344
  - # 18
    frequency:   33.5797654187

- q-position: [    0.0656566,    0.0000000,    0.0000000 ]
  distance:    0.0226258
  band:
  - # 1
    frequency:   -0.8265329296
  - # 2
    frequency:    0.1476675354
  - # 3
    frequency:    0.5509669343
  - # 4
    frequency:    0.6987051491
  - # 5
    frequency:    0.9559015304
  - # 6
    frequency:    2.4360785797
  - # 7
    frequency:    2.5401957385
  - # 8
    frequency:    3.4557934477
  - # 9
    frequency:    3.8060503641
  - # 10
    frequency:    3.9366539876
  - # 11
    frequency:    4.3458142558
  - # 12
    frequency:    4.4769257819
  - # 13
    frequency:    6.2429038626
  - # 14
    frequency:    7.9435265421
  - # 15
    frequency:   11.3380244576
  - # 16
    frequency:   15.3403519577
  - # 17
    frequency:   15.3511959064
  - # 18
    frequency:   33.5770179177

- q-position: [    0.0707071,    0.0000000,    0.0000000 ]
  distance:    0.0243663
  band:
  - # 1
    frequency:   -0.8583400464
  - # 2
    frequency:    0.1772523195
  - # 3
    frequency:    0.5926024422
  - # 4
    frequency:    0.7822937136
  - # 5
    frequency:    1.0300842013
  - # 6
    frequency:    2.4483442515
  - # 7
    frequency:    2.5669932925
  - # 8
    frequency:    3.4468486471
  - # 9
    frequency:    3.8075779213
  - # 10
    frequency:    3.9496039519
  - # 11
    frequency:    4.3434289061
  - # 12
    frequency:    4.4947092913
  - # 13
    frequency:    6.2339773682
  - # 14
    frequency:    7.9356684062
  - # 15
    frequency:   11.3481901871
  - # 16
    frequency:   15.3411519932
  - # 17
    frequency:   15.3541839388
  - # 18
    frequency:   33.5740663449

- q-position: [    0.0757576,    0.0000000,    0.0000000 ]
  distance:    0.0261067
  band:
  - # 1
    frequency:   -0.8907901891
  - # 2
    frequency:    0.2074305086
  - # 3
    frequency:    0.6341948846
  - # 4
    frequency:    0.8625142658
  - # 5
    frequency:    1.1040483427
  - # 6
    frequency:    2.4612451990
  - # 7
    frequency:    2.5949427262
  - # 8
    frequency:    3.4387619540
  - # 9
    frequency:    3.8092550253
  - # 10
    frequency:    3.9624176800
  - # 11
    frequency:    4.3409410325
  - # 12
    frequency:    4.5135154878
  - # 13
    frequency:    6.2244701087
  - # 14
    frequency:    7.9272647934
  - # 15
    frequency:   11.3590330670
  - # 16
    frequency:   15.3418657829
  - # 17
    frequency:   15.3573821950
  - # 18
    frequency:   33.5709142558

- q-position: [    0.0808081,    0.0000000,    0.0000000 ]
  distance:    0.0278471
  band:
  - # 1
    frequency:   -0.9237409049
  - # 2
    frequency:    0.2385412768
  - # 3
    frequency:    0.6757445538
  - # 4
    frequency:    0.9401507241
  - # 5
    frequency:    1.1776996190
  - # 6
    frequency:    2.4747336260
  - # 7
    frequency:    2.6239068354
  - # 8
    frequency:    3.4316071660
  - # 9
    frequency:    3.8110869446
  - # 10
    frequency:    3.9751461009
  - # 11
    frequency:    4.3383662142
  - # 12
    frequency:    4.5332538803
  - # 13
    frequency:    6.2143994419
  - # 14
    frequency:    7.9183252203
  - # 15
    frequency:   11.3705377492
  - # 16
    frequency:   15.3424644464
  - # 17
    frequency:   15.3607882646
  - # 18
    frequency:   33.5675654423

- q-position: [    0.0858586,    0.0000000,    0.0000000 ]
  distance:    0.0295876
  band:
  - # 1
    frequency:   -0.9570648028
  - # 2
    frequency:    0.2707300161
  - # 3
    frequency:    0.7172498099
  - # 4
    frequency:    1.0157272328
  - # 5
    frequency:    1.2509434953
  - # 6
    frequency:    2.4887612349
  - # 7
    frequency:    2.6537494281
  - # 8
    frequency:    3.4254509288
  - # 9
    frequency:    3.8130786150
  - # 10
    frequency:    3.9878559057
  - # 11
    frequency:    4.3357209027
  - # 12
    frequency:    4.5538294017
  - # 13
    frequency:    6.2037839521
  - # 14
    frequency:    7.9088603026
  - # 15
    frequency:   11.3826881470
  - # 16
    frequency:   15.3429178731
  - # 17
    frequency:   15.3643995623
  - # 18
    frequency:   33.5640239268

- q-position: [    0.0909091,    0.0000000,    0.0000000 ]
  distance:    0.0313280
  band:
  - # 1
    frequency:   -0.9906476614
  - # 2
    frequency:    0.3040545873
  - # 3
    frequency:    0.7587074819
  - # 4
    frequency:    1.0896052443
  - # 5
    frequency:    1.3236857535
  - # 6
    frequency:    2.5032794833
  - # 7
    frequency:    2.6843363815
  - # 8
    frequency:    3.4203546549
  - # 9
    frequency:    3.8152345714
  - # 10
    frequency:    4.0006253888
  - # 11
    frequency:    4.3330223449
  - # 12
    frequency:    4.5751447255
  - # 13
    frequency:    6.1926434510
  - # 14
    frequency:    7.8988817914
  - # 15
    frequency:   11.3954674991
  - # 16
    frequency:   15.3431948600
  - # 17
    frequency:   15.3682133271
  - # 18
    frequency:   33.5602939555

- q-position: [    0.0959596,    0.0000000,    0.0000000 ]
  distance:    0.0330685
  band:
  - # 1
    frequency:   -1.0243866845
  - # 2
    frequency:    0.3385290075
  - # 3
    frequency:    0.8001131724
  - # 4
    frequency:    1.1620381154
  - # 5
    frequency:    1.3958323551
  - # 6
    frequency:    2.5182398113
  - # 7
    frequency:    2.7155366927
  - # 8
    frequency:    3.4163760593
  - # 9
    frequency:    3.8175588924
  - # 10
    frequency:    4.0135407871
  - # 11
    frequency:    4.3302884926
  - # 12
    frequency:    4.5971023659
  - # 13
    frequency:    6.1809989788
  - # 14
    frequency:    7.8884026009
  - # 15
    frequency:   11.4088584348
  - # 16
    frequency:   15.3432632553
  - # 17
    frequency:   15.3722266208
  - # 18
    frequency:   33.5563799926

- q-position: [    0.1010101,    0.0000000,    0.0000000 ]
  distance:    0.0348089
  band:
  - # 1
    frequency:   -1.0581889277
  - # 2
    frequency:    0.3741437272
  - # 3
    frequency:    0.8414614865
  - # 4
    frequency:    1.2332039039
  - # 5
    frequency:    1.4672888860
  - # 6
    frequency:    2.5335938398
  - # 7
    frequency:    2.7472235525
  - # 8
    frequency:    3.4135703964
  - # 9
    frequency:    3.8200551573
  - # 10
    frequency:    4.0266931094
  - # 11
    frequency:    4.3275378984
  - # 12
    frequency:    4.6196064637
  - # 13
    frequency:    6.1688728025
  - # 14
    frequency:    7.8774368249
  - # 15
    frequency:   11.4228430412
  - # 16
    frequency:   15.3430901056
  - # 17
    frequency:   15.3764363279
  - # 18
    frequency:   33.5522867132

- q-position: [    0.1060606,    0.0000000,    0.0000000 ]
  distance:    0.0365494
  band:
  - # 1
    frequency:   -1.0919699037
  - # 2
    frequency:    0.4108758901
  - # 3
    frequency:    0.8827462034
  - # 4
    frequency:    1.3032261653
  - # 5
    frequency:    1.5379597944
  - # 6
    frequency:    2.5492935445
  - # 7
    frequency:    2.7792754735
  - # 8
    frequency:    3.4119914457
  - # 9
    frequency:    3.8227264172
  - # 10
    frequency:    4.0401754171
  - # 11
    frequency:    4.3247895993
  - # 12
    frequency:    4.6425642121
  - # 13
    frequency:    6.1562884147
  - # 14
    frequency:    7.8659997443
  - # 15
    frequency:   11.4374029307
  - # 16
    frequency:   15.3426418074
  - # 17
    frequency:   15.3808391547
  - # 18
    frequency:   33.5480189960

- q-position: [    0.1111111,    0.0000000,    0.0000000 ]
  distance:    0.0382898
  band:
  - # 1
    frequency:   -1.1256523622
  - # 2
    frequency:    0.4486948550
  - # 3
    frequency:    0.9239604056
  - # 4
    frequency:    1.3721877268
  - # 5
    frequency:    1.6077475925
  - # 6
    frequency:    2.5652914080
  - # 7
    frequency:    2.8115774931
  - # 8
    frequency:    3.4116922717
  - # 9
    frequency:    3.8255751800
  - # 10
    frequency:    4.0540805019
  - # 11
    frequency:    4.3220629862
  - # 12
    frequency:    4.6658869252
  - # 13
    frequency:    6.1432705305
  - # 14
    frequency:    7.8541078244
  - # 15
    frequency:   11.4525193076
  - # 16
    frequency:   15.3418842611
  - # 17
    frequency:   15.3854316287
  - # 18
    frequency:   33.5435819158

- q-position: [    0.1161616,    0.0000000,    0.0000000 ]
  distance:    0.0400303
  band:
  - # 1
    frequency:   -1.1591652364
  - # 2
    frequency:    0.4875652945
  - # 3
    frequency:    0.9650965757
  - # 4
    frequency:    1.4401401280
  - # 5
    frequency:    1.6765521516
  - # 6
    frequency:    2.5815405539
  - # 7
    frequency:    2.8440224640
  - # 8
    frequency:    3.4127257640
  - # 9
    frequency:    3.8286034075
  - # 10
    frequency:    4.0684988926
  - # 11
    frequency:    4.3193776634
  - # 12
    frequency:    4.6894907771
  - # 13
    frequency:    6.1298450822
  - # 14
    frequency:    7.8417787010
  - # 15
    frequency:   11.4681730345
  - # 16
    frequency:   15.3407830285
  - # 17
    frequency:   15.3902100990
  - # 18
    frequency:   33.5389807357

- q-position: [    0.1212121,    0.0000000,    0.0000000 ]
  distance:    0.0417707
  band:
  - # 1
    frequency:   -1.1924427413
  - # 2
    frequency:    0.5274489797
  - # 3
    frequency:    1.0061466707
  - # 4
    frequency:    1.5071102590
  - # 5
    frequency:    1.7442701967
  - # 6
    frequency:    2.5979948667
  - # 7
    frequency:    2.8765124247
  - # 8
    frequency:    3.4151449515
  - # 9
    frequency:    3.8318125253
  - # 10
    frequency:    4.0835171239
  - # 11
    frequency:    4.3167532972
  - # 12
    frequency:    4.7132972588
  - # 13
    frequency:    6.1160392148
  - # 14
    frequency:    7.8290311589
  - # 15
    frequency:   11.4843446946
  - # 16
    frequency:   15.3393034913
  - # 17
    frequency:   15.3951707362
  - # 18
    frequency:   33.5342208992

- q-position: [    0.1262626,    0.0000000,    0.0000000 ]
  distance:    0.0435112
  band:
  - # 1
    frequency:   -1.2254236113
  - # 2
    frequency:    0.5683058126
  - # 3
    frequency:    1.0471021797
  - # 4
    frequency:    1.5731051087
  - # 5
    frequency:    1.8107950915
  - # 6
    frequency:    2.6146090990
  - # 7
    frequency:    2.9089600204
  - # 8
    frequency:    3.4190030784
  - # 9
    frequency:    3.8352034419
  - # 10
    frequency:    4.0992162073
  - # 11
    frequency:    4.3142094559
  - # 12
    frequency:    4.7372334046
  - # 13
    frequency:    6.1018812778
  - # 14
    frequency:    7.8158850992
  - # 15
    frequency:   11.5010146527
  - # 16
    frequency:   15.3374110123
  - # 17
    frequency:   15.4003095331
  - # 18
    frequency:   33.5293080212

- q-position: [    0.1313131,    0.0000000,    0.0000000 ]
  distance:    0.0452516
  band:
  - # 1
    frequency:   -1.2580504605
  - # 2
    frequency:    0.6100944150
  - # 3
    frequency:    1.0879541688
  - # 4
    frequency:    1.6381151910
  - # 5
    frequency:    1.8760170093
  - # 6
    frequency:    2.6313389713
  - # 7
    frequency:    2.9412899091
  - # 8
    frequency:    3.4243534321
  - # 9
    frequency:    3.8387765770
  - # 10
    frequency:    4.1156702617
  - # 11
    frequency:    4.3117654445
  - # 12
    frequency:    4.7612318395
  - # 13
    frequency:    6.0874008180
  - # 14
    frequency:    7.8023615001
  - # 15
    frequency:   11.5181631106
  - # 16
    frequency:   15.3350710968
  - # 17
    frequency:   15.4056223052
  - # 18
    frequency:   33.5242478801

- q-position: [    0.1363636,    0.0000000,    0.0000000 ]
  distance:    0.0469921
  band:
  - # 1
    frequency:   -1.2902692537
  - # 2
    frequency:    0.6527724467
  - # 3
    frequency:    1.1286933170
  - # 4
    frequency:    1.7021170103
  - # 5
    frequency:    1.9398235888
  - # 6
    frequency:    2.6481412649
  - # 7
    frequency:    2.9734400518
  - # 8
    frequency:    3.4312489164
  - # 9
    frequency:    3.8425318949
  - # 10
    frequency:    4.1329452774
  - # 11
    frequency:    4.3094401352
  - # 12
    frequency:    4.7852306938
  - # 13
    frequency:    6.0726285695
  - # 14
    frequency:    7.7884823683
  - # 15
    frequency:   11.5357701583
  - # 16
    frequency:   15.3322495553
  - # 17
    frequency:   15.4111046924
  - # 18
    frequency:   33.5190464080

- q-position: [    0.1414141,    0.0000000,    0.0000000 ]
  distance:    0.0487325
  band:
  - # 1
    frequency:   -1.3220288720
  - # 2
    frequency:    0.6962967571
  - # 3
    frequency:    1.1693099466
  - # 4
    frequency:    1.7650748018
  - # 5
    frequency:    2.0021011916
  - # 6
    frequency:    2.6649739105
  - # 7
    frequency:    3.0053627389
  - # 8
    frequency:    3.4397413840
  - # 9
    frequency:    3.8464689404
  - # 10
    frequency:    4.1510980083
  - # 11
    frequency:    4.3072517988
  - # 12
    frequency:    4.8091734225
  - # 13
    frequency:    6.0575964439
  - # 14
    frequency:    7.7742706851
  - # 15
    frequency:   11.5538158193
  - # 16
    frequency:   15.3289126655
  - # 17
    frequency:   15.4167521598
  - # 18
    frequency:   33.5137096822

- q-position: [    0.1464646,    0.0000000,    0.0000000 ]
  distance:    0.0504730
  band:
  - # 1
    frequency:   -1.3532807628
  - # 2
    frequency:    0.7406234329
  - # 3
    frequency:    1.2097940473
  - # 4
    frequency:    1.8269417023
  - # 5
    frequency:    2.0627368811
  - # 6
    frequency:    2.6817960752
  - # 7
    frequency:    3.0370251715
  - # 8
    frequency:    3.4498807562
  - # 9
    frequency:    3.8505868751
  - # 10
    frequency:    4.1701750032
  - # 11
    frequency:    4.3052179380
  - # 12
    frequency:    4.8330085623
  - # 13
    frequency:    6.0423375196
  - # 14
    frequency:    7.7597503452
  - # 15
    frequency:   11.5722800904
  - # 16
    frequency:   15.3250273347
  - # 17
    frequency:   15.4225600006
  - # 18
    frequency:   33.5082439158

- q-position: [    0.1515152,    0.0000000,    0.0000000 ]
  distance:    0.0522134
  band:
  - # 1
    frequency:   -1.3839786629
  - # 2
    frequency:    0.7857077817
  - # 3
    frequency:    1.2501352975
  - # 4
    frequency:    1.8876604511
  - # 5
    frequency:    2.1216212439
  - # 6
    frequency:    2.6985682481
  - # 7
    frequency:    3.0684093922
  - # 8
    frequency:    3.4617139795
  - # 9
    frequency:    3.8548845101
  - # 10
    frequency:    4.1902118006
  - # 11
    frequency:    4.3033551285
  - # 12
    frequency:    4.8566894482
  - # 13
    frequency:    6.0268860302
  - # 14
    frequency:    7.7449460910
  - # 15
    frequency:   11.5911429740
  - # 16
    frequency:   15.3205612613
  - # 17
    frequency:   15.4285233376
  - # 18
    frequency:   33.5026554476

- q-position: [    0.1565657,    0.0000000,    0.0000000 ]
  distance:    0.0539538
  band:
  - # 1
    frequency:   -1.4140783844
  - # 2
    frequency:    0.8315042785
  - # 3
    frequency:    1.2903230830
  - # 4
    frequency:    1.9471636906
  - # 5
    frequency:    2.1786521463
  - # 6
    frequency:    2.7152523249
  - # 7
    frequency:    3.0995113804
  - # 8
    frequency:    3.4752838701
  - # 9
    frequency:    3.8593603320
  - # 10
    frequency:    4.2112323191
  - # 11
    frequency:    4.3016788698
  - # 12
    frequency:    4.8801739105
  - # 13
    frequency:    6.0112773540
  - # 14
    frequency:    7.7298834421
  - # 15
    frequency:   11.6103845041
  - # 16
    frequency:   15.3154830949
  - # 17
    frequency:   15.4346371263
  - # 18
    frequency:   33.4969507330

- q-position: [    0.1616162,    0.0000000,    0.0000000 ]
  distance:    0.0556943
  band:
  - # 1
    frequency:   -1.4435376546
  - # 2
    frequency:    0.8779664907
  - # 3
    frequency:    1.3303465134
  - # 4
    frequency:    2.0053739132
  - # 5
    frequency:    2.2337394630
  - # 6
    frequency:    2.7318116937
  - # 7
    frequency:    3.1303391956
  - # 8
    frequency:    3.4906278885
  - # 9
    frequency:    3.8640125194
  - # 10
    frequency:    4.2332484775
  - # 11
    frequency:    4.3002034506
  - # 12
    frequency:    4.9034239624
  - # 13
    frequency:    5.9955480038
  - # 14
    frequency:    7.7145886214
  - # 15
    frequency:   11.6299847650
  - # 16
    frequency:   15.3097625951
  - # 17
    frequency:   15.4408961578
  - # 18
    frequency:   33.4911363337

- q-position: [    0.1666667,    0.0000000,    0.0000000 ]
  distance:    0.0574347
  band:
  - # 1
    frequency:   -1.4723160035
  - # 2
    frequency:    0.9250469935
  - # 3
    frequency:    1.3701944368
  - # 4
    frequency:    2.0622031003
  - # 5
    frequency:    2.2868107165
  - # 6
    frequency:    2.7482113201
  - # 7
    frequency:    3.1609101913
  - # 8
    frequency:    3.5077768385
  - # 9
    frequency:    3.8688389475
  - # 10
    frequency:    4.2562600695
  - # 11
    frequency:    4.2989418326
  - # 12
    frequency:    4.9264054900
  - # 13
    frequency:    5.9797356177
  - # 14
    frequency:    7.6990884779
  - # 15
    frequency:   11.6499239032
  - # 16
    frequency:   15.3033707882
  - # 17
    frequency:   15.4472950626
  - # 18
    frequency:   33.4852189082

- q-position: [    0.1717172,    0.0000000,    0.0000000 ]
  distance:    0.0591752
  band:
  - # 1
    frequency:   -1.5003746913
  - # 2
    frequency:    0.9726972828
  - # 3
    frequency:    1.4098554542
  - # 4
    frequency:    2.1175521235
  - # 5
    frequency:    2.3378174156
  - # 6
    frequency:    2.7644178322
  - # 7
    frequency:    3.1912475143
  - # 8
    frequency:    3.5267534257
  - # 9
    frequency:    3.8738371779
  - # 10
    frequency:    4.2802549119
  - # 11
    frequency:    4.2979055537
  - # 12
    frequency:    4.9490879483
  - # 13
    frequency:    5.9638789531
  - # 14
    frequency:    7.6834104074
  - # 15
    frequency:   11.6701821312
  - # 16
    frequency:   15.2962801221
  - # 17
    frequency:   15.4538283140
  - # 18
    frequency:   33.4792052012

- q-position: [    0.1767677,    0.0000000,    0.0000000 ]
  distance:    0.0609156
  band:
  - # 1
    frequency:   -1.5276766704
  - # 2
    frequency:    1.0208676909
  - # 3
    frequency:    1.4493179322
  - # 4
    frequency:    2.1713100288
  - # 5
    frequency:    2.3867416873
  - # 6
    frequency:    2.7803996043
  - # 7
    frequency:    3.2213763161
  - # 8
    frequency:    3.5475705457
  - # 9
    frequency:    3.8790044341
  - # 10
    frequency:    4.2971046572
  - # 11
    frequency:    4.3052092628
  - # 12
    frequency:    4.9714440698
  - # 13
    frequency:    5.9480178832
  - # 14