nqpoint: 300    
npath: 3      
segment_nqpoint:
- 100
- 100
- 100
labels:
- [ 'G', 'M' ]
- [ 'M', 'K' ]
- [ 'K', 'G' ]
reciprocal_lattice:
- [   0.30246732,   0.17462959,   0.00000000 ] # a*
- [   0.00000000,   0.34925918,   0.00000000 ] # b*
- [   0.00000000,   0.00000000,   0.04377477 ] # c*
natom: 5      
lattice:
- [     3.306142301052796,     0.000000000000000,     0.000000000000000 ] # a
- [    -1.653071150526398,     2.863203221233969,     0.000000000000000 ] # b
- [     0.000000000000000,     0.000000000000000,    22.844210749105752 ] # c
points:
- symbol: C # 1
  coordinates: [  0.000000000000000,  0.000000000000000,  0.503228551829837 ]
  mass: 12.010700
- symbol: F # 2
  coordinates: [  0.666666984744047,  0.333332985985145,  0.393972901880723 ]
  mass: 18.998403
- symbol: Hf # 3
  coordinates: [  0.333332985432215,  0.666666983183674,  0.451265452183098 ]
  mass: 178.490000
- symbol: Hf # 4
  coordinates: [  0.666666984744047,  0.333332985985145,  0.564705753999902 ]
  mass: 178.490000
- symbol: O # 5
  coordinates: [  0.333332985432215,  0.666666983183674,  0.606027098119277 ]
  mass: 15.999400

phonon:
- q-position: [    0.0000000,    0.0000000,    0.0000000 ]
  distance:    0.0000000
  band:
  - # 1
    frequency:   -0.0000100502
  - # 2
    frequency:   -0.0000001722
  - # 3
    frequency:    0.0000084561
  - # 4
    frequency:    2.7222759457
  - # 5
    frequency:    2.7222759458
  - # 6
    frequency:    5.1139660550
  - # 7
    frequency:    5.1139660551
  - # 8
    frequency:    5.3295579008
  - # 9
    frequency:   10.1317607729
  - # 10
    frequency:   10.1317607729
  - # 11
    frequency:   11.2532158702
  - # 12
    frequency:   14.9600789864
  - # 13
    frequency:   16.5832172506
  - # 14
    frequency:   16.5832172506
  - # 15
    frequency:   19.0344779422

- q-position: [    0.0050505,    0.0000000,    0.0000000 ]
  distance:    0.0017639
  band:
  - # 1
    frequency:   -0.0002974396
  - # 2
    frequency:    0.0271307144
  - # 3
    frequency:    0.0558114341
  - # 4
    frequency:    2.7222157971
  - # 5
    frequency:    2.7234083017
  - # 6
    frequency:    5.1144294642
  - # 7
    frequency:    5.1150982169
  - # 8
    frequency:    5.3291006760
  - # 9
    frequency:   10.1302228198
  - # 10
    frequency:   10.1308029070
  - # 11
    frequency:   11.2526643403
  - # 12
    frequency:   14.9587438980
  - # 13
    frequency:   16.5812640276
  - # 14
    frequency:   16.5827605850
  - # 15
    frequency:   19.0337451218

- q-position: [    0.0101010,    0.0000000,    0.0000000 ]
  distance:    0.0035279
  band:
  - # 1
    frequency:   -0.0010336104
  - # 2
    frequency:    0.0542017495
  - # 3
    frequency:    0.1118733086
  - # 4
    frequency:    2.7220434576
  - # 5
    frequency:    2.7267923151
  - # 6
    frequency:    5.1158171137
  - # 7
    frequency:    5.1184812870
  - # 8
    frequency:    5.3277342449
  - # 9
    frequency:   10.1256143976
  - # 10
    frequency:   10.1279324431
  - # 11
    frequency:   11.2510096831
  - # 12
    frequency:   14.9547400520
  - # 13
    frequency:   16.5754144034
  - # 14
    frequency:   16.5813927910
  - # 15
    frequency:   19.0315500245

- q-position: [    0.0151515,    0.0000000,    0.0000000 ]
  distance:    0.0052918
  band:
  - # 1
    frequency:   -0.0022567453
  - # 2
    frequency:    0.0811564040
  - # 3
    frequency:    0.1684250185
  - # 4
    frequency:    2.7217830269
  - # 5
    frequency:    2.7323894346
  - # 6
    frequency:    5.1181213360
  - # 7
    frequency:    5.1240741393
  - # 8
    frequency:    5.3254752638
  - # 9
    frequency:   10.1179518625
  - # 10
    frequency:   10.1231587915
  - # 11
    frequency:   11.2482517294
  - # 12
    frequency:   14.9480717464
  - # 13
    frequency:   16.5656984650
  - # 14
    frequency:   16.5791204610
  - # 15
    frequency:   19.0279027129

- q-position: [    0.0202020,    0.0000000,    0.0000000 ]
  distance:    0.0070557
  band:
  - # 1
    frequency:   -0.0039658405
  - # 2
    frequency:    0.1079439195
  - # 3
    frequency:    0.2256845279
  - # 4
    frequency:    2.7214739420
  - # 5
    frequency:    2.7401373942
  - # 6
    frequency:    5.1213295666
  - # 7
    frequency:    5.1318049074
  - # 8
    frequency:    5.3223549689
  - # 9
    frequency:   10.1072626266
  - # 10
    frequency:   10.1164976623
  - # 11
    frequency:   11.2443903063
  - # 12
    frequency:   14.9387462777
  - # 13
    frequency:   16.5521661982
  - # 14
    frequency:   16.5759545307
  - # 15
    frequency:   19.0228198581

- q-position: [    0.0252525,    0.0000000,    0.0000000 ]
  distance:    0.0088197
  band:
  - # 1
    frequency:   -0.0061519856
  - # 2
    frequency:    0.1345224222
  - # 3
    frequency:    0.2838394050
  - # 4
    frequency:    2.7211699023
  - # 5
    frequency:    2.7499530110
  - # 6
    frequency:    5.1254246560
  - # 7
    frequency:    5.1415643849
  - # 8
    frequency:    5.3184260005
  - # 9
    frequency:   10.0935853925
  - # 10
    frequency:   10.1079711057
  - # 11
    frequency:   11.2394253957
  - # 12
    frequency:   14.9267741427
  - # 13
    frequency:   16.5348872416
  - # 14
    frequency:   16.5719102004
  - # 15
    frequency:   19.0163245917

- q-position: [    0.0303030,    0.0000000,    0.0000000 ]
  distance:    0.0105836
  band:
  - # 1
    frequency:   -0.0087952178
  - # 2
    frequency:    0.1608618067
  - # 3
    frequency:    0.3430396428
  - # 4
    frequency:    2.7209373974
  - # 5
    frequency:    2.7617357675
  - # 6
    frequency:    5.1303852873
  - # 7
    frequency:    5.1531923861
  - # 8
    frequency:    5.3137763498
  - # 9
    frequency:   10.0769704958
  - # 10
    frequency:   10.0976075671
  - # 11
    frequency:   11.2333573435
  - # 12
    frequency:   14.9121693270
  - # 13
    frequency:   16.5139505293
  - # 14
    frequency:   16.5670068276
  - # 15
    frequency:   19.0084463036

- q-position: [    0.0353535,    0.0000000,    0.0000000 ]
  distance:    0.0123475
  band:
  - # 1
    frequency:   -0.0118599194
  - # 2
    frequency:    0.1869465079
  - # 3
    frequency:    0.4033925120
  - # 4
    frequency:    2.7208538771
  - # 5
    frequency:    2.7753719020
  - # 6
    frequency:    5.1361864781
  - # 7
    frequency:    5.1664487422
  - # 8
    frequency:    5.3085587442
  - # 9
    frequency:   10.0574803661
  - # 10
    frequency:   10.0854419570
  - # 11
    frequency:   11.2261871123
  - # 12
    frequency:   14.8949496830
  - # 13
    frequency:   16.4894638086
  - # 14
    frequency:   16.5612677886
  - # 15
    frequency:   18.9992203863

- q-position: [    0.0404040,    0.0000000,    0.0000000 ]
  distance:    0.0141115
  band:
  - # 1
    frequency:   -0.0152899537
  - # 2
    frequency:    0.2127780808
  - # 3
    frequency:    0.4649594442
  - # 4
    frequency:    2.7210056060
  - # 5
    frequency:    2.7907387218
  - # 6
    frequency:    5.1428001494
  - # 7
    frequency:    5.1809480773
  - # 8
    frequency:    5.3030563205
  - # 9
    frequency:   10.0351901194
  - # 10
    frequency:   10.0715157368
  - # 11
    frequency:   11.2179165639
  - # 12
    frequency:   14.8751374020
  - # 13
    frequency:   16.4615530201
  - # 14
    frequency:   16.5547203129
  - # 15
    frequency:   18.9886879331

- q-position: [    0.0454545,    0.0000000,    0.0000000 ]
  distance:    0.0158754
  band:
  - # 1
    frequency:   -0.0190035322
  - # 2
    frequency:    0.2383774786
  - # 3
    frequency:    0.5277547557
  - # 4
    frequency:    2.7214852640
  - # 5
    frequency:    2.8077088759
  - # 6
    frequency:    5.1501957341
  - # 7
    frequency:    5.1960050173
  - # 8
    frequency:    5.2978379252
  - # 9
    frequency:   10.0101882921
  - # 10
    frequency:   10.0558770158
  - # 11
    frequency:   11.2085487611
  - # 12
    frequency:   14.8527595853
  - # 13
    frequency:   16.4303615232
  - # 14
    frequency:   16.5473952891
  - # 15
    frequency:   18.9768953927

- q-position: [    0.0505051,    0.0000000,    0.0000000 ]
  distance:    0.0176394
  band:
  - # 1
    frequency:   -0.0228873538
  - # 2
    frequency:    0.2637868879
  - # 3
    frequency:    0.5917458886
  - # 4
    frequency:    2.7223893597
  - # 5
    frequency:    2.8261543683
  - # 6
    frequency:    5.1583408054
  - # 7
    frequency:    5.2102729138
  - # 8
    frequency:    5.2941199549
  - # 9
    frequency:    9.9825777255
  - # 10
    frequency:   10.0385806630
  - # 11
    frequency:   11.1980882778
  - # 12
    frequency:   14.8278489147
  - # 13
    frequency:   16.3960491534
  - # 14
    frequency:   16.5393270464
  - # 15
    frequency:   18.9638941858

- q-position: [    0.0555556,    0.0000000,    0.0000000 ]
  distance:    0.0194033
  band:
  - # 1
    frequency:   -0.0267890471
  - # 2
    frequency:    0.2890709590
  - # 3
    frequency:    0.6568547796
  - # 4
    frequency:    2.7238155347
  - # 5
    frequency:    2.8459501542
  - # 6
    frequency:    5.1672016988
  - # 7
    frequency:    5.2211653150
  - # 8
    frequency:    5.2943455038
  - # 9
    frequency:    9.9524766011
  - # 10
    frequency:   10.0196884280
  - # 11
    frequency:   11.1865415064
  - # 12
    frequency:   14.8004444227
  - # 13
    frequency:   16.3587910985
  - # 14
    frequency:   16.5305531112
  - # 15
    frequency:   18.9497402903

- q-position: [    0.0606061,    0.0000000,    0.0000000 ]
  distance:    0.0211672
  band:
  - # 1
    frequency:   -0.0305061119
  - # 2
    frequency:    0.3143172536
  - # 3
    frequency:    0.7229599528
  - # 4
    frequency:    2.7258598488
  - # 5
    frequency:    2.8669772190
  - # 6
    frequency:    5.1767441097
  - # 7
    frequency:    5.2254288336
  - # 8
    frequency:    5.3016121718
  - # 9
    frequency:    9.9200196232
  - # 10
    frequency:    9.9992690722
  - # 11
    frequency:   11.1739169538
  - # 12
    frequency:   14.7705923570
  - # 13
    frequency:   16.3187765868
  - # 14
    frequency:   16.5211139426
  - # 15
    frequency:   18.9344937975

- q-position: [    0.0656566,    0.0000000,    0.0000000 ]
  distance:    0.0229312
  band:
  - # 1
    frequency:   -0.0337678265
  - # 2
    frequency:    0.3396357422
  - # 3
    frequency:    0.7898989706
  - # 4
    frequency:    2.7286141355
  - # 5
    frequency:    2.8891251002
  - # 6
    frequency:    5.1869336458
  - # 7
    frequency:    5.2224549377
  - # 8
    frequency:    5.3163610241
  - # 9
    frequency:    9.8853593321
  - # 10
    frequency:    9.9773985068
  - # 11
    frequency:   11.1602255195
  - # 12
    frequency:   14.7383471279
  - # 13
    frequency:   16.2762073831
  - # 14
    frequency:   16.5110526485
  - # 15
    frequency:   18.9182184475

- q-position: [    0.0707071,    0.0000000,    0.0000000 ]
  distance:    0.0246951
  band:
  - # 1
    frequency:   -0.0362023608
  - # 2
    frequency:    0.3651572100
  - # 3
    frequency:    0.8574709357
  - # 4
    frequency:    2.7321635229
  - # 5
    frequency:    2.9122938541
  - # 6
    frequency:    5.1977363206
  - # 7
    frequency:    5.2144733915
  - # 8
    frequency:    5.3361839981
  - # 9
    frequency:    9.8486675180
  - # 10
    frequency:    9.9541599346
  - # 11
    frequency:   11.1454807488
  - # 12
    frequency:   14.7037723201
  - # 13
    frequency:   16.2312961015
  - # 14
    frequency:   16.5004146841
  - # 15
    frequency:   18.9009811465

- q-position: [    0.0757576,    0.0000000,    0.0000000 ]
  distance:    0.0264590
  band:
  - # 1
    frequency:   -0.0372691852
  - # 2
    frequency:    0.3910304936
  - # 3
    frequency:    0.9254388131
  - # 4
    frequency:    2.7365842106
  - # 5
    frequency:    2.9363955059
  - # 6
    frequency:    5.2034605290
  - # 7
    frequency:    5.2091189743
  - # 8
    frequency:    5.3589166150
  - # 9
    frequency:    9.8101366928
  - # 10
    frequency:    9.9296439943
  - # 11
    frequency:   11.1296990584
  - # 12
    frequency:   14.6669417424
  - # 13
    frequency:   16.1842643502
  - # 14
    frequency:   16.4892475380
  - # 15
    frequency:   18.8828514719

- q-position: [    0.0808081,    0.0000000,    0.0000000 ]
  distance:    0.0282230
  band:
  - # 1
    frequency:   -0.0360934499
  - # 2
    frequency:    0.4174185542
  - # 3
    frequency:    0.9935314199
  - # 4
    frequency:    2.7419415810
  - # 5
    frequency:    2.9613550364
  - # 6
    frequency:    5.1904407083
  - # 7
    frequency:    5.2210496131
  - # 8
    frequency:    5.3833377076
  - # 9
    frequency:    9.7699815530
  - # 10
    frequency:    9.9039489007
  - # 11
    frequency:   11.1128999299
  - # 12
    frequency:   14.6279404780
  - # 13
    frequency:   16.1353407358
  - # 14
    frequency:   16.4776004059
  - # 15
    frequency:   18.8639011700

- q-position: [    0.0858586,    0.0000000,    0.0000000 ]
  distance:    0.0299869
  band:
  - # 1
    frequency:   -0.0309163550
  - # 2
    frequency:    0.4444935021
  - # 3
    frequency:    1.0614449995
  - # 4
    frequency:    2.7482887115
  - # 5
    frequency:    2.9871109683
  - # 6
    frequency:    5.1759019410
  - # 7
    frequency:    5.2334976619
  - # 8
    frequency:    5.4087552439
  - # 9
    frequency:    9.7284403494
  - # 10
    frequency:    9.8771805805
  - # 11
    frequency:   11.0951060707
  - # 12
    frequency:   14.5868658910
  - # 13
    frequency:   16.0847587691
  - # 14
    frequency:   16.4655238576
  - # 15
    frequency:   18.8442036493

- q-position: [    0.0909091,    0.0000000,    0.0000000 ]
  distance:    0.0317508
  band:
  - # 1
    frequency:   -0.0150198079
  - # 2
    frequency:    0.4724308036
  - # 3
    frequency:    1.1288443671
  - # 4
    frequency:    2.7556653332
  - # 5
    frequency:    3.0136156062
  - # 6
    frequency:    5.1600854087
  - # 7
    frequency:    5.2464341251
  - # 8
    frequency:    5.4347186309
  - # 9
    frequency:    9.6857760520
  - # 10
    frequency:    9.8494527952
  - # 11
    frequency:   11.0763435388
  - # 12
    frequency:   14.5438285334
  - # 13
    frequency:   16.0327547219
  - # 14
    frequency:   16.4530694995
  - # 15
    frequency:   18.8238334761

- q-position: [    0.0959596,    0.0000000,    0.0000000 ]
  distance:    0.0335148
  band:
  - # 1
    frequency:    0.0322535891
  - # 2
    frequency:    0.5014030026
  - # 3
    frequency:    1.1953636697
  - # 4
    frequency:    2.7640972573
  - # 5
    frequency:    3.0408349719
  - # 6
    frequency:    5.1431152190
  - # 7
    frequency:    5.2598316553
  - # 8
    frequency:    5.4608912643
  - # 9
    frequency:    9.6422771726
  - # 10
    frequency:    9.8208872480
  - # 11
    frequency:   11.0566418321
  - # 12
    frequency:   14.4989528931
  - # 13
    frequency:   15.9795654993
  - # 14
    frequency:   16.4402896371
  - # 15
    frequency:   18.8028658743

- q-position: [    0.1010101,    0.0000000,    0.0000000 ]
  distance:    0.0352787
  band:
  - # 1
    frequency:    0.0550149066
  - # 2
    frequency:    0.5315733639
  - # 3
    frequency:    1.2606068608
  - # 4
    frequency:    2.7735962676
  - # 5
    frequency:    3.0687484526
  - # 6
    frequency:    5.1250550674
  - # 7
    frequency:    5.2736645310
  - # 8
    frequency:    5.4869967868
  - # 9
    frequency:    9.5982580845
  - # 10
    frequency:    9.7916136685
  - # 11
    frequency:   11.0360339397
  - # 12
    frequency:   14.4523779203
  - # 13
    frequency:   15.9254265944
  - # 14
    frequency:   16.4272369396
  - # 15
    frequency:   18.7813762359

- q-position: [    0.1060606,    0.0000000,    0.0000000 ]
  distance:    0.0370426
  band:
  - # 1
    frequency:    0.0771551061
  - # 2
    frequency:    0.5630898689
  - # 3
    frequency:    1.3241480479
  - # 4
    frequency:    2.7841604535
  - # 5
    frequency:    3.0973481529
  - # 6
    frequency:    5.1059345704
  - # 7
    frequency:    5.2879085452
  - # 8
    frequency:    5.5127964291
  - # 9
    frequency:    9.5540586549
  - # 10
    frequency:    9.7617698680
  - # 11
    frequency:   11.0145563542
  - # 12
    frequency:   14.4042572692
  - # 13
    frequency:   15.8705701990
  - # 14
    frequency:   16.4139641122
  - # 15
    frequency:   18.7594396444

- q-position: [    0.1111111,    0.0000000,    0.0000000 ]
  distance:    0.0388066
  band:
  - # 1
    frequency:    0.1003730813
  - # 2
    frequency:    0.5960799636
  - # 3
    frequency:    1.3855319222
  - # 4
    frequency:    2.7957749366
  - # 5
    frequency:    3.1266379092
  - # 6
    frequency:    5.0857627487
  - # 7
    frequency:    5.3025408094
  - # 8
    frequency:    5.5380800879
  - # 9
    frequency:    9.5100429929
  - # 10
    frequency:    9.7315017579
  - # 11
    frequency:   10.9922490444
  - # 12
    frequency:   14.3547592035
  - # 13
    frequency:   15.8152235397
  - # 14
    frequency:   16.4005235775
  - # 15
    frequency:   18.7371304170

- q-position: [    0.1161616,    0.0000000,    0.0000000 ]
  distance:    0.0405705
  band:
  - # 1
    frequency:    0.1252379727
  - # 2
    frequency:    0.6306463777
  - # 3
    frequency:    1.4442745480
  - # 4
    frequency:    2.8084129299
  - # 5
    frequency:    3.1566318982
  - # 6
    frequency:    5.0645359605
  - # 7
    frequency:    5.3175394780
  - # 8
    frequency:    5.5626639479
  - # 9
    frequency:    9.4665971182
  - # 10
    frequency:    9.7009633247
  - # 11
    frequency:   10.9691553860
  - # 12
    frequency:   14.3040661214
  - # 13
    frequency:   15.7596075011
  - # 14
    frequency:   16.3869671721
  - # 15
    frequency:   18.7145216693

- q-position: [    0.1212121,    0.0000000,    0.0000000 ]
  distance:    0.0423344
  band:
  - # 1
    frequency:    0.1520219016
  - # 2
    frequency:    0.6668642143
  - # 3
    frequency:    1.4998648446
  - # 4
    frequency:    2.8220370570
  - # 5
    frequency:    3.1873527482
  - # 6
    frequency:    5.0422435611
  - # 7
    frequency:    5.3328834001
  - # 8
    frequency:    5.5863914249
  - # 9
    frequency:    9.4241253730
  - # 10
    frequency:    9.6703165502
  - # 11
    frequency:   10.9453220503
  - # 12
    frequency:   14.2523736780
  - # 13
    frequency:   15.7039355864
  - # 14
    frequency:   16.3733458588
  - # 15
    frequency:   18.6916849068

- q-position: [    0.1262626,    0.0000000,    0.0000000 ]
  distance:    0.0440984
  band:
  - # 1
    frequency:    0.1808730055
  - # 2
    frequency:    0.7047793788
  - # 3
    frequency:    1.5517671638
  - # 4
    frequency:    2.8366008552
  - # 5
    frequency:    3.2188290591
  - # 6
    frequency:    5.0188728910
  - # 7
    frequency:    5.3485517061
  - # 8
    frequency:    5.6091357929
  - # 9
    frequency:    9.3830454509
  - # 10
    frequency:    9.6397312703
  - # 11
    frequency:   10.9207988496
  - # 12
    frequency:   14.1998895003
  - # 13
    frequency:   15.6484132467
  - # 14
    frequency:   16.3597094601
  - # 15
    frequency:   18.6686896464

- q-position: [    0.1313131,    0.0000000,    0.0000000 ]
  distance:    0.0458623
  band:
  - # 1
    frequency:    0.2118695878
  - # 2
    frequency:    0.7444082896
  - # 3
    frequency:    1.5994254219
  - # 4
    frequency:    2.8520503899
  - # 5
    frequency:    3.2510922551
  - # 6
    frequency:    4.9944144246
  - # 7
    frequency:    5.3645233391
  - # 8
    frequency:    5.6308035004
  - # 9
    frequency:    9.3437819908
  - # 10
    frequency:    9.6093849587
  - # 11
    frequency:   10.8956385402
  - # 12
    frequency:   14.1468315154
  - # 13
    frequency:   15.5932375907
  - # 14
    frequency:   16.3461064140
  - # 15
    frequency:   18.6456030731

- q-position: [    0.1363636,    0.0000000,    0.0000000 ]
  distance:    0.0476263
  band:
  - # 1
    frequency:    0.2450396179
  - # 2
    frequency:    0.7857387169
  - # 3
    frequency:    1.6422693065
  - # 4
    frequency:    2.8683259101
  - # 5
    frequency:    3.2841727517
  - # 6
    frequency:    4.9688675031
  - # 7
    frequency:    5.3807765408
  - # 8
    frequency:    5.6513374257
  - # 9
    frequency:    9.3067587987
  - # 10
    frequency:    9.5794624272
  - # 11
    frequency:   10.8698965843
  - # 12
    frequency:   14.0934259305
  - # 13
    frequency:   15.5385974682
  - # 14
    frequency:   16.3325835555
  - # 15
    frequency:   18.6224897350

- q-position: [    0.1414141,    0.0000000,    0.0000000 ]
  distance:    0.0493902
  band:
  - # 1
    frequency:    0.2803667179
  - # 2
    frequency:    0.8287315311
  - # 3
    frequency:    1.6797231369
  - # 4
    frequency:    2.8853634872
  - # 5
    frequency:    3.3180955118
  - # 6
    frequency:    4.9422467814
  - # 7
    frequency:    5.3972883062
  - # 8
    frequency:    5.6707194127
  - # 9
    frequency:    9.2723898925
  - # 10
    frequency:    9.5501554266
  - # 11
    frequency:   10.8436308738
  - # 12
    frequency:   14.0399049258
  - # 13
    frequency:   15.4846738998
  - # 14
    frequency:   16.3191859256
  - # 15
    frequency:   18.5994112786

- q-position: [    0.1464646,    0.0000000,    0.0000000 ]
  distance:    0.0511541
  band:
  - # 1
    frequency:    0.3177891737
  - # 2
    frequency:    0.8733231192
  - # 3
    frequency:    1.7112180472
  - # 4
    frequency:    2.9030965901
  - # 5
    frequency:    3.3528751906
  - # 6
    frequency:    4.9145892661
  - # 7
    frequency:    5.4140338205
  - # 8
    frequency:    5.6889714856
  - # 9
    frequency:    9.2410697222
  - # 10
    frequency:    9.5216621383
  - # 11
    frequency:   10.8169014225
  - # 12
    frequency:   13.9865041315
  - # 13
    frequency:   15.4316408108
  - # 14
    frequency:   16.3059566100
  - # 15
    frequency:   18.5764262284

- q-position: [    0.1515152,    0.0000000,    0.0000000 ]
  distance:    0.0529181
  band:
  - # 1
    frequency:    0.3571938864
  - # 2
    frequency:    0.9194282322
  - # 3
    frequency:    1.7362083208
  - # 4
    frequency:    2.9214575580
  - # 5
    frequency:    3.3885112080
  - # 6
    frequency:    4.8859615512
  - # 7
    frequency:    5.4309858962
  - # 8
    frequency:    5.7061552220
  - # 9
    frequency:    9.2131630552
  - # 10
    frequency:    9.4941865396
  - # 11
    frequency:   10.7897700337
  - # 12
    frequency:   13.9334599668
  - # 13
    frequency:   15.3796660171
  - # 14
    frequency:   16.2929366079
  - # 15
    frequency:   18.5535898126

- q-position: [    0.1565657,    0.0000000,    0.0000000 ]
  distance:    0.0546820
  band:
  - # 1
    frequency:    0.3984051459
  - # 2
    frequency:    0.9669430539
  - # 3
    frequency:    1.7541930236
  - # 4
    frequency:    2.9403789478
  - # 5
    frequency:    3.4249832023
  - # 6
    frequency:    4.8564666052
  - # 7
    frequency:    5.4481144307
  - # 8
    frequency:    5.7223689146
  - # 9
    frequency:    9.1889951321
  - # 10
    frequency:    9.4679376287
  - # 11
    frequency:   10.7622999546
  - # 12
    frequency:   13.8810069207
  - # 13
    frequency:   15.3289124060
  - # 14
    frequency:   16.2801647328
  - # 15
    frequency:   18.5309538355

- q-position: [    0.1616162,    0.0000000,    0.0000000 ]
  distance:    0.0564459
  band:
  - # 1
    frequency:    0.4411666890
  - # 2
    frequency:    1.0157483229
  - # 3
    frequency:    1.7647446902
  - # 4
    frequency:    2.9597947380
  - # 5
    frequency:    3.4622473636
  - # 6
    frequency:    4.8262492472
  - # 7
    frequency:    5.4653859058
  - # 8
    frequency:    5.7377423774
  - # 9
    frequency:    9.1688427456
  - # 10
    frequency:    9.4431284945
  - # 11
    frequency:   10.7345555321
  - # 12
    frequency:   13.8293748459
  - # 13
    frequency:   15.2795392516
  - # 14
    frequency:   16.2676775445
  - # 15
    frequency:   18.5085665979

- q-position: [    0.1666667,    0.0000000,    0.0000000 ]
  distance:    0.0582099
  band:
  - # 1
    frequency:    0.4851139082
  - # 2
    frequency:    1.0657123832
  - # 3
    frequency:    1.7675479095
  - # 4
    frequency:    2.9796413823
  - # 5
    frequency:    3.5002340954
  - # 6
    frequency:    4.7954993475
  - # 7
    frequency:    5.4827629548
  - # 8
    frequency:    5.7524295348
  - # 9
    frequency:    9.1529268655
  - # 10
    frequency:    9.4199752148
  - # 11
    frequency:   10.7066018866
  - # 12
    frequency:   13.7787863242
  - # 13
    frequency:   15.2317036118
  - # 14
    frequency:   16.2555093139
  - # 15
    frequency:   18.4864728661

- q-position: [    0.1717172,    0.0000000,    0.0000000 ]
  distance:    0.0599738
  band:
  - # 1
    frequency:    0.5297307876
  - # 2
    frequency:    1.1166940793
  - # 3
    frequency:    1.7624525288
  - # 4
    frequency:    2.9998587095
  - # 5
    frequency:    3.5388472823
  - # 6
    frequency:    4.7644518672
  - # 7
    frequency:    5.5002040235
  - # 8
    frequency:    5.7665992371
  - # 9
    frequency:    9.1414073157
  - # 10
    frequency:    9.3986955693
  - # 11
    frequency:   10.6785046263
  - # 12
    frequency:   13.7294541505
  - # 13
    frequency:   15.1855617584
  - # 14
    frequency:   16.2436920185
  - # 15
    frequency:   18.4647138879

- q-position: [    0.1767677,    0.0000000,    0.0000000 ]
  distance:    0.0617377
  band:
  - # 1
    frequency:    0.5742825882
  - # 2
    frequency:    1.1685454465
  - # 3
    frequency:    1.7495492393
  - # 4
    frequency:    3.0203906700
  - # 5
    frequency:    3.5779651893
  - # 6
    frequency:    4.7333831526
  - # 7
    frequency:    5.5176631532
  - # 8
    frequency:    5.7804250063
  - # 9
    frequency:    9.1343798190
  - # 10
    frequency:    9.3795075557
  - # 11
    frequency:   10.6503296246
  - # 12
    frequency:   13.6815789614
  - # 13
    frequency:   15.1412705979
  - # 14
    frequency:   16.2322553686
  - # 15
    frequency:   18.4433274552

- q-position: [    0.1818182,    0.0000000,    0.0000000 ]
  distance:    0.0635017
  band:
  - # 1
    frequency:    0.6177099897
  - # 2
    frequency:    1.2211141768
  - # 3
    frequency:    1.7292798586
  - # 4
    frequency:    3.0411859341
  - # 5
    frequency:    3.6174427256
  - # 6
    frequency:    4.7026034365
  - # 7
    frequency:    5.5350899130
  - # 8
    frequency:    5.7940745798
  - # 9
    frequency:    9.1318754866
  - # 10
    frequency:    9.3626276993
  - # 11
    frequency:   10.6221428908
  - # 12
    frequency:   13.6353470216
  - # 13
    frequency:   15.0989890507
  - # 14
    frequency:   16.2212268628
  - # 15
    frequency:   18.4223480106

- q-position: [    0.1868687,    0.0000000,    0.0000000 ]
  distance:    0.0652656
  band:
  - # 1
    frequency:    0.6584637862
  - # 2
    frequency:    1.2742458569
  - # 3
    frequency:    1.7025999921
  - # 4
    frequency:    3.0621983436
  - # 5
    frequency:    3.6571145524
  - # 6
    frequency:    4.6724461818
  - # 7
    frequency:    5.5524295069
  - # 8
    frequency:    5.8077001554
  - # 9
    frequency:    9.1338625901
  - # 10
    frequency:    9.3482691527
  - # 11
    frequency:   10.5940105622
  - # 12
    frequency:   13.5909281688
  - # 13
    frequency:   15.0588793589
  - # 14
    frequency:   16.2106318709
  - # 15
    frequency:   18.4018067972

- q-position: [    0.1919192,    0.0000000,    0.0000000 ]
  distance:    0.0670295
  band:
  - # 1
    frequency:    0.6942562258
  - # 2
    frequency:    1.3277859903
  - # 3
    frequency:    1.6712126246
  - # 4
    frequency:    3.0833872217
  - # 5
    frequency:    3.6967983443
  - # 6
    frequency:    4.6432555979
  - # 7
    frequency:    5.5696230771
  - # 8
    frequency:    5.8214301357
  - # 9
    frequency:    9.1402502431
  - # 10
    frequency:    9.3366395895
  - # 11
    frequency:   10.5659990547
  - # 12
    frequency:   13.5484739068
  - # 13
    frequency:   15.0211082968
  - # 14
    frequency:   16.2004937424
  - # 15
    frequency:   18.3817320473

- q-position: [    0.1969697,    0.0000000,    0.0000000 ]
  distance:    0.0687935
  band:
  - # 1
    frequency:    0.7217249328
  - # 2
    frequency:    1.3815818214
  - # 3
    frequency:    1.6378673439
  - # 4
    frequency:    3.1047175443
  - # 5
    frequency:    3.7362974669
  - # 6
    frequency:    4.6153741866
  - # 7
    frequency:    5.5866082189
  - # 8
    frequency:    5.8353629561
  - # 9
    frequency:    9.1508934785
  - # 10
    frequency:    9.3279389044
  - # 11
    frequency:   10.5381754087
  - # 12
    frequency:   13.5081156382
  - # 13
    frequency:   14.9858482556
  - # 14
    frequency:   16.1908339381
  - # 15
    frequency:   18.3621492075

- q-position: [    0.2020202,    0.0000000,    0.0000000 ]
  distance:    0.0705574
  band:
  - # 1
    frequency:    0.7360973870
  - # 2
    frequency:    1.4354839823
  - # 3
    frequency:    1.6066195149
  - # 4
    frequency:    3.1261599737
  - # 5
    frequency:    3.7754023935
  - # 6
    frequency:    4.5891323666
  - # 7
    frequency:    5.6033197121
  - # 8
    frequency:    5.8495633092
  - # 9
    frequency:    9.1655991421
  - # 10
    frequency:    9.3223567435
  - # 11
    frequency:   10.5106078735
  - # 12
    frequency:   13.4699630267
  - # 13
    frequency:   14.9532781687
  - # 14
    frequency:   16.1816721817
  - # 15
    frequency:   18.3430811983

- q-position: [    0.2070707,    0.0000000,    0.0000000 ]
  distance:    0.0723213
  band:
  - # 1
    frequency:    0.7311577135
  - # 2
    frequency:    1.4893479844
  - # 3
    frequency:    1.5827101417
  - # 4
    frequency:    3.1476907553
  - # 5
    frequency:    3.8138903422
  - # 6
    frequency:    4.5648420014
  - # 7
    frequency:    5.6196904633
  - # 8
    frequency:    5.8640608020
  - # 9
    frequency:    9.1841320307
  - # 10
    frequency:    9.3200699004
  - # 11
    frequency:   10.4833667792
  - # 12
    frequency:   13.4341024943
  - # 13
    frequency:   14.9235842336
  - # 14
    frequency:   16.1730266295
  - # 15
    frequency:   18.3245487028

- q-position: [    0.2121212,    0.0000000,    0.0000000 ]
  distance:    0.0740853
  band:
  - # 1
    frequency:    0.6999504781