nqpoint: 300    
npath: 3      
segment_nqpoint:
- 100
- 100
- 100
labels:
- [ 'G', 'M' ]
- [ 'M', 'K' ]
- [ 'K', 'G' ]
reciprocal_lattice:
- [   0.30327316,   0.17509484,   0.00000000 ] # a*
- [   0.00000000,   0.35018968,   0.00000000 ] # b*
- [   0.00000000,   0.00000000,   0.03729185 ] # c*
natom: 8      
lattice:
- [     3.297357370191672,     0.000000000000000,     0.000000000000000 ] # a
- [    -1.648678685095836,     2.855595247942926,     0.000000000000000 ] # b
- [     0.000000000000000,     0.000000000000000,    26.815508037591588 ] # c
points:
- symbol: C # 1
  coordinates: [  0.666666984744047,  0.333332985985145,  0.379897367579726 ]
  mass: 12.010700
- symbol: Hf # 2
  coordinates: [  0.333332985432215,  0.666666983183674,  0.481697955771139 ]
  mass: 178.490000
- symbol: Hf # 3
  coordinates: [  0.666666984744047,  0.333332985985145,  0.571466675592525 ]
  mass: 178.490000
- symbol: N # 4
  coordinates: [  0.000000000000000,  0.000000000000000,  0.522606628700295 ]
  mass: 14.006700
- symbol: N # 5
  coordinates: [  0.333332985432215,  0.666666983183674,  0.614619736985126 ]
  mass: 14.006700
- symbol: N # 6
  coordinates: [  0.666666984744047,  0.333332985985145,  0.335626682417624 ]
  mass: 14.006700
- symbol: O # 7
  coordinates: [  0.333332985432215,  0.666666983183674,  0.664373317582376 ]
  mass: 15.999400
- symbol: O # 8
  coordinates: [  0.666666984744047,  0.333332985985145,  0.429971417828944 ]
  mass: 15.999400

phonon:
- q-position: [    0.0000000,    0.0000000,    0.0000000 ]
  distance:    0.0000000
  band:
  - # 1
    frequency:   -3.9784817821
  - # 2
    frequency:   -3.9784817821
  - # 3
    frequency:   -1.1766329839
  - # 4
    frequency:   -1.1766329839
  - # 5
    frequency:   -0.0000040153
  - # 6
    frequency:   -0.0000003202
  - # 7
    frequency:    0.0000047379
  - # 8
    frequency:    2.7219566574
  - # 9
    frequency:    2.7219566574
  - # 10
    frequency:    4.2742625211
  - # 11
    frequency:    5.8982032611
  - # 12
    frequency:    5.8982032611
  - # 13
    frequency:    6.3911445517
  - # 14
    frequency:    6.3911445517
  - # 15
    frequency:    7.6072463380
  - # 16
    frequency:    8.2741916408
  - # 17
    frequency:   13.5400756033
  - # 18
    frequency:   13.5400756033
  - # 19
    frequency:   14.0136080815
  - # 20
    frequency:   15.5743184785
  - # 21
    frequency:   15.5743184785
  - # 22
    frequency:   31.1381344721
  - # 23
    frequency:   37.1165138282
  - # 24
    frequency:   67.9120812758

- q-position: [    0.0050505,    0.0000000,    0.0000000 ]
  distance:    0.0017686
  band:
  - # 1
    frequency:   -3.9777584600
  - # 2
    frequency:   -3.9765647293
  - # 3
    frequency:   -1.1761928985
  - # 4
    frequency:   -1.1739856778
  - # 5
    frequency:    0.0013492466
  - # 6
    frequency:    0.0493926187
  - # 7
    frequency:    0.0880579870
  - # 8
    frequency:    2.7226289660
  - # 9
    frequency:    2.7229263755
  - # 10
    frequency:    4.2742444548
  - # 11
    frequency:    5.8983431556
  - # 12
    frequency:    5.8983655421
  - # 13
    frequency:    6.3914079588
  - # 14
    frequency:    6.3921383958
  - # 15
    frequency:    7.6072928497
  - # 16
    frequency:    8.2737692489
  - # 17
    frequency:   13.5401189635
  - # 18
    frequency:   13.5402385577
  - # 19
    frequency:   14.0135183826
  - # 20
    frequency:   15.5743488975
  - # 21
    frequency:   15.5745218008
  - # 22
    frequency:   31.1376788240
  - # 23
    frequency:   37.1158756096
  - # 24
    frequency:   67.9118304663

- q-position: [    0.0101010,    0.0000000,    0.0000000 ]
  distance:    0.0035373
  band:
  - # 1
    frequency:   -3.9755898703
  - # 2
    frequency:   -3.9708180009
  - # 3
    frequency:   -1.1748683823
  - # 4
    frequency:   -1.1660103143
  - # 5
    frequency:    0.0054045184
  - # 6
    frequency:    0.0987358536
  - # 7
    frequency:    0.1761190428
  - # 8
    frequency:    2.7246412669
  - # 9
    frequency:    2.7258279643
  - # 10
    frequency:    4.2741900308
  - # 11
    frequency:    5.8987631503
  - # 12
    frequency:    5.8988555854
  - # 13
    frequency:    6.3921989342
  - # 14
    frequency:    6.3951184815
  - # 15
    frequency:    7.6074326283
  - # 16
    frequency:    8.2725033694
  - # 17
    frequency:   13.5402489747
  - # 18
    frequency:   13.5407271024
  - # 19
    frequency:   14.0132491420
  - # 20
    frequency:   15.5744407597
  - # 21
    frequency:   15.5751284892
  - # 22
    frequency:   31.1363129867
  - # 23
    frequency:   37.1139620379
  - # 24
    frequency:   67.9110785846

- q-position: [    0.0151515,    0.0000000,    0.0000000 ]
  distance:    0.0053059
  band:
  - # 1
    frequency:   -3.9719801471
  - # 2
    frequency:   -3.9612549407
  - # 3
    frequency:   -1.1726467564
  - # 4
    frequency:   -1.1526047108
  - # 5
    frequency:    0.0121869379
  - # 6
    frequency:    0.1479813676
  - # 7
    frequency:    0.2641856949
  - # 8
    frequency:    2.7279797465
  - # 9
    frequency:    2.7306389043
  - # 10
    frequency:    4.2740985724
  - # 11
    frequency:    5.8994641691
  - # 12
    frequency:    5.8996828505
  - # 13
    frequency:    6.3935197470
  - # 14
    frequency:    6.4000805699
  - # 15
    frequency:    7.6076663849
  - # 16
    frequency:    8.2703978960
  - # 17
    frequency:   13.5404654279
  - # 18
    frequency:   13.5415402868
  - # 19
    frequency:   14.0127999249
  - # 20
    frequency:   15.5745958766
  - # 21
    frequency:   15.5761287561
  - # 22
    frequency:   31.1340402768
  - # 23
    frequency:   37.1107763624
  - # 24
    frequency:   67.9098272692

- q-position: [    0.0202020,    0.0000000,    0.0000000 ]
  distance:    0.0070745
  band:
  - # 1
    frequency:   -3.9669361961
  - # 2
    frequency:   -3.9478979656
  - # 3
    frequency:   -1.1695072128
  - # 4
    frequency:   -1.1335922023
  - # 5
    frequency:    0.0217378967
  - # 6
    frequency:    0.1970828530
  - # 7
    frequency:    0.3522593972
  - # 8
    frequency:    2.7326215872
  - # 9
    frequency:    2.7373222441
  - # 10
    frequency:    4.2739689434
  - # 11
    frequency:    5.9004477205
  - # 12
    frequency:    5.9008626413
  - # 13
    frequency:    6.3953741983
  - # 14
    frequency:    6.4070179185
  - # 15
    frequency:    7.6079952427
  - # 16
    frequency:    8.2674593339
  - # 17
    frequency:   13.5407679724
  - # 18
    frequency:   13.5426765413
  - # 19
    frequency:   14.0121699940
  - # 20
    frequency:   15.5748172493
  - # 21
    frequency:   15.5775064448
  - # 22
    frequency:   31.1308662106
  - # 23
    frequency:   37.1063239902
  - # 24
    frequency:   67.9080792450

- q-position: [    0.0252525,    0.0000000,    0.0000000 ]
  distance:    0.0088432
  band:
  - # 1
    frequency:   -3.9604677173
  - # 2
    frequency:   -3.9307788201
  - # 3
    frequency:   -1.1654212632
  - # 4
    frequency:   -1.1087113585
  - # 5
    frequency:    0.0341284599
  - # 6
    frequency:    0.2459968935
  - # 7
    frequency:    0.4403400127
  - # 8
    frequency:    2.7385352672
  - # 9
    frequency:    2.7458274378
  - # 10
    frequency:    4.2737995386
  - # 11
    frequency:    5.9017158504
  - # 12
    frequency:    5.9024154522
  - # 13
    frequency:    6.3977676510
  - # 14
    frequency:    6.4159217235
  - # 15
    frequency:    7.6084206455
  - # 16
    frequency:    8.2636968253
  - # 17
    frequency:   13.5411561126
  - # 18
    frequency:   13.5441336993
  - # 19
    frequency:   14.0113582913
  - # 20
    frequency:   15.5751090434
  - # 21
    frequency:   15.5792392607
  - # 22
    frequency:   31.1267984864
  - # 23
    frequency:   37.1006124737
  - # 24
    frequency:   67.9058383144

- q-position: [    0.0303030,    0.0000000,    0.0000000 ]
  distance:    0.0106118
  band:
  - # 1
    frequency:   -3.9525872356
  - # 2
    frequency:   -3.9099389107
  - # 3
    frequency:   -1.1603532997
  - # 4
    frequency:   -1.0776000134
  - # 5
    frequency:    0.0494758445
  - # 6
    frequency:    0.2946836624
  - # 7
    frequency:    0.5284253136
  - # 8
    frequency:    2.7456809722
  - # 9
    frequency:    2.7560914564
  - # 10
    frequency:    4.2735882691
  - # 11
    frequency:    5.9032710752
  - # 12
    frequency:    5.9043661216
  - # 13
    frequency:    6.4007070699
  - # 14
    frequency:    6.4267816613
  - # 15
    frequency:    7.6089442333
  - # 16
    frequency:    8.2591221878
  - # 17
    frequency:   13.5416292033
  - # 18
    frequency:   13.5459090259
  - # 19
    frequency:   14.0103634116
  - # 20
    frequency:   15.5754765515
  - # 21
    frequency:   15.5812990905
  - # 22
    frequency:   31.1218469606
  - # 23
    frequency:   37.0936514934
  - # 24
    frequency:   67.9031093447

- q-position: [    0.0353535,    0.0000000,    0.0000000 ]
  distance:    0.0123804
  band:
  - # 1
    frequency:   -3.9433101399
  - # 2
    frequency:   -3.8854296984
  - # 3
    frequency:   -1.1542612102
  - # 4
    frequency:   -1.0397718820
  - # 5
    frequency:    0.0679709208
  - # 6
    frequency:    0.3431074330
  - # 7
    frequency:    0.6165104934
  - # 8
    frequency:    2.7540111063
  - # 9
    frequency:    2.7680401170
  - # 10
    frequency:    4.2733325474
  - # 11
    frequency:    5.9051162969
  - # 12
    frequency:    5.9067428495
  - # 13
    frequency:    6.4042010719
  - # 14
    frequency:    6.4395864665
  - # 15
    frequency:    7.6095676887
  - # 16
    frequency:    8.2537499679
  - # 17
    frequency:   13.5421864444
  - # 18
    frequency:   13.5479992529
  - # 19
    frequency:   14.0091835695
  - # 20
    frequency:   15.5759261482
  - # 21
    frequency:   15.5836524038
  - # 22
    frequency:   31.1160236162
  - # 23
    frequency:   37.0854528348
  - # 24
    frequency:   67.8998982526

- q-position: [    0.0404040,    0.0000000,    0.0000000 ]
  distance:    0.0141491
  band:
  - # 1
    frequency:   -3.9326547277
  - # 2
    frequency:   -3.8573131184
  - # 3
    frequency:   -1.1470969887
  - # 4
    frequency:   -0.9945835922
  - # 5
    frequency:    0.0899250359
  - # 6
    frequency:    0.3912368933
  - # 7
    frequency:    0.7045876800
  - # 8
    frequency:    2.7634708906
  - # 9
    frequency:    2.7815895687
  - # 10
    frequency:    4.2730292710
  - # 11
    frequency:    5.9072546980
  - # 12
    frequency:    5.9095761351
  - # 13
    frequency:    6.4082599858
  - # 14
    frequency:    6.4543244817
  - # 15
    frequency:    7.6102925575
  - # 16
    frequency:    8.2475975137
  - # 17
    frequency:   13.5428268752
  - # 18
    frequency:   13.5504006177
  - # 19
    frequency:   14.0078165578
  - # 20
    frequency:   15.5764652332
  - # 21
    frequency:   15.5862607307
  - # 22
    frequency:   31.1093425255
  - # 23
    frequency:   37.0760303619
  - # 24
    frequency:   67.8962119845

- q-position: [    0.0454545,    0.0000000,    0.0000000 ]
  distance:    0.0159177
  band:
  - # 1
    frequency:   -3.9206422559
  - # 2
    frequency:   -3.8256619947
  - # 3
    frequency:   -1.1388072830
  - # 4
    frequency:   -0.9411906697
  - # 5
    frequency:    0.1158527907
  - # 6
    frequency:    0.4390452763
  - # 7
    frequency:    0.7926454315
  - # 8
    frequency:    2.7739990369
  - # 9
    frequency:    2.7966478746
  - # 10
    frequency:    4.2726748077
  - # 11
    frequency:    5.9096896177
  - # 12
    frequency:    5.9128976868
  - # 13
    frequency:    6.4128959188
  - # 14
    frequency:    6.4709841164
  - # 15
    frequency:    7.6111200483
  - # 16
    frequency:    8.2406850712
  - # 17
    frequency:   13.5435493674
  - # 18
    frequency:   13.5531089041
  - # 19
    frequency:   14.0062596999
  - # 20
    frequency:   15.5771021664
  - # 21
    frequency:   15.5890812085
  - # 22
    frequency:   31.1018198054
  - # 23
    frequency:   37.0653999847
  - # 24
    frequency:   67.8920584940

- q-position: [    0.0505051,    0.0000000,    0.0000000 ]
  distance:    0.0176863
  band:
  - # 1
    frequency:   -3.9072969953
  - # 2
    frequency:   -3.7905604038
  - # 3
    frequency:   -1.1293338265
  - # 4
    frequency:   -0.8784969110
  - # 5
    frequency:    0.1466251479
  - # 6
    frequency:    0.4865103279
  - # 7
    frequency:    0.8806681935
  - # 8
    frequency:    2.7855284809
  - # 9
    frequency:    2.8131166285
  - # 10
    frequency:    4.2722649833
  - # 11
    frequency:    5.9124244101
  - # 12
    frequency:    5.9167393438
  - # 13
    frequency:    6.4181228294
  - # 14
    frequency:    6.4895541644
  - # 15
    frequency:    7.6120508166
  - # 16
    frequency:    8.2330359091
  - # 17
    frequency:   13.5443526191
  - # 18
    frequency:   13.5561194844
  - # 19
    frequency:   14.0045097946
  - # 20
    frequency:   15.5778461937
  - # 21
    frequency:   15.5920671896
  - # 22
    frequency:   31.0934735670
  - # 23
    frequency:   37.0535796223
  - # 24
    frequency:   67.8874467162

- q-position: [    0.0555556,    0.0000000,    0.0000000 ]
  distance:    0.0194550
  band:
  - # 1
    frequency:   -3.8926462881
  - # 2
    frequency:   -3.7521039432
  - # 3
    frequency:   -1.1186137107
  - # 4
    frequency:   -0.8051284679
  - # 5
    frequency:    0.1837646258
  - # 6
    frequency:    0.5336141443
  - # 7
    frequency:    0.9686356947
  - # 8
    frequency:    2.7979871606
  - # 9
    frequency:    2.8308925579
  - # 10
    frequency:    4.2717950742
  - # 11
    frequency:    5.9154622844
  - # 12
    frequency:    5.9211320430
  - # 13
    frequency:    6.4239566018
  - # 14
    frequency:    6.5100239354
  - # 15
    frequency:    7.6130847388
  - # 16
    frequency:    8.2246764786
  - # 17
    frequency:   13.5452351487
  - # 18
    frequency:   13.5594273594
  - # 19
    frequency:   14.0025630558
  - # 20
    frequency:   15.5787073642
  - # 21
    frequency:   15.5951689002
  - # 22
    frequency:   31.0843238586
  - # 23
    frequency:   37.0405891618
  - # 24
    frequency:   67.8823865389

- q-position: [    0.0606061,    0.0000000,    0.0000000 ]
  distance:    0.0212236
  band:
  - # 1
    frequency:   -3.8767206067
  - # 2
    frequency:   -3.7103998508
  - # 3
    frequency:   -1.1065794598
  - # 4
    frequency:   -0.7195725843
  - # 5
    frequency:    0.2300200071
  - # 6
    frequency:    0.5803429125
  - # 7
    frequency:    1.0565222586
  - # 8
    frequency:    2.8112988239
  - # 9
    frequency:    2.8498690679
  - # 10
    frequency:    4.2712598056
  - # 11
    frequency:    5.9188061293
  - # 12
    frequency:    5.9261048507
  - # 13
    frequency:    6.4304151215
  - # 14
    frequency:    6.5323831693
  - # 15
    frequency:    7.6142206804
  - # 16
    frequency:    8.2156366155
  - # 17
    frequency:   13.5461952892
  - # 18
    frequency:   13.5630271944
  - # 19
    frequency:   14.0004150464
  - # 20
    frequency:   15.5796964403
  - # 21
    frequency:   15.5983341399
  - # 22
    frequency:   31.0743926025
  - # 23
    frequency:   37.0264504123
  - # 24
    frequency:   67.8768887701

- q-position: [    0.0656566,    0.0000000,    0.0000000 ]
  distance:    0.0229923
  band:
  - # 1
    frequency:   -3.8595536123
  - # 2
    frequency:   -3.6655669220
  - # 3
    frequency:   -1.0931588721
  - # 4
    frequency:   -0.6210172918
  - # 5
    frequency:    0.2903506983
  - # 6
    frequency:    0.6266865907
  - # 7
    frequency:    1.1442960197
  - # 8
    frequency:    2.8253838519
  - # 9
    frequency:    2.8699376956
  - # 10
    frequency:    4.2706533578
  - # 11
    frequency:    5.9224583232
  - # 12
    frequency:    5.9316840726
  - # 13
    frequency:    6.4375183452
  - # 14
    frequency:    6.5566217069
  - # 15
    frequency:    7.6154562656
  - # 16
    frequency:    8.2059497943
  - # 17
    frequency:   13.5472311847
  - # 18
    frequency:   13.5669133508
  - # 19
    frequency:   13.9980606102
  - # 20
    frequency:   15.5808247996
  - # 21
    frequency:   15.6015090136
  - # 22
    frequency:   31.0637035264
  - # 23
    frequency:   37.0111870543
  - # 24
    frequency:   67.8709651039

- q-position: [    0.0707071,    0.0000000,    0.0000000 ]
  distance:    0.0247609
  band:
  - # 1
    frequency:   -3.8411822115
  - # 2
    frequency:   -3.6177351718
  - # 3
    frequency:   -1.0782745952
  - # 4
    frequency:   -0.5123545874
  - # 5
    frequency:    0.3724357862
  - # 6
    frequency:    0.6726385588
  - # 7
    frequency:    1.2319180404
  - # 8
    frequency:    2.8401600830
  - # 9
    frequency:    2.8909894538
  - # 10
    frequency:    4.2699693810
  - # 11
    frequency:    5.9264205338
  - # 12
    frequency:    5.9378924533
  - # 13
    frequency:    6.4452883621
  - # 14
    frequency:    6.5827288972
  - # 15
    frequency:    7.6167876552
  - # 16
    frequency:    8.1956534435
  - # 17
    frequency:   13.5483407868
  - # 18
    frequency:   13.5710799099
  - # 19
    frequency:   13.9954938018
  - # 20
    frequency:   15.5821043314
  - # 21
    frequency:   15.6046386816
  - # 22
    frequency:   31.0522820891
  - # 23
    frequency:   36.9948245854
  - # 24
    frequency:   67.8646280826

- q-position: [    0.0757576,    0.0000000,    0.0000000 ]
  distance:    0.0265295
  band:
  - # 1
    frequency:   -3.8216466097
  - # 2
    frequency:   -3.5670451936
  - # 3
    frequency:   -1.0618433918
  - # 4
    frequency:   -0.4048769238
  - # 5
    frequency:    0.4814708225
  - # 6
    frequency:    0.7181952679
  - # 7
    frequency:    1.3193413449
  - # 8
    frequency:    2.8555436273
  - # 9
    frequency:    2.9129160498
  - # 10
    frequency:    4.2692010200
  - # 11
    frequency:    5.9306935104
  - # 12
    frequency:    5.9447484679
  - # 13
    frequency:    6.4537494408
  - # 14
    frequency:    6.6106927237
  - # 15
    frequency:    7.6182093378
  - # 16
    frequency:    8.1847893360
  - # 17
    frequency:   13.5495218545
  - # 18
    frequency:   13.5755206884
  - # 19
    frequency:   13.9927078189
  - # 20
    frequency:   15.5835473270
  - # 21
    frequency:   15.6076681200
  - # 22
    frequency:   31.0401554002
  - # 23
    frequency:   36.9773902610
  - # 24
    frequency:   67.8578910569

- q-position: [    0.0808081,    0.0000000,    0.0000000 ]
  distance:    0.0282982
  band:
  - # 1
    frequency:   -3.8009903597
  - # 2
    frequency:   -3.5136471773
  - # 3
    frequency:   -1.0437750418
  - # 4
    frequency:   -0.3112146647
  - # 5
    frequency:    0.6087754109
  - # 6
    frequency:    0.7633559082
  - # 7
    frequency:    1.4065099040
  - # 8
    frequency:    2.8714496571
  - # 9
    frequency:    2.9356109784
  - # 10
    frequency:    4.2683409508
  - # 11
    frequency:    5.9352768740
  - # 12
    frequency:    5.9522657155
  - # 13
    frequency:    6.4629280545
  - # 14
    frequency:    6.6404986322
  - # 15
    frequency:    7.6197139478
  - # 16
    frequency:    8.1734040701
  - # 17
    frequency:   13.5507719549
  - # 18
    frequency:   13.5802292437
  - # 19
    frequency:   13.9896949388
  - # 20
    frequency:   15.5851663653
  - # 21
    frequency:   15.6105428771
  - # 22
    frequency:   31.0273521358
  - # 23
    frequency:   36.9589130318
  - # 24
    frequency:   67.8507681430

- q-position: [    0.0858586,    0.0000000,    0.0000000 ]
  distance:    0.0300668
  band:
  - # 1
    frequency:   -3.7792604041
  - # 2
    frequency:   -3.4576995657
  - # 3
    frequency:   -1.0239708023
  - # 4
    frequency:   -0.2281050718
  - # 5
    frequency:    0.7388069471
  - # 6
    frequency:    0.8081221138
  - # 7
    frequency:    1.4933576291
  - # 8
    frequency:    2.8877931678
  - # 9
    frequency:    2.9589704884
  - # 10
    frequency:    4.2673814274
  - # 11
    frequency:    5.9401689106
  - # 12
    frequency:    5.9604524185
  - # 13
    frequency:    6.4728528780
  - # 14
    frequency:    6.6721280389
  - # 15
    frequency:    7.6212921202
  - # 16
    frequency:    8.1615496586
  - # 17
    frequency:   13.5520884673
  - # 18
    frequency:   13.5851988673
  - # 19
    frequency:   13.9864464654
  - # 20
    frequency:   15.5869741951
  - # 21
    frequency:   15.6132098173
  - # 22
    frequency:   31.0139024486
  - # 23
    frequency:   36.9394234767
  - # 24
    frequency:   67.8432741785

- q-position: [    0.0909091,    0.0000000,    0.0000000 ]
  distance:    0.0318354
  band:
  - # 1
    frequency:   -3.7565071091
  - # 2
    frequency:   -3.3993673494
  - # 3
    frequency:   -1.0023213100
  - # 4
    frequency:   -0.1344534261
  - # 5
    frequency:    0.8524977131
  - # 6
    frequency:    0.8637640377
  - # 7
    frequency:    1.5798074528
  - # 8
    frequency:    2.9044896978
  - # 9
    frequency:    2.9828944321
  - # 10
    frequency:    4.2663143411
  - # 11
    frequency:    5.9453663751
  - # 12
    frequency:    5.9693110364
  - # 13
    frequency:    6.4835547494
  - # 14
    frequency:    6.7055564945
  - # 15
    frequency:    7.6229324038
  - # 16
    frequency:    8.1492842488
  - # 17
    frequency:   13.5534685895
  - # 18
    frequency:   13.5904225652
  - # 19
    frequency:   13.9829526896
  - # 20
    frequency:   15.5889836138
  - # 21
    frequency:   15.6156178395
  - # 22
    frequency:   30.9998378735
  - # 23
    frequency:   36.9189537324
  - # 24
    frequency:   67.8354246752

- q-position: [    0.0959596,    0.0000000,    0.0000000 ]
  distance:    0.0336041
  band:
  - # 1
    frequency:   -3.7327842905
  - # 2
    frequency:   -3.3388200275
  - # 3
    frequency:   -0.9787037538
  - # 4
    frequency:    0.1078906274
  - # 5
    frequency:    0.8964885303
  - # 6
    frequency:    0.9821712129
  - # 7
    frequency:    1.6657705921
  - # 8
    frequency:    2.9214560039
  - # 9
    frequency:    3.0072870067
  - # 10
    frequency:    4.2651312927
  - # 11
    frequency:    5.9508643126
  - # 12
    frequency:    5.9788380011
  - # 13
    frequency:    6.4950665866
  - # 14
    frequency:    6.7407514685
  - # 15
    frequency:    7.6246212614
  - # 16
    frequency:    8.1366730003
  - # 17
    frequency:   13.5549093473
  - # 18
    frequency:   13.5958930235
  - # 19
    frequency:   13.9792028705
  - # 20
    frequency:   15.5912073455
  - # 21
    frequency:   15.6177185595
  - # 22
    frequency:   30.9851912298
  - # 23
    frequency:   36.8975374190
  - # 24
    frequency:   67.8272357709

- q-position: [    0.1010101,    0.0000000,    0.0000000 ]
  distance:    0.0353727
  band:
  - # 1
    frequency:   -3.7081492283
  - # 2
    frequency:   -3.2762292930
  - # 3
    frequency:   -0.9529780604
  - # 4
    frequency:    0.2012089979
  - # 5
    frequency:    0.9401022411
  - # 6
    frequency:    1.0945662113
  - # 7
    frequency:    1.7511461005
  - # 8
    frequency:    2.9386106856
  - # 9
    frequency:    3.0320573983
  - # 10
    frequency:    4.2638236756
  - # 11
    frequency:    5.9566559060
  - # 12
    frequency:    5.9890235821
  - # 13
    frequency:    6.5074232529
  - # 14
    frequency:    6.7776697046
  - # 15
    frequency:    7.6263432038
  - # 16
    frequency:    8.1237891527
  - # 17
    frequency:   13.5564076064
  - # 18
    frequency:   13.6016025564
  - # 19
    frequency:   13.9751852452
  - # 20
    frequency:   15.5936579177
  - # 21
    frequency:   15.6194669468
  - # 22
    frequency:   30.9699965183
  - # 23
    frequency:   36.8752095623
  - # 24
    frequency:   67.8187241786

- q-position: [    0.1060606,    0.0000000,    0.0000000 ]
  distance:    0.0371413
  band:
  - # 1
    frequency:   -3.6826626698
  - # 2
    frequency:   -3.2117665315
  - # 3
    frequency:   -0.9249816976
  - # 4
    frequency:    0.2650624176
  - # 5
    frequency:    0.9833482778
  - # 6
    frequency:    1.2018230440
  - # 7
    frequency:    1.8358208096
  - # 8
    frequency:    2.9558747562
  - # 9
    frequency:    3.0571203427
  - # 10
    frequency:    4.2623827722
  - # 11
    frequency:    5.9627323569
  - # 12
    frequency:    5.9998518858
  - # 13
    frequency:    6.5206613614
  - # 14
    frequency:    6.8162540741
  - # 15
    frequency:    7.6280811279
  - # 16
    frequency:    8.1107153199
  - # 17
    frequency:   13.5579600881
  - # 18
    frequency:   13.6075430341
  - # 19
    frequency:   13.9708870750
  - # 20
    frequency:   15.5963475391
  - # 21
    frequency:   15.6208219047
  - # 22
    frequency:   30.9542888161
  - # 23
    frequency:   36.8520065131
  - # 24
    frequency:   67.8099071354

- q-position: [    0.1111111,    0.0000000,    0.0000000 ]
  distance:    0.0389100
  band:
  - # 1
    frequency:   -3.6563888198
  - # 2
    frequency:   -3.1456002497
  - # 3
    frequency:   -0.8945224824
  - # 4
    frequency:    0.3194296639
  - # 5
    frequency:    1.0262377802
  - # 6
    frequency:    1.3047249066
  - # 7
    frequency:    1.9196697469
  - # 8
    frequency:    2.9731721580
  - # 9
    frequency:    3.0823966100
  - # 10
    frequency:    4.2607998626
  - # 11
    frequency:    5.9690828097
  - # 12
    frequency:    6.0113009926
  - # 13
    frequency:    6.5348190139
  - # 14
    frequency:    6.8564298129
  - # 15
    frequency:    7.6298169707
  - # 16
    frequency:    8.0975450574
  - # 17
    frequency:   13.5595633872
  - # 18
    frequency:   13.6137057860
  - # 19
    frequency:   13.9662947393
  - # 20
    frequency:   15.5992879790
  - # 21
    frequency:   15.6217467834
  - # 22
    frequency:   30.9381041673
  - # 23
    frequency:   36.8279658624
  - # 24
    frequency:   67.8008023492

- q-position: [    0.1161616,    0.0000000,    0.0000000 ]
  distance:    0.0406786
  band:
  - # 1
    frequency:   -3.6293953166
  - # 2
    frequency:   -3.0778935728
  - # 3
    frequency:   -0.8613684110
  - # 4
    frequency:    0.3695098682
  - # 5
    frequency:    1.0687835831
  - # 6
    frequency:    1.4038952213
  - # 7
    frequency:    2.0025570843
  - # 8
    frequency:    2.9904302213
  - # 9
    frequency:    3.1078134270
  - # 10
    frequency:    4.2590663466
  - # 11
    frequency:    5.9756943244
  - # 12
    frequency:    6.0233432282
  - # 13
    frequency:    6.5499354675
  - # 14
    frequency:    6.8980999702
  - # 15
    frequency:    7.6315328513
  - # 16
    frequency:    8.0843847542
  - # 17
    frequency:   13.5612139929
  - # 18
    frequency:   13.6200814736
  - # 19
    frequency:   13.9613938908
  - # 20
    frequency:   15.6024904501
  - # 21
    frequency:   15.6222098189
  - # 22
    frequency:   30.9214794715
  - # 23
    frequency:   36.8031263553
  - # 24
    frequency:   67.7914279445

- q-position: [    0.1212121,    0.0000000,    0.0000000 ]
  distance:    0.0424472
  band:
  - # 1
    frequency:   -3.6017531915
  - # 2
    frequency:   -3.0088019560
  - # 3
    frequency:   -0.8252328865
  - # 4
    frequency:    0.4174940428
  - # 5
    frequency:    1.1110002297
  - # 6
    frequency:    1.4998145109
  - # 7
    frequency:    2.0843376261
  - # 8
    frequency:    3.0075800670
  - # 9
    frequency:    3.1333048408
  - # 10
    frequency:    4.2571738785
  - # 11
    frequency:    5.9825519046
  - # 12
    frequency:    6.0359455637
  - # 13
    frequency:    6.5660507266
  - # 14
    frequency:    6.9411397959
  - # 15
    frequency:    7.6332129665
  - # 16
    frequency:    8.0713559095
  - # 17
    frequency:   13.5629083123
  - # 18
    frequency:   13.6266599229
  - # 19
    frequency:   13.9561696874
  - # 20
    frequency:   15.6059654955
  - # 21
    frequency:   15.6221844871
  - # 22
    frequency:   30.9044523695
  - # 23
    frequency:   36.7775278001
  - # 24
    frequency:   67.7818024080

- q-position: [    0.1262626,    0.0000000,    0.0000000 ]
  distance:    0.0442159
  band:
  - # 1
    frequency:   -3.5735368106
  - # 2
    frequency:   -2.9384712549
  - # 3
    frequency:   -0.7857525427
  - # 4
    frequency:    0.4645022098
  - # 5
    frequency:    1.1529039982
  - # 6
    frequency:    1.5928512049
  - # 7
    frequency:    2.1648587968
  - # 8
    frequency:    3.0245569540
  - # 9
    frequency:    3.1588120305
  - # 10
    frequency:    4.2551145183
  - # 11
    frequency:    5.9896385844
  - # 12
    frequency:    6.0490701310
  - # 13
    frequency:    6.5832050608
  - # 14
    frequency:    6.9853896460
  - # 15
    frequency:    7.6348466472
  - # 16
    frequency:    8.0585978710
  - # 17
    frequency:   13.5646426962
  - # 18
    frequency:   13.6334299041
  - # 19
    frequency:   13.9506071233
  - # 20
    frequency:   15.6097228808
  - # 21
    frequency:   15.6216497656
  - # 22
    frequency:   30.8870611268
  - # 23
    frequency:   36.7512109766
  - # 24
    frequency:   67.7719445324

- q-position: [    0.1313131,    0.0000000,    0.0000000 ]
  distance:    0.0459845
  band:
  - # 1
    frequency:   -3.5448237966
  - # 2
    frequency:   -2.8670362757
  - # 3
    frequency:   -0.7424525816
  - # 4
    frequency:    0.5111743489
  - # 5
    frequency:    1.1945129282
  - # 6
    frequency:    1.6832891607
  - # 7
    frequency:    2.2439630364
  - # 8
    frequency:    3.0413005731
  - # 9
    frequency:    3.1842835677
  - # 10
    frequency:    4.2528808992
  - # 11
    frequency:    5.9969355751
  - # 12
    frequency:    6.0626748375
  - # 13
    frequency:    6.6014384518
  - # 14
    frequency:    7.0306457635
  - # 15
    frequency:    7.6364331863
  - # 16
    frequency:    8.0462711250
  - # 17
    frequency:   13.5664134664
  - # 18
    frequency:   13.6403788382
  - # 19
    frequency:   13.9446914850
  - # 20
    frequency:   15.6137714939
  - # 21
    frequency:   15.6205902967
  - # 22
    frequency:   30.8693445162
  - # 23
    frequency:   36.7242175409
  - # 24
    frequency:   67.7618733612

- q-position: [    0.1363636,    0.0000000,    0.0000000 ]
  distance:    0.0477531
  band:
  - # 1
    frequency:   -3.5156949279
  - # 2
    frequency:   -2.7946198975
  - # 3
    frequency:   -0.6946898083
  - # 4
    frequency:    0.5579042249
  - # 5
    frequency:    1.2358468291
  - # 6
    frequency:    1.7713490450
  - # 7