nqpoint: 300    
npath: 3      
segment_nqpoint:
- 100
- 100
- 100
labels:
- [ 'G', 'M' ]
- [ 'M', 'K' ]
- [ 'K', 'G' ]
reciprocal_lattice:
- [   0.32119271,   0.18544070,   0.00000000 ] # a*
- [   0.00000000,   0.37088140,   0.00000000 ] # b*
- [   0.00000000,   0.00000000,   0.04006015 ] # c*
natom: 7      
lattice:
- [     3.113395658747632,     0.000000000000000,     0.000000000000000 ] # a
- [    -1.556697829373816,     2.696279732507783,     0.000000000000000 ] # b
- [     0.000000000000000,     0.000000000000000,    24.962461107269906 ] # c
points:
- symbol: H # 1
  coordinates: [  0.666666984744047,  0.333332985985145,  0.360541372956968 ]
  mass: 1.007940
- symbol: N # 2
  coordinates: [  0.000000000000000,  0.000000000000000,  0.493009046126614 ]
  mass: 14.006700
- symbol: N # 3
  coordinates: [  0.333332985432215,  0.666666983183674,  0.587497804825498 ]
  mass: 14.006700
- symbol: O # 4
  coordinates: [  0.333332985432215,  0.666666983183674,  0.639458627043032 ]
  mass: 15.999400
- symbol: O # 5
  coordinates: [  0.666666984744047,  0.333332985985145,  0.400112365809096 ]
  mass: 15.999400
- symbol: Ti # 6
  coordinates: [  0.333332985432215,  0.666666983183674,  0.450637645808541 ]
  mass: 47.867000
- symbol: Ti # 7
  coordinates: [  0.666666984744047,  0.333332985985145,  0.540930834786468 ]
  mass: 47.867000

phonon:
- q-position: [    0.0000000,    0.0000000,    0.0000000 ]
  distance:    0.0000000
  band:
  - # 1
    frequency:   -6.9291036850
  - # 2
    frequency:   -6.9291036850
  - # 3
    frequency:    0.0000006844
  - # 4
    frequency:    0.0000007845
  - # 5
    frequency:    0.0000009043
  - # 6
    frequency:    4.6705731922
  - # 7
    frequency:    4.6705731922
  - # 8
    frequency:    5.0314165030
  - # 9
    frequency:    5.0314165030
  - # 10
    frequency:    6.0245258527
  - # 11
    frequency:    7.5981358699
  - # 12
    frequency:    8.3048565759
  - # 13
    frequency:    8.3048565759
  - # 14
    frequency:   13.5335127419
  - # 15
    frequency:   13.5335127419
  - # 16
    frequency:   14.2373236671
  - # 17
    frequency:   15.2247618691
  - # 18
    frequency:   15.6744800259
  - # 19
    frequency:   15.6744800259
  - # 20
    frequency:   42.4848827860
  - # 21
    frequency:  111.0571332159

- q-position: [    0.0050505,    0.0000000,    0.0000000 ]
  distance:    0.0018731
  band:
  - # 1
    frequency:   -6.9323864805
  - # 2
    frequency:   -6.9313203834
  - # 3
    frequency:   -0.1389780354
  - # 4
    frequency:    0.0761459329
  - # 5
    frequency:    0.1774945480
  - # 6
    frequency:    4.6707254375
  - # 7
    frequency:    4.6707785086
  - # 8
    frequency:    5.0266818766
  - # 9
    frequency:    5.0306324867
  - # 10
    frequency:    6.0316586949
  - # 11
    frequency:    7.5975729685
  - # 12
    frequency:    8.3048541421
  - # 13
    frequency:    8.3060681172
  - # 14
    frequency:   13.5313132592
  - # 15
    frequency:   13.5336425544
  - # 16
    frequency:   14.2386075879
  - # 17
    frequency:   15.2244492577
  - # 18
    frequency:   15.6736916843
  - # 19
    frequency:   15.6745341754
  - # 20
    frequency:   42.4843016046
  - # 21
    frequency:  111.0561343048

- q-position: [    0.0101010,    0.0000000,    0.0000000 ]
  distance:    0.0037463
  band:
  - # 1
    frequency:   -6.9421955853
  - # 2
    frequency:   -6.9379483667
  - # 3
    frequency:   -0.1817092757
  - # 4
    frequency:    0.1522244131
  - # 5
    frequency:    0.2860381193
  - # 6
    frequency:    4.6710812932
  - # 7
    frequency:    4.6713771322
  - # 8
    frequency:    5.0131434097
  - # 9
    frequency:    5.0283057464
  - # 10
    frequency:    6.0524899582
  - # 11
    frequency:    7.5959069369
  - # 12
    frequency:    8.3048470990
  - # 13
    frequency:    8.3096829699
  - # 14
    frequency:   13.5247729273
  - # 15
    frequency:   13.5340318802
  - # 16
    frequency:   14.2424105892
  - # 17
    frequency:   15.2235103950
  - # 18
    frequency:   15.6713334933
  - # 19
    frequency:   15.6746989914
  - # 20
    frequency:   42.4825584595
  - # 21
    frequency:  111.0531414150

- q-position: [    0.0151515,    0.0000000,    0.0000000 ]
  distance:    0.0056194
  band:
  - # 1
    frequency:   -6.9584138932
  - # 2
    frequency:   -6.9489215639
  - # 3
    frequency:   -0.2131758153
  - # 4
    frequency:    0.2281668818
  - # 5
    frequency:    0.3942064215
  - # 6
    frequency:    4.6713212354
  - # 7
    frequency:    4.6723163038
  - # 8
    frequency:    4.9926281594
  - # 9
    frequency:    5.0245128760
  - # 10
    frequency:    6.0855030591
  - # 11
    frequency:    7.5932043582
  - # 12
    frequency:    8.3048362186
  - # 13
    frequency:    8.3156433807
  - # 14
    frequency:   13.5140586292
  - # 15
    frequency:   13.5346803926
  - # 16
    frequency:   14.2485937835
  - # 17
    frequency:   15.2219421856
  - # 18
    frequency:   15.6674259816
  - # 19
    frequency:   15.6749815502
  - # 20
    frequency:   42.4796545495
  - # 21
    frequency:  111.0481660615

- q-position: [    0.0202020,    0.0000000,    0.0000000 ]
  distance:    0.0074926
  band:
  - # 1
    frequency:   -6.9808486731
  - # 2
    frequency:   -6.9641307320
  - # 3
    frequency:   -0.2421979711
  - # 4
    frequency:    0.3039025812
  - # 5
    frequency:    0.5044980657
  - # 6
    frequency:    4.6708593526
  - # 7
    frequency:    4.6735055205
  - # 8
    frequency:    4.9677435155
  - # 9
    frequency:    5.0193837244
  - # 10
    frequency:    6.1286586548
  - # 11
    frequency:    7.5895717164
  - # 12
    frequency:    8.3048227777
  - # 13
    frequency:    8.3238580105
  - # 14
    frequency:   13.4994259381
  - # 15
    frequency:   13.5355875752
  - # 16
    frequency:   14.2569480195
  - # 17
    frequency:   15.2197394359
  - # 18
    frequency:   15.6620034513
  - # 19
    frequency:   15.6753935571
  - # 20
    frequency:   42.4755918779
  - # 21
    frequency:  111.0412273847

- q-position: [    0.0252525,    0.0000000,    0.0000000 ]
  distance:    0.0093657
  band:
  - # 1
    frequency:   -7.0092351863
  - # 2
    frequency:   -6.9834247545
  - # 3
    frequency:   -0.2709245162
  - # 4
    frequency:    0.3793574887
  - # 5
    frequency:    0.6165928851
  - # 6
    frequency:    4.6687848135
  - # 7
    frequency:    4.6748128717
  - # 8
    frequency:    4.9415103827
  - # 9
    frequency:    5.0131045159
  - # 10
    frequency:    6.1798160571
  - # 11
    frequency:    7.5851495927
  - # 12
    frequency:    8.3048085439
  - # 13
    frequency:    8.3342084051
  - # 14
    frequency:   13.4811921764
  - # 15
    frequency:   13.5367527633
  - # 16
    frequency:   14.2672204650
  - # 17
    frequency:   15.2168948085
  - # 18
    frequency:   15.6551141008
  - # 19
    frequency:   15.6759512142
  - # 20
    frequency:   42.4703732604
  - # 21
    frequency:  111.0323520734

- q-position: [    0.0303030,    0.0000000,    0.0000000 ]
  distance:    0.0112388
  band:
  - # 1
    frequency:   -7.0432416385
  - # 2
    frequency:   -7.0066124297
  - # 3
    frequency:   -0.2995605300
  - # 4
    frequency:    0.4544532886
  - # 5
    frequency:    0.7299426322
  - # 6
    frequency:    4.6638679026
  - # 7
    frequency:    4.6760604820
  - # 8
    frequency:    4.9170840949
  - # 9
    frequency:    5.0059216879
  - # 10
    frequency:    6.2370012155
  - # 11
    frequency:    7.5801061182
  - # 12
    frequency:    8.3047957575
  - # 13
    frequency:    8.3465565276
  - # 14
    frequency:   13.4597090400
  - # 15
    frequency:   13.5381752016
  - # 16
    frequency:   14.2791414719
  - # 17
    frequency:   15.2133987683
  - # 18
    frequency:   15.6468201801
  - # 19
    frequency:   15.6766750334
  - # 20
    frequency:   42.4640023358
  - # 21
    frequency:  111.0215742573

- q-position: [    0.0353535,    0.0000000,    0.0000000 ]
  distance:    0.0131120
  band:
  - # 1
    frequency:   -7.0824753473
  - # 2
    frequency:   -7.0334647174
  - # 3
    frequency:   -0.3277208243
  - # 4
    frequency:    0.5291063922
  - # 5
    frequency:    0.8441156460
  - # 6
    frequency:    4.6547978329
  - # 7
    frequency:    4.6770201220
  - # 8
    frequency:    4.8974021630
  - # 9
    frequency:    4.9981454232
  - # 10
    frequency:    6.2985153332
  - # 11
    frequency:    7.5746307330
  - # 12
    frequency:    8.3047871082
  - # 13
    frequency:    8.3607523544
  - # 14
    frequency:   13.4353395215
  - # 15
    frequency:   13.5398541168
  - # 16
    frequency:   14.2924469842
  - # 17
    frequency:   15.2092395352
  - # 18
    frequency:   15.6371981583
  - # 19
    frequency:   15.6775895957
  - # 20
    frequency:   42.4564835796
  - # 21
    frequency:  111.0089353704

- q-position: [    0.0404040,    0.0000000,    0.0000000 ]
  distance:    0.0149851
  band:
  - # 1
    frequency:   -7.1264899583
  - # 2
    frequency:   -7.0637174077
  - # 3
    frequency:   -0.3548610036
  - # 4
    frequency:    0.6032270162
  - # 5
    frequency:    0.9587989550
  - # 6
    frequency:    4.6407742457
  - # 7
    frequency:    4.6774110852
  - # 8
    frequency:    4.8845791761
  - # 9
    frequency:    4.9901508270
  - # 10
    frequency:    6.3629422839
  - # 11
    frequency:    7.5689291032
  - # 12
    frequency:    8.3047857113
  - # 13
    frequency:    8.3766407503
  - # 14
    frequency:   13.4084412585
  - # 15
    frequency:   13.5417888040
  - # 16
    frequency:   14.3068943544
  - # 17
    frequency:   15.2044030623
  - # 18
    frequency:   15.6263388764
  - # 19
    frequency:   15.6787232554
  - # 20
    frequency:   42.4478223198
  - # 21
    frequency:  110.9944839838

- q-position: [    0.0454545,    0.0000000,    0.0000000 ]
  distance:    0.0168582
  band:
  - # 1
    frequency:   -7.1747935049
  - # 2
    frequency:   -7.0970741661
  - # 3
    frequency:   -0.3804102766
  - # 4
    frequency:    0.6767183266
  - # 5
    frequency:    1.0737595367
  - # 6
    frequency:    4.6221199335
  - # 7
    frequency:    4.6769038881
  - # 8
    frequency:    4.8793260956
  - # 9
    frequency:    4.9823732377
  - # 10
    frequency:    6.4291104255
  - # 11
    frequency:    7.5632197526
  - # 12
    frequency:    8.3047950792
  - # 13
    frequency:    8.3940671455
  - # 14
    frequency:   13.3793562540
  - # 15
    frequency:   13.5439787266
  - # 16
    frequency:   14.3222716098
  - # 17
    frequency:   15.1988730726
  - # 18
    frequency:   15.6143476481
  - # 19
    frequency:   15.6801077891
  - # 20
    frequency:   42.4380247547
  - # 21
    frequency:  110.9782756109

- q-position: [    0.0505051,    0.0000000,    0.0000000 ]
  distance:    0.0187314
  band:
  - # 1
    frequency:   -7.2268570682
  - # 2
    frequency:   -7.1332099014
  - # 3
    frequency:   -0.4038049990
  - # 4
    frequency:    0.7494756561
  - # 5
    frequency:    1.1888127506
  - # 6
    frequency:    4.6002487652
  - # 7
    frequency:    4.6751347044
  - # 8
    frequency:    4.8810271416
  - # 9
    frequency:    4.9752928117
  - # 10
    frequency:    6.4960419491
  - # 11
    frequency:    7.5577326720
  - # 12
    frequency:    8.3048190931
  - # 13
    frequency:    8.4128818282
  - # 14
    frequency:   13.3484057136
  - # 15
    frequency:   13.5464236252
  - # 16
    frequency:   14.3384014163
  - # 17
    frequency:   15.1926311930
  - # 18
    frequency:   15.6013442590
  - # 19
    frequency:   15.6817779912
  - # 20
    frequency:   42.4270979729
  - # 21
    frequency:  110.9603724843

- q-position: [    0.0555556,    0.0000000,    0.0000000 ]
  distance:    0.0206045
  band:
  - # 1
    frequency:   -7.2821237728
  - # 2
    frequency:   -7.1717743997
  - # 3
    frequency:   -0.4244891674
  - # 4
    frequency:    0.8213858055
  - # 5
    frequency:    1.3038013785
  - # 6
    frequency:    4.5770112922
  - # 7
    frequency:    4.6717352097
  - # 8
    frequency:    4.8884371873
  - # 9
    frequency:    4.9694037476
  - # 10
    frequency:    6.5629046138
  - # 11
    frequency:    7.5527099210
  - # 12
    frequency:    8.3048619708
  - # 13
    frequency:    8.4329428926
  - # 14
    frequency:   13.3158883994
  - # 15
    frequency:   13.5491236362
  - # 16
    frequency:   14.3551413275
  - # 17
    frequency:   15.1856572460
  - # 18
    frequency:   15.5874628025
  - # 19
    frequency:   15.6837712152
  - # 20
    frequency:   42.4150499741
  - # 21
    frequency:  110.9408433050

- q-position: [    0.0606061,    0.0000000,    0.0000000 ]
  distance:    0.0224777
  band:
  - # 1
    frequency:   -7.3400178496
  - # 2
    frequency:   -7.2123961626
  - # 3
    frequency:   -0.4419035314
  - # 4
    frequency:    0.8923264407
  - # 5
    frequency:    1.4185822826
  - # 6
    frequency:    4.5540979207
  - # 7
    frequency:    4.6663784962
  - # 8
    frequency:    4.9003151682
  - # 9
    frequency:    4.9651675307
  - # 10
    frequency:    6.6289706878
  - # 11
    frequency:    7.5484080215
  - # 12
    frequency:    8.3049282335
  - # 13
    frequency:    8.4541180087
  - # 14
    frequency:   13.2820810681
  - # 15
    frequency:   13.5520794151
  - # 16
    frequency:   14.3723817424
  - # 17
    frequency:   15.1779297687
  - # 18
    frequency:   15.5728512740
  - # 19
    frequency:   15.6861268654
  - # 20
    frequency:   42.4018896908
  - # 21
    frequency:  110.9197629667

- q-position: [    0.0656566,    0.0000000,    0.0000000 ]
  distance:    0.0243508
  band:
  - # 1
    frequency:   -7.3999535058
  - # 2
    frequency:   -7.2546863845
  - # 3
    frequency:   -0.4554693785
  - # 4
    frequency:    0.9621655999
  - # 5
    frequency:    1.5330179034
  - # 6
    frequency:    4.5328145943
  - # 7
    frequency:    4.6588331513
  - # 8
    frequency:    4.9156782688
  - # 9
    frequency:    4.9629581274
  - # 10
    frequency:    6.6935836653
  - # 11
    frequency:    7.5451016927
  - # 12
    frequency:    8.3050226675
  - # 13
    frequency:    8.4762852387
  - # 14
    frequency:   13.2472399235
  - # 15
    frequency:   13.5552922607
  - # 16
    frequency:   14.3900426296
  - # 17
    frequency:   15.1694268459
  - # 18
    frequency:   15.5576708412
  - # 19
    frequency:   15.6888858406
  - # 20
    frequency:   42.3876270110
  - # 21
    frequency:  110.8972122545

- q-position: [    0.0707071,    0.0000000,    0.0000000 ]
  distance:    0.0262239
  band:
  - # 1
    frequency:   -7.4613433756
  - # 2
    frequency:   -7.2982430050
  - # 3
    frequency:   -0.4645670059
  - # 4
    frequency:    1.0307613359
  - # 5
    frequency:    1.6469707542
  - # 6
    frequency:    4.5140971564
  - # 7
    frequency:    4.6490086330
  - # 8
    frequency:    4.9338118353
  - # 9
    frequency:    4.9630160092
  - # 10
    frequency:    6.7561321935
  - # 11
    frequency:    7.5430880806
  - # 12
    frequency:    8.3051502812
  - # 13
    frequency:    8.4993331229
  - # 14
    frequency:   13.2116023760
  - # 15
    frequency:   13.5587642374
  - # 16
    frequency:   14.4080697177
  - # 17
    frequency:   15.1601273473
  - # 18
    frequency:   15.5420946997
  - # 19
    frequency:   15.6920899361
  - # 20
    frequency:   42.3722728001
  - # 21
    frequency:  110.8732775197

- q-position: [    0.0757576,    0.0000000,    0.0000000 ]
  distance:    0.0280971
  band:
  - # 1
    frequency:   -7.5236063645
  - # 2
    frequency:   -7.3426547747
  - # 3
    frequency:   -0.4685055657
  - # 4
    frequency:    1.0979615192
  - # 5
    frequency:    1.7602997945
  - # 6
    frequency:    4.4985954495
  - # 7
    frequency:    4.6369741653
  - # 8
    frequency:    4.9542052466
  - # 9
    frequency:    4.9654287778
  - # 10
    frequency:    6.8160310779
  - # 11
    frequency:    7.5426899453
  - # 12
    frequency:    8.3053162553
  - # 13
    frequency:    8.5231602324
  - # 14
    frequency:   13.1753886964
  - # 15
    frequency:   13.5624982901
  - # 16
    frequency:   14.4264305519
  - # 17
    frequency:   15.1500126502
  - # 18
    frequency:   15.5263064446
  - # 19
    frequency:   15.6957812095
  - # 20
    frequency:   42.3558389227
  - # 21
    frequency:  110.8480503325

- q-position: [    0.0808081,    0.0000000,    0.0000000 ]
  distance:    0.0299702
  band:
  - # 1
    frequency:   -7.5861747511
  - # 2
    frequency:   -7.3875052729
  - # 3
    frequency:   -0.4664772860
  - # 4
    frequency:    1.1636038449
  - # 5
    frequency:    1.8728580243
  - # 6
    frequency:    4.4867537926
  - # 7
    frequency:    4.6229445795
  - # 8
    frequency:    4.9701449403
  - # 9
    frequency:    4.9764881539
  - # 10
    frequency:    6.8727105407
  - # 11
    frequency:    7.5442551625
  - # 12
    frequency:    8.3055258834
  - # 13
    frequency:    8.5476743472
  - # 14
    frequency:   13.1388033543
  - # 15
    frequency:   13.5664983450
  - # 16
    frequency:   14.4451106133
  - # 17
    frequency:   15.1390688951
  - # 18
    frequency:   15.5104979271
  - # 19
    frequency:   15.7000013190
  - # 20
    frequency:   42.3383382634
  - # 21
    frequency:  110.8216271137

- q-position: [    0.0858586,    0.0000000,    0.0000000 ]
  distance:    0.0318434
  band:
  - # 1
    frequency:   -7.6485004643
  - # 2
    frequency:   -7.4323768253
  - # 3
    frequency:   -0.4574821498
  - # 4
    frequency:    1.2275160880
  - # 5
    frequency:    1.9844909312
  - # 6
    frequency:    4.4788715043
  - # 7
    frequency:    4.6072421536
  - # 8
    frequency:    4.9770117374
  - # 9
    frequency:    5.0003841397
  - # 10
    frequency:    6.9256166742
  - # 11
    frequency:    7.5481484320
  - # 12
    frequency:    8.3057845018
  - # 13
    frequency:    8.5727913841
  - # 14
    frequency:   13.1020359680
  - # 15
    frequency:   13.5707693934
  - # 16
    frequency:   14.4641095598
  - # 17
    frequency:   15.1272897596
  - # 18
    frequency:   15.4948666379
  - # 19
    frequency:   15.7047908427
  - # 20
    frequency:   42.3197847461
  - # 21
    frequency:  110.7941087463

- q-position: [    0.0909091,    0.0000000,    0.0000000 ]
  distance:    0.0337165
  band:
  - # 1
    frequency:   -7.7100605007
  - # 2
    frequency:   -7.4768542738
  - # 3
    frequency:   -0.4401929972
  - # 4
    frequency:    1.2895166696
  - # 5
    frequency:    2.0950356087
  - # 6
    frequency:    4.4751454380
  - # 7
    frequency:    4.5902513812
  - # 8
    frequency:    4.9858200285
  - # 9
    frequency:    5.0256802705
  - # 10
    frequency:    6.9742275011
  - # 11
    frequency:    7.5547298967
  - # 12
    frequency:    8.3060974075
  - # 13
    frequency:    8.5984341664
  - # 14
    frequency:   13.0652618686
  - # 15
    frequency:   13.5753175494
  - # 16
    frequency:   14.4834375617
  - # 17
    frequency:   15.1146796406
  - # 18
    frequency:   15.4796127699
  - # 19
    frequency:   15.7101885901
  - # 20
    frequency:   42.3001933517
  - # 21
    frequency:  110.7656001699

- q-position: [    0.0959596,    0.0000000,    0.0000000 ]
  distance:    0.0355896
  band:
  - # 1
    frequency:   -7.7703614925
  - # 2
    frequency:   -7.5205285579
  - # 3
    frequency:   -0.4126876574
  - # 4
    frequency:    1.3494156019
  - # 5
    frequency:    2.2043204873
  - # 6
    frequency:    4.4756994950
  - # 7
    frequency:    4.5723803577
  - # 8
    frequency:    4.9963424612
  - # 9
    frequency:    5.0522078029
  - # 10
    frequency:    7.0180885463
  - # 11
    frequency:    7.5643160995
  - # 12
    frequency:    8.3064697609
  - # 13
    frequency:    8.6245311108
  - # 14
    frequency:   13.0286423278
  - # 15
    frequency:   13.5801500779
  - # 16
    frequency:   14.5031116479
  - # 17
    frequency:   15.1012570263
  - # 18
    frequency:   15.4649362355
  - # 19
    frequency:   15.7162309170
  - # 20
    frequency:   42.2795801333
  - # 21
    frequency:  110.7362099579

- q-position: [    0.1010101,    0.0000000,    0.0000000 ]
  distance:    0.0374628
  band:
  - # 1
    frequency:   -7.8289434709
  - # 2
    frequency:   -7.5630000776
  - # 3
    frequency:   -0.3718356763
  - # 4
    frequency:    1.4070158898
  - # 5
    frequency:    2.3121657092
  - # 6
    frequency:    4.4806051354
  - # 7
    frequency:    4.5540343141
  - # 8
    frequency:    5.0083592954
  - # 9
    frequency:    5.0798300981
  - # 10
    frequency:    7.0568668394
  - # 11
    frequency:    7.5771238595
  - # 12
    frequency:    8.3069064750
  - # 13
    frequency:    8.6510148939
  - # 14
    frequency:   12.9923245207
  - # 15
    frequency:   13.5852753854
  - # 16
    frequency:   14.5231519371
  - # 17
    frequency:   15.0870577497
  - # 18
    frequency:   15.4510340383
  - # 19
    frequency:   15.7229510574
  - # 20
    frequency:   42.2579622287
  - # 21
    frequency:  110.7060498804

- q-position: [    0.1060606,    0.0000000,    0.0000000 ]
  distance:    0.0393359
  band:
  - # 1
    frequency:   -7.8853828920
  - # 2
    frequency:   -7.6038818134
  - # 3
    frequency:   -0.3115446331
  - # 4
    frequency:    1.4621154697
  - # 5
    frequency:    2.4183842430
  - # 6
    frequency:    4.4898955276
  - # 7
    frequency:    4.5356004359
  - # 8
    frequency:    5.0216726353
  - # 9
    frequency:    5.1084350842
  - # 10
    frequency:    7.0904117210
  - # 11
    frequency:    7.5932083021
  - # 12
    frequency:    8.3074120898
  - # 13
    frequency:    8.6778211533
  - # 14
    frequency:   12.9564413008
  - # 15
    frequency:   13.5907029707
  - # 16
    frequency:   14.5435775871
  - # 17
    frequency:   15.0721377854
  - # 18
    frequency:   15.4380984596
  - # 19
    frequency:   15.7303784826
  - # 20
    frequency:   42.2353578705
  - # 21
    frequency:  110.6752344546

- q-position: [    0.1111111,    0.0000000,    0.0000000 ]
  distance:    0.0412090
  band:
  - # 1
    frequency:   -7.9392950111
  - # 2
    frequency:   -7.6428021881
  - # 3
    frequency:   -0.2150452228
  - # 4
    frequency:    1.5145097623
  - # 5
    frequency:    2.5227838751
  - # 6
    frequency:    4.5035749398
  - # 7
    frequency:    4.5174404936
  - # 8
    frequency:    5.0361124309
  - # 9
    frequency:    5.1379305851
  - # 10
    frequency:    7.1187994034
  - # 11
    frequency:    7.6124177874
  - # 12
    frequency:    8.3079906332
  - # 13
    frequency:    8.7048872810
  - # 14
    frequency:   12.9211108704
  - # 15
    frequency:   13.5964433293
  - # 16
    frequency:   14.5644022310
  - # 17
    frequency:   15.0565753481
  - # 18
    frequency:   15.4263164977
  - # 19
    frequency:   15.7385383038
  - # 20
    frequency:   42.2117863924
  - # 21
    frequency:  110.6438804829

- q-position: [    0.1161616,    0.0000000,    0.0000000 ]
  distance:    0.0430822
  band:
  - # 1
    frequency:   -7.9903356948
  - # 2
    frequency:   -7.6794076642
  - # 3
    frequency:    0.1205725996
  - # 4
    frequency:    1.5639949028
  - # 5
    frequency:    2.6251702327
  - # 6
    frequency:    4.4998878065
  - # 7
    frequency:    4.5216243204
  - # 8
    frequency:    5.0515376282
  - # 9
    frequency:    5.1682414749
  - # 10
    frequency:    7.1423369373
  - # 11
    frequency:    7.6343898342
  - # 12
    frequency:    8.3086454699
  - # 13
    frequency:    8.7321513605
  - # 14
    frequency:   12.8864364181
  - # 15
    frequency:   13.6025078106
  - # 16
    frequency:   14.5856285739
  - # 17
    frequency:   15.0404723004
  - # 18
    frequency:   15.4158708517
  - # 19
    frequency:   15.7474507265
  - # 20
    frequency:   42.1872682328
  - # 21
    frequency:  110.6121065834

- q-position: [    0.1212121,    0.0000000,    0.0000000 ]
  distance:    0.0449553
  band:
  - # 1
    frequency:   -8.0382027620
  - # 2
    frequency:   -7.7133650732
  - # 3
    frequency:    0.2924442391
  - # 4
    frequency:    1.6103716824
  - # 5
    frequency:    2.7253509767
  - # 6
    frequency:    4.4832460356
  - # 7
    frequency:    4.5440036282
  - # 8
    frequency:    5.0678348962
  - # 9
    frequency:    5.1993080191
  - # 10
    frequency:    7.1615172419
  - # 11
    frequency:    7.6585961771
  - # 12
    frequency:    8.3093791418
  - # 13
    frequency:    8.7595512993
  - # 14
    frequency:   12.8525057945
  - # 15
    frequency:   13.6089084263
  - # 16
    frequency:   14.6072416296
  - # 17
    frequency:   15.0239553188
  - # 18
    frequency:   15.4069425020
  - # 19
    frequency:   15.7571305712
  - # 20
    frequency:   42.1618249337
  - # 21
    frequency:  110.5800327117

- q-position: [    0.1262626,    0.0000000,    0.0000000 ]
  distance:    0.0468285
  band:
  - # 1
    frequency:   -8.0826369409
  - # 2
    frequency:   -7.7443636827
  - # 3
    frequency:    0.4084478952
  - # 4
    frequency:    1.6534501932
  - # 5
    frequency:    2.8231412348
  - # 6
    frequency:    4.4677883307
  - # 7
    frequency:    4.5706513033
  - # 8
    frequency:    5.0849163748
  - # 9
    frequency:    5.2310850040
  - # 10
    frequency:    7.1769409933
  - # 11
    frequency:    7.6844209953
  - # 12
    frequency:    8.3101932027
  - # 13
    frequency:    8.7870242017
  - # 14
    frequency:   12.8193912838
  - # 15
    frequency:   13.6156576105
  - # 16
    frequency:   14.6291997190
  - # 17
    frequency:   15.0071779274
  - # 18
    frequency:   15.3997146499
  - # 19
    frequency:   15.7675868678
  - # 20
    frequency:   42.1354791368
  - # 21
    frequency:  110.5477796784

- q-position: [    0.1313131,    0.0000000,    0.0000000 ]
  distance:    0.0487016
  band:
  - # 1
    frequency:   -8.1234225157
  - # 2
    frequency:   -7.7721170107
  - # 3
    frequency:    0.5083783557
  - # 4
    frequency:    1.6930551066
  - # 5
    frequency:    2.9183702309
  - # 6
    frequency:    4.4537561260
  - # 7
    frequency:    4.6014812367
  - # 8
    frequency:    5.1027171778
  - # 9
    frequency:    5.2635414072
  - # 10
    frequency:    7.1892343187
  - # 11
    frequency:    7.7112432366
  - # 12
    frequency:    8.3110880525
  - # 13
    frequency:    8.8145060106
  - # 14
    frequency:   12.7871495207
  - # 15
    frequency:   13.6227679360
  - # 16
    frequency:   14.6514216180
  - # 17
    frequency:   14.9903255248
  - # 18
    frequency:   15.3943775061
  - # 19
    frequency:   15.7788225329
  - # 20
    frequency:   42.1082545754
  - # 21
    frequency:  110.5154686622

- q-position: [    0.1363636,    0.0000000,    0.0000000 ]
  distance:    0.0505747
  band:
  - # 1
    frequency:   -8.1603877318
  - # 2
    frequency:   -7.7963643970
  - # 3
    frequency:    0.6002063320
  - # 4
    frequency:    1.7290314410
  - # 5
    frequency:    3.0108888806
  - # 6
    frequency:    4.4413573848
  - # 7
    frequency:    4.6363776867
  - # 8
    frequency:    5.1211929549
  - # 9
    frequency:    5.2966604491
  - # 10
    frequency:    7.1989855546
  - # 11
    frequency:    7.7384996816
  - # 12
    frequency:    8.3120627754
  - # 13
    frequency:    8.8419314359
  - # 14
    frequency:   12.7558215895
  - # 15
    frequency:   13.6302517904
  - # 16
    frequency:   14.6737667474
  - # 17
    frequency:   14.9736272437
  - # 18
    frequency:   15.3911332055
  - # 19
    frequency:   15.7908341355
  - # 20
    frequency:   42.0801760620
  - # 21
    frequency:  110.4832207228

- q-position: [    0.1414141,    0.0000000,    0.0000000 ]
  distance:    0.0524479
  band:
  - # 1
    frequency:   -8.1934050102
  - # 2
    frequency:   -7.8168723492
  - # 3
    frequency:    0.6870004227
  - # 4
    frequency:    1.7612505947
  - # 5
    frequency:    3.1005779059
  - # 6
    frequency:    4.4307644084
  - # 7
    frequency:    4.6751887568
  - # 8
    frequency:    5.1403175858
  - # 9
    frequency:    5.3304399187
  - # 10
    frequency:    7.2067092235
  - # 11
    frequency:    7.7657205357
  - # 12
    frequency:    8.3131149877
  - # 13
    frequency:    8.8692341622
  - # 14
    frequency:   12.7254333336
  - # 15
    frequency:   13.6381210198
  - # 16
    frequency:   14.6960021893
  - # 17
    frequency:   14.9573817330
  - # 18
    frequency:   15.3901999955
  - # 19
    frequency:   15.8036117551
  - # 20
    frequency:   42.0512694729
  - # 21
    frequency:  110.4511563135

- q-position: [    0.1464646,    0.0000000,    0.0000000 ]
  distance:    0.0543210
  band:
  - # 1
    frequency:   -8.2223910124
  - # 2
    frequency:   -7.8334356767
  - # 3
    frequency:    0.7702173263
  - # 4
    frequency:    1.7896163404
  - # 5
    frequency:    3.1873557883
  - # 6
    frequency:    4.4221115145
  - # 7
    frequency:    4.7177192510
  - # 8
    frequency:    5.1600809698
  - # 9
    frequency:    5.3648926856
  - # 10
    frequency:    7.2128333987
  - # 11
    frequency:    7.7925413544
  - # 12
    frequency:    8.3142407011
  - # 13
    frequency:    8.8963473103
  - # 14
    frequency:   12.6959958875
  - # 15
    frequency:   13.6463865501
  - # 16
    frequency:   14.7177440970
  - # 17
    frequency:   14.9420102407
  - # 18
    frequency:   15.3918147746
  - # 19
    frequency:   15.8171389330
  - # 20
    frequency:   42.0215617277
  - # 21
    frequency:  110.4193947970

- q-position: [    0.1515152,    0.0000000,    0.0000000 ]
  distance:    0.0561942
  band:
  - # 1
    frequency:   -8.2473065826
  - # 2
    frequency:   -7.8458784310
  - # 3
    frequency:    0.8506149616
  - # 4
    frequency:    1.8140704217
  - # 5
    frequency:    3.2711857047
  - # 6
    frequency:    4.4154929930
  - # 7
    frequency:    4.7637238993
  - # 8
    frequency:    5.1804868305
  - # 9
    frequency:    5.4000473095
  - # 10
    frequency:    7.2177021599
  - # 11
    frequency:    7.8186996003
  - # 12
    frequency:    8.3154342072
  - # 13
    frequency:    8.9232041073
  - # 14
    frequency:   12.6675064373
  - # 15
    frequency:   13.6550579948
  - # 16
    frequency:   14.7383507130
  - # 17
    frequency:   14.9281607480
  - # 18
    frequency:   15.3962330506
  - # 19
    frequency:   15.8313927170
  - # 20
    frequency:   41.9910807660
  - # 21
    frequency:  110.3880539656
