nqpoint: 300    
npath: 3      
segment_nqpoint:
- 100
- 100
- 100
labels:
- [ 'G', 'M' ]
- [ 'M', 'K' ]
- [ 'K', 'G' ]
reciprocal_lattice:
- [   0.27637547,   0.15956545,   0.00000000 ] # a*
- [   0.00000000,   0.31913090,   0.00000000 ] # b*
- [   0.00000000,   0.00000000,   0.03788415 ] # c*
natom: 7      
lattice:
- [     3.618266114803693,     0.000000000000000,     0.000000000000000 ] # a
- [    -1.809133057401847,     3.133510373072416,     0.000000000000000 ] # b
- [     0.000000000000000,     0.000000000000000,    26.396261515472371 ] # c
points:
- symbol: Br # 1
  coordinates: [  0.333332985432215,  0.666666983183674,  0.659042626368716 ]
  mass: 79.904000
- symbol: C # 2
  coordinates: [  0.666666984744047,  0.333332985985145,  0.386000201777857 ]
  mass: 12.010700
- symbol: N # 3
  coordinates: [  0.000000000000000,  0.000000000000000,  0.533533841604581 ]
  mass: 14.006700
- symbol: N # 4
  coordinates: [  0.666666984744047,  0.333332985985145,  0.340957373631284 ]
  mass: 14.006700
- symbol: O # 5
  coordinates: [  0.666666984744047,  0.333332985985145,  0.436524796614100 ]
  mass: 15.999400
- symbol: Y # 6
  coordinates: [  0.333332985432215,  0.666666983183674,  0.485704320466705 ]
  mass: 88.905850
- symbol: Y # 7
  coordinates: [  0.666666984744047,  0.333332985985145,  0.584590200499941 ]
  mass: 88.905850

phonon:
- q-position: [    0.0000000,    0.0000000,    0.0000000 ]
  distance:    0.0000000
  band:
  - # 1
    frequency:   -0.6487627735
  - # 2
    frequency:   -0.6487627735
  - # 3
    frequency:   -0.0000002550
  - # 4
    frequency:   -0.0000001460
  - # 5
    frequency:    0.0000002256
  - # 6
    frequency:    2.5005081608
  - # 7
    frequency:    2.5005081608
  - # 8
    frequency:    3.9789630519
  - # 9
    frequency:    4.6209469893
  - # 10
    frequency:    4.6209469893
  - # 11
    frequency:    6.0770118231
  - # 12
    frequency:    6.0770118231
  - # 13
    frequency:    6.7015554608
  - # 14
    frequency:    7.9830304285
  - # 15
    frequency:   10.5643897674
  - # 16
    frequency:   11.4085337053
  - # 17
    frequency:   11.4085337053
  - # 18
    frequency:   13.9689349551
  - # 19
    frequency:   13.9689349551
  - # 20
    frequency:   32.1887858284
  - # 21
    frequency:   67.9005450152

- q-position: [    0.0050505,    0.0000000,    0.0000000 ]
  distance:    0.0016118
  band:
  - # 1
    frequency:   -0.6520929181
  - # 2
    frequency:   -0.6499812222
  - # 3
    frequency:    0.0004009532
  - # 4
    frequency:    0.0686252138
  - # 5
    frequency:    0.0814624380
  - # 6
    frequency:    2.5014315616
  - # 7
    frequency:    2.5017344249
  - # 8
    frequency:    3.9784847029
  - # 9
    frequency:    4.6207710069
  - # 10
    frequency:    4.6208931527
  - # 11
    frequency:    6.0766225097
  - # 12
    frequency:    6.0769661214
  - # 13
    frequency:    6.7011303837
  - # 14
    frequency:    7.9819959475
  - # 15
    frequency:   10.5634889605
  - # 16
    frequency:   11.4070138828
  - # 17
    frequency:   11.4087327463
  - # 18
    frequency:   13.9689515711
  - # 19
    frequency:   13.9689799517
  - # 20
    frequency:   32.1882819146
  - # 21
    frequency:   67.9002666966

- q-position: [    0.0101010,    0.0000000,    0.0000000 ]
  distance:    0.0032235
  band:
  - # 1
    frequency:   -0.6614206251
  - # 2
    frequency:   -0.6533883052
  - # 3
    frequency:    0.0016664173
  - # 4
    frequency:    0.1362655646
  - # 5
    frequency:    0.1605488646
  - # 6
    frequency:    2.5041994557
  - # 7
    frequency:    2.5054015541
  - # 8
    frequency:    3.9770525732
  - # 9
    frequency:    4.6202439927
  - # 10
    frequency:    4.6207316836
  - # 11
    frequency:    6.0754522778
  - # 12
    frequency:    6.0768296726
  - # 13
    frequency:    6.6998564275
  - # 14
    frequency:    7.9788946389
  - # 15
    frequency:   10.5607858969
  - # 16
    frequency:   11.4024588084
  - # 17
    frequency:   11.4093261286
  - # 18
    frequency:   13.9690014437
  - # 19
    frequency:   13.9691155637
  - # 20
    frequency:   32.1867714679
  - # 21
    frequency:   67.8994324095

- q-position: [    0.0151515,    0.0000000,    0.0000000 ]
  distance:    0.0048353
  band:
  - # 1
    frequency:   -0.6751803410
  - # 2
    frequency:   -0.6583365423
  - # 3
    frequency:    0.0040352344
  - # 4
    frequency:    0.2021828366
  - # 5
    frequency:    0.2357240059
  - # 6
    frequency:    2.5088048136
  - # 7
    frequency:    2.5114747247
  - # 8
    frequency:    3.9746754070
  - # 9
    frequency:    4.6193687392
  - # 10
    frequency:    4.6204626161
  - # 11
    frequency:    6.0734943019
  - # 12
    frequency:    6.0766044334
  - # 13
    frequency:    6.6977374275
  - # 14
    frequency:    7.9737329208
  - # 15
    frequency:   10.5562785692
  - # 16
    frequency:   11.3948817652
  - # 17
    frequency:   11.4103026517
  - # 18
    frequency:   13.9690846472
  - # 19
    frequency:   13.9693436399
  - # 20
    frequency:   32.1842583690
  - # 21
    frequency:   67.8980441575

- q-position: [    0.0202020,    0.0000000,    0.0000000 ]
  distance:    0.0064471
  band:
  - # 1
    frequency:   -0.6916825956
  - # 2
    frequency:   -0.6639933987
  - # 3
    frequency:    0.0078328511
  - # 4
    frequency:    0.2659926511
  - # 5
    frequency:    0.3064524357
  - # 6
    frequency:    2.5152355748
  - # 7
    frequency:    2.5198964413
  - # 8
    frequency:    3.9713677524
  - # 9
    frequency:    4.6181498770
  - # 10
    frequency:    4.6200857144
  - # 11
    frequency:    6.0707373683
  - # 12
    frequency:    6.0762936273
  - # 13
    frequency:    6.6947798097
  - # 14
    frequency:    7.9665215374
  - # 15
    frequency:   10.5499633671
  - # 16
    frequency:   11.3843052396
  - # 17
    frequency:   11.4116437214
  - # 18
    frequency:   13.9692013068
  - # 19
    frequency:   13.9696672017
  - # 20
    frequency:   32.1807490716
  - # 21
    frequency:   67.8961052723

- q-position: [    0.0252525,    0.0000000,    0.0000000 ]
  distance:    0.0080589
  band:
  - # 1
    frequency:   -0.7095859625
  - # 2
    frequency:   -0.6695336677
  - # 3
    frequency:    0.0134278090
  - # 4
    frequency:    0.3276234459
  - # 5
    frequency:    0.3728586614
  - # 6
    frequency:    2.5234741552
  - # 7
    frequency:    2.5305873242
  - # 8
    frequency:    3.9671499155
  - # 9
    frequency:    4.6165938399
  - # 10
    frequency:    4.6196000490
  - # 11
    frequency:    6.0671661183
  - # 12
    frequency:    6.0759016871
  - # 13
    frequency:    6.6909926390
  - # 14
    frequency:    7.9572756297
  - # 15
    frequency:   10.5418346769
  - # 16
    frequency:   11.3707614466
  - # 17
    frequency:   11.4133234577
  - # 18
    frequency:   13.9693516011
  - # 19
    frequency:   13.9700903551
  - # 20
    frequency:   32.1762525824
  - # 21
    frequency:   67.8936204012

- q-position: [    0.0303030,    0.0000000,    0.0000000 ]
  distance:    0.0096706
  band:
  - # 1
    frequency:   -0.7279849648
  - # 2
    frequency:   -0.6742427684
  - # 3
    frequency:    0.0211978608
  - # 4
    frequency:    0.3872093576
  - # 5
    frequency:    0.4353528428
  - # 6
    frequency:    2.5334968044
  - # 7
    frequency:    2.5434471547
  - # 8
    frequency:    3.9620478840
  - # 9
    frequency:    4.6147088155
  - # 10
    frequency:    4.6190034289
  - # 11
    frequency:    6.0627613865
  - # 12
    frequency:    6.0754341790
  - # 13
    frequency:    6.6863876843
  - # 14
    frequency:    7.9460148365
  - # 15
    frequency:   10.5318843144
  - # 16
    frequency:   11.3542930695
  - # 17
    frequency:   11.4153088448
  - # 18
    frequency:   13.9695357646
  - # 19
    frequency:   13.9706181707
  - # 20
    frequency:   32.1707804316
  - # 21
    frequency:   67.8905954911

- q-position: [    0.0353535,    0.0000000,    0.0000000 ]
  distance:    0.0112824
  band:
  - # 1
    frequency:   -0.7463237730
  - # 2
    frequency:   -0.6775442206
  - # 3
    frequency:    0.0315120761
  - # 4
    frequency:    0.4449885886
  - # 5
    frequency:    0.4944060700
  - # 6
    frequency:    2.5452728582
  - # 7
    frequency:    2.5583561239
  - # 8
    frequency:    3.9560932089
  - # 9
    frequency:    4.6125046814
  - # 10
    frequency:    4.6182917146
  - # 11
    frequency:    6.0575006332
  - # 12
    frequency:    6.0748977065
  - # 13
    frequency:    6.6809794964
  - # 14
    frequency:    7.9327634229
  - # 15
    frequency:   10.5201007858
  - # 16
    frequency:   11.3349542182
  - # 17
    frequency:   11.4175599205
  - # 18
    frequency:   13.9697540911
  - # 19
    frequency:   13.9712565363
  - # 20
    frequency:   32.1643466366
  - # 21
    frequency:   67.8870377670

- q-position: [    0.0404040,    0.0000000,    0.0000000 ]
  distance:    0.0128942
  band:
  - # 1
    frequency:   -0.7642841619
  - # 2
    frequency:   -0.6789891040
  - # 3
    frequency:    0.0447232934
  - # 4
    frequency:    0.5012337587
  - # 5
    frequency:    0.5504529216
  - # 6
    frequency:    2.5587639412
  - # 7
    frequency:    2.5751762142
  - # 8
    frequency:    3.9493228330
  - # 9
    frequency:    4.6099929273
  - # 10
    frequency:    4.6174580386
  - # 11
    frequency:    6.0513584697
  - # 12
    frequency:    6.0742997986
  - # 13
    frequency:    6.6747854962
  - # 14
    frequency:    7.9175504396
  - # 15
    frequency:   10.5064683737
  - # 16
    frequency:   11.3128116056
  - # 17
    frequency:   11.4200300025
  - # 18
    frequency:   13.9700069373
  - # 19
    frequency:   13.9720119847
  - # 20
    frequency:   32.1569676569
  - # 21
    frequency:   67.8829557063

- q-position: [    0.0454545,    0.0000000,    0.0000000 ]
  distance:    0.0145060
  band:
  - # 1
    frequency:   -0.7816975812
  - # 2
    frequency:   -0.6782354601
  - # 3
    frequency:    0.0611661962
  - # 4
    frequency:    0.5562125264
  - # 5
    frequency:    0.6038624618
  - # 6
    frequency:    2.5739231822
  - # 7
    frequency:    2.5937526365
  - # 8
    frequency:    3.9417788563
  - # 9
    frequency:    4.6071865620
  - # 10
    frequency:    4.6164919616
  - # 11
    frequency:    6.0443072786
  - # 12
    frequency:    6.0736487851
  - # 13
    frequency:    6.6678260691
  - # 14
    frequency:    7.9004099105
  - # 15
    frequency:   10.4909660506
  - # 16
    frequency:   11.2879459400
  - # 17
    frequency:   11.4226659496
  - # 18
    frequency:   13.9702947268
  - # 19
    frequency:   13.9728915029
  - # 20
    frequency:   32.1486623413
  - # 21
    frequency:   67.8783590089

- q-position: [    0.0505051,    0.0000000,    0.0000000 ]
  distance:    0.0161177
  band:
  - # 1
    frequency:   -0.7984860097
  - # 2
    frequency:   -0.6750311795
  - # 3
    frequency:    0.0811577661
  - # 4
    frequency:    0.6101687404
  - # 5
    frequency:    0.6549385764
  - # 6
    frequency:    2.5906945088
  - # 7
    frequency:    2.6139152381
  - # 8
    frequency:    3.9335082294
  - # 9
    frequency:    4.6041000067
  - # 10
    frequency:    4.6153785924
  - # 11
    frequency:    6.0363179289
  - # 12
    frequency:    6.0729536606
  - # 13
    frequency:    6.6601246634
  - # 14
    frequency:    7.8813810492
  - # 15
    frequency:   10.4735662305
  - # 16
    frequency:   11.2604535172
  - # 17
    frequency:   11.4254084539
  - # 18
    frequency:   13.9706179531
  - # 19
    frequency:   13.9739023287
  - # 20
    frequency:   32.1394518672
  - # 21
    frequency:   67.8732585627

- q-position: [    0.0555556,    0.0000000,    0.0000000 ]
  distance:    0.0177295
  band:
  - # 1
    frequency:   -0.8146245039
  - # 2
    frequency:   -0.6692049713
  - # 3
    frequency:    0.1049974108
  - # 4
    frequency:    0.6633154462
  - # 5
    frequency:    0.7039304116
  - # 6
    frequency:    2.6090120844
  - # 7
    frequency:    2.6354797943
  - # 8
    frequency:    3.9245623692
  - # 9
    frequency:    4.6007489735
  - # 10
    frequency:    4.6140976992
  - # 11
    frequency:    6.0273605918
  - # 12
    frequency:    6.0722239418
  - # 13
    frequency:    6.6517078899
  - # 14
    frequency:    7.8605085032
  - # 15
    frequency:   10.4542333855
  - # 16
    frequency:   11.2304479819
  - # 17
    frequency:   11.4281923620
  - # 18
    frequency:   13.9709771821
  - # 19
    frequency:   13.9750517388
  - # 20
    frequency:   32.1293596729
  - # 21
    frequency:   67.8676664054

- q-position: [    0.0606061,    0.0000000,    0.0000000 ]
  distance:    0.0193413
  band:
  - # 1
    frequency:   -0.8301180452
  - # 2
    frequency:   -0.6606657567
  - # 3
    frequency:    0.1329637121
  - # 4
    frequency:    0.7158340332
  - # 5
    frequency:    0.7510447492
  - # 6
    frequency:    2.6287999488
  - # 7
    frequency:    2.6582491026
  - # 8
    frequency:    3.9149966939
  - # 9
    frequency:    4.5971503303
  - # 10
    frequency:    4.6126228344
  - # 11
    frequency:    6.0174056642
  - # 12
    frequency:    6.0714695206
  - # 13
    frequency:    6.6426056203
  - # 14
    frequency:    7.8378426215
  - # 15
    frequency:   10.4329225812
  - # 16
    frequency:   11.1980622047
  - # 17
    frequency:   11.4309470202
  - # 18
    frequency:   13.9713730549
  - # 19
    frequency:   13.9763468364
  - # 20
    frequency:   32.1184113816
  - # 21
    frequency:   67.8615956822

- q-position: [    0.0656566,    0.0000000,    0.0000000 ]
  distance:    0.0209530
  band:
  - # 1
    frequency:   -0.8449873621
  - # 2
    frequency:   -0.6494084122
  - # 3
    frequency:    0.1653038658
  - # 4
    frequency:    0.7678762019
  - # 5
    frequency:    0.7964572580
  - # 6
    frequency:    2.6499719091
  - # 7
    frequency:    2.6820138049
  - # 8
    frequency:    3.9048700772
  - # 9
    frequency:    4.5933219535
  - # 10
    frequency:    4.6109204998
  - # 11
    frequency:    6.0064248106
  - # 12
    frequency:    6.0707005163
  - # 13
    frequency:    6.6328510843
  - # 14
    frequency:    7.8134397447
  - # 15
    frequency:   10.4095780186
  - # 16
    frequency:   11.1634501772
  - # 17
    frequency:   11.4335966424
  - # 18
    frequency:   13.9718062871
  - # 19
    frequency:   13.9777943430
  - # 20
    frequency:   32.1066347189
  - # 21
    frequency:   67.8550605996

- q-position: [    0.0707071,    0.0000000,    0.0000000 ]
  distance:    0.0225648
  band:
  - # 1
    frequency:   -0.8592602970
  - # 2
    frequency:   -0.6355209930
  - # 3
    frequency:    0.2022112332
  - # 4
    frequency:    0.8195669487
  - # 5
    frequency:    0.8403217054
  - # 6
    frequency:    2.6724317151
  - # 7
    frequency:    2.7065528734
  - # 8
    frequency:    3.8942442214
  - # 9
    frequency:    4.5892825673
  - # 10
    frequency:    4.6089493738
  - # 11
    frequency:    5.9943921390
  - # 12
    frequency:    6.0699271301
  - # 13
    frequency:    6.6224809649
  - # 14
    frequency:    7.7873625078
  - # 15
    frequency:   10.3841317261
  - # 16
    frequency:   11.1267887813
  - # 17
    frequency:   11.4360606955
  - # 18
    frequency:   13.9722776686
  - # 19
    frequency:   13.9794004018
  - # 20
    frequency:   32.0940594231
  - # 21
    frequency:   67.8480763760

- q-position: [    0.0757576,    0.0000000,    0.0000000 ]
  distance:    0.0241766
  band:
  - # 1
    frequency:   -0.8729665911
  - # 2
    frequency:   -0.6191843277
  - # 3
    frequency:    0.2437876041
  - # 4
    frequency:    0.8710076153
  - # 5
    frequency:    0.8827770513
  - # 6
    frequency:    2.6960735341
  - # 7
    frequency:    2.7316337113
  - # 8
    frequency:    3.8831829497
  - # 9
    frequency:    4.5850515742
  - # 10
    frequency:    4.6066596312
  - # 11
    frequency:    5.9812855293
  - # 12
    frequency:    6.0691595041
  - # 13
    frequency:    6.6115354919
  - # 14
    frequency:    7.7596801511
  - # 15
    frequency:   10.3565026113
  - # 16
    frequency:   11.0882792167
  - # 17
    frequency:   11.4382542993
  - # 18
    frequency:   13.9727880598
  - # 19
    frequency:   13.9811703957
  - # 20
    frequency:   32.0807171487
  - # 21
    frequency:   67.8406591892

- q-position: [    0.0808081,    0.0000000,    0.0000000 ]
  distance:    0.0257884
  band:
  - # 1
    frequency:   -0.8861347804
  - # 2
    frequency:   -0.6006502607
  - # 3
    frequency:    0.2899922987
  - # 4
    frequency:    0.9222785102
  - # 5
    frequency:    0.9239526387
  - # 6
    frequency:    2.7207827195
  - # 7
    frequency:    2.7570118300
  - # 8
    frequency:    3.8717514147
  - # 9
    frequency:    4.5806488765
  - # 10
    frequency:    4.6039923912
  - # 11
    frequency:    5.9670881370
  - # 12
    frequency:    6.0684075884
  - # 13
    frequency:    6.6000585334
  - # 14
    frequency:    7.7304688251
  - # 15
    frequency:   10.3265961622
  - # 16
    frequency:   11.0481477900
  - # 17
    frequency:   11.4400886398
  - # 18
    frequency:   13.9733383862
  - # 19
    frequency:   13.9831087875
  - # 20
    frequency:   32.0666413636
  - # 21
    frequency:   67.8328261204

- q-position: [    0.0858586,    0.0000000,    0.0000000 ]
  distance:    0.0274001
  band:
  - # 1
    frequency:   -0.8987903992
  - # 2
    frequency:   -0.5801845399
  - # 3
    frequency:    0.3405914157
  - # 4
    frequency:    0.9639717747
  - # 5
    frequency:    0.9734408373
  - # 6
    frequency:    2.7464368509
  - # 7
    frequency:    2.7824300830
  - # 8
    frequency:    3.8600152139
  - # 9
    frequency:    4.5760946915
  - # 10
    frequency:    4.6008793461
  - # 11
    frequency:    5.9517900953
  - # 12
    frequency:    6.0676810170
  - # 13
    frequency:    6.5880976852
  - # 14
    frequency:    7.6998118765
  - # 15
    frequency:   10.2943051717
  - # 16
    frequency:   11.0066456868
  - # 17
    frequency:   11.4414713891
  - # 18
    frequency:   13.9739296306
  - # 19
    frequency:   13.9852189832
  - # 20
    frequency:   32.0518672403
  - # 21
    frequency:   67.8245950955

- q-position: [    0.0909091,    0.0000000,    0.0000000 ]
  distance:    0.0290119
  band:
  - # 1
    frequency:   -0.9109549915
  - # 2
    frequency:   -0.5579711246
  - # 3
    frequency:    0.3951324921
  - # 4
    frequency:    1.0029539978
  - # 5
    frequency:    1.0245377753
  - # 6
    frequency:    2.7729070056
  - # 7
    frequency:    2.8076174494
  - # 8
    frequency:    3.8480393952
  - # 9
    frequency:    4.5714093642
  - # 10
    frequency:    4.5972426468
  - # 11
    frequency:    5.9353904395
  - # 12
    frequency:    6.0669889950
  - # 13
    frequency:    6.5757043532
  - # 14
    frequency:    7.6678000963
  - # 15
    frequency:   10.2595119191
  - # 16
    frequency:   10.9640472821
  - # 17
    frequency:   11.4423071334
  - # 18
    frequency:   13.9745628216
  - # 19
    frequency:   13.9875032245
  - # 20
    frequency:   32.0364315409
  - # 21
    frequency:   67.8159848246

- q-position: [    0.0959596,    0.0000000,    0.0000000 ]
  distance:    0.0306237
  band:
  - # 1
    frequency:   -0.9226456180
  - # 2
    frequency:   -0.5339961107
  - # 3
    frequency:    0.4529693487
  - # 4
    frequency:    1.0410163028
  - # 5
    frequency:    1.0755945896
  - # 6
    frequency:    2.8000592082
  - # 7
    frequency:    2.8322873815
  - # 8
    frequency:    3.8358873240
  - # 9
    frequency:    4.5666131807
  - # 10
    frequency:    4.5929951536
  - # 11
    frequency:    5.9178992650
  - # 12
    frequency:    6.0663401975
  - # 13
    frequency:    6.5629338251
  - # 14
    frequency:    7.6345319080
  - # 15
    frequency:   10.2220922469
  - # 16
    frequency:   10.9206465462
  - # 17
    frequency:   11.4424978032
  - # 18
    frequency:   13.9752390198
  - # 19
    frequency:   13.9899625098
  - # 20
    frequency:   32.0203724975
  - # 21
    frequency:   67.8070147378

- q-position: [    0.1010101,    0.0000000,    0.0000000 ]
  distance:    0.0322354
  band:
  - # 1
    frequency:   -0.9338746620
  - # 2
    frequency:   -0.5079444961
  - # 3
    frequency:    0.5133395271
  - # 4
    frequency:    1.0782735627
  - # 5
    frequency:    1.1266176576
  - # 6
    frequency:    2.8277559989
  - # 7
    frequency:    2.8561357535
  - # 8
    frequency:    3.8236193737
  - # 9
    frequency:    4.5617261855
  - # 10
    frequency:    4.5880412050
  - # 11
    frequency:    5.8993401189
  - # 12
    frequency:    6.0657426823
  - # 13
    frequency:    6.5498453194
  - # 14
    frequency:    7.6001134712
  - # 15
    frequency:   10.1819218642
  - # 16
    frequency:   10.8767511974
  - # 17
    frequency:   11.4419431053
  - # 18
    frequency:   13.9759593009
  - # 19
    frequency:   13.9925965466
  - # 20
    frequency:   32.0037296864
  - # 21
    frequency:   67.7977049209

- q-position: [    0.1060606,    0.0000000,    0.0000000 ]
  distance:    0.0338472
  band:
  - # 1
    frequency:   -0.9446498115
  - # 2
    frequency:   -0.4791296138
  - # 3
    frequency:    0.5754658169
  - # 4
    frequency:    1.1148383557
  - # 5
    frequency:    1.1775922578
  - # 6
    frequency:    2.8558580585
  - # 7
    frequency:    2.8788384862
  - # 8
    frequency:    3.8112913898
  - # 9
    frequency:    4.5567680083
  - # 10
    frequency:    4.5822781157
  - # 11
    frequency:    5.8797525912
  - # 12
    frequency:    6.0652038140
  - # 13
    frequency:    6.5365019980
  - # 14
    frequency:    7.5646586709
  - # 15
    frequency:   10.1388849552
  - # 16
    frequency:   10.8326745148
  - # 17
    frequency:   11.4405409545
  - # 18
    frequency:   13.9767247351
  - # 19
    frequency:   13.9954037343
  - # 20
    frequency:   31.9865438992
  - # 21
    frequency:   67.7880760475

- q-position: [    0.1111111,    0.0000000,    0.0000000 ]
  distance:    0.0354590
  band:
  - # 1
    frequency:   -0.9549741419
  - # 2
    frequency:   -0.4464332534
  - # 3
    frequency:    0.6386420261
  - # 4
    frequency:    1.1508203769
  - # 5
    frequency:    1.2284789220
  - # 6
    frequency:    2.8842258297
  - # 7
    frequency:    2.9000489723
  - # 8
    frequency:    3.7989528792
  - # 9
    frequency:    4.5517577041
  - # 10
    frequency:    4.5755986759
  - # 11
    frequency:    5.8591950258
  - # 12
    frequency:    6.0647302018
  - # 13
    frequency:    6.5229709235
  - # 14
    frequency:    7.5282889633
  - # 15
    frequency:   10.0928847492
  - # 16
    frequency:   10.7887251366
  - # 17
    frequency:   11.4381879015
  - # 18
    frequency:   13.9775363649
  - # 19
    frequency:   13.9983811770
  - # 20
    frequency:   31.9688570080
  - # 21
    frequency:   67.7781493112

- q-position: [    0.1161616,    0.0000000,    0.0000000 ]
  distance:    0.0370708
  band:
  - # 1
    frequency:   -0.9648462526
  - # 2
    frequency:   -0.4081805759
  - # 3
    frequency:    0.7022797040
  - # 4
    frequency:    1.1863255840
  - # 5
    frequency:    1.2792080706
  - # 6
    frequency:    2.9127210820
  - # 7
    frequency:    2.9193955118
  - # 8
    frequency:    3.7866448923
  - # 9
    frequency:    4.5467136124
  - # 10
    frequency:    4.5678949932
  - # 11
    frequency:    5.8377472060
  - # 12
    frequency:    6.0643276488
  - # 13
    frequency:    6.5093229359
  - # 14
    frequency:    7.4911330496
  - # 15
    frequency:   10.0438551838
  - # 16
    frequency:   10.7451956925
  - # 17
    frequency:   11.4347795582
  - # 18
    frequency:   13.9783951790
  - # 19
    frequency:   14.0015247243
  - # 20
    frequency:   31.9507118289
  - # 21
    frequency:   67.7679463561

- q-position: [    0.1212121,    0.0000000,    0.0000000 ]
  distance:    0.0386825
  band:
  - # 1
    frequency:   -0.9742604334
  - # 2
    frequency:   -0.3617834582
  - # 3
    frequency:    0.7659172499
  - # 4
    frequency:    1.2214552020
  - # 5
    frequency:    1.3296725338
  - # 6
    frequency:    2.9364790974
  - # 7
    frequency:    2.9412083753
  - # 8
    frequency:    3.7743976139
  - # 9
    frequency:    4.5416532403
  - # 10
    frequency:    4.5590640640
  - # 11
    frequency:    5.8155127811
  - # 12
    frequency:    6.0640011117
  - # 13
    frequency:    6.4956324245
  - # 14
    frequency:    7.4533263510
  - # 15
    frequency:    9.9917723096
  - # 16
    frequency:   10.7023516032
  - # 17
    frequency:   11.4302110165
  - # 18
    frequency:   13.9793020846
  - # 19
    frequency:   14.0048290381
  - # 20
    frequency:   31.9321519803
  - # 21
    frequency:   67.7574892057

- q-position: [    0.1262626,    0.0000000,    0.0000000 ]
  distance:    0.0402943
  band:
  - # 1
    frequency:   -0.9832068454
  - # 2
    frequency:   -0.3026541897
  - # 3
    frequency:    0.8292060946
  - # 4
    frequency:    1.2563046838
  - # 5
    frequency:    1.3797173888
  - # 6
    frequency:    2.9508721018
  - # 7
    frequency:    2.9695563880
  - # 8
    frequency:    3.7622277794
  - # 9
    frequency:    4.5365931749
  - # 10
    frequency:    4.5490154653
  - # 11
    frequency:    5.7926211030
  - # 12
    frequency:    6.0637546704
  - # 13
    frequency:    6.4819769651
  - # 14
    frequency:    7.4150102672
  - # 15
    frequency:    9.9366638327
  - # 16
    frequency:   10.6604216251
  - # 17
    frequency:   11.4243772609
  - # 18
    frequency:   13.9802578786
  - # 19
    frequency:   14.0082876819
  - # 20
    frequency:   31.9132217399
  - # 21
    frequency:   67.7468001931

- q-position: [    0.1313131,    0.0000000,    0.0000000 ]
  distance:    0.0419061
  band:
  - # 1
    frequency:   -0.9916717129
  - # 2
    frequency:   -0.2198650802
  - # 3
    frequency:    0.8918885361
  - # 4
    frequency:    1.2909627054
  - # 5
    frequency:    1.4291262797
  - # 6
    frequency:    2.9621187716
  - # 7
    frequency:    2.9976390869
  - # 8
    frequency:    3.7501362016
  - # 9
    frequency:    4.5315490289
  - # 10
    frequency:    4.5376814573
  - # 11
    frequency:    5.7692280427
  - # 12
    frequency:    6.0635915051
  - # 13
    frequency:    6.4684367967
  - # 14
    frequency:    7.3763312113
  - # 15
    frequency:    9.8786153424
  - # 16
    frequency:   10.6195915665
  - # 17
    frequency:   11.4171735728
  - # 18
    frequency:   13.9812632165
  - # 19
    frequency:   14.0118932293
  - # 20
    frequency:   31.8939658991
  - # 21
    frequency:   67.7359018888

- q-position: [    0.1363636,    0.0000000,    0.0000000 ]
  distance:    0.0435179
  band:
  - # 1
    frequency:   -0.9996375234
  - # 2
    frequency:   -0.0294373789
  - # 3
    frequency:    0.9537760726
  - # 4
    frequency:    1.3255102506
  - # 5
    frequency:    1.4776029982
  - # 6
    frequency:    2.9697390279
  - # 7
    frequency:    3.0253367247
  - # 8
    frequency:    3.7381059360
  - # 9
    frequency:    4.5250295305
  - # 10
    frequency:    4.5265354254
  - # 11
    frequency:    5.7455152859
  - # 12
    frequency:    6.0635138799
  - # 13
    frequency:    6.4550941145
  - # 14
    frequency:    7.3374394297
  - # 15
    frequency:    9.8177723395
  - # 16
    frequency:   10.5800020338
  - # 17
    frequency:   11.4084959270
  - # 18
    frequency:   13.9823185827
  - # 19
    frequency:   14.0156373887
  - # 20
    frequency:   31.8744296156
  - # 21
    frequency:   67.7248170302

- q-position: [    0.1414141,    0.0000000,    0.0000000 ]
  distance:    0.0451296
  band:
  - # 1
    frequency:   -1.0070832392
  - # 2
    frequency:    0.2255243687
  - # 3
    frequency:    1.0147317319
  - # 4
    frequency:    1.3600198237
  - # 5
    frequency:    1.5247465493
  - # 6
    frequency:    2.9732380723
  - # 7
    frequency:    3.0525366612
  - # 8
    frequency:    3.7261019010
  - # 9
    frequency:    4.5110769231
  - # 10
    frequency:    4.5215660231
  - # 11
    frequency:    5.7216876084
  - # 12
    frequency:    6.0635231312
  - # 13
    frequency:    6.4420321605
  - # 14
    frequency:    7.2984876319
  - # 15
    frequency:    9.7543379908
  - # 16
    frequency:   10.5417502558
  - # 17
    frequency:   11.3982413782
  - # 18
    frequency:   13.9834242599
  - # 19
    frequency:   14.0195111391
  - # 20
    frequency:   31.8546582650
  - # 21
    frequency:   67.7135684504

- q-position: [    0.1464646,    0.0000000,    0.0000000 ]
  distance:    0.0467414
  band:
  - # 1
    frequency:   -1.0139845195
  - # 2
    frequency:    0.3265290710
  - # 3
    frequency:    1.0746567527
  - # 4
    frequency:    1.3945548148
  - # 5
    frequency:    1.5700172014
  - # 6
    frequency:    2.9721259303
  - # 7
    frequency:    3.0791340101
  - # 8
    frequency:    3.7140730127
  - # 9
    frequency:    4.4959058428
  - # 10
    frequency:    4.5166535862
  - # 11
    frequency:    5.6979677361
  - # 12
    frequency:    6.0636196587
  - # 13
    frequency:    6.4293340995
  - # 14
    frequency:    7.2596294793
  - # 15
    frequency:    9.6885673158
  - # 16
    frequency:   10.5048952513
  - # 17
    frequency:   11.3863084375
  - # 18
    frequency:   13.9845803015
  - # 19
    frequency:   14.0235048748
  - # 20
    frequency:   31.8346972923
  - # 21
    frequency:   67.7021790079

- q-position: [    0.1515152,    0.0000000,    0.0000000 ]
  distance:    0.0483532
  band:
  - # 1
    frequency:   -1.0203139574
  - # 2
    frequency:    0.4072478808
  - # 3
    frequency:    1.1334805956
  - # 4
    frequency:    1.4291690288
  - # 5
    frequency:    1.6126903065
  - # 6
    frequency:    2.9659535518
  - # 7
    frequency:    3.1050321209
  - # 8
    frequency:    3.7019578992
  - # 9
    frequency:    4.4796770727
  - # 10
    frequency:    4.5118100973
  - # 11
    frequency:    5.6745886444
  - # 12
    frequency:    6.0638029188
  - # 13
    frequency:    6.4170816761
  - # 14
    frequency:    7.2210179957
  - # 15
    frequency:    9.6207590076
  - # 16
    frequency:   10.4694651225
  - # 17
    frequency:   11.3725974390
  - # 18
    frequency:   13.9857865050
  - # 19
    frequency:   14.0276085536
  - # 20
    frequency:   31.8145920626
  - # 21
    frequency:   67.6906715173
