nqpoint: 300    
npath: 3      
segment_nqpoint:
- 100
- 100
- 100
labels:
- [ 'G', 'M' ]
- [ 'M', 'K' ]
- [ 'K', 'G' ]
reciprocal_lattice:
- [   0.31493754,   0.18182927,   0.00000000 ] # a*
- [   0.00000000,   0.36365854,   0.00000000 ] # b*
- [   0.00000000,   0.00000000,   0.03591520 ] # c*
natom: 9      
lattice:
- [     3.175232828142374,     0.000000000000000,     0.000000000000000 ] # a
- [    -1.587616414071187,     2.749832292093930,     0.000000000000000 ] # b
- [     0.000000000000000,     0.000000000000000,    27.843366688479026 ] # c
points:
- symbol: C # 1
  coordinates: [  0.000000000000000,  0.000000000000000,  0.500000033277486 ]
  mass: 12.010700
- symbol: C # 2
  coordinates: [  0.333332985432215,  0.666666983183674,  0.634088317393637 ]
  mass: 12.010700
- symbol: C # 3
  coordinates: [  0.666666984744047,  0.333332985985145,  0.365911682109684 ]
  mass: 12.010700
- symbol: N # 4
  coordinates: [  0.333332985432215,  0.666666983183674,  0.676763226922411 ]
  mass: 14.006700
- symbol: N # 5
  coordinates: [  0.666666984744047,  0.333332985985145,  0.323236773077589 ]
  mass: 14.006700
- symbol: O # 6
  coordinates: [  0.333332985432215,  0.666666983183674,  0.586106968608038 ]
  mass: 15.999400
- symbol: O # 7
  coordinates: [  0.666666984744047,  0.333332985985145,  0.413893031391962 ]
  mass: 15.999400
- symbol: Ti # 8
  coordinates: [  0.333332985432215,  0.666666983183674,  0.460275233605551 ]
  mass: 47.867000
- symbol: Ti # 9
  coordinates: [  0.666666984744047,  0.333332985985145,  0.539724765897762 ]
  mass: 47.867000

phonon:
- q-position: [    0.0000000,    0.0000000,    0.0000000 ]
  distance:    0.0000000
  band:
  - # 1
    frequency:   -0.0000023153
  - # 2
    frequency:    0.0000005239
  - # 3
    frequency:    0.0000026022
  - # 4
    frequency:    0.1070564082
  - # 5
    frequency:    0.1070564082
  - # 6
    frequency:    0.2050130075
  - # 7
    frequency:    0.2050130075
  - # 8
    frequency:    5.1674074942
  - # 9
    frequency:    5.1674074942
  - # 10
    frequency:    6.2050183883
  - # 11
    frequency:    7.0114830247
  - # 12
    frequency:    7.0114830247
  - # 13
    frequency:    7.3478558793
  - # 14
    frequency:    7.3478558793
  - # 15
    frequency:    9.7410798832
  - # 16
    frequency:   13.0669189532
  - # 17
    frequency:   14.0624575867
  - # 18
    frequency:   14.0624575867
  - # 19
    frequency:   14.0685589188
  - # 20
    frequency:   14.0685589188
  - # 21
    frequency:   18.1427481070
  - # 22
    frequency:   18.3597670918
  - # 23
    frequency:   18.3597670918
  - # 24
    frequency:   31.6695667012
  - # 25
    frequency:   31.7823851021
  - # 26
    frequency:   67.4360533647
  - # 27
    frequency:   67.4394555305

- q-position: [    0.0050505,    0.0000000,    0.0000000 ]
  distance:    0.0018367
  band:
  - # 1
    frequency:   -0.0542551698
  - # 2
    frequency:    0.0754221879
  - # 3
    frequency:    0.1201153552
  - # 4
    frequency:    0.1222682600
  - # 5
    frequency:    0.1539754872
  - # 6
    frequency:    0.2133859164
  - # 7
    frequency:    0.2330925018
  - # 8
    frequency:    5.1678871391
  - # 9
    frequency:    5.1685788656
  - # 10
    frequency:    6.2043211968
  - # 11
    frequency:    7.0111642521
  - # 12
    frequency:    7.0124310490
  - # 13
    frequency:    7.3484121692
  - # 14
    frequency:    7.3485602345
  - # 15
    frequency:    9.7410613667
  - # 16
    frequency:   13.0655639550
  - # 17
    frequency:   14.0624954010
  - # 18
    frequency:   14.0628346174
  - # 19
    frequency:   14.0687125553
  - # 20
    frequency:   14.0689666636
  - # 21
    frequency:   18.1424708369
  - # 22
    frequency:   18.3603785983
  - # 23
    frequency:   18.3611123053
  - # 24
    frequency:   31.6691893908
  - # 25
    frequency:   31.7818437787
  - # 26
    frequency:   67.4358886764
  - # 27
    frequency:   67.4392858661

- q-position: [    0.0101010,    0.0000000,    0.0000000 ]
  distance:    0.0036733
  band:
  - # 1
    frequency:   -0.0744624731
  - # 2
    frequency:    0.1312761925
  - # 3
    frequency:    0.1633492288
  - # 4
    frequency:    0.2223808292
  - # 5
    frequency:    0.2383174985
  - # 6
    frequency:    0.2412487604
  - # 7
    frequency:    0.3146719470
  - # 8
    frequency:    5.1693240481
  - # 9
    frequency:    5.1720851346
  - # 10
    frequency:    6.2022451383
  - # 11
    frequency:    7.0102137681
  - # 12
    frequency:    7.0152626387
  - # 13
    frequency:    7.3500718357
  - # 14
    frequency:    7.3506667283
  - # 15
    frequency:    9.7410062651
  - # 16
    frequency:   13.0615047380
  - # 17
    frequency:   14.0626146450
  - # 18
    frequency:   14.0639571284
  - # 19
    frequency:   14.0691669300
  - # 20
    frequency:   14.0701941520
  - # 21
    frequency:   18.1416352970
  - # 22
    frequency:   18.3622086978
  - # 23
    frequency:   18.3651416603
  - # 24
    frequency:   31.6680585753
  - # 25
    frequency:   31.7802218332
  - # 26
    frequency:   67.4353949610
  - # 27
    frequency:   67.4387772467

- q-position: [    0.0151515,    0.0000000,    0.0000000 ]
  distance:    0.0055100
  band:
  - # 1
    frequency:   -0.0847392649
  - # 2
    frequency:    0.1714997778
  - # 3
    frequency:    0.2139742446
  - # 4
    frequency:    0.2960992695
  - # 5
    frequency:    0.3094960130
  - # 6
    frequency:    0.3255121805
  - # 7
    frequency:    0.4335712126
  - # 8
    frequency:    5.1717121663
  - # 9
    frequency:    5.1779029242
  - # 10
    frequency:    6.1988357674
  - # 11
    frequency:    7.0086485509
  - # 12
    frequency:    7.0199413227
  - # 13
    frequency:    7.3528078306
  - # 14
    frequency:    7.3541557007
  - # 15
    frequency:    9.7409159176
  - # 16
    frequency:   13.0547584407
  - # 17
    frequency:   14.0628298781
  - # 18
    frequency:   14.0658013996
  - # 19
    frequency:   14.0699052894
  - # 20
    frequency:   14.0722522997
  - # 21
    frequency:   18.1402312996
  - # 22
    frequency:   18.3652441690
  - # 23
    frequency:   18.3718354017
  - # 24
    frequency:   31.6661775958
  - # 25
    frequency:   31.7775253270
  - # 26
    frequency:   67.4345732649
  - # 27
    frequency:   67.4379307929

- q-position: [    0.0202020,    0.0000000,    0.0000000 ]
  distance:    0.0073466
  band:
  - # 1
    frequency:   -0.0908671444
  - # 2
    frequency:    0.2126744522
  - # 3
    frequency:    0.2546982248
  - # 4
    frequency:    0.3711796408
  - # 5
    frequency:    0.3982821705
  - # 6
    frequency:    0.4117974415
  - # 7
    frequency:    0.5644688834
  - # 8
    frequency:    5.1750414723
  - # 9
    frequency:    5.1859937952
  - # 10
    frequency:    6.1941658458
  - # 11
    frequency:    7.0064952499
  - # 12
    frequency:    7.0264094190
  - # 13
    frequency:    7.3565768500
  - # 14
    frequency:    7.3589945779
  - # 15
    frequency:    9.7407925435
  - # 16
    frequency:   13.0453530032
  - # 17
    frequency:   14.0631585060
  - # 18
    frequency:   14.0683344852
  - # 19
    frequency:   14.0709065933
  - # 20
    frequency:   14.0751532829
  - # 21
    frequency:   18.1382448059
  - # 22
    frequency:   18.3694631097
  - # 23
    frequency:   18.3811580004
  - # 24
    frequency:   31.6635520006
  - # 25
    frequency:   31.7737643221
  - # 26
    frequency:   67.4334253278
  - # 27
    frequency:   67.4367483673

- q-position: [    0.0252525,    0.0000000,    0.0000000 ]
  distance:    0.0091833
  band:
  - # 1
    frequency:   -0.0931503843
  - # 2
    frequency:    0.2555355670
  - # 3
    frequency:    0.2934216541
  - # 4
    frequency:    0.4535214290
  - # 5
    frequency:    0.4886065987
  - # 6
    frequency:    0.4996257638
  - # 7
    frequency:    0.6986905140
  - # 8
    frequency:    5.1792980842
  - # 9
    frequency:    5.1963050053
  - # 10
    frequency:    6.1883310805
  - # 11
    frequency:    7.0037880153
  - # 12
    frequency:    7.0345921764
  - # 13
    frequency:    7.3613216946
  - # 14
    frequency:    7.3651381909
  - # 15
    frequency:    9.7406392207
  - # 16
    frequency:   13.0333262975
  - # 17
    frequency:   14.0636160650
  - # 18
    frequency:   14.0715225958
  - # 19
    frequency:   14.0721502640
  - # 20
    frequency:   14.0789029489
  - # 21
    frequency:   18.1356611890
  - # 22
    frequency:   18.3748351341
  - # 23
    frequency:   18.3930553902
  - # 24
    frequency:   31.6601895152
  - # 25
    frequency:   31.7689528202
  - # 26
    frequency:   67.4319535748
  - # 27
    frequency:   67.4352325671

- q-position: [    0.0303030,    0.0000000,    0.0000000 ]
  distance:    0.0110200
  band:
  - # 1
    frequency:   -0.0899253131
  - # 2
    frequency:    0.2994904402
  - # 3
    frequency:    0.3329402451
  - # 4
    frequency:    0.5383869229
  - # 5
    frequency:    0.5798124624
  - # 6
    frequency:    0.5887617840
  - # 7
    frequency:    0.8340926943
  - # 8
    frequency:    5.1844644028
  - # 9
    frequency:    5.2087705238
  - # 10
    frequency:    6.1814449985
  - # 11
    frequency:    7.0005659731
  - # 12
    frequency:    7.0444026811
  - # 13
    frequency:    7.3669740564
  - # 14
    frequency:    7.3725292689
  - # 15
    frequency:    9.7404598570
  - # 16
    frequency:   13.0187250326
  - # 17
    frequency:   14.0642142150
  - # 18
    frequency:   14.0736182391
  - # 19
    frequency:   14.0753383835
  - # 20
    frequency:   14.0834945231
  - # 21
    frequency:   18.1324681468
  - # 22
    frequency:   18.3813216478
  - # 23
    frequency:   18.4074527416
  - # 24
    frequency:   31.6561000006
  - # 25
    frequency:   31.7631086789
  - # 26
    frequency:   67.4301611071
  - # 27
    frequency:   67.4333867138

- q-position: [    0.0353535,    0.0000000,    0.0000000 ]
  distance:    0.0128566
  band:
  - # 1
    frequency:   -0.0773627798
  - # 2
    frequency:    0.3441148577
  - # 3
    frequency:    0.3735751967
  - # 4
    frequency:    0.6243398176
  - # 5
    frequency:    0.6714816139
  - # 6
    frequency:    0.6787394401
  - # 7
    frequency:    0.9699560782
  - # 8
    frequency:    5.1905192934
  - # 9
    frequency:    5.2233122593
  - # 10
    frequency:    6.1736335547
  - # 11
    frequency:    6.9968706870
  - # 12
    frequency:    7.0557468932
  - # 13
    frequency:    7.3734573865
  - # 14
    frequency:    7.3810991444
  - # 15
    frequency:    9.7402591511
  - # 16
    frequency:   13.0016035306
  - # 17
    frequency:   14.0649606289
  - # 18
    frequency:   14.0752951398
  - # 19
    frequency:   14.0797636920
  - # 20
    frequency:   14.0889069590
  - # 21
    frequency:   18.1286576368
  - # 22
    frequency:   18.3888761960
  - # 23
    frequency:   18.4242533885
  - # 24
    frequency:   31.6512954007
  - # 25
    frequency:   31.7562535043
  - # 26
    frequency:   67.4280516888
  - # 27
    frequency:   67.4312148405

- q-position: [    0.0404040,    0.0000000,    0.0000000 ]
  distance:    0.0146933
  band:
  - # 1
    frequency:   -0.0420912758
  - # 2
    frequency:    0.3891425374
  - # 3
    frequency:    0.4151575781
  - # 4
    frequency:    0.7108402190
  - # 5
    frequency:    0.7633520890
  - # 6
    frequency:    0.7692052815
  - # 7
    frequency:    1.1059593666
  - # 8
    frequency:    5.1974382999
  - # 9
    frequency:    5.2398414508
  - # 10
    frequency:    6.1650299936
  - # 11
    frequency:    6.9927438804
  - # 12
    frequency:    7.0685282628
  - # 13
    frequency:    7.3806895630
  - # 14
    frequency:    7.3907686936
  - # 15
    frequency:    9.7400425437
  - # 16
    frequency:   12.9820224692
  - # 17
    frequency:   14.0658596488
  - # 18
    frequency:   14.0771676839
  - # 19
    frequency:   14.0847877399
  - # 20
    frequency:   14.0951078731
  - # 21
    frequency:   18.1242267009
  - # 22
    frequency:   18.3974448843
  - # 23
    frequency:   18.4433390267
  - # 24
    frequency:   31.6457896777
  - # 25
    frequency:   31.7484125224
  - # 26
    frequency:   67.4256297314
  - # 27
    frequency:   67.4287216758

- q-position: [    0.0454545,    0.0000000,    0.0000000 ]
  distance:    0.0165299
  band:
  - # 1
    frequency:    0.0723224608
  - # 2
    frequency:    0.4344021973
  - # 3
    frequency:    0.4574621896
  - # 4
    frequency:    0.7976398637
  - # 5
    frequency:    0.8552496969
  - # 6
    frequency:    0.8599117260
  - # 7
    frequency:    1.2419235006
  - # 8
    frequency:    5.2051938899
  - # 9
    frequency:    5.2582601688
  - # 10
    frequency:    6.1557703385
  - # 11
    frequency:    6.9882255895
  - # 12
    frequency:    7.0826515388
  - # 13
    frequency:    7.3885851853
  - # 14
    frequency:    7.4014495233
  - # 15
    frequency:    9.7398161584
  - # 16
    frequency:   12.9600476732
  - # 17
    frequency:   14.0669130621
  - # 18
    frequency:   14.0792239877
  - # 19
    frequency:   14.0904035014
  - # 20
    frequency:   14.1020582239
  - # 21
    frequency:   18.1191774010
  - # 22
    frequency:   18.4069668656
  - # 23
    frequency:   18.4645709446
  - # 24
    frequency:   31.6395987381
  - # 25
    frequency:   31.7396144286
  - # 26
    frequency:   67.4229002760
  - # 27
    frequency:   67.4259126254

- q-position: [    0.0505051,    0.0000000,    0.0000000 ]
  distance:    0.0183666
  band:
  - # 1
    frequency:    0.1255356638
  - # 2
    frequency:    0.4797782454
  - # 3
    frequency:    0.5002934226
  - # 4
    frequency:    0.8846051810
  - # 5
    frequency:    0.9470502970
  - # 6
    frequency:    0.9506825026
  - # 7
    frequency:    1.3777291681
  - # 8
    frequency:    5.2137557249
  - # 9
    frequency:    5.2784628751
  - # 10
    frequency:    6.1459897199
  - # 11
    frequency:    6.9833528157
  - # 12
    frequency:    7.0980255636
  - # 13
    frequency:    7.3970574154
  - # 14
    frequency:    7.4130453928
  - # 15
    frequency:    9.7395867317
  - # 16
    frequency:   12.9357490168
  - # 17
    frequency:   14.0681207624
  - # 18
    frequency:   14.0814529926
  - # 19
    frequency:   14.0966046802
  - # 20
    frequency:   14.1097162821
  - # 21
    frequency:   18.1135162226
  - # 22
    frequency:   18.4173748907
  - # 23
    frequency:   18.4877919138
  - # 24
    frequency:   31.6327403479
  - # 25
    frequency:   31.7298912181
  - # 26
    frequency:   67.4198689723
  - # 27
    frequency:   67.4227937518

- q-position: [    0.0555556,    0.0000000,    0.0000000 ]
  distance:    0.0202033
  band:
  - # 1
    frequency:    0.1749259871
  - # 2
    frequency:    0.5251886327
  - # 3
    frequency:    0.5434952647
  - # 4
    frequency:    0.9716544217
  - # 5
    frequency:    1.0386591144
  - # 6
    frequency:    1.0413876334
  - # 7
    frequency:    1.5132846008
  - # 8
    frequency:    5.2230909526
  - # 9
    frequency:    5.3003379910
  - # 10
    frequency:    6.1358196089
  - # 11
    frequency:    6.9781586657
  - # 12
    frequency:    7.1145650167
  - # 13
    frequency:    7.4060193750
  - # 14
    frequency:    7.4254538385
  - # 15
    frequency:    9.7393615324
  - # 16
    frequency:   12.9091994761
  - # 17
    frequency:   14.0694812514
  - # 18
    frequency:   14.0838440583
  - # 19
    frequency:   14.1033839843
  - # 20
    frequency:   14.1180401516
  - # 21
    frequency:   18.1072532601
  - # 22
    frequency:   18.4285959165
  - # 23
    frequency:   18.5128284040
  - # 24
    frequency:   31.6252340393
  - # 25
    frequency:   31.7192779980
  - # 26
    frequency:   67.4165420552
  - # 27
    frequency:   67.4193717512

- q-position: [    0.0606061,    0.0000000,    0.0000000 ]
  distance:    0.0220399
  band:
  - # 1
    frequency:    0.2248785357
  - # 2
    frequency:    0.5705722696
  - # 3
    frequency:    0.5869453899
  - # 4
    frequency:    1.0587316010
  - # 5
    frequency:    1.1299982337
  - # 6
    frequency:    1.1319285988
  - # 7
    frequency:    1.6485110713
  - # 8
    frequency:    5.2331645162
  - # 9
    frequency:    5.3237694297
  - # 10
    frequency:    6.1253859118
  - # 11
    frequency:    6.9726719154
  - # 12
    frequency:    7.1321911926
  - # 13
    frequency:    7.4153851505
  - # 14
    frequency:    7.4385679500
  - # 15
    frequency:    9.7391482708
  - # 16
    frequency:   12.8804743494
  - # 17
    frequency:   14.0709920037
  - # 18
    frequency:   14.0863866985
  - # 19
    frequency:   14.1107324114
  - # 20
    frequency:   14.1269891173
  - # 21
    frequency:   18.1004013983
  - # 22
    frequency:   18.4405517669
  - # 23
    frequency:   18.5394928914
  - # 24
    frequency:   31.6171010078
  - # 25
    frequency:   31.7078127814
  - # 26
    frequency:   67.4129263194
  - # 27
    frequency:   67.4156539287

- q-position: [    0.0656566,    0.0000000,    0.0000000 ]
  distance:    0.0238766
  band:
  - # 1
    frequency:    0.2766178016
  - # 2
    frequency:    0.6158816545
  - # 3
    frequency:    0.6305473898
  - # 4
    frequency:    1.1457943457
  - # 5
    frequency:    1.2209953074
  - # 6
    frequency:    1.2222331609
  - # 7
    frequency:    1.7833355797
  - # 8
    frequency:    5.2439394751
  - # 9
    frequency:    5.3486380565
  - # 10
    frequency:    6.1148078228
  - # 11
    frequency:    6.9669169113
  - # 12
    frequency:    7.1508319773
  - # 13
    frequency:    7.4250704874
  - # 14
    frequency:    7.4522782353
  - # 15
    frequency:    9.7389549989
  - # 16
    frequency:   12.8496506443
  - # 17
    frequency:   14.0726497292
  - # 18
    frequency:   14.0890704244
  - # 19
    frequency:   14.1186390879
  - # 20
    frequency:   14.1365242822
  - # 21
    frequency:   18.0929755955
  - # 22
    frequency:   18.4531598400
  - # 23
    frequency:   18.5675861353
  - # 24
    frequency:   31.6083640015
  - # 25
    frequency:   31.6955362681
  - # 26
    frequency:   67.4090290906
  - # 27
    frequency:   67.4116481716

- q-position: [    0.0707071,    0.0000000,    0.0000000 ]
  distance:    0.0257132
  band:
  - # 1
    frequency:    0.3306035963
  - # 2
    frequency:    0.6610784042
  - # 3
    frequency:    0.6742242394
  - # 4
    frequency:    1.2328076844
  - # 5
    frequency:    1.3115542289
  - # 6
    frequency:    1.3122745421
  - # 7
    frequency:    1.9176867980
  - # 8
    frequency:    5.2553773342
  - # 9
    frequency:    5.3748230462
  - # 10
    frequency:    6.1041972951
  - # 11
    frequency:    6.9609137216
  - # 12
    frequency:    7.1704212182
  - # 13
    frequency:    7.4349932529
  - # 14
    frequency:    7.4664745074
  - # 15
    frequency:    9.7387900023
  - # 16
    frequency:   12.8168066200
  - # 17
    frequency:   14.0744505625
  - # 18
    frequency:   14.0918846650
  - # 19
    frequency:   14.1270913472
  - # 20
    frequency:   14.1466088226
  - # 21
    frequency:   18.0849923019
  - # 22
    frequency:   18.4663338542
  - # 23
    frequency:   18.5968993691
  - # 24
    frequency:   31.5990472029
  - # 25
    frequency:   31.6824916108
  - # 26
    frequency:   67.4048581953
  - # 27
    frequency:   67.4073629217

- q-position: [    0.0757576,    0.0000000,    0.0000000 ]
  distance:    0.0275499
  band:
  - # 1
    frequency:    0.3870107658
  - # 2
    frequency:    0.7061304528
  - # 3
    frequency:    0.7179133555
  - # 4
    frequency:    1.3197406366
  - # 5
    frequency:    1.4014764404
  - # 6
    frequency:    1.4021436970
  - # 7
    frequency:    2.0514926228
  - # 8
    frequency:    5.2674383754
  - # 9
    frequency:    5.4022031176
  - # 10
    frequency:    6.0936589955
  - # 11
    frequency:    6.9546784542
  - # 12
    frequency:    7.1908976814
  - # 13
    frequency:    7.4450737411
  - # 14
    frequency:    7.4810477323
  - # 15
    frequency:    9.7386616866
  - # 16
    frequency:   12.7820214619
  - # 17
    frequency:   14.0763902000
  - # 18
    frequency:   14.0948187411
  - # 19
    frequency:   14.1360748874
  - # 20
    frequency:   14.1572080460
  - # 21
    frequency:   18.0764690078
  - # 22
    frequency:   18.4799846279
  - # 23
    frequency:   18.6272163972
  - # 24
    frequency:   31.5891761034
  - # 25
    frequency:   31.6687241708
  - # 26
    frequency:   67.4004219272
  - # 27
    frequency:   67.4028071465

- q-position: [    0.0808081,    0.0000000,    0.0000000 ]
  distance:    0.0293865
  band:
  - # 1
    frequency:    0.4458833176
  - # 2
    frequency:    0.7510102407
  - # 3
    frequency:    0.7615629871
  - # 4
    frequency:    1.4065642309
  - # 5
    frequency:    1.4907196250
  - # 6
    frequency:    1.4917864512
  - # 7
    frequency:    2.1846785771
  - # 8
    frequency:    5.2800819880
  - # 9
    frequency:    5.4306576296
  - # 10
    frequency:    6.0832906155
  - # 11
    frequency:    6.9482236780
  - # 12
    frequency:    7.2122037663
  - # 13
    frequency:    7.4552348804
  - # 14
    frequency:    7.4958917843
  - # 15
    frequency:    9.7385784604
  - # 16
    frequency:   12.7453750657
  - # 17
    frequency:   14.0784640014
  - # 18
    frequency:   14.0978618768
  - # 19
    frequency:   14.1455739383
  - # 20
    frequency:   14.1682893444
  - # 21
    frequency:   18.0674238964
  - # 22
    frequency:   18.4940208839
  - # 23
    frequency:   18.6583156028
  - # 24
    frequency:   31.5787773715
  - # 25
    frequency:   31.6542812653
  - # 26
    frequency:   67.3957290111
  - # 27
    frequency:   67.3979903102

- q-position: [    0.0858586,    0.0000000,    0.0000000 ]
  distance:    0.0312232
  band:
  - # 1
    frequency:    0.5071972712
  - # 2
    frequency:    0.7956935080
  - # 3
    frequency:    0.8051296027
  - # 4
    frequency:    1.4932503041
  - # 5
    frequency:    1.5794135214
  - # 6
    frequency:    1.5809849154
  - # 7
    frequency:    2.3171666838
  - # 8
    frequency:    5.2932669932
  - # 9
    frequency:    5.4600675334
  - # 10
    frequency:    6.0731834340
  - # 11
    frequency:    6.9415588954
  - # 12
    frequency:    7.2342841104
  - # 13
    frequency:    7.4654023854
  - # 14
    frequency:    7.5109050771
  - # 15
    frequency:    9.7385486169
  - # 16
    frequency:   12.7069479044
  - # 17
    frequency:   14.0806670648
  - # 18
    frequency:   14.1010032367
  - # 19
    frequency:   14.1555714156
  - # 20
    frequency:   14.1798220924
  - # 21
    frequency:   18.0578755756
  - # 22
    frequency:   18.5083500720
  - # 23
    frequency:   18.6899718788
  - # 24
    frequency:   31.5678787140
  - # 25
    frequency:   31.6392119079
  - # 26
    frequency:   67.3907885639
  - # 27
    frequency:   67.3929223442

- q-position: [    0.0909091,    0.0000000,    0.0000000 ]
  distance:    0.0330599
  band:
  - # 1
    frequency:    0.5708904615
  - # 2
    frequency:    0.8401584677
  - # 3
    frequency:    0.8485759998
  - # 4
    frequency:    1.5797707496
  - # 5
    frequency:    1.6675659994
  - # 6
    frequency:    1.6696495266
  - # 7
    frequency:    2.4488746140
  - # 8
    frequency:    5.3069519591
  - # 9
    frequency:    5.4903161785
  - # 10
    frequency:    6.0634230504
  - # 11
    frequency:    6.9346910299
  - # 12
    frequency:    7.2570841770
  - # 13
    frequency:    7.4755048837
  - # 14
    frequency:    7.5259920517
  - # 15
    frequency:    9.7385802189
  - # 16
    frequency:   12.6668209571
  - # 17
    frequency:   14.0829942823
  - # 18
    frequency:   14.1042319811
  - # 19
    frequency:   14.1660490571
  - # 20
    frequency:   14.1917775161
  - # 21
    frequency:   18.0478428657
  - # 22
    frequency:   18.5228792008
  - # 23
    frequency:   18.7219584911
  - # 24
    frequency:   31.5565087316
  - # 25
    frequency:   31.6235665466
  - # 26
    frequency:   67.3856100522
  - # 27
    frequency:   67.3876136201

- q-position: [    0.0959596,    0.0000000,    0.0000000 ]
  distance:    0.0348965
  band:
  - # 1
    frequency:    0.6368782522
  - # 2
    frequency:    0.8843852193
  - # 3
    frequency:    0.8918699333
  - # 4
    frequency:    1.6660970412
  - # 5
    frequency:    1.7551484114
  - # 6
    frequency:    1.7577323922
  - # 7
    frequency:    2.5797149954
  - # 8
    frequency:    5.3210955026
  - # 9
    frequency:    5.5212899774
  - # 10
    frequency:    6.0540902267
  - # 11
    frequency:    6.9276249055
  - # 12
    frequency:    7.2805488778
  - # 13
    frequency:    7.4854740390
  - # 14
    frequency:    7.5410645270
  - # 15
    frequency:    9.7386809890
  - # 16
    frequency:   12.6250756766
  - # 17
    frequency:   14.0854403820
  - # 18
    frequency:   14.1075373336
  - # 19
    frequency:   14.1769875432
  - # 20
    frequency:   14.2041285497
  - # 21
    frequency:   18.0373446241
  - # 22
    frequency:   18.5375156726
  - # 23
    frequency:   18.7540488788
  - # 24
    frequency:   31.5446967663
  - # 25
    frequency:   31.6073968026
  - # 26
    frequency:   67.3802032451
  - # 27
    frequency:   67.3820749242

- q-position: [    0.1010101,    0.0000000,    0.0000000 ]
  distance:    0.0367332
  band:
  - # 1
    frequency:    0.7050624943
  - # 2
    frequency:    0.9283553160
  - # 3
    frequency:    0.9349831199
  - # 4
    frequency:    1.7521999324
  - # 5
    frequency:    1.8421267942
  - # 6
    frequency:    1.8451951689
  - # 7
    frequency:    2.7095948161
  - # 8
    frequency:    5.3356565757
  - # 9
    frequency:    5.5528789356
  - # 10
    frequency:    6.0452617979
  - # 11
    frequency:    6.9203636998
  - # 12
    frequency:    7.3046212434
  - # 13
    frequency:    7.4952446781
  - # 14
    frequency:    7.5560429371
  - # 15
    frequency:    9.7388582087
  - # 16
    frequency:   12.5817939821
  - # 17
    frequency:   14.0879999573
  - # 18
    frequency:   14.1109086574
  - # 19
    frequency:   14.1883666049
  - # 20
    frequency:   14.2168496912
  - # 21
    frequency:   18.0263995948
  - # 22
    frequency:   18.5521681114
  - # 23
    frequency:   18.7860183936
  - # 24
    frequency:   31.5324727412
  - # 25
    frequency:   31.5907552128
  - # 26
    frequency:   67.3745781616
  - # 27
    frequency:   67.3763174360

- q-position: [    0.1060606,    0.0000000,    0.0000000 ]
  distance:    0.0385698
  band:
  - # 1
    frequency:    0.7753369497
  - # 2
    frequency:    0.9720514242
  - # 3
    frequency:    0.9778905232
  - # 4
    frequency:    1.8380492715
  - # 5
    frequency:    1.9284671422
  - # 6
    frequency:    1.9320031322
  - # 7
    frequency:    2.8384148791
  - # 8
    frequency:    5.3505947322
  - # 9
    frequency:    5.5849770581
  - # 10
    frequency:    6.0370116230
  - # 11
    frequency:    6.9129093643
  - # 12
    frequency:    7.3292411183
  - # 13
    frequency:    7.5047549286
  - # 14
    frequency:    7.5708575015
  - # 15
    frequency:    9.7391186305
  - # 16
    frequency:   12.5370582608
  - # 17
    frequency:   14.0906674873
  - # 18
    frequency:   14.1143355361
  - # 19
    frequency:   14.2001651247
  - # 20
    frequency:   14.2299168632
  - # 21
    frequency:   18.0150262748
  - # 22
    frequency:   18.5667471784
  - # 23
    frequency:   18.8176459758
  - # 24
    frequency:   31.5198669878
  - # 25
    frequency:   31.5736949846
  - # 26
    frequency:   67.3687450114
  - # 27
    frequency:   67.3703527131

- q-position: [    0.1111111,    0.0000000,    0.0000000 ]
  distance:    0.0404065
  band:
  - # 1
    frequency:    0.8475907265
  - # 2
    frequency:    1.0154570294
  - # 3
    frequency:    1.0205698588
  - # 4
    frequency:    1.9236138993
  - # 5
    frequency:    2.0141364846
  - # 6
    frequency:    2.0181236224
  - # 7
    frequency:    2.9660692803
  - # 8
    frequency:    5.3658703739
  - # 9
    frequency:    5.6174826429
  - # 10
    frequency:    6.0294115654
  - # 11
    frequency:    6.9052630063
  - # 12
    frequency:    7.3543438218
  - # 13
    frequency:    7.5139463668
  - # 14
    frequency:    7.5854494023
  - # 15
    frequency:    9.7394684044
  - # 16
    frequency:   12.4909513712
  - # 17
    frequency:   14.0934373483
  - # 18
    frequency:   14.1178078603
  - # 19
    frequency:   14.2123612316
  - # 20
    frequency:   14.2433072841
  - # 21
    frequency:   18.0032427911
  - # 22
    frequency:   18.5811663655
  - # 23
    frequency:   18.8487157623
  - # 24
    frequency:   31.5069100583
  - # 25
    frequency:   31.5562697679
  - # 26
    frequency:   67.3627141258
  - # 27
    frequency:   67.3641926844

- q-position: [    0.1161616,    0.0000000,    0.0000000 ]
  distance:    0.0422432
  band:
  - # 1
    frequency:    0.9217105320
  - # 2
    frequency:    1.0585561459
  - # 3
    frequency:    1.0630012869
  - # 4
    frequency:    2.0088616047
  - # 5
    frequency:    2.0991030968
  - # 6
    frequency:    2.1035254848
  - # 7
    frequency:    3.0924448882
  - # 8
    frequency:    5.3814449743
  - # 9
    frequency:    5.6502984751
  - # 10
    frequency:    6.0225324973
  - # 11
    frequency:    6.8974252323
  - # 12
    frequency:    7.3798586734
  - # 13
    frequency:    7.5227641743
  - # 14
    frequency:    7.5997720724
  - # 15
    frequency:    9.7399130226
  - # 16
    frequency:   12.4435566382
  - # 17
    frequency:   14.0963038173
  - # 18
    frequency:   14.1213159152
  - # 19
    frequency:   14.2249323941
  - # 20
    frequency:   14.2569993519
  - # 21
    frequency:   17.9910667875
  - # 22
    frequency:   18.5953427608
  - # 23
    frequency:   18.8790186228
  - # 24
    frequency:   31.4936325108
  - # 25
    frequency:   31.5385334587
  - # 26
    frequency:   67.3564958778
  - # 27
    frequency:   67.3578496536

- q-position: [    0.1212121,    0.0000000,    0.0000000 ]
  distance:    0.0440798
  band:
  - # 1
    frequency:    0.9975821887
  - # 2
    frequency:    1.1013329788
  - # 3
    frequency:    1.1051672926
  - # 4
    frequency:    2.0937591257
  - # 5
    frequency:    2.1833364969
  - # 6
    frequency:    2.1881788139
  - # 7
    frequency:    3.2174208073
  - # 8
    frequency:    5.3972812777
  - # 9
    frequency:    5.6833319317
  - # 10
    frequency:    6.0164453336