nqpoint: 300    
npath: 3      
segment_nqpoint:
- 100
- 100
- 100
labels:
- [ 'G', 'M' ]
- [ 'M', 'K' ]
- [ 'K', 'G' ]
reciprocal_lattice:
- [   0.31493754,   0.18182927,   0.00000000 ] # a*
- [   0.00000000,   0.36365854,   0.00000000 ] # b*
- [   0.00000000,   0.00000000,   0.03591520 ] # c*
natom: 9      
lattice:
- [     3.175232828142374,     0.000000000000000,     0.000000000000000 ] # a
- [    -1.587616414071187,     2.749832292093930,     0.000000000000000 ] # b
- [     0.000000000000000,     0.000000000000000,    27.843366688479026 ] # c
points:
- symbol: C # 1
  coordinates: [  0.000000000000000,  0.000000000000000,  0.500000033277486 ]
  mass: 12.010700
- symbol: C # 2
  coordinates: [  0.333332985432215,  0.666666983183674,  0.634088317393637 ]
  mass: 12.010700
- symbol: C # 3
  coordinates: [  0.666666984744047,  0.333332985985145,  0.365911682109684 ]
  mass: 12.010700
- symbol: N # 4
  coordinates: [  0.333332985432215,  0.666666983183674,  0.676763226922411 ]
  mass: 14.006700
- symbol: N # 5
  coordinates: [  0.666666984744047,  0.333332985985145,  0.323236773077589 ]
  mass: 14.006700
- symbol: O # 6
  coordinates: [  0.333332985432215,  0.666666983183674,  0.586106968608038 ]
  mass: 15.999400
- symbol: O # 7
  coordinates: [  0.666666984744047,  0.333332985985145,  0.413893031391962 ]
  mass: 15.999400
- symbol: Ti # 8
  coordinates: [  0.333332985432215,  0.666666983183674,  0.460275233605551 ]
  mass: 47.867000
- symbol: Ti # 9
  coordinates: [  0.666666984744047,  0.333332985985145,  0.539724765897762 ]
  mass: 47.867000

phonon:
- q-position: [    0.0000000,    0.0000000,    0.0000000 ]
  distance:    0.0000000
  band:
  - # 1
    frequency:   -0.0000234020
  - # 2
    frequency:   -0.0000005707
  - # 3
    frequency:    0.0000130130
  - # 4
    frequency:    1.0068401668
  - # 5
    frequency:    1.0068401668
  - # 6
    frequency:    1.1501684019
  - # 7
    frequency:    1.1501684020
  - # 8
    frequency:    5.1945726167
  - # 9
    frequency:    5.1945726167
  - # 10
    frequency:    6.0961696143
  - # 11
    frequency:    7.1662536412
  - # 12
    frequency:    7.1662536412
  - # 13
    frequency:    7.3133808782
  - # 14
    frequency:    7.3133808783
  - # 15
    frequency:    9.6854553705
  - # 16
    frequency:   13.0417368687
  - # 17
    frequency:   14.0749998496
  - # 18
    frequency:   14.0749998496
  - # 19
    frequency:   14.0894415928
  - # 20
    frequency:   14.0894415929
  - # 21
    frequency:   18.2200824671
  - # 22
    frequency:   19.0734963427
  - # 23
    frequency:   19.0734963428
  - # 24
    frequency:   31.6687245197
  - # 25
    frequency:   31.6954560445
  - # 26
    frequency:   67.4333577775
  - # 27
    frequency:   67.4337959485

- q-position: [    0.0050505,    0.0000000,    0.0000000 ]
  distance:    0.0018367
  band:
  - # 1
    frequency:    0.0029318278
  - # 2
    frequency:    0.0667522367
  - # 3
    frequency:    0.1173962463
  - # 4
    frequency:    1.0077354598
  - # 5
    frequency:    1.0113700395
  - # 6
    frequency:    1.1522322494
  - # 7
    frequency:    1.1558414391
  - # 8
    frequency:    5.1950840913
  - # 9
    frequency:    5.1956245478
  - # 10
    frequency:    6.0956686887
  - # 11
    frequency:    7.1654159896
  - # 12
    frequency:    7.1666149566
  - # 13
    frequency:    7.3143051336
  - # 14
    frequency:    7.3143779912
  - # 15
    frequency:    9.6855118707
  - # 16
    frequency:   13.0404686602
  - # 17
    frequency:   14.0750781970
  - # 18
    frequency:   14.0752926896
  - # 19
    frequency:   14.0894931837
  - # 20
    frequency:   14.0898315498
  - # 21
    frequency:   18.2196300601
  - # 22
    frequency:   19.0731454618
  - # 23
    frequency:   19.0740825096
  - # 24
    frequency:   31.6683820186
  - # 25
    frequency:   31.6950924972
  - # 26
    frequency:   67.4332015537
  - # 27
    frequency:   67.4336398618

- q-position: [    0.0101010,    0.0000000,    0.0000000 ]
  distance:    0.0036733
  band:
  - # 1
    frequency:    0.0116222123
  - # 2
    frequency:    0.1330584790
  - # 3
    frequency:    0.2341015710
  - # 4
    frequency:    1.0103923266
  - # 5
    frequency:    1.0247586202
  - # 6
    frequency:    1.1584669488
  - # 7
    frequency:    1.1728617817
  - # 8
    frequency:    5.1966163001
  - # 9
    frequency:    5.1987741329
  - # 10
    frequency:    6.0941742195
  - # 11
    frequency:    7.1629616180
  - # 12
    frequency:    7.1677045266
  - # 13
    frequency:    7.3170173666
  - # 14
    frequency:    7.3173536490
  - # 15
    frequency:    9.6856810518
  - # 16
    frequency:   13.0366685472
  - # 17
    frequency:   14.0753130303
  - # 18
    frequency:   14.0761710486
  - # 19
    frequency:   14.0896479863
  - # 20
    frequency:   14.0909983210
  - # 21
    frequency:   18.2182740920
  - # 22
    frequency:   19.0720953895
  - # 23
    frequency:   19.0758367551
  - # 24
    frequency:   31.6673552862
  - # 25
    frequency:   31.6940027093
  - # 26
    frequency:   67.4327331637
  - # 27
    frequency:   67.4331718823

- q-position: [    0.0151515,    0.0000000,    0.0000000 ]
  distance:    0.0055100
  band:
  - # 1
    frequency:    0.0257850418
  - # 2
    frequency:    0.1984768932
  - # 3
    frequency:    0.3494224808
  - # 4
    frequency:    1.0147288613
  - # 5
    frequency:    1.0464481261
  - # 6
    frequency:    1.1689943697
  - # 7
    frequency:    1.2012209831
  - # 8
    frequency:    5.1991626261
  - # 9
    frequency:    5.2040028561
  - # 10
    frequency:    6.0917108347
  - # 11
    frequency:    7.1590476426
  - # 12
    frequency:    7.1695381596
  - # 13
    frequency:    7.3213546225
  - # 14
    frequency:    7.3222621724
  - # 15
    frequency:    9.6859619699
  - # 16
    frequency:   13.0303499327
  - # 17
    frequency:   14.0757037192
  - # 18
    frequency:   14.0776343683
  - # 19
    frequency:   14.0899060950
  - # 20
    frequency:   14.0929328105
  - # 21
    frequency:   18.2160183147
  - # 22
    frequency:   19.0703538213
  - # 23
    frequency:   19.0787463456
  - # 24
    frequency:   31.6656466329
  - # 25
    frequency:   31.6921892394
  - # 26
    frequency:   67.4319534511
  - # 27
    frequency:   67.4323928516

- q-position: [    0.0202020,    0.0000000,    0.0000000 ]
  distance:    0.0073466
  band:
  - # 1
    frequency:    0.0450136216
  - # 2
    frequency:    0.2625762756
  - # 3
    frequency:    0.4626710555
  - # 4
    frequency:    1.0206245491
  - # 5
    frequency:    1.0756418490
  - # 6
    frequency:    1.1839931814
  - # 7
    frequency:    1.2408653225
  - # 8
    frequency:    5.2027121310
  - # 9
    frequency:    5.2112802158
  - # 10
    frequency:    6.0883186230
  - # 11
    frequency:    7.1538859714
  - # 12
    frequency:    7.1721389872
  - # 13
    frequency:    7.3270953001
  - # 14
    frequency:    7.3290316219
  - # 15
    frequency:    9.6863530959
  - # 16
    frequency:   13.0215347214
  - # 17
    frequency:   14.0762492021
  - # 18
    frequency:   14.0796814994
  - # 19
    frequency:   14.0902676789
  - # 20
    frequency:   14.0956204915
  - # 21
    frequency:   18.2128689614
  - # 22
    frequency:   19.0679335285
  - # 23
    frequency:   19.0827901626
  - # 24
    frequency:   31.6632599008
  - # 25
    frequency:   31.6896563414
  - # 26
    frequency:   67.4308638193
  - # 27
    frequency:   67.4313041696

- q-position: [    0.0252525,    0.0000000,    0.0000000 ]
  distance:    0.0091833
  band:
  - # 1
    frequency:    0.0688551032
  - # 2
    frequency:    0.3249467705
  - # 3
    frequency:    0.5731936144
  - # 4
    frequency:    1.0279403062
  - # 5
    frequency:    1.1114483736
  - # 6
    frequency:    1.2036655914
  - # 7
    frequency:    1.2916422585
  - # 8
    frequency:    5.2072496887
  - # 9
    frequency:    5.2205642460
  - # 10
    frequency:    6.0840517825
  - # 11
    frequency:    7.1476984968
  - # 12
    frequency:    7.1755336326
  - # 13
    frequency:    7.3340040146
  - # 14
    frequency:    7.3375690094
  - # 15
    frequency:    9.6868523822
  - # 16
    frequency:   13.0102527097
  - # 17
    frequency:   14.0769479685
  - # 18
    frequency:   14.0823104671
  - # 19
    frequency:   14.0907330011
  - # 20
    frequency:   14.0990422180
  - # 21
    frequency:   18.2088347149
  - # 22
    frequency:   19.0648522772
  - # 23
    frequency:   19.0879388580
  - # 24
    frequency:   31.6602004513
  - # 25
    frequency:   31.6864099490
  - # 26
    frequency:   67.4294662273
  - # 27
    frequency:   67.4299077906

- q-position: [    0.0303030,    0.0000000,    0.0000000 ]
  distance:    0.0110200
  band:
  - # 1
    frequency:    0.0968716474
  - # 2
    frequency:    0.3852158707
  - # 3
    frequency:    0.6804251597
  - # 4
    frequency:    1.0365389890
  - # 5
    frequency:    1.1530011733
  - # 6
    frequency:    1.2281979422
  - # 7
    frequency:    1.3532414215
  - # 8
    frequency:    5.2127561667
  - # 9
    frequency:    5.2318022184
  - # 10
    frequency:    6.0789768872
  - # 11
    frequency:    7.1406870749
  - # 12
    frequency:    7.1797483477
  - # 13
    frequency:    7.3418616990
  - # 14
    frequency:    7.3477659347
  - # 15
    frequency:    9.6874573523
  - # 16
    frequency:   12.9965408105
  - # 17
    frequency:   14.0777980318
  - # 18
    frequency:   14.0855182742
  - # 19
    frequency:   14.0913024472
  - # 20
    frequency:   14.1031751572
  - # 21
    frequency:   18.2039266648
  - # 22
    frequency:   19.0611327153
  - # 23
    frequency:   19.0941550707
  - # 24
    frequency:   31.6564751480
  - # 25
    frequency:   31.6824576540
  - # 26
    frequency:   67.4277631847
  - # 27
    frequency:   67.4282062181

- q-position: [    0.0353535,    0.0000000,    0.0000000 ]
  distance:    0.0128566
  band:
  - # 1
    frequency:    0.1286774727
  - # 2
    frequency:    0.4430691089
  - # 3
    frequency:    0.7839630355
  - # 4
    frequency:    1.0463009946
  - # 5
    frequency:    1.1995244590
  - # 6
    frequency:    1.2577216758
  - # 7
    frequency:    1.4251450369
  - # 8
    frequency:    5.2192086514
  - # 9
    frequency:    5.2449314972
  - # 10
    frequency:    6.0731709029
  - # 11
    frequency:    7.1330203260
  - # 12
    frequency:    7.1848058359
  - # 13
    frequency:    7.3504789063
  - # 14
    frequency:    7.3595038004
  - # 15
    frequency:    9.6881652125
  - # 16
    frequency:   12.9804421741
  - # 17
    frequency:   14.0787968926
  - # 18
    frequency:   14.0893007811
  - # 19
    frequency:   14.0919765653
  - # 20
    frequency:   14.1079937362
  - # 21
    frequency:   18.1981582513
  - # 22
    frequency:   19.0568022287
  - # 23
    frequency:   19.1013937001
  - # 24
    frequency:   31.6520923337
  - # 25
    frequency:   31.6778086786
  - # 26
    frequency:   67.4257577442
  - # 27
    frequency:   67.4262024980

- q-position: [    0.0404040,    0.0000000,    0.0000000 ]
  distance:    0.0146933
  band:
  - # 1
    frequency:    0.1639528114
  - # 2
    frequency:    0.4982726168
  - # 3
    frequency:    0.8836360722
  - # 4
    frequency:    1.0571319028
  - # 5
    frequency:    1.2503488118
  - # 6
    frequency:    1.2922807915
  - # 7
    frequency:    1.5066019977
  - # 8
    frequency:    5.2265807119
  - # 9
    frequency:    5.2598805165
  - # 10
    frequency:    6.0667190848
  - # 11
    frequency:    7.1248319643
  - # 12
    frequency:    7.1907230962
  - # 13
    frequency:    7.3596976092
  - # 14
    frequency:    7.3726581356
  - # 15
    frequency:    9.6889729825
  - # 16
    frequency:   12.9620052695
  - # 17
    frequency:   14.0799414868
  - # 18
    frequency:   14.0927561200
  - # 19
    frequency:   14.0936526667
  - # 20
    frequency:   14.1134705391
  - # 21
    frequency:   18.1915451973
  - # 22
    frequency:   19.0518927666
  - # 23
    frequency:   19.1096022368
  - # 24
    frequency:   31.6470618043
  - # 25
    frequency:   31.6724738416
  - # 26
    frequency:   67.4234534931
  - # 27
    frequency:   67.4239002098

- q-position: [    0.0454545,    0.0000000,    0.0000000 ]
  distance:    0.0165299
  band:
  - # 1
    frequency:    0.2024418957
  - # 2
    frequency:    0.5506926101
  - # 3
    frequency:    0.9795353353
  - # 4
    frequency:    1.0689625423
  - # 5
    frequency:    1.3048991893
  - # 6
    frequency:    1.3318104247
  - # 7
    frequency:    1.5966404582
  - # 8
    frequency:    5.2348426955
  - # 9
    frequency:    5.2765698473
  - # 10
    frequency:    6.0597128845
  - # 11
    frequency:    7.1162247765
  - # 12
    frequency:    7.1975102893
  - # 13
    frequency:    7.3693873754
  - # 14
    frequency:    7.3871019031
  - # 15
    frequency:    9.6898776412
  - # 16
    frequency:   12.9412829844
  - # 17
    frequency:   14.0812281186
  - # 18
    frequency:   14.0936421640
  - # 19
    frequency:   14.0985674487
  - # 20
    frequency:   14.1195771188
  - # 21
    frequency:   18.1841054274
  - # 22
    frequency:   19.0464406382
  - # 23
    frequency:   19.1187211457
  - # 24
    frequency:   31.6413947761
  - # 25
    frequency:   31.6664655199
  - # 26
    frequency:   67.4208545438
  - # 27
    frequency:   67.4213034569

- q-position: [    0.0505051,    0.0000000,    0.0000000 ]
  distance:    0.0183666
  band:
  - # 1
    frequency:    0.2439426943
  - # 2
    frequency:    0.6003060868
  - # 3
    frequency:    1.0719846418
  - # 4
    frequency:    1.0817442511
  - # 5
    frequency:    1.3626761792
  - # 6
    frequency:    1.3761294706
  - # 7
    frequency:    1.6941271014
  - # 8
    frequency:    5.2439620476
  - # 9
    frequency:    5.2949133189
  - # 10
    frequency:    6.0522479675
  - # 11
    frequency:    7.1072763800
  - # 12
    frequency:    7.2051704300
  - # 13
    frequency:    7.3794397911
  - # 14
    frequency:    7.4027078851
  - # 15
    frequency:    9.6908762845
  - # 16
    frequency:   12.9183317909
  - # 17
    frequency:   14.0826523710
  - # 18
    frequency:   14.0946361305
  - # 19
    frequency:   14.1040375379
  - # 20
    frequency:   14.1262847029
  - # 21
    frequency:   18.1758589765
  - # 22
    frequency:   19.0404862814
  - # 23
    frequency:   19.1286842989
  - # 24
    frequency:   31.6351038505
  - # 25
    frequency:   31.6597976031
  - # 26
    frequency:   67.4179655216
  - # 27
    frequency:   67.4184168555

- q-position: [    0.0555556,    0.0000000,    0.0000000 ]
  distance:    0.0202033
  band:
  - # 1
    frequency:    0.2882940885
  - # 2
    frequency:    0.6471986006
  - # 3
    frequency:    1.0954424802
  - # 4
    frequency:    1.1614601377
  - # 5
    frequency:    1.4232405682
  - # 6
    frequency:    1.4249481575
  - # 7
    frequency:    1.7978608321
  - # 8
    frequency:    5.2539036490
  - # 9
    frequency:    5.3148191641
  - # 10
    frequency:    6.0444224197
  - # 11
    frequency:    7.0980448472
  - # 12
    frequency:    7.2136996409
  - # 13
    frequency:    7.3897630451
  - # 14
    frequency:    7.4193503348
  - # 15
    frequency:    9.6919662903
  - # 16
    frequency:   12.8932110087
  - # 17
    frequency:   14.0842089928
  - # 18
    frequency:   14.0957399522
  - # 19
    frequency:   14.1100543051
  - # 20
    frequency:   14.1335647855
  - # 21
    frequency:   18.1668278861
  - # 22
    frequency:   19.0340740048
  - # 23
    frequency:   19.1394194527
  - # 24
    frequency:   31.6282029730
  - # 25
    frequency:   31.6524854445
  - # 26
    frequency:   67.4147915526
  - # 27
    frequency:   67.4152455217

- q-position: [    0.0606061,    0.0000000,    0.0000000 ]
  distance:    0.0220399
  band:
  - # 1
    frequency:    0.3353637637
  - # 2
    frequency:    0.6915486614
  - # 3
    frequency:    1.1100309225
  - # 4
    frequency:    1.2484932606
  - # 5
    frequency:    1.4778887559
  - # 6
    frequency:    1.4862029767
  - # 7
    frequency:    1.9066704217
  - # 8
    frequency:    5.2646301630
  - # 9
    frequency:    5.3361911568
  - # 10
    frequency:    6.0363351931
  - # 11
    frequency:    7.0885734831
  - # 12
    frequency:    7.2230877263
  - # 13
    frequency:    7.4002773866
  - # 14
    frequency:    7.4369060891
  - # 15
    frequency:    9.6931454861
  - # 16
    frequency:   12.8659821846
  - # 17
    frequency:   14.0858917577
  - # 18
    frequency:   14.0969562067
  - # 19
    frequency:   14.1166081482
  - # 20
    frequency:   14.1413895983
  - # 21
    frequency:   18.1570360911
  - # 22
    frequency:   19.0272517048
  - # 23
    frequency:   19.1508487674
  - # 24
    frequency:   31.6207073887
  - # 25
    frequency:   31.6445458054
  - # 26
    frequency:   67.4113382488
  - # 27
    frequency:   67.4117950577

- q-position: [    0.0656566,    0.0000000,    0.0000000 ]
  distance:    0.0238766
  band:
  - # 1
    frequency:    0.3850382480
  - # 2
    frequency:    0.7336023861
  - # 3
    frequency:    1.1254871085
  - # 4
    frequency:    1.3335910491
  - # 5
    frequency:    1.5345147677
  - # 6
    frequency:    1.5512170998
  - # 7
    frequency:    2.0194874879
  - # 8
    frequency:    5.2761023847
  - # 9
    frequency:    5.3589297147
  - # 10
    frequency:    6.0280848144
  - # 11
    frequency:    7.0788946312
  - # 12
    frequency:    7.2333188807
  - # 13
    frequency:    7.4109115853
  - # 14
    frequency:    7.4552553046
  - # 15
    frequency:    9.6944123152
  - # 16
    frequency:   12.8367085952
  - # 17
    frequency:   14.0876932989
  - # 18
    frequency:   14.0982882884
  - # 19
    frequency:   14.1236885541
  - # 20
    frequency:   14.1497324645
  - # 21
    frequency:   18.1465092981
  - # 22
    frequency:   19.0200705595
  - # 23
    frequency:   19.1628893605
  - # 24
    frequency:   31.6126335936
  - # 25
    frequency:   31.6359967965
  - # 26
    frequency:   67.4076116933
  - # 27
    frequency:   67.4080715361

- q-position: [    0.0707071,    0.0000000,    0.0000000 ]
  distance:    0.0257132
  band:
  - # 1
    frequency:    0.4372154230
  - # 2
    frequency:    0.7736444207
  - # 3
    frequency:    1.1417895556
  - # 4
    frequency:    1.4171891456
  - # 5
    frequency:    1.5943624160
  - # 6
    frequency:    1.6179748613
  - # 7
    frequency:    2.1353836330
  - # 8
    frequency:    5.2882795845
  - # 9
    frequency:    5.3829329473
  - # 10
    frequency:    6.0197683624
  - # 11
    frequency:    7.0690326081
  - # 12
    frequency:    7.2443724105
  - # 13
    frequency:    7.4216002878
  - # 14
    frequency:    7.4742819375
  - # 15
    frequency:    9.6957659956
  - # 16
    frequency:   12.8054548663
  - # 17
    frequency:   14.0896049320
  - # 18
    frequency:   14.0997405924
  - # 19
    frequency:   14.1312841533
  - # 20
    frequency:   14.1585680410
  - # 21
    frequency:   18.1352748547
  - # 22
    frequency:   19.0125847021
  - # 23
    frequency:   19.1754538930
  - # 24
    frequency:   31.6039992820
  - # 25
    frequency:   31.6268578138
  - # 26
    frequency:   67.4036184231
  - # 27
    frequency:   67.4040814837

- q-position: [    0.0757576,    0.0000000,    0.0000000 ]
  distance:    0.0275499
  band:
  - # 1
    frequency:    0.4917992765
  - # 2
    frequency:    0.8119709785
  - # 3
    frequency:    1.1589161672
  - # 4
    frequency:    1.4996348528
  - # 5
    frequency:    1.6569688374
  - # 6
    frequency:    1.6862024247
  - # 7
    frequency:    2.2535768977
  - # 8
    frequency:    5.3011198409
  - # 9
    frequency:    5.4080976285
  - # 10
    frequency:    6.0114807039
  - # 11
    frequency:    7.0590059322
  - # 12
    frequency:    7.2562233996
  - # 13
    frequency:    7.4322821091
  - # 14
    frequency:    7.4938740502
  - # 15
    frequency:    9.6972066675
  - # 16
    frequency:   12.7722867006
  - # 17
    frequency:   14.0916164999
  - # 18
    frequency:   14.1013186765
  - # 19
    frequency:   14.1393827683
  - # 20
    frequency:   14.1678724606
  - # 21
    frequency:   18.1233616136
  - # 22
    frequency:   19.0048508742
  - # 23
    frequency:   19.1884511797
  - # 24
    frequency:   31.5948232905
  - # 25
    frequency:   31.6171494710
  - # 26
    frequency:   67.3993654116
  - # 27
    frequency:   67.3998318637

- q-position: [    0.0808081,    0.0000000,    0.0000000 ]
  distance:    0.0293865
  band:
  - # 1
    frequency:    0.5486964684
  - # 2
    frequency:    0.8488687811
  - # 3
    frequency:    1.1768434938
  - # 4
    frequency:    1.5811897416
  - # 5
    frequency:    1.7218935359
  - # 6
    frequency:    1.7556565818
  - # 7
    frequency:    2.3734192943
  - # 8
    frequency:    5.3145803551
  - # 9
    frequency:    5.4343200819
  - # 10
    frequency:    6.0033139707
  - # 11
    frequency:    7.0488290032
  - # 12
    frequency:    7.2688432856
  - # 13
    frequency:    7.4428982986
  - # 14
    frequency:    7.5139240026
  - # 15
    frequency:    9.6987355236
  - # 16
    frequency:   12.7372706969
  - # 17
    frequency:   14.0937163107
  - # 18
    frequency:   14.1030293314
  - # 19
    frequency:   14.1479714588
  - # 20
    frequency:   14.1776233893
  - # 21
    frequency:   18.1107997913
  - # 22
    frequency:   18.9969280634
  - # 23
    frequency:   19.2017868201
  - # 24
    frequency:   31.5851255386
  - # 25
    frequency:   31.6068935280
  - # 26
    frequency:   67.3948600493
  - # 27
    frequency:   67.3953300568

- q-position: [    0.0858586,    0.0000000,    0.0000000 ]
  distance:    0.0312232
  band:
  - # 1
    frequency:    0.6078142555
  - # 2
    frequency:    0.8846011684
  - # 3
    frequency:    1.1955465259
  - # 4
    frequency:    1.6620416447
  - # 5
    frequency:    1.7887321317
  - # 6
    frequency:    1.8261213664
  - # 7
    frequency:    2.4943760917
  - # 8
    frequency:    5.3286177422
  - # 9
    frequency:    5.4614969679
  - # 10
    frequency:    5.9953572548
  - # 11
    frequency:    7.0385133649
  - # 12
    frequency:    7.2822003374
  - # 13
    frequency:    7.4533918478
  - # 14
    frequency:    7.5343285634
  - # 15
    frequency:    9.7003549185
  - # 16
    frequency:   12.7004742433
  - # 17
    frequency:   14.0958912826
  - # 18
    frequency:   14.1048804449
  - # 19
    frequency:   14.1570365630
  - # 20
    frequency:   14.1878000140
  - # 21
    frequency:   18.0976208236
  - # 22
    frequency:   18.9888771256
  - # 23
    frequency:   19.2153638442
  - # 24
    frequency:   31.5749269658
  - # 25
    frequency:   31.5961128166
  - # 26
    frequency:   67.3901101241
  - # 27
    frequency:   67.3905838411

- q-position: [    0.0909091,    0.0000000,    0.0000000 ]
  distance:    0.0330599
  band:
  - # 1
    frequency:    0.6690593810
  - # 2
    frequency:    0.9194007506
  - # 3
    frequency:    1.2149987846
  - # 4
    frequency:    1.7423192760
  - # 5
    frequency:    1.8571232522
  - # 6
    frequency:    1.8974048846
  - # 7
    frequency:    2.6160037181
  - # 8
    frequency:    5.3431882961
  - # 9
    frequency:    5.4895259649
  - # 10
    frequency:    5.9876965009
  - # 11
    frequency:    7.0280686505
  - # 12
    frequency:    7.2962600401
  - # 13
    frequency:    7.4637069372
  - # 14
    frequency:    7.5549889704
  - # 15
    frequency:    9.7020684504
  - # 16
    frequency:   12.6619654701
  - # 17
    frequency:   14.0981274449
  - # 18
    frequency:   14.1068805100
  - # 19
    frequency:   14.1665637393
  - # 20
    frequency:   14.1983829763
  - # 21
    frequency:   18.0838572187
  - # 22
    frequency:   18.9807603965
  - # 23
    frequency:   19.2290833674
  - # 24
    frequency:   31.5642494661
  - # 25
    frequency:   31.5848311630
  - # 26
    frequency:   67.3851238000
  - # 27
    frequency:   67.3856013717

- q-position: [    0.0959596,    0.0000000,    0.0000000 ]
  distance:    0.0348965
  band:
  - # 1
    frequency:    0.7323376170
  - # 2
    frequency:    0.9534670511
  - # 3
    frequency:    1.2351725528
  - # 4
    frequency:    1.8221059835
  - # 5
    frequency:    1.9267502588
  - # 6
    frequency:    1.9693363913
  - # 7
    frequency:    2.7379297031
  - # 8
    frequency:    5.3582482233
  - # 9
    frequency:    5.5183063403
  - # 10
    frequency:    5.9804145769
  - # 11
    frequency:    7.0175032875
  - # 12
    frequency:    7.3109853964
  - # 13
    frequency:    7.4737886440
  - # 14
    frequency:    7.5758109559
  - # 15
    frequency:    9.7038810134
  - # 16
    frequency:   12.6218132439
  - # 17
    frequency:   14.1004109086
  - # 18
    frequency:   14.1090376644
  - # 19
    frequency:   14.1765380075
  - # 20
    frequency:   14.2093542692
  - # 21
    frequency:   18.0695424109
  - # 22
    frequency:   18.9726412931
  - # 23
    frequency:   19.2428452502
  - # 24
    frequency:   31.5531158199
  - # 25
    frequency:   31.5730733079
  - # 26
    frequency:   67.3799095957
  - # 27
    frequency:   67.3803911583

- q-position: [    0.1010101,    0.0000000,    0.0000000 ]
  distance:    0.0367332
  band:
  - # 1
    frequency:    0.7975537252
  - # 2
    frequency:    0.9869674357
  - # 3
    frequency:    1.2560391587
  - # 4
    frequency:    1.9014512825
  - # 5
    frequency:    1.9973396029
  - # 6
    frequency:    2.0417636404
  - # 7
    frequency:    2.8598358612
  - # 8
    frequency:    5.3737538443
  - # 9
    frequency:    5.5477394028
  - # 10
    frequency:    5.9735915125
  - # 11
    frequency:    7.0068250181
  - # 12
    frequency:    7.3263371586
  - # 13
    frequency:    7.4835828498
  - # 14
    frequency:    7.5967047525
  - # 15
    frequency:    9.7057988139
  - # 16
    frequency:   12.5800871910
  - # 17
    frequency:   14.1027292560
  - # 18
    frequency:   14.1113583121
  - # 19
    frequency:   14.1869437914
  - # 20
    frequency:   14.2206971065
  - # 21
    frequency:   18.0547106139
  - # 22
    frequency:   18.9645839097
  - # 23
    frequency:   19.2565487563
  - # 24
    frequency:   31.5415496227
  - # 25
    frequency:   31.5608648247
  - # 26
    frequency:   67.3744763613
  - # 27
    frequency:   67.3749620431

- q-position: [    0.1060606,    0.0000000,    0.0000000 ]
  distance:    0.0385698
  band:
  - # 1
    frequency:    0.8646116706
  - # 2
    frequency:    1.0200398967
  - # 3
    frequency:    1.2775692574
  - # 4
    frequency:    1.9803799485
  - # 5
    frequency:    2.0686572962
  - # 6
    frequency:    2.1145505193
  - # 7
    frequency:    2.9814447821
  - # 8
    frequency:    5.3896617607
  - # 9
    frequency:    5.5777288297
  - # 10
    frequency:    5.9673049027
  - # 11
    frequency:    6.9960412772
  - # 12
    frequency:    7.3422740043
  - # 13
    frequency:    7.4930363047
  - # 14
    frequency:    7.6175850890
  - # 15
    frequency:    9.7078293477
  - # 16
    frequency:   12.5368577390
  - # 17
    frequency:   14.1050730121
  - # 18
    frequency:   14.1138456629
  - # 19
    frequency:   14.1977649632
  - # 20
    frequency:   14.2323957792
  - # 21
    frequency:   18.0393966775
  - # 22
    frequency:   18.9566526093
  - # 23
    frequency:   19.2700932064
  - # 24
    frequency:   31.5295752120
  - # 25
    frequency:   31.5482320364
  - # 26
    frequency:   67.3688332555
  - # 27
    frequency:   67.3693231769

- q-position: [    0.1111111,    0.0000000,    0.0000000 ]
  distance:    0.0404065
  band:
  - # 1
    frequency:    0.9334149722
  - # 2
    frequency:    1.0527966591
  - # 3
    frequency:    1.2997330868
  - # 4
    frequency:    2.0588989313
  - # 5
    frequency:    2.1405045531
  - # 6
    frequency:    2.1875749654
  - # 7
    frequency:    3.1025092089
  - # 8
    frequency:    5.4059289886
  - # 9
    frequency:    5.6081808494
  - # 10
    frequency:    5.9616304885
  - # 11
    frequency:    6.9851594573
  - # 12
    frequency:    7.3587526674
  - # 13
    frequency:    7.5020968120
  - # 14
    frequency:    7.6383711841
  - # 15
    frequency:    9.7099813358
  - # 16
    frequency:   12.4921961665
  - # 17
    frequency:   14.1074366502
  - # 18
    frequency:   14.1164987395
  - # 19
    frequency:   14.2089848893
  - # 20
    frequency:   14.2444355046
  - # 21
    frequency:   18.0236359464
  - # 22
    frequency:   18.9489116161
  - # 23
    frequency:   19.2833786202
  - # 24
    frequency:   31.5172175922
  - # 25
    frequency:   31.5352019305
  - # 26
    frequency:   67.3629897213
  - # 27
    frequency:   67.3634839957

- q-position: [    0.1161616,    0.0000000,    0.0000000 ]
  distance:    0.0422432
  band:
  - # 1
    frequency:    1.0038671157
  - # 2
    frequency:    1.0853279527
  - # 3
    frequency:    1.3225006848
  - # 4
    frequency:    2.1370025003
  - # 5
    frequency:    2.2127132818
  - # 6
    frequency:    2.2607271463
  - # 7
    frequency:    3.2228037610
  - # 8
    frequency:    5.4225130572
  - # 9
    frequency:    5.6390042497
  - # 10
    frequency:    5.9566429491
  - # 11
    frequency:    6.9741870855
  - # 12
    frequency:    7.3757280345
  - # 13
    frequency:    7.5107135058
  - # 14
    frequency:    7.6589867448
  - # 15
    frequency:    9.7122646142
  - # 16
    frequency:   12.4461746545
  - # 17
    frequency:   14.1098186944
  - # 18
    frequency:   14.1193122871
  - # 19
    frequency:   14.2205864791
  - # 20
    frequency:   14.2568022778
  - # 21
    frequency:   18.0074641235
  - # 22
    frequency:   18.9414246083
  - # 23
    frequency:   19.2963063450
  - # 24
    frequency:   31.5045023567
  - # 25
    frequency:   31.5218020751
  - # 26
    frequency:   67.3569554614
  - # 27
    frequency:   67.3574541952

- q-position: [    0.1212121,    0.0000000,    0.0000000 ]
  distance:    0.0440798
  band:
  - # 1
    frequency:    1.0758719780
  - # 2
    frequency:    1.1177055772
  - # 3
    frequency:    1.3458420665
  - # 4
    frequency:    2.2146760243
  - # 5
    frequency:    2.2851418022
  - # 6
    frequency:    2.3339078849
  - # 7
    frequency:    3.3421184819
  - # 8
    frequency:    5.4393720763
  - # 9
    frequency:    5.6701101441
  - # 10
    frequency:    5.9524169757