nqpoint: 300    
npath: 3      
segment_nqpoint:
- 100
- 100
- 100
labels:
- [ 'G', 'M' ]
- [ 'M', 'K' ]
- [ 'K', 'G' ]
reciprocal_lattice:
- [   0.29986498,   0.17312713,   0.00000000 ] # a*
- [   0.00000000,   0.34625426,   0.00000000 ] # b*
- [   0.00000000,   0.00000000,   0.03916600 ] # c*
natom: 7      
lattice:
- [     3.334834201360044,     0.000000000000000,     0.000000000000000 ] # a
- [    -1.667417100680022,     2.888051135780675,     0.000000000000000 ] # b
- [     0.000000000000000,     0.000000000000000,    25.532349875404407 ] # c
points:
- symbol: C # 1
  coordinates: [  0.000000000000000,  0.000000000000000,  0.445729707803002 ]
  mass: 12.010700
- symbol: C # 2
  coordinates: [  0.333332985432215,  0.666666983183674,  0.600322179711097 ]
  mass: 12.010700
- symbol: N # 3
  coordinates: [  0.333332985432215,  0.666666983183674,  0.551467267302055 ]
  mass: 14.006700
- symbol: O # 4
  coordinates: [  0.333332985432215,  0.666666983183674,  0.647506005364990 ]
  mass: 15.999400
- symbol: O # 5
  coordinates: [  0.666666984744047,  0.333332985985145,  0.352493994635010 ]
  mass: 15.999400
- symbol: Zr # 6
  coordinates: [  0.333332985432215,  0.666666983183674,  0.389881944008717 ]
  mass: 91.224000
- symbol: Zr # 7
  coordinates: [  0.666666984744047,  0.333332985985145,  0.494710839924962 ]
  mass: 91.224000

phonon:
- q-position: [    0.0000000,    0.0000000,    0.0000000 ]
  distance:    0.0000000
  band:
  - # 1
    frequency:   -1.1059388934
  - # 2
    frequency:   -1.1059388934
  - # 3
    frequency:   -0.0000028925
  - # 4
    frequency:    0.0000004882
  - # 5
    frequency:    0.0000028089
  - # 6
    frequency:    3.5473162300
  - # 7
    frequency:    3.5473162300
  - # 8
    frequency:    5.8043637902
  - # 9
    frequency:    6.2230059998
  - # 10
    frequency:    6.2230059998
  - # 11
    frequency:    8.9346256737
  - # 12
    frequency:    9.3522691627
  - # 13
    frequency:    9.3522691627
  - # 14
    frequency:   14.9275029793
  - # 15
    frequency:   15.0932185635
  - # 16
    frequency:   15.0932185635
  - # 17
    frequency:   16.8674534185
  - # 18
    frequency:   16.8674534185
  - # 19
    frequency:   18.2371417155
  - # 20
    frequency:   38.3366079512
  - # 21
    frequency:   69.1422454923

- q-position: [    0.0050505,    0.0000000,    0.0000000 ]
  distance:    0.0017488
  band:
  - # 1
    frequency:   -1.1052404120
  - # 2
    frequency:   -1.1037281241
  - # 3
    frequency:   -0.3382647715
  - # 4
    frequency:    0.0800891509
  - # 5
    frequency:    0.3616133078
  - # 6
    frequency:    3.5477107823
  - # 7
    frequency:    3.5496382237
  - # 8
    frequency:    5.8037686510
  - # 9
    frequency:    6.2233694307
  - # 10
    frequency:    6.2242334921
  - # 11
    frequency:    8.9336235435
  - # 12
    frequency:    9.3517976204
  - # 13
    frequency:    9.3520010525
  - # 14
    frequency:   14.9233606767
  - # 15
    frequency:   15.0923092003
  - # 16
    frequency:   15.0944672087
  - # 17
    frequency:   16.8675184268
  - # 18
    frequency:   16.8676276345
  - # 19
    frequency:   18.2363340538
  - # 20
    frequency:   38.3365677553
  - # 21
    frequency:   69.1406685859

- q-position: [    0.0101010,    0.0000000,    0.0000000 ]
  distance:    0.0034975
  band:
  - # 1
    frequency:   -1.1031635382
  - # 2
    frequency:   -1.0971280727
  - # 3
    frequency:   -0.4623377200
  - # 4
    frequency:    0.1602328919
  - # 5
    frequency:    0.5284376470
  - # 6
    frequency:    3.5488930752
  - # 7
    frequency:    3.5565764573
  - # 8
    frequency:    5.8020077498
  - # 9
    frequency:    6.2244592083
  - # 10
    frequency:    6.2278884245
  - # 11
    frequency:    8.9306228387
  - # 12
    frequency:    9.3503668417
  - # 13
    frequency:    9.3511939587
  - # 14
    frequency:   14.9114239921
  - # 15
    frequency:   15.0895851973
  - # 16
    frequency:   15.0977334414
  - # 17
    frequency:   16.8677132385
  - # 18
    frequency:   16.8681505007
  - # 19
    frequency:   18.2339155097
  - # 20
    frequency:   38.3364474368
  - # 21
    frequency:   69.1359427691

- q-position: [    0.0151515,    0.0000000,    0.0000000 ]
  distance:    0.0052463
  band:
  - # 1
    frequency:   -1.0997616492
  - # 2
    frequency:   -1.0862325221
  - # 3
    frequency:   -0.5468485228
  - # 4
    frequency:    0.2404730851
  - # 5
    frequency:    0.6684690698
  - # 6
    frequency:    3.5508590575
  - # 7
    frequency:    3.5680488175
  - # 8
    frequency:    5.7991515847
  - # 9
    frequency:    6.2262737956
  - # 10
    frequency:    6.2338912537
  - # 11
    frequency:    8.9256402657
  - # 12
    frequency:    9.3479290255
  - # 13
    frequency:    9.3498396509
  - # 14
    frequency:   14.8928216996
  - # 15
    frequency:   15.0850587855
  - # 16
    frequency:   15.1019200933
  - # 17
    frequency:   16.8680372254
  - # 18
    frequency:   16.8690226360
  - # 19
    frequency:   18.2298993381
  - # 20
    frequency:   38.3362478024
  - # 21
    frequency:   69.1280827251

- q-position: [    0.0202020,    0.0000000,    0.0000000 ]
  distance:    0.0069950
  band:
  - # 1
    frequency:   -1.0951163590
  - # 2
    frequency:   -1.0711897011
  - # 3
    frequency:   -0.6091449821
  - # 4
    frequency:    0.3208280486
  - # 5
    frequency:    0.7968073325
  - # 6
    frequency:    3.5536021115
  - # 7
    frequency:    3.5839220959
  - # 8
    frequency:    5.7953083566
  - # 9
    frequency:    6.2288106577
  - # 10
    frequency:    6.2421188331
  - # 11
    frequency:    8.9187025528
  - # 12
    frequency:    9.3444066306
  - # 13
    frequency:    9.3479246083
  - # 14
    frequency:   14.8687396747
  - # 15
    frequency:   15.0787502544
  - # 16
    frequency:   15.1058941025
  - # 17
    frequency:   16.8684893796
  - # 18
    frequency:   16.8702449582
  - # 19
    frequency:   18.2243074060
  - # 20
    frequency:   38.3359701909
  - # 21
    frequency:   69.1171128418

- q-position: [    0.0252525,    0.0000000,    0.0000000 ]
  distance:    0.0087438
  band:
  - # 1
    frequency:   -1.0893279244
  - # 2
    frequency:   -1.0521967310
  - # 3
    frequency:   -0.6559350206
  - # 4
    frequency:    0.4012851649
  - # 5
    frequency:    0.9189863424
  - # 6
    frequency:    3.5571132489
  - # 7
    frequency:    3.6040170556
  - # 8
    frequency:    5.7906126555
  - # 9
    frequency:    6.2320662997
  - # 10
    frequency:    6.2524159118
  - # 11
    frequency:    8.9098449485
  - # 12
    frequency:    9.3396953980
  - # 13
    frequency:    9.3454303127
  - # 14
    frequency:   14.8401255479
  - # 15
    frequency:   15.0706878115
  - # 16
    frequency:   15.1087820459
  - # 17
    frequency:   16.8690683682
  - # 18
    frequency:   16.8718185214
  - # 19
    frequency:   18.2171698602
  - # 20
    frequency:   38.3356164653
  - # 21
    frequency:   69.1030670880

- q-position: [    0.0303030,    0.0000000,    0.0000000 ]
  distance:    0.0104926
  band:
  - # 1
    frequency:   -1.0825043366
  - # 2
    frequency:   -1.0295049837
  - # 3
    frequency:   -0.6904373431
  - # 4
    frequency:    0.4817977136
  - # 5
    frequency:    1.0375962945
  - # 6
    frequency:    3.5613813735
  - # 7
    frequency:    3.6281147900
  - # 8
    frequency:    5.7852136787
  - # 9
    frequency:    6.2360363149
  - # 10
    frequency:    6.2646071614
  - # 11
    frequency:    8.8991094222
  - # 12
    frequency:    9.3336682876
  - # 13
    frequency:    9.3423336551
  - # 14
    frequency:   14.8076655322
  - # 15
    frequency:   15.0609073919
  - # 16
    frequency:   15.1099935282
  - # 17
    frequency:   16.8697726049
  - # 18
    frequency:   16.8737443035
  - # 19
    frequency:   18.2085246709
  - # 20
    frequency:   38.3351890011
  - # 21
    frequency:   69.0859888399

- q-position: [    0.0353535,    0.0000000,    0.0000000 ]
  distance:    0.0122413
  band:
  - # 1
    frequency:   -1.0747509028
  - # 2
    frequency:   -1.0034496578
  - # 3
    frequency:   -0.7141856070
  - # 4
    frequency:    0.5622858688
  - # 5
    frequency:    1.1539529807
  - # 6
    frequency:    3.5663936007
  - # 7
    frequency:    3.6559637909
  - # 8
    frequency:    5.7792650151
  - # 9
    frequency:    6.2407154395
  - # 10
    frequency:    6.2785076810
  - # 11
    frequency:    8.8865427830
  - # 12
    frequency:    9.3261801180
  - # 13
    frequency:    9.3386074511
  - # 14
    frequency:   14.7718532070
  - # 15
    frequency:   15.0494524229
  - # 16
    frequency:   15.1091526058
  - # 17
    frequency:   16.8706003318
  - # 18
    frequency:   16.8760229590
  - # 19
    frequency:   18.1984170614
  - # 20
    frequency:   38.3346906717
  - # 21
    frequency:   69.0659306599

- q-position: [    0.0404040,    0.0000000,    0.0000000 ]
  distance:    0.0139901
  band:
  - # 1
    frequency:   -1.0661617921
  - # 2
    frequency:   -0.9745186393
  - # 3
    frequency:   -0.7276200092
  - # 4
    frequency:    0.6426410372
  - # 5
    frequency:    1.2687107534
  - # 6
    frequency:    3.5721356197
  - # 7
    frequency:    3.6872871420
  - # 8
    frequency:    5.7729170723
  - # 9
    frequency:    6.2460976083
  - # 10
    frequency:    6.2939308879
  - # 11
    frequency:    8.8721949103
  - # 12
    frequency:    9.3170727321
  - # 13
    frequency:    9.3342210621
  - # 14
    frequency:   14.7330586458
  - # 15
    frequency:   15.0363735495
  - # 16
    frequency:   15.1060288095
  - # 17
    frequency:   16.8715497056
  - # 18
    frequency:   16.8786545530
  - # 19
    frequency:   18.1868988350
  - # 20
    frequency:   38.3341248303
  - # 21
    frequency:   69.0429540293

- q-position: [    0.0454545,    0.0000000,    0.0000000 ]
  distance:    0.0157388
  band:
  - # 1
    frequency:   -1.0568143913
  - # 2
    frequency:   -0.9434597791
  - # 3
    frequency:   -0.7302521828
  - # 4
    frequency:    0.7227322404
  - # 5
    frequency:    1.3821424632
  - # 6
    frequency:    3.5785920864
  - # 7
    frequency:    3.7217893304
  - # 8
    frequency:    5.7663123324
  - # 9
    frequency:    6.2521760052
  - # 10
    frequency:    6.3106935903
  - # 11
    frequency:    8.8561172344
  - # 12
    frequency:    9.3061805568
  - # 13
    frequency:    9.3291411154
  - # 14
    frequency:   14.6915772960
  - # 15
    frequency:   15.0217283282
  - # 16
    frequency:   15.1004883045
  - # 17
    frequency:   16.8726188824
  - # 18
    frequency:   16.8816382926
  - # 19
    frequency:   18.1740276121
  - # 20
    frequency:   38.3334952883
  - # 21
    frequency:   69.0171290361

- q-position: [    0.0505051,    0.0000000,    0.0000000 ]
  distance:    0.0174876
  band:
  - # 1
    frequency:   -1.0467666016
  - # 2
    frequency:   -0.9113391011
  - # 3
    frequency:   -0.7207045985
  - # 4
    frequency:    0.8024131748
  - # 5
    frequency:    1.4942872460
  - # 6
    frequency:    3.5857470290
  - # 7
    frequency:    3.7591622820
  - # 8
    frequency:    5.7595830476
  - # 9
    frequency:    6.2589431019
  - # 10
    frequency:    6.3286186153
  - # 11
    frequency:    8.8383615538
  - # 12
    frequency:    9.2933364912
  - # 13
    frequency:    9.3233323181
  - # 14
    frequency:   14.6476610642
  - # 15
    frequency:   15.0055808930
  - # 16
    frequency:   15.0924626750
  - # 17
    frequency:   16.8738060943
  - # 18
    frequency:   16.8849722752
  - # 19
    frequency:   18.1598659948
  - # 20
    frequency:   38.3328062906
  - # 21
    frequency:   68.9885340198

- q-position: [    0.0555556,    0.0000000,    0.0000000 ]
  distance:    0.0192363
  band:
  - # 1
    frequency:   -1.0360566399
  - # 2
    frequency:   -0.8792618157
  - # 3
    frequency:   -0.6969694649
  - # 4
    frequency:    0.8815288371
  - # 5
    frequency:    1.6050362074
  - # 6
    frequency:    3.5935842536
  - # 7
    frequency:    3.7990903577
  - # 8
    frequency:    5.7528507458
  - # 9
    frequency:    6.2663906786
  - # 10
    frequency:    6.3475356020
  - # 11
    frequency:    8.8189792199
  - # 12
    frequency:    9.2783781059
  - # 13
    frequency:    9.3167583573
  - # 14
    frequency:   14.6015374067
  - # 15
    frequency:   14.9880016017
  - # 16
    frequency:   15.0819294806
  - # 17
    frequency:   16.8751097122
  - # 18
    frequency:   16.8886532662
  - # 19
    frequency:   18.1444806757
  - # 20
    frequency:   38.3320624875
  - # 21
    frequency:   68.9572551756

- q-position: [    0.0606061,    0.0000000,    0.0000000 ]
  distance:    0.0209851
  band:
  - # 1
    frequency:   -1.0247045997
  - # 2
    frequency:   -0.8475240756
  - # 3
    frequency:   -0.6571013195
  - # 4
    frequency:    0.9599210380
  - # 5
    frequency:    1.7141847591
  - # 6
    frequency:    3.6020877327
  - # 7
    frequency:    3.8412541786
  - # 8
    frequency:    5.7462269114
  - # 9
    frequency:    6.2745098195
  - # 10
    frequency:    6.3672805826
  - # 11
    frequency:    8.7980206900
  - # 12
    frequency:    9.2611541660
  - # 13
    frequency:    9.3093828806
  - # 14
    frequency:   14.5534208996
  - # 15
    frequency:   14.9690666648
  - # 16
    frequency:   15.0689000543
  - # 17
    frequency:   16.8765282901
  - # 18
    frequency:   16.8926765210
  - # 19
    frequency:   18.1279415095
  - # 20
    frequency:   38.3312689035
  - # 21
    frequency:   68.9233861201

- q-position: [    0.0656566,    0.0000000,    0.0000000 ]
  distance:    0.0227339
  band:
  - # 1
    frequency:   -1.0127149775
  - # 2
    frequency:   -0.8149157279
  - # 3
    frequency:   -0.5995115423
  - # 4
    frequency:    1.0374325585
  - # 5
    frequency:    1.8214651836
  - # 6
    frequency:    3.6112419625
  - # 7
    frequency:    3.8853332521
  - # 8
    frequency:    5.7398143055
  - # 9
    frequency:    6.2832908768
  - # 10
    frequency:    6.3876948728
  - # 11
    frequency:    8.7755354332
  - # 12
    frequency:    9.2415315018
  - # 13
    frequency:    9.3011705482
  - # 14
    frequency:   14.5035201379
  - # 15
    frequency:   14.9488577617
  - # 16
    frequency:   15.0534116525
  - # 17
    frequency:   16.8780605884
  - # 18
    frequency:   16.8970356599
  - # 19
    frequency:   18.1103205681
  - # 20
    frequency:   38.3304309024
  - # 21
    frequency:   68.8870274216

- q-position: [    0.0707071,    0.0000000,    0.0000000 ]
  distance:    0.0244826
  band:
  - # 1
    frequency:   -1.0000795037
  - # 2
    frequency:   -0.7791468039
  - # 3
    frequency:   -0.5215187248
  - # 4
    frequency:    1.1139100245
  - # 5
    frequency:    1.9265667006
  - # 6
    frequency:    3.6210322774
  - # 7
    frequency:    3.9310074580
  - # 8
    frequency:    5.7337085159
  - # 9
    frequency:    6.2927233981
  - # 10
    frequency:    6.4086236681
  - # 11
    frequency:    8.7515721788
  - # 12
    frequency:    9.2194022332
  - # 13
    frequency:    9.2920881494
  - # 14
    frequency:   14.4520416765
  - # 15
    frequency:   14.9274616458
  - # 16
    frequency:   15.0355222092
  - # 17
    frequency:   16.8797055728
  - # 18
    frequency:   16.9017226020
  - # 19
    frequency:   18.0916911983
  - # 20
    frequency:   38.3295541500
  - # 21
    frequency:   68.8482860975

- q-position: [    0.0757576,    0.0000000,    0.0000000 ]
  distance:    0.0262314
  band:
  - # 1
    frequency:   -0.9867798196
  - # 2
    frequency:   -0.7376891966
  - # 3
    frequency:   -0.4153285030
  - # 4
    frequency:    1.1892057514
  - # 5
    frequency:    2.0291473469
  - # 6
    frequency:    3.6314451080
  - # 7
    frequency:    3.9779575135
  - # 8
    frequency:    5.7279994329
  - # 9
    frequency:    6.3027960116
  - # 10
    frequency:    6.4299146433
  - # 11
    frequency:    8.7261795170
  - # 12
    frequency:    9.1946913078
  - # 13
    frequency:    9.2821057763
  - # 14
    frequency:   14.3991920359
  - # 15
    frequency:   14.9049697395
  - # 16
    frequency:   15.0153066565
  - # 17
    frequency:   16.8814623889
  - # 18
    frequency:   16.9067275585
  - # 19
    frequency:   18.0721271030
  - # 20
    frequency:   38.3286445734
  - # 21
    frequency:   68.8072750817

- q-position: [    0.0808081,    0.0000000,    0.0000000 ]
  distance:    0.0279801
  band:
  - # 1
    frequency:   -0.9727897400
  - # 2
    frequency:   -0.6880188946
  - # 3
    frequency:   -0.2510919932
  - # 4
    frequency:    1.2631788652
  - # 5
    frequency:    2.1288404089
  - # 6
    frequency:    3.6424681751
  - # 7
    frequency:    4.0258645882
  - # 8
    frequency:    5.7227724122
  - # 9
    frequency:    6.3134962661
  - # 10
    frequency:    6.4514167872
  - # 11
    frequency:    8.6994068956
  - # 12
    frequency:    9.1673642509
  - # 13
    frequency:    9.2711980446
  - # 14
    frequency:   14.3451783976
  - # 15
    frequency:   14.8814777181
  - # 16
    frequency:   14.9928541901
  - # 17
    frequency:   16.8833303135
  - # 18
    frequency:   16.9120390854
  - # 19
    frequency:   18.0517014638
  - # 20
    frequency:   38.3277083178
  - # 21
    frequency:   68.7641126663

- q-position: [    0.0858586,    0.0000000,    0.0000000 ]
  distance:    0.0297289
  band:
  - # 1
    frequency:   -0.9580769952
  - # 2
    frequency:   -0.6272470885
  - # 3
    frequency:    0.2346874442
  - # 4
    frequency:    1.3356959813
  - # 5
    frequency:    2.2252572019
  - # 6
    frequency:    3.6540906127
  - # 7
    frequency:    4.0744092804
  - # 8
    frequency:    5.7181089151
  - # 9
    frequency:    6.3248104231
  - # 10
    frequency:    6.4729796803
  - # 11
    frequency:    8.6713060973
  - # 12
    frequency:    9.1374349269
  - # 13
    frequency:    9.2593453545
  - # 14
    frequency:   14.2902083844
  - # 15
    frequency:   14.8570850831
  - # 16
    frequency:   14.9682661081
  - # 17
    frequency:   16.8853086833
  - # 18
    frequency:   16.9176441875
  - # 19
    frequency:   18.0304861244
  - # 20
    frequency:   38.3267517005
  - # 21
    frequency:   68.7189219194

- q-position: [    0.0909091,    0.0000000,    0.0000000 ]
  distance:    0.0314777
  band:
  - # 1
    frequency:   -0.9426044415
  - # 2
    frequency:   -0.5512002457
  - # 3
    frequency:    0.4255600360
  - # 4
    frequency:    1.4066316602
  - # 5
    frequency:    2.3179873870
  - # 6
    frequency:    3.6663030154
  - # 7
    frequency:    4.1232702191
  - # 8
    frequency:    5.7140864086
  - # 9
    frequency:    6.3367232018
  - # 10
    frequency:    6.4944534431
  - # 11
    frequency:    8.6419333285
  - # 12
    frequency:    9.1049729949
  - # 13
    frequency:    9.2465351812
  - # 14
    frequency:   14.2344891973
  - # 15
    frequency:   14.8318947210
  - # 16
    frequency:   14.9416539988
  - # 17
    frequency:   16.8873968056
  - # 18
    frequency:   16.9235284674
  - # 19
    frequency:   18.0085508515
  - # 20
    frequency:   38.3257811632
  - # 21
    frequency:   68.6718300843

- q-position: [    0.0959596,    0.0000000,    0.0000000 ]
  distance:    0.0332264
  band:
  - # 1
    frequency:   -0.9263307792
  - # 2
    frequency:   -0.4520599829
  - # 3
    frequency:    0.5608458504
  - # 4
    frequency:    1.4758687938
  - # 5
    frequency:    2.4065976055
  - # 6
    frequency:    3.6790974101
  - # 7
    frequency:    4.1721226155
  - # 8
    frequency:    5.7107772801
  - # 9
    frequency:    6.3492174754
  - # 10
    frequency:    6.5156896265
  - # 11
    frequency:    8.6113520874
  - # 12
    frequency:    9.0701106020
  - # 13
    frequency:    9.2327633855
  - # 14
    frequency:   14.1782263134
  - # 15
    frequency:   14.8060124473
  - # 16
    frequency:   14.9131381449
  - # 17
    frequency:   16.8895938536
  - # 18
    frequency:   16.9296763072
  - # 19
    frequency:   17.9859626851
  - # 20
    frequency:   38.3248032224
  - # 21
    frequency:   68.6229679631

- q-position: [    0.1010101,    0.0000000,    0.0000000 ]
  distance:    0.0349752
  band:
  - # 1
    frequency:   -0.9092108326
  - # 2
    frequency:   -0.3084930399
  - # 3
    frequency:    0.6746210486
  - # 4
    frequency:    1.5432990111
  - # 5
    frequency:    2.4906289326
  - # 6
    frequency:    3.6924671543
  - # 7
    frequency:    4.2206371700
  - # 8
    frequency:    5.7082464791
  - # 9
    frequency:    6.3622739242
  - # 10
    frequency:    6.5365433910
  - # 11
    frequency:    8.5796369867
  - # 12
    frequency:    9.0330477106
  - # 13
    frequency:    9.2180355328
  - # 14
    frequency:   14.1216219123
  - # 15
    frequency:   14.7795465327
  - # 16
    frequency:   14.8828460658
  - # 17
    frequency:   16.8918987509
  - # 18
    frequency:   16.9360710719
  - # 19
    frequency:   17.9627853940
  - # 20
    frequency:   38.3238244175
  - # 21
    frequency:   68.5724692882

- q-position: [    0.1060606,    0.0000000,    0.0000000 ]
  distance:    0.0367239
  band:
  - # 1
    frequency:   -0.8911954417
  - # 2
    frequency:    0.1530773341
  - # 3
    frequency:    0.7762604999
  - # 4
    frequency:    1.6088231488
  - # 5
    frequency:    2.5695934701
  - # 6
    frequency:    3.7064067682
  - # 7
    frequency:    4.2684798233
  - # 8
    frequency:    5.7065475732
  - # 9
    frequency:    6.3758706487
  - # 10
    frequency:    6.5568774035
  - # 11
    frequency:    8.5468786598
  - # 12
    frequency:    8.9940553333
  - # 13
    frequency:    9.2023682094
  - # 14
    frequency:   14.0648731818
  - # 15
    frequency:   14.7526072100
  - # 16
    frequency:   14.8509111572
  - # 17
    frequency:   16.8943100505
  - # 18
    frequency:   16.9426953215
  - # 19
    frequency:   17.9390790427
  - # 20
    frequency:   38.3228512590
  - # 21
    frequency:   68.5204700863

- q-position: [    0.1111111,    0.0000000,    0.0000000 ]
  distance:    0.0384727
  band:
  - # 1
    frequency:   -0.8722309955
  - # 2
    frequency:    0.3885696235
  - # 3
    frequency:    0.8699228031
  - # 4
    frequency:    1.6723517979
  - # 5
    frequency:    2.6429702950
  - # 6
    frequency:    3.7209117091
  - # 7
    frequency:    4.3153129246
  - # 8
    frequency:    5.7057169173
  - # 9
    frequency:    6.3899827493
  - # 10
    frequency:    6.5765679587
  - # 11
    frequency:    8.5131897108
  - # 12
    frequency:    8.9534758995
  - # 13
    frequency:    9.1857903191
  - # 14
    frequency:   14.0081706402
  - # 15
    frequency:   14.7253061609
  - # 16
    frequency:   14.8174714083
  - # 17
    frequency:   16.8968258125
  - # 18
    frequency:   16.9495310179
  - # 19
    frequency:   17.9148996801
  - # 20
    frequency:   38.3218901760
  - # 21
    frequency:   68.4671080385

- q-position: [    0.1161616,    0.0000000,    0.0000000 ]
  distance:    0.0402215
  band:
  - # 1
    frequency:   -0.8522586135
  - # 2
    frequency:    0.5356647865
  - # 3
    frequency:    0.9578542295
  - # 4
    frequency:    1.7338059148
  - # 5
    frequency:    2.7102009516
  - # 6
    frequency:    3.7359781028
  - # 7
    frequency:    4.3607984252
  - # 8
    frequency:    5.7057657489
  - # 9
    frequency:    6.4045818816
  - # 10
    frequency:    6.5955138501
  - # 11
    frequency:    8.4787113396
  - # 12
    frequency:    8.9117200766
  - # 13
    frequency:    9.1683443462
  - # 14
    frequency:   13.9516966039
  - # 15
    frequency:   14.6977559832
  - # 16
    frequency:   14.7826681903
  - # 17
    frequency:   16.8994434855
  - # 18
    frequency:   16.9565597151
  - # 19
    frequency:   17.8902991517
  - # 20
    frequency:   38.3209474627
  - # 21
    frequency:   68.4125218409

- q-position: [    0.1212121,    0.0000000,    0.0000000 ]
  distance:    0.0419702
  band:
  - # 1
    frequency:   -0.8312129491
  - # 2
    frequency:    0.6562487788
  - # 3
    frequency:    1.0414043029
  - # 4
    frequency:    1.7931174758
  - # 5
    frequency:    2.7706847279
  - # 6
    frequency:    3.7516024474
  - # 7
    frequency:    4.4046036569
  - # 8
    frequency:    5.7066702846
  - # 9
    frequency:    6.4196357972
  - # 10
    frequency:    6.6136484191
  - # 11
    frequency:    8.4436197161
  - # 12
    frequency:    8.8692597029
  - # 13
    frequency:    9.1500875630
  - # 14
    frequency:   13.8956239138
  - # 15
    frequency:   14.6700696384
  - # 16
    frequency:   14.7466451214
  - # 17
    frequency:   16.9021597969
  - # 18
    frequency:   16.9637627184
  - # 19
    frequency:   17.8653250415
  - # 20
    frequency:   38.3200292267
  - # 21
    frequency:   68.3568505694

- q-position: [    0.1262626,    0.0000000,    0.0000000 ]
  distance:    0.0437190
  band:
  - # 1
    frequency:   -0.8090205520
  - # 2
    frequency:    0.7625651593
  - # 3
    frequency:    1.1214336654
  - # 4
    frequency:    1.8502301446
  - # 5
    frequency:    2.8237741084
  - # 6
    frequency:    3.7677813088
  - # 7
    frequency:    4.4464100558
  - # 8
    frequency:    5.7083603954
  - # 9
    frequency:    6.4351078834
  - # 10
    frequency:    6.6309548841
  - # 11
    frequency:    8.4081304242
  - # 12
    frequency:    8.8266170985
  - # 13
    frequency:    9.1310931609
  - # 14
    frequency:   13.8401150161
  - # 15
    frequency:   14.6423598834
  - # 16
    frequency:   14.7095470141
  - # 17
    frequency:   16.9049706551
  - # 18
    frequency:   16.9711212024
  - # 19
    frequency:   17.8400207408
  - # 20
    frequency:   38.3191413378
  - # 21
    frequency:   68.3002330526

- q-position: [    0.1313131,    0.0000000,    0.0000000 ]
  distance:    0.0454677
  band:
  - # 1
    frequency:   -0.7855976743
  - # 2
    frequency:    0.8595326272
  - # 3
    frequency:    1.1985068030
  - # 4
    frequency:    1.9050999253
  - # 5
    frequency:    2.8687710565
  - # 6
    frequency:    3.7845110259
  - # 7
    frequency:    4.4859247989
  - # 8
    frequency:    5.7107082119
  - # 9
    frequency:    6.4509567165
  - # 10
    frequency:    6.6474843823
  - # 11
    frequency:    8.3724985044
  - # 12
    frequency:    8.7843518609
  - # 13
    frequency:    9.1114512766
  - # 14
    frequency:   13.7853214674
  - # 15
    frequency:   14.6147386902
  - # 16
    frequency:   14.6715189162
  - # 17
    frequency:   16.9078710689
  - # 18
    frequency:   16.9786162750
  - # 19
    frequency:   17.8144256479
  - # 20
    frequency:   38.3182893784
  - # 21
    frequency:   68.2428072572

- q-position: [    0.1363636,    0.0000000,    0.0000000 ]
  distance:    0.0472165
  band:
  - # 1
    frequency:   -0.7608473352
  - # 2
    frequency:    0.9496694381
  - # 3
    frequency:    1.2729939982
  - # 4
    frequency:    1.9576957726
  - # 5
    frequency:    2.9049251619
  - # 6
    frequency:    3.8017874461
  - # 7
    frequency:    4.5228947278
  - # 8
    frequency:    5.7135190305
  - # 9
    frequency:    6.4671356453
  - # 10
    frequency:    6.6633750359
  - # 11
    frequency:    8.3370111527
  - # 12
    frequency:    8.7430470813
  - # 13
    frequency:    9.0912698833
  - # 14
    frequency:   13.7313839079
  - # 15
    frequency:   14.5873166574
  - # 16
    frequency:   14.6327052559
  - # 17
    frequency:   16.9108550857
  - # 18
    frequency:   16.9862289758
  - # 19
    frequency:   17.7885754944
  - # 20
    frequency:   38.3174785964
  - # 21
    frequency:   68.1847096893

- q-position: [    0.1414141,    0.0000000,    0.0000000 ]
  distance:    0.0489652
  band:
  - # 1
    frequency:   -0.7346553549
  - # 2
    frequency:    1.0344521678
  - # 3
    frequency:    1.3451299701
  - # 4
    frequency:    2.0080001382
  - # 5
    frequency:    2.9314351697
  - # 6
    frequency:    3.8196057063
  - # 7
    frequency:    4.5571212033
  - # 8
    frequency:    5.7165279696
  - # 9
    frequency:    6.4835924284
  - # 10
    frequency:    6.6788688112
  - # 11
    frequency:    8.3019705363
  - # 12
    frequency:    8.7032973391
  - # 13
    frequency:    9.0706755109
  - # 14
    frequency:   13.6784325129
  - # 15
    frequency:   14.5602024220
  - # 16
    frequency:   14.5932491016
  - # 17
    frequency:   16.9139157519
  - # 18
    frequency:   16.9939401974
  - # 19
    frequency:   17.7625028003
  - # 20
    frequency:   38.3167138611
  - # 21
    frequency:   68.1260748161

- q-position: [    0.1464646,    0.0000000,    0.0000000 ]
  distance:    0.0507140
  band:
  - # 1
    frequency:   -0.7068848998
  - # 2
    frequency:    1.1148277417
  - # 3
    frequency:    1.4150495996
  - # 4
    frequency:    2.0560094391
  - # 5
    frequency:    2.9474559518
  - # 6
    frequency:    3.8379600731
  - # 7
    frequency:    4.5884738465
  - # 8
    frequency:    5.7194065206
  - # 9
    frequency:    6.5002689460
  - # 10
    frequency:    6.6943212677
  - # 11
    frequency:    8.2676659522
  - # 12
    frequency:    8.6657003583
  - # 13
    frequency:    9.0498137531
  - # 14
    frequency:   13.6265879011
  - # 15
    frequency:   14.5335020775
  - # 16
    frequency:   14.5532915452
  - # 17
    frequency:   16.9170450969
  - # 18
    frequency:   17.0017305150
  - # 19
    frequency:   17.7362374595
  - # 20
    frequency:   38.3159996221
  - # 21
    frequency:   68.0670345102

- q-position: [    0.1515152,    0.0000000,    0.0000000 ]
  distance:    0.0524628
  band:
  - # 1
    frequency:   -0.6773688046
  - # 2
    frequency:    1.1914426423
  - # 3
    frequency:    1.4828100001
  - # 4
    frequency:    2.1017344393
  - # 5
    frequency:    2.9521134879
  - # 6
    frequency:    3.8568438506
  - # 7
    frequency:    4.6169007086
  - # 8
    frequency:    5.7217827990
  - # 9
    frequency:    6.5171010170
  - # 10
    frequency:    6.7101982047
  - # 11
    frequency:    8.2343378214
  - # 12
    frequency:    8.6308525996
  - # 13
    frequency:    9.0288495158
  - # 14
    frequency:   13.5759624512
  - # 15
    frequency:   14.5073186075
  - # 16
    frequency:   14.5129712172
  - # 17
    frequency:   16.9202341430
  - # 18
    frequency:   17.0095799062
  - # 19
    frequency:   17.7098074604
  - # 20
    frequency:   38.3153398722
  - # 21
    frequency:   68.0077175211