nqpoint: 300    
npath: 3      
segment_nqpoint:
- 100
- 100
- 100
labels:
- [ 'G', 'M' ]
- [ 'M', 'K' ]
- [ 'K', 'G' ]
reciprocal_lattice:
- [   0.29986498,   0.17312713,   0.00000000 ] # a*
- [   0.00000000,   0.34625426,   0.00000000 ] # b*
- [   0.00000000,   0.00000000,   0.03916600 ] # c*
natom: 7      
lattice:
- [     3.334834201360044,     0.000000000000000,     0.000000000000000 ] # a
- [    -1.667417100680022,     2.888051135780675,     0.000000000000000 ] # b
- [     0.000000000000000,     0.000000000000000,    25.532349875404407 ] # c
points:
- symbol: C # 1
  coordinates: [  0.000000000000000,  0.000000000000000,  0.445729707803002 ]
  mass: 12.010700
- symbol: C # 2
  coordinates: [  0.333332985432215,  0.666666983183674,  0.600322179711097 ]
  mass: 12.010700
- symbol: N # 3
  coordinates: [  0.333332985432215,  0.666666983183674,  0.551467267302055 ]
  mass: 14.006700
- symbol: O # 4
  coordinates: [  0.333332985432215,  0.666666983183674,  0.647506005364990 ]
  mass: 15.999400
- symbol: O # 5
  coordinates: [  0.666666984744047,  0.333332985985145,  0.352493994635010 ]
  mass: 15.999400
- symbol: Zr # 6
  coordinates: [  0.333332985432215,  0.666666983183674,  0.389881944008717 ]
  mass: 91.224000
- symbol: Zr # 7
  coordinates: [  0.666666984744047,  0.333332985985145,  0.494710839924962 ]
  mass: 91.224000

phonon:
- q-position: [    0.0000000,    0.0000000,    0.0000000 ]
  distance:    0.0000000
  band:
  - # 1
    frequency:   -3.1315373552
  - # 2
    frequency:   -3.1315373552
  - # 3
    frequency:   -0.0000138121
  - # 4
    frequency:    0.0000003098
  - # 5
    frequency:    0.0000137508
  - # 6
    frequency:    3.4234190372
  - # 7
    frequency:    3.4234190373
  - # 8
    frequency:    6.1265829108
  - # 9
    frequency:    6.1265829108
  - # 10
    frequency:    6.3131944072
  - # 11
    frequency:    9.1205330327
  - # 12
    frequency:    9.8564631573
  - # 13
    frequency:    9.8564631573
  - # 14
    frequency:   14.5799016569
  - # 15
    frequency:   14.5799016570
  - # 16
    frequency:   14.9514715390
  - # 17
    frequency:   16.8979453681
  - # 18
    frequency:   16.8979453681
  - # 19
    frequency:   18.1723342102
  - # 20
    frequency:   38.3129399823
  - # 21
    frequency:   68.9862719399

- q-position: [    0.0050505,    0.0000000,    0.0000000 ]
  distance:    0.0017488
  band:
  - # 1
    frequency:   -3.1312183231
  - # 2
    frequency:   -3.1308436557
  - # 3
    frequency:   -0.0008305386
  - # 4
    frequency:    0.0533877924
  - # 5
    frequency:    0.0777110627
  - # 6
    frequency:    3.4237565398
  - # 7
    frequency:    3.4250778758
  - # 8
    frequency:    6.1269925694
  - # 9
    frequency:    6.1273961392
  - # 10
    frequency:    6.3130009557
  - # 11
    frequency:    9.1194718925
  - # 12
    frequency:    9.8548950268
  - # 13
    frequency:    9.8551032345
  - # 14
    frequency:   14.5768501530
  - # 15
    frequency:   14.5791275772
  - # 16
    frequency:   14.9513539578
  - # 17
    frequency:   16.8979778373
  - # 18
    frequency:   16.8981289572
  - # 19
    frequency:   18.1714927456
  - # 20
    frequency:   38.3129416998
  - # 21
    frequency:   68.9850439532

- q-position: [    0.0101010,    0.0000000,    0.0000000 ]
  distance:    0.0034975
  band:
  - # 1
    frequency:   -3.1302571220
  - # 2
    frequency:   -3.1287626577
  - # 3
    frequency:   -0.0033155764
  - # 4
    frequency:    0.1068375493
  - # 5
    frequency:    0.1554490032
  - # 6
    frequency:    3.4247703546
  - # 7
    frequency:    3.4300435606
  - # 8
    frequency:    6.1282198795
  - # 9
    frequency:    6.1297942392
  - # 10
    frequency:    6.3124561937
  - # 11
    frequency:    9.1162907564
  - # 12
    frequency:    9.8501930483
  - # 13
    frequency:    9.8510277769
  - # 14
    frequency:   14.5677654769
  - # 15
    frequency:   14.5768079523
  - # 16
    frequency:   14.9509430783
  - # 17
    frequency:   16.8980752858
  - # 18
    frequency:   16.8986796018
  - # 19
    frequency:   18.1689722984
  - # 20
    frequency:   38.3129468580
  - # 21
    frequency:   68.9813625340

- q-position: [    0.0151515,    0.0000000,    0.0000000 ]
  distance:    0.0052463
  band:
  - # 1
    frequency:   -3.1286415374
  - # 2
    frequency:   -3.1252946290
  - # 3
    frequency:   -0.0074345085
  - # 4
    frequency:    0.1604096917
  - # 5
    frequency:    0.2332360445
  - # 6
    frequency:    3.4264643464
  - # 7
    frequency:    3.4382838898
  - # 8
    frequency:    6.1302598763
  - # 9
    frequency:    6.1336476903
  - # 10
    frequency:    6.3116717195
  - # 11
    frequency:    9.1109964844
  - # 12
    frequency:    9.8423645586
  - # 13
    frequency:    9.8442497286
  - # 14
    frequency:   14.5528436341
  - # 15
    frequency:   14.5729506169
  - # 16
    frequency:   14.9500780203
  - # 17
    frequency:   16.8982378333
  - # 18
    frequency:   16.8995969225
  - # 19
    frequency:   18.1647846676
  - # 20
    frequency:   38.3129554741
  - # 21
    frequency:   68.9752352977

- q-position: [    0.0202020,    0.0000000,    0.0000000 ]
  distance:    0.0069950
  band:
  - # 1
    frequency:   -3.1263515385
  - # 2
    frequency:   -3.1204399041
  - # 3
    frequency:   -0.0131512464
  - # 4
    frequency:    0.2141615893
  - # 5
    frequency:    0.3110851872
  - # 6
    frequency:    3.4288447723
  - # 7
    frequency:    3.4497461393
  - # 8
    frequency:    6.1331043908
  - # 9
    frequency:    6.1387245976
  - # 10
    frequency:    6.3108497450
  - # 11
    frequency:    9.1036005302
  - # 12
    frequency:    9.8314221135
  - # 13
    frequency:    9.8347907000
  - # 14
    frequency:   14.5323725613
  - # 15
    frequency:   14.5675686024
  - # 16
    frequency:   14.9485294758
  - # 17
    frequency:   16.8984656702
  - # 18
    frequency:   16.9008802483
  - # 19
    frequency:   18.1589493830
  - # 20
    frequency:   38.3129675766
  - # 21
    frequency:   68.9666749132

- q-position: [    0.0252525,    0.0000000,    0.0000000 ]
  distance:    0.0087438
  band:
  - # 1
    frequency:   -3.1233597539
  - # 2
    frequency:   -3.1141987229
  - # 3
    frequency:   -0.0204117278
  - # 4
    frequency:    0.2681461431
  - # 5
    frequency:    0.3889957973
  - # 6
    frequency:    3.4319200134
  - # 7
    frequency:    3.4643583926
  - # 8
    frequency:    6.1367422043
  - # 9
    frequency:    6.1446671229
  - # 10
    frequency:    6.3103069347
  - # 11
    frequency:    9.0941189763
  - # 12
    frequency:    9.8173839909
  - # 13
    frequency:    9.8226810232
  - # 14
    frequency:   14.5066912376
  - # 15
    frequency:   14.5606800974
  - # 16
    frequency:   14.9460407154
  - # 17
    frequency:   16.8987590442
  - # 18
    frequency:   16.9025285612
  - # 19
    frequency:   18.1514935042
  - # 20
    frequency:   38.3129832056
  - # 21
    frequency:   68.9556990673

- q-position: [    0.0303030,    0.0000000,    0.0000000 ]
  distance:    0.0104926
  band:
  - # 1
    frequency:   -3.1196321089
  - # 2
    frequency:   -3.1065710124
  - # 3
    frequency:   -0.0291409009
  - # 4
    frequency:    0.3224104900
  - # 5
    frequency:    0.4669494315
  - # 6
    frequency:    3.4357002162
  - # 7
    frequency:    3.4820312408
  - # 8
    frequency:    6.1411592545
  - # 9
    frequency:    6.1509637277
  - # 10
    frequency:    6.3105025247
  - # 11
    frequency:    9.0825725869
  - # 12
    frequency:    9.8002749149
  - # 13
    frequency:    9.8079598275
  - # 14
    frequency:   14.4761548979
  - # 15
    frequency:   14.5523083917
  - # 16
    frequency:   14.9423625126
  - # 17
    frequency:   16.8991182420
  - # 18
    frequency:   16.9045404229
  - # 19
    frequency:   18.1424513475
  - # 20
    frequency:   38.3130024124
  - # 21
    frequency:   68.9423304151

- q-position: [    0.0353535,    0.0000000,    0.0000000 ]
  distance:    0.0122413
  band:
  - # 1
    frequency:   -3.1151285970
  - # 2
    frequency:   -3.0975561234
  - # 3
    frequency:   -0.0392394772
  - # 4
    frequency:    0.3769948644
  - # 5
    frequency:    0.5449059671
  - # 6
    frequency:    3.4401968584
  - # 7
    frequency:    3.5026597142
  - # 8
    frequency:    6.1463388862
  - # 9
    frequency:    6.1569344115
  - # 10
    frequency:    6.3120535190
  - # 11
    frequency:    9.0689868879
  - # 12
    frequency:    9.7801270225
  - # 13
    frequency:    9.7906751356
  - # 14
    frequency:   14.4411123414
  - # 15
    frequency:   14.5424818033
  - # 16
    frequency:   14.9372759726
  - # 17
    frequency:   16.8995435674
  - # 18
    frequency:   16.9069138880
  - # 19
    frequency:   18.1318641429
  - # 20
    frequency:   38.3130252597
  - # 21
    frequency:   68.9265965169

- q-position: [    0.0404040,    0.0000000,    0.0000000 ]
  distance:    0.0139901
  band:
  - # 1
    frequency:   -3.1098041567
  - # 2
    frequency:   -3.0871525327
  - # 3
    frequency:   -0.0505807548
  - # 4
    frequency:    0.4319316471
  - # 5
    frequency:    0.6228000890
  - # 6
    frequency:    3.4454222576
  - # 7
    frequency:    3.5261253023
  - # 8
    frequency:    6.1522621345
  - # 9
    frequency:    6.1617662947
  - # 10
    frequency:    6.3156995925
  - # 11
    frequency:    9.0533922817
  - # 12
    frequency:    9.7569810929
  - # 13
    frequency:    9.7708839775
  - # 14
    frequency:   14.4018950658
  - # 15
    frequency:   14.5312335897
  - # 16
    frequency:   14.9306035018
  - # 17
    frequency:   16.9000353159
  - # 18
    frequency:   16.9096464076
  - # 19
    frequency:   18.1197796320
  - # 20
    frequency:   38.3130518216
  - # 21
    frequency:   68.9085297610

- q-position: [    0.0454545,    0.0000000,    0.0000000 ]
  distance:    0.0157388
  band:
  - # 1
    frequency:   -3.1036096193
  - # 2
    frequency:   -3.0753575247
  - # 3
    frequency:   -0.0630077395
  - # 4
    frequency:    0.4872446234
  - # 5
    frequency:    0.7005381753
  - # 6
    frequency:    3.4513890441
  - # 7
    frequency:    3.5522979257
  - # 8
    frequency:    6.1589080307
  - # 9
    frequency:    6.1646424116
  - # 10
    frequency:    6.3221748092
  - # 11
    frequency:    9.0358242092
  - # 12
    frequency:    9.7308880666
  - # 13
    frequency:    9.7486525212
  - # 14
    frequency:   14.3588149280
  - # 15
    frequency:   14.5186018407
  - # 16
    frequency:   14.9222111862
  - # 17
    frequency:   16.9005937469
  - # 18
    frequency:   16.9127347286
  - # 19
    frequency:   18.1062516120
  - # 20
    frequency:   38.3130821830
  - # 21
    frequency:   68.8881672730

- q-position: [    0.0505051,    0.0000000,    0.0000000 ]
  distance:    0.0174876
  band:
  - # 1
    frequency:   -3.0964926941
  - # 2
    frequency:   -3.0621668686
  - # 3
    frequency:   -0.0763306880
  - # 4
    frequency:    0.5429484665
  - # 5
    frequency:    0.7779955964
  - # 6
    frequency:    3.4581096180
  - # 7
    frequency:    3.5810377456
  - # 8
    frequency:    6.1649476920
  - # 9
    frequency:    6.1662539174
  - # 10
    frequency:    6.3320021483
  - # 11
    frequency:    9.0163233784
  - # 12
    frequency:    9.7019108754
  - # 13
    frequency:    9.7240562168
  - # 14
    frequency:   14.3121666868
  - # 15
    frequency:   14.5046293549
  - # 16
    frequency:   14.9120061839
  - # 17
    frequency:   16.9012190552
  - # 18
    frequency:   16.9161747924
  - # 19
    frequency:   18.0913394374
  - # 20
    frequency:   38.3131164397
  - # 21
    frequency:   68.8655508117

- q-position: [    0.0555556,    0.0000000,    0.0000000 ]
  distance:    0.0192363
  band:
  - # 1
    frequency:   -3.0883989595
  - # 2
    frequency:   -3.0475745087
  - # 3
    frequency:   -0.0903250774
  - # 4
    frequency:    0.5990484545
  - # 5
    frequency:    0.8550144261
  - # 6
    frequency:    3.4655956122
  - # 7
    frequency:    3.6121967267
  - # 8
    frequency:    6.1624282893
  - # 9
    frequency:    6.1742757615
  - # 10
    frequency:    6.3453346503
  - # 11
    frequency:    8.9949360795
  - # 12
    frequency:    9.6701266011
  - # 13
    frequency:    9.6971799525
  - # 14
    frequency:   14.2622326649
  - # 15
    frequency:   14.4893634975
  - # 16
    frequency:   14.8999318571
  - # 17
    frequency:   16.9019113411
  - # 18
    frequency:   16.9199616367
  - # 19
    frequency:   18.0751074864
  - # 20
    frequency:   38.3131546982
  - # 21
    frequency:   68.8407266524

- q-position: [    0.0606061,    0.0000000,    0.0000000 ]
  distance:    0.0209851
  band:
  - # 1
    frequency:   -3.0792728294
  - # 2
    frequency:   -3.0315722849
  - # 3
    frequency:   -0.1047298848
  - # 4
    frequency:    0.6555404208
  - # 5
    frequency:    0.9314015371
  - # 6
    frequency:    3.4738573838
  - # 7
    frequency:    3.6456199031
  - # 8
    frequency:    6.1571821163
  - # 9
    frequency:    6.1829484525
  - # 10
    frequency:    6.3619652907
  - # 11
    frequency:    8.9717146183
  - # 12
    frequency:    9.6356289719
  - # 13
    frequency:    9.6681182177
  - # 14
    frequency:   14.2092878184
  - # 15
    frequency:   14.4728560422
  - # 16
    frequency:   14.8859623153
  - # 17
    frequency:   16.9026705814
  - # 18
    frequency:   16.9240893050
  - # 19
    frequency:   18.0576246044
  - # 20
    frequency:   38.3131970747
  - # 21
    frequency:   68.8137454566

- q-position: [    0.0656566,    0.0000000,    0.0000000 ]
  distance:    0.0227339
  band:
  - # 1
    frequency:   -3.0690584711
  - # 2
    frequency:   -3.0141497021
  - # 3
    frequency:   -0.1192459370
  - # 4
    frequency:    0.7124109308
  - # 5
    frequency:    1.0069270425
  - # 6
    frequency:    3.4829035502
  - # 7
    frequency:    3.6811463336
  - # 8
    frequency:    6.1495153072
  - # 9
    frequency:    6.1922460750
  - # 10
    frequency:    6.3814708359
  - # 11
    frequency:    8.9467179013
  - # 12
    frequency:    9.5985311867
  - # 13
    frequency:    9.6369752703
  - # 14
    frequency:   14.1536043124
  - # 15
    frequency:   14.4551629946
  - # 16
    frequency:   14.8700972347
  - # 17
    frequency:   16.9034966022
  - # 18
    frequency:   16.9285507631
  - # 19
    frequency:   18.0389635317
  - # 20
    frequency:   38.3132436950
  - # 21
    frequency:   68.7846621307

- q-position: [    0.0707071,    0.0000000,    0.0000000 ]
  distance:    0.0244826
  band:
  - # 1
    frequency:   -3.0577006513
  - # 2
    frequency:   -2.9952937670
  - # 3
    frequency:   -0.1335339696
  - # 4
    frequency:    0.7696376696
  - # 5
    frequency:    1.0813230353
  - # 6
    frequency:    3.4927405890
  - # 7
    frequency:    3.7186097647
  - # 8
    frequency:    6.1397929813
  - # 9
    frequency:    6.2021421458
  - # 10
    frequency:    6.4033612859
  - # 11
    frequency:    8.9200122167
  - # 12
    frequency:    9.5589690343
  - # 13
    frequency:    9.6038653021
  - # 14
    frequency:   14.0954552076
  - # 15
    frequency:   14.4363444001
  - # 16
    frequency:   14.8523573151
  - # 17
    frequency:   16.9043890529
  - # 18
    frequency:   16.9333378257
  - # 19
    frequency:   18.0192003263
  - # 20
    frequency:   38.3132946934
  - # 21
    frequency:   68.7535356710

- q-position: [    0.0757576,    0.0000000,    0.0000000 ]
  distance:    0.0262314
  band:
  - # 1
    frequency:   -3.0451454986
  - # 2
    frequency:   -2.9749889069
  - # 3
    frequency:   -0.1472118743
  - # 4
    frequency:    0.8271900203
  - # 5
    frequency:    1.1542825778
  - # 6
    frequency:    3.5033725162
  - # 7
    frequency:    3.7578390484
  - # 8
    frequency:    6.1283539274
  - # 9
    frequency:    6.2126098061
  - # 10
    frequency:    6.4271652774
  - # 11
    frequency:    8.8916722547
  - # 12
    frequency:    9.5171042454
  - # 13
    frequency:    9.5689125995
  - # 14
    frequency:   14.0351171442
  - # 15
    frequency:   14.4164641349
  - # 16
    frequency:   14.8327804601
  - # 17
    frequency:   16.9053473835
  - # 18
    frequency:   16.9384410919
  - # 19
    frequency:   17.9984137910
  - # 20
    frequency:   38.3133502122
  - # 21
    frequency:   68.7204289986

- q-position: [    0.0808081,    0.0000000,    0.0000000 ]
  distance:    0.0279801
  band:
  - # 1
    frequency:   -3.0313411716
  - # 2
    frequency:   -2.9532169863
  - # 3
    frequency:   -0.1598503843
  - # 4
    frequency:    0.8850298045
  - # 5
    frequency:    1.2254589161
  - # 6
    frequency:    3.5148006528
  - # 7
    frequency:    3.7986583862
  - # 8
    frequency:    6.1154821054
  - # 9
    frequency:    6.2236219621
  - # 10
    frequency:    6.4524585618
  - # 11
    frequency:    8.8617824100
  - # 12
    frequency:    9.4731279709
  - # 13
    frequency:    9.5322516905
  - # 14
    frequency:   13.9728720455
  - # 15
    frequency:   14.3955896831
  - # 16
    frequency:   14.8114186396
  - # 17
    frequency:   16.9063708246
  - # 18
    frequency:   16.9438498889
  - # 19
    frequency:   17.9766849122
  - # 20
    frequency:   38.3134103999
  - # 21
    frequency:   68.6854087824

- q-position: [    0.0858586,    0.0000000,    0.0000000 ]
  distance:    0.0297289
  band:
  - # 1
    frequency:   -3.0162384320
  - # 2
    frequency:   -2.9299574317
  - # 3
    frequency:   -0.1709660483
  - # 4
    frequency:    0.9431121554
  - # 5
    frequency:    1.2944649196
  - # 6
    frequency:    3.5270234899
  - # 7
    frequency:    3.8408874906
  - # 8
    frequency:    6.1014065941
  - # 9
    frequency:    6.2351513673
  - # 10
    frequency:    6.4788639767
  - # 11
    frequency:    8.8304383887
  - # 12
    frequency:    9.4272642401
  - # 13
    frequency:    9.4940274739
  - # 14
    frequency:   13.9090079283
  - # 15
    frequency:   14.3737919000
  - # 16
    frequency:   14.7883353391
  - # 17
    frequency:   16.9074583720
  - # 18
    frequency:   16.9495522203
  - # 19
    frequency:   17.9540963197
  - # 20
    frequency:   38.3134754109
  - # 21
    frequency:   68.6485452516

- q-position: [    0.0909091,    0.0000000,    0.0000000 ]
  distance:    0.0314777
  band:
  - # 1
    frequency:   -2.9997911307
  - # 2
    frequency:   -2.9051874729
  - # 3
    frequency:   -0.1800095743
  - # 4
    frequency:    1.0013864876
  - # 5
    frequency:    1.3608728054
  - # 6
    frequency:    3.5400366582
  - # 7
    frequency:    3.8843417693
  - # 8
    frequency:    6.0863104007
  - # 9
    frequency:    6.2471706435
  - # 10
    frequency:    6.5060425819
  - # 11
    frequency:    8.7977491043
  - # 12
    frequency:    9.3797732059
  - # 13
    frequency:    9.4543953217
  - # 14
    frequency:   13.8438189258
  - # 15
    frequency:   14.3511447629
  - # 16
    frequency:   14.7636034926
  - # 17
    frequency:   16.9086087739
  - # 18
    frequency:   16.9555347169
  - # 19
    frequency:   17.9307317740
  - # 20
    frequency:   38.3135454031
  - # 21
    frequency:   68.6099119983

- q-position: [    0.0959596,    0.0000000,    0.0000000 ]
  distance:    0.0332264
  band:
  - # 1
    frequency:   -2.9819566235
  - # 2
    frequency:   -2.8788825054
  - # 3
    frequency:   -0.1863460663
  - # 4
    frequency:    1.0597975292
  - # 5
    frequency:    1.4242142803
  - # 6
    frequency:    3.5538330029
  - # 7
    frequency:    3.9288326436
  - # 8
    frequency:    6.0703394236
  - # 9
    frequency:    6.2596522363
  - # 10
    frequency:    6.5336848241
  - # 11
    frequency:    8.7638387646
  - # 12
    frequency:    9.3309539525
  - # 13
    frequency:    9.4135211474
  - # 14
    frequency:   13.7776046410
  - # 15
    frequency:   14.3277251116
  - # 16
    frequency:   14.7373038031
  - # 17
    frequency:   16.9098205225
  - # 18
    frequency:   16.9617825856
  - # 19
    frequency:   17.9066756902
  - # 20
    frequency:   38.3136205371
  - # 21
    frequency:   68.5695857702

- q-position: [    0.1010101,    0.0000000,    0.0000000 ]
  distance:    0.0349752
  band:
  - # 1
    frequency:   -2.9626961473
  - # 2
    frequency:   -2.8510165733
  - # 3
    frequency:   -0.1892202092
  - # 4
    frequency:    1.1182863809
  - # 5
    frequency:    1.4839813522
  - # 6
    frequency:    3.5684027672
  - # 7
    frequency:    3.9741681170
  - # 8
    frequency:    6.0536088279
  - # 9
    frequency:    6.2725683043
  - # 10
    frequency:    6.5615047088
  - # 11
    frequency:    8.7288489230
  - # 12
    frequency:    9.2811466334
  - # 13
    frequency:    9.3715814313
  - # 14
    frequency:   13.7106689444
  - # 15
    frequency:   14.3036123805
  - # 16
    frequency:   14.7095233676
  - # 17
    frequency:   16.9110918500
  - # 18
    frequency:   16.9682795493
  - # 19
    frequency:   17.8820127041
  - # 20
    frequency:   38.3137009736
  - # 21
    frequency:   68.5276462551

- q-position: [    0.1060606,    0.0000000,    0.0000000 ]
  distance:    0.0367239
  band:
  - # 1
    frequency:   -2.9419752088
  - # 2
    frequency:   -2.8215629704
  - # 3
    frequency:   -0.1876910559
  - # 4
    frequency:    1.1767915684
  - # 5
    frequency:    1.5396282156
  - # 6
    frequency:    3.5837338775
  - # 7
    frequency:    4.0201536978
  - # 8
    frequency:    6.0362065092
  - # 9
    frequency:    6.2858905433
  - # 10
    frequency:    6.5892376438
  - # 11
    frequency:    8.6929400664
  - # 12
    frequency:    9.2307337413
  - # 13
    frequency:    9.3287631924
  - # 14
    frequency:   13.6433183385
  - # 15
    frequency:   14.2788883236
  - # 16
    frequency:   14.6803545384
  - # 17
    frequency:   16.9124207278
  - # 18
    frequency:   16.9750077738
  - # 19
    frequency:   17.8568272903
  - # 20
    frequency:   38.3137868723
  - # 21
    frequency:   68.4841758559

- q-position: [    0.1111111,    0.0000000,    0.0000000 ]
  distance:    0.0384727
  band:
  - # 1
    frequency:   -2.9197640595
  - # 2
    frequency:   -2.7904949501
  - # 3
    frequency:   -0.1804978282
  - # 4
    frequency:    1.2352500571
  - # 5
    frequency:    1.5905748467
  - # 6
    frequency:    3.5998123295
  - # 7
    frequency:    4.0665937534
  - # 8
    frequency:    6.0181941145
  - # 9
    frequency:    6.2995899440
  - # 10
    frequency:    6.6166419438
  - # 11
    frequency:    8.6562920500
  - # 12
    frequency:    9.1801404058
  - # 13
    frequency:    9.2852638978
  - # 14
    frequency:   13.5758600048
  - # 15
    frequency:   14.2536367344
  - # 16
    frequency:   14.6498939667
  - # 17
    frequency:   16.9138048696
  - # 18
    frequency:   16.9819477715
  - # 19
    frequency:   17.8312034391
  - # 20
    frequency:   38.3138783891
  - # 21
    frequency:   68.4392594595

- q-position: [    0.1161616,    0.0000000,    0.0000000 ]
  distance:    0.0402215
  band:
  - # 1
    frequency:   -2.8960383715
  - # 2
    frequency:   -2.7577865358
  - # 3
    frequency:   -0.1657411642
  - # 4
    frequency:    1.2935982049
  - # 5
    frequency:    1.6362132575
  - # 6
    frequency:    3.6166226628
  - # 7
    frequency:    4.1132933308
  - # 8
    frequency:    5.9996063263
  - # 9
    frequency:    6.3136364907
  - # 10
    frequency:    6.6435038529
  - # 11
    frequency:    8.6191023923
  - # 12
    frequency:    9.1298337495
  - # 13
    frequency:    9.2412912964
  - # 14
    frequency:   13.5085996572
  - # 15
    frequency:   14.2279431638
  - # 16
    frequency:   14.6182417855
  - # 17
    frequency:   16.9152417376
  - # 18
    frequency:   16.9890782741
  - # 19
    frequency:   17.8052244032
  - # 20
    frequency:   38.3139756744
  - # 21
    frequency:   68.3929841971

- q-position: [    0.1212121,    0.0000000,    0.0000000 ]
  distance:    0.0419702
  band:
  - # 1
    frequency:   -2.8707802831
  - # 2
    frequency:   -2.7234134167
  - # 3
    frequency:   -0.1399256069
  - # 4
    frequency:    1.3517726305
  - # 5
    frequency:    1.6759178098
  - # 6
    frequency:    3.6341485168
  - # 7
    frequency:    4.1600604032
  - # 8
    frequency:    5.9804492414
  - # 9
    frequency:    6.3279988018
  - # 10
    frequency:    6.6696458798
  - # 11
    frequency:    8.5815812109
  - # 12
    frequency:    9.0803214892
  - # 13
    frequency:    9.1970631665
  - # 14
    frequency:   13.4418393212
  - # 15
    frequency:   14.2018946362
  - # 16
    frequency:   14.5855008983
  - # 17
    frequency:   16.9167285526
  - # 18
    frequency:   16.9963760608
  - # 19
    frequency:   17.7789725269
  - # 20
    frequency:   38.3140788703
  - # 21
    frequency:   68.3454392000

- q-position: [    0.1262626,    0.0000000,    0.0000000 ]
  distance:    0.0437190
  band:
  - # 1
    frequency:   -2.8439800596
  - # 2
    frequency:   -2.6873539129
  - # 3
    frequency:   -0.0933154490
  - # 4
    frequency:    1.4097109827
  - # 5
    frequency:    1.7090616364
  - # 6
    frequency:    3.6523732520
  - # 7
    frequency:    4.2067084021
  - # 8
    frequency:    5.9606988400
  - # 9
    frequency:    6.3426437222
  - # 10
    frequency:    6.6949380307
  - # 11
    frequency:    8.5439415778
  - # 12
    frequency:    9.0321500239
  - # 13
    frequency:    9.1528069618
  - # 14
    frequency:   13.3758751554
  - # 15
    frequency:   14.1755793674
  - # 16
    frequency:   14.5517763488
  - # 17
    frequency:   16.9182623056
  - # 18
    frequency:   17.0038157287
  - # 19
    frequency:   17.7525291702
  - # 20
    frequency:   38.3141881089
  - # 21
    frequency:   68.2967153487

- q-position: [    0.1313131,    0.0000000,    0.0000000 ]
  distance:    0.0454677
  band:
  - # 1
    frequency:   -2.8156387293
  - # 2
    frequency:   -2.6495899945
  - # 3
    frequency:    0.0717557236
  - # 4
    frequency:    1.4673526019
  - # 5
    frequency:    1.7350421415
  - # 6
    frequency:    3.6712806215
  - # 7
    frequency:    4.2530587647
  - # 8
    frequency:    5.9403007716
  - # 9
    frequency:    6.3575358765
  - # 10
    frequency:    6.7193110784
  - # 11
    frequency:    8.5063845459
  - # 12
    frequency:    8.9859020691
  - # 13
    frequency:    9.1087593409
  - # 14
    frequency:   13.3109954239
  - # 15
    frequency:   14.1490864851
  - # 16
    frequency:   14.5171747516
  - # 17
    frequency:   16.9198397730
  - # 18
    frequency:   17.0113693861
  - # 19
    frequency:   17.7259747498
  - # 20
    frequency:   38.3143035091
  - # 21
    frequency:   68.2469050177

- q-position: [    0.1363636,    0.0000000,    0.0000000 ]
  distance:    0.0472165
  band:
  - # 1
    frequency:   -2.7857722213
  - # 2
    frequency:   -2.6101083330
  - # 3
    frequency:    0.1473257283
  - # 4
    frequency:    1.5246390703
  - # 5
    frequency:    1.7533198841
  - # 6
    frequency:    3.6908554726
  - # 7
    frequency:    4.2989430858
  - # 8
    frequency:    5.9191729189
  - # 9
    frequency:    6.3726371968
  - # 10
    frequency:    6.7427703096
  - # 11
    frequency:    8.4690793086
  - # 12
    frequency:    8.9421932853
  - # 13
    frequency:    9.0651655647
  - # 14
    frequency:   13.2474787163
  - # 15
    frequency:   14.1225057548
  - # 16
    frequency:   14.4818037708
  - # 17
    frequency:   16.9214575329
  - # 18
    frequency:   17.0190062437
  - # 19
    frequency:   17.6993889191
  - # 20
    frequency:   38.3144251747
  - # 21
    frequency:   68.1961018169

- q-position: [    0.1414141,    0.0000000,    0.0000000 ]
  distance:    0.0489652
  band:
  - # 1
    frequency:   -2.7544177663
  - # 2
    frequency:   -2.5689013686
  - # 3
    frequency:    0.2006322731
  - # 4
    frequency:    1.5815146529
  - # 5
    frequency:    1.7634769953
  - # 6
    frequency:    3.7110844568
  - # 7
    frequency:    4.3442043229
  - # 8
    frequency:    5.8972123298
  - # 9
    frequency:    6.3879064414
  - # 10
    frequency:    6.7654073569
  - # 11
    frequency:    8.4321409710
  - # 12
    frequency:    8.9016662587
  - # 13
    frequency:    9.0222787404
  - # 14
    frequency:   13.1855924926
  - # 15
    frequency:   14.0959273122
  - # 16
    frequency:   14.4457716381
  - # 17
    frequency:   16.9231119839
  - # 18
    frequency:   17.0266920735
  - # 19
    frequency:   17.6728509199
  - # 20
    frequency:   38.3145531918
  - # 21
    frequency:   68.1444003297

- q-position: [    0.1464646,    0.0000000,    0.0000000 ]
  distance:    0.0507140
  band:
  - # 1
    frequency:   -2.7216436692
  - # 2
    frequency:   -2.5259683705
  - # 3
    frequency:    0.2439101044
  - # 4
    frequency:    1.6379266384
  - # 5
    frequency:    1.7653036131
  - # 6
    frequency:    3.7319567209
  - # 7
    frequency:    4.3886964089
  - # 8
    frequency:    5.8743079550
  - # 9
    frequency:    6.4032987296
  - # 10
    frequency:    6.7874070019
  - # 11
    frequency:    8.3956109056
  - # 12
    frequency:    8.8649788515
  - # 13
    frequency:    8.9803588925
  - # 14
    frequency:   13.1255920083
  - # 15
    frequency:   14.0694414035
  - # 16
    frequency:   14.4091867036
  - # 17
    frequency:   16.9247993644
  - # 18
    frequency:   17.0343884938
  - # 19
    frequency:   17.6464401467
  - # 20
    frequency:   38.3146876263
  - # 21
    frequency:   68.0918958487

- q-position: [    0.1515152,    0.0000000,    0.0000000 ]
  distance:    0.0524628
  band:
  - # 1
    frequency:   -2.6875640500
  - # 2
    frequency:   -2.4813164725
  - # 3
    frequency:    0.2780242956
  - # 4
    frequency:    1.6938255912
  - # 5
    frequency:    1.7589229539
  - # 6
    frequency:    3.7534645524
  - # 7
    frequency:    4.4322816016
  - # 8
    frequency:    5.8503600403
  - # 9
    frequency:    6.4187651179
  - # 10
    frequency:    6.8090456283
  - # 11
    frequency:    8.3594465841
  - # 12
    frequency:    8.8327831525
  - # 13
    frequency:    8.9396718347
  - # 14
    frequency:   13.0677196502
  - # 15
    frequency:   14.0431381370
  - # 16
    frequency:   14.3721570194
  - # 17
    frequency:   16.9265157742
  - # 18
    frequency:   17.0420520265
  - # 19
    frequency:   17.6202369782
  - # 20
    frequency:   38.3148285217
  - # 21
    frequency:   68.0386841108