nqpoint: 300    
npath: 3      
segment_nqpoint:
- 100
- 100
- 100
labels:
- [ 'G', 'M' ]
- [ 'M', 'K' ]
- [ 'K', 'G' ]
reciprocal_lattice:
- [   0.31403136,   0.18130609,   0.00000000 ] # a*
- [   0.00000000,   0.36261218,   0.00000000 ] # b*
- [   0.00000000,   0.00000000,   0.03780330 ] # c*
natom: 8      
lattice:
- [     3.184395352872577,     0.000000000000000,     0.000000000000000 ] # a
- [    -1.592197676436288,     2.757767271268655,     0.000000000000000 ] # b
- [     0.000000000000000,     0.000000000000000,    26.452717933013972 ] # c
points:
- symbol: C # 1
  coordinates: [  0.000000000000000,  0.000000000000000,  0.524133623526971 ]
  mass: 12.010700
- symbol: C # 2
  coordinates: [  0.666666984744047,  0.333332985985145,  0.385159075774785 ]
  mass: 12.010700
- symbol: N # 3
  coordinates: [  0.333332985432215,  0.666666983183674,  0.610178569650821 ]
  mass: 14.006700
- symbol: N # 4
  coordinates: [  0.666666984744047,  0.333332985985145,  0.340229689168071 ]
  mass: 14.006700
- symbol: O # 5
  coordinates: [  0.333332985432215,  0.666666983183674,  0.659770310831929 ]
  mass: 15.999400
- symbol: O # 6
  coordinates: [  0.666666984744047,  0.333332985985145,  0.435605290407837 ]
  mass: 15.999400
- symbol: Ti # 7
  coordinates: [  0.333332985432215,  0.666666983183674,  0.484984827035061 ]
  mass: 47.867000
- symbol: Ti # 8
  coordinates: [  0.666666984744047,  0.333332985985145,  0.574586021010638 ]
  mass: 47.867000

phonon:
- q-position: [    0.0000000,    0.0000000,    0.0000000 ]
  distance:    0.0000000
  band:
  - # 1
    frequency:   -4.2209159682
  - # 2
    frequency:   -4.2209159682
  - # 3
    frequency:   -0.6750678118
  - # 4
    frequency:   -0.6750678115
  - # 5
    frequency:   -0.0000266460
  - # 6
    frequency:   -0.0000005586
  - # 7
    frequency:    0.0000223580
  - # 8
    frequency:    4.6032110126
  - # 9
    frequency:    4.6032110127
  - # 10
    frequency:    6.1380982790
  - # 11
    frequency:    6.3942395871
  - # 12
    frequency:    6.3942395871
  - # 13
    frequency:   10.3489109201
  - # 14
    frequency:   10.6022707800
  - # 15
    frequency:   10.6022707801
  - # 16
    frequency:   11.0669810441
  - # 17
    frequency:   13.7673090355
  - # 18
    frequency:   13.7673090355
  - # 19
    frequency:   16.5151592657
  - # 20
    frequency:   16.5151592657
  - # 21
    frequency:   17.8279324131
  - # 22
    frequency:   31.8683761174
  - # 23
    frequency:   41.3875307845
  - # 24
    frequency:   67.4516339502

- q-position: [    0.0050505,    0.0000000,    0.0000000 ]
  distance:    0.0018314
  band:
  - # 1
    frequency:   -4.2213861680
  - # 2
    frequency:   -4.2199375413
  - # 3
    frequency:   -0.6737105200
  - # 4
    frequency:   -0.6685942492
  - # 5
    frequency:    0.0029109540
  - # 6
    frequency:    0.0906027661
  - # 7
    frequency:    0.1397134095
  - # 8
    frequency:    4.6037437163
  - # 9
    frequency:    4.6046985211
  - # 10
    frequency:    6.1367379990
  - # 11
    frequency:    6.3943080639
  - # 12
    frequency:    6.3965636144
  - # 13
    frequency:   10.3442116904
  - # 14
    frequency:   10.6020459587
  - # 15
    frequency:   10.6042549692
  - # 16
    frequency:   11.0679429606
  - # 17
    frequency:   13.7673708509
  - # 18
    frequency:   13.7676427547
  - # 19
    frequency:   16.5148127124
  - # 20
    frequency:   16.5153451012
  - # 21
    frequency:   17.8279234066
  - # 22
    frequency:   31.8680210096
  - # 23
    frequency:   41.3868418622
  - # 24
    frequency:   67.4514451026

- q-position: [    0.0101010,    0.0000000,    0.0000000 ]
  distance:    0.0036627
  band:
  - # 1
    frequency:   -4.2227975516
  - # 2
    frequency:   -4.2170091295
  - # 3
    frequency:   -0.6695556169
  - # 4
    frequency:   -0.6488488682
  - # 5
    frequency:    0.0117397981
  - # 6
    frequency:    0.1809594921
  - # 7
    frequency:    0.2795462821
  - # 8
    frequency:    4.6053403207
  - # 9
    frequency:    4.6091489084
  - # 10
    frequency:    6.1328071748
  - # 11
    frequency:    6.3945134044
  - # 12
    frequency:    6.4033841681
  - # 13
    frequency:   10.3306603021
  - # 14
    frequency:   10.6013736445
  - # 15
    frequency:   10.6096966229
  - # 16
    frequency:   11.0708013942
  - # 17
    frequency:   13.7675562171
  - # 18
    frequency:   13.7686432289
  - # 19
    frequency:   16.5137734363
  - # 20
    frequency:   16.5159053792
  - # 21
    frequency:   17.8278930292
  - # 22
    frequency:   31.8669564899
  - # 23
    frequency:   41.3847760385
  - # 24
    frequency:   67.4508789220

- q-position: [    0.0151515,    0.0000000,    0.0000000 ]
  distance:    0.0054941
  band:
  - # 1
    frequency:   -4.2251524163
  - # 2
    frequency:   -4.2121511823
  - # 3
    frequency:   -0.6623744459
  - # 4
    frequency:   -0.6147561575
  - # 5
    frequency:    0.0268569992
  - # 6
    frequency:    0.2708851362
  - # 7
    frequency:    0.4195931826
  - # 8
    frequency:    4.6079963162
  - # 9
    frequency:    4.6165260340
  - # 10
    frequency:    6.1267003719
  - # 11
    frequency:    6.3948553410
  - # 12
    frequency:    6.4143021952
  - # 13
    frequency:   10.3095721184
  - # 14
    frequency:   10.6002602715
  - # 15
    frequency:   10.6173860737
  - # 16
    frequency:   11.0754748614
  - # 17
    frequency:   13.7678648946
  - # 18
    frequency:   13.7703084108
  - # 19
    frequency:   16.5120425898
  - # 20
    frequency:   16.5168483199
  - # 21
    frequency:   17.8278312906
  - # 22
    frequency:   31.8651849670
  - # 23
    frequency:   41.3813361399
  - # 24
    frequency:   67.4499364934

- q-position: [    0.0202020,    0.0000000,    0.0000000 ]
  distance:    0.0073255
  band:
  - # 1
    frequency:   -4.2284544106
  - # 2
    frequency:   -4.2053972546
  - # 3
    frequency:   -0.6518384408
  - # 4
    frequency:   -0.5641439000
  - # 5
    frequency:    0.0491704839
  - # 6
    frequency:    0.3602860561
  - # 7
    frequency:    0.5599147099
  - # 8
    frequency:    4.6117042178
  - # 9
    frequency:    4.6267705604
  - # 10
    frequency:    6.1189319881
  - # 11
    frequency:    6.3953334337
  - # 12
    frequency:    6.4287959860
  - # 13
    frequency:   10.2824333367
  - # 14
    frequency:   10.5987165123
  - # 15
    frequency:   10.6260112164
  - # 16
    frequency:   11.0818296199
  - # 17
    frequency:   13.7682964862
  - # 18
    frequency:   13.7726349005
  - # 19
    frequency:   16.5096220989
  - # 20
    frequency:   16.5181873161
  - # 21
    frequency:   17.8277218167
  - # 22
    frequency:   31.8627104461
  - # 23
    frequency:   41.3765268714
  - # 24
    frequency:   67.4486196222

- q-position: [    0.0252525,    0.0000000,    0.0000000 ]
  distance:    0.0091569
  band:
  - # 1
    frequency:   -4.2327082700
  - # 2
    frequency:   -4.1967932178
  - # 3
    frequency:   -0.6375589795
  - # 4
    frequency:   -0.4929951038
  - # 5
    frequency:    0.0810053196
  - # 6
    frequency:    0.4491538150
  - # 7
    frequency:    0.7005434971
  - # 8
    frequency:    4.6164536114
  - # 9
    frequency:    4.6398012438
  - # 10
    frequency:    6.1100191754
  - # 11
    frequency:    6.3959470797
  - # 12
    frequency:    6.4463384994
  - # 13
    frequency:   10.2505288604
  - # 14
    frequency:   10.5967572020
  - # 15
    frequency:   10.6345251064
  - # 16
    frequency:   11.0896841888
  - # 17
    frequency:   13.7688504400
  - # 18
    frequency:   13.7756179632
  - # 19
    frequency:   16.5065146701
  - # 20
    frequency:   16.5199404856
  - # 21
    frequency:   17.8275422530
  - # 22
    frequency:   31.8595385147
  - # 23
    frequency:   41.3703548065
  - # 24
    frequency:   67.4469308281

- q-position: [    0.0303030,    0.0000000,    0.0000000 ]
  distance:    0.0109882
  band:
  - # 1
    frequency:   -4.2379194631
  - # 2
    frequency:   -4.1863961587
  - # 3
    frequency:   -0.6190997113
  - # 4
    frequency:   -0.3942912729
  - # 5
    frequency:    0.1293984637
  - # 6
    frequency:    0.5375378987
  - # 7
    frequency:    0.8414942187
  - # 8
    frequency:    4.6222312185
  - # 9
    frequency:    4.6555166387
  - # 10
    frequency:    6.1004139579
  - # 11
    frequency:    6.3966955262
  - # 12
    frequency:    6.4664655853
  - # 13
    frequency:   10.2148542572
  - # 14
    frequency:   10.5944012325
  - # 15
    frequency:   10.6422259103
  - # 16
    frequency:   11.0988174206
  - # 17
    frequency:   13.7695260530
  - # 18
    frequency:   13.7792515540
  - # 19
    frequency:   16.5027238001
  - # 20
    frequency:   16.5221300714
  - # 21
    frequency:   17.8272648070
  - # 22
    frequency:   31.8556763237
  - # 23
    frequency:   41.3628283739
  - # 24
    frequency:   67.4448733383

- q-position: [    0.0353535,    0.0000000,    0.0000000 ]
  distance:    0.0128196
  band:
  - # 1
    frequency:   -4.2440937588
  - # 2
    frequency:   -4.1742729749
  - # 3
    frequency:   -0.5959554548
  - # 4
    frequency:   -0.2639752899
  - # 5
    frequency:    0.2182325487
  - # 6
    frequency:    0.6255156705
  - # 7
    frequency:    0.9827698510
  - # 8
    frequency:    4.6290209769
  - # 9
    frequency:    4.6737971269
  - # 10
    frequency:    6.0904814398
  - # 11
    frequency:    6.3975778860
  - # 12
    frequency:    6.4887982054
  - # 13
    frequency:   10.1761595237
  - # 14
    frequency:   10.5916714177
  - # 15
    frequency:   10.6487015555
  - # 16
    frequency:   11.1089800512
  - # 17
    frequency:   13.7703224767
  - # 18
    frequency:   13.7835283510
  - # 19
    frequency:   16.4982537892
  - # 20
    frequency:   16.5247817161
  - # 21
    frequency:   17.8268569111
  - # 22
    frequency:   31.8511325621
  - # 23
    frequency:   41.3539578406
  - # 24
    frequency:   67.4424510776

- q-position: [    0.0404040,    0.0000000,    0.0000000 ]
  distance:    0.0146510
  band:
  - # 1
    frequency:   -4.2512367333
  - # 2
    frequency:   -4.1604986836
  - # 3
    frequency:   -0.5674967231
  - # 4
    frequency:   -0.1436913574
  - # 5
    frequency:    0.3670544405
  - # 6
    frequency:    0.7131695425
  - # 7
    frequency:    1.1243630985
  - # 8
    frequency:    4.6368041387
  - # 9
    frequency:    4.6945071737
  - # 10
    frequency:    6.0805043432
  - # 11
    frequency:    6.3985931571
  - # 12
    frequency:    6.5130384045
  - # 13
    frequency:   10.1350178415
  - # 14
    frequency:   10.5885943300
  - # 15
    frequency:   10.6537471585
  - # 16
    frequency:   11.1199084595
  - # 17
    frequency:   13.7712387225
  - # 18
    frequency:   13.7884397949
  - # 19
    frequency:   16.4931097549
  - # 20
    frequency:   16.5279236375
  - # 21
    frequency:   17.8262819818
  - # 22
    frequency:   31.8459174272
  - # 23
    frequency:   41.3437552911
  - # 24
    frequency:   67.4396686574

- q-position: [    0.0454545,    0.0000000,    0.0000000 ]
  distance:    0.0164824
  band:
  - # 1
    frequency:   -4.2593532343
  - # 2
    frequency:   -4.1451544691
  - # 3
    frequency:   -0.5328694930
  - # 4
    frequency:    0.0478642829
  - # 5
    frequency:    0.5177113378
  - # 6
    frequency:    0.8005732723
  - # 7
    frequency:    1.2662549047
  - # 8
    frequency:    4.6455593822
  - # 9
    frequency:    4.7174977123
  - # 10
    frequency:    6.0706974889
  - # 11
    frequency:    6.3997402441
  - # 12
    frequency:    6.5389554081
  - # 13
    frequency:   10.0918825130
  - # 14
    frequency:   10.5852001097
  - # 15
    frequency:   10.6572940077
  - # 16
    frequency:   11.1313386609
  - # 17
    frequency:   13.7722736686
  - # 18
    frequency:   13.7939761367
  - # 19
    frequency:   16.4872976497
  - # 20
    frequency:   16.5315857398
  - # 21
    frequency:   17.8255002497
  - # 22
    frequency:   31.8400425893
  - # 23
    frequency:   41.3322346032
  - # 24
    frequency:   67.4365313618

- q-position: [    0.0505051,    0.0000000,    0.0000000 ]
  distance:    0.0183137
  band:
  - # 1
    frequency:   -4.2684468217
  - # 2
    frequency:   -4.1283255076
  - # 3
    frequency:   -0.4908123635
  - # 4
    frequency:    0.1477325302
  - # 5
    frequency:    0.6522794741
  - # 6
    frequency:    0.8877854627
  - # 7
    frequency:    1.4084119410
  - # 8
    frequency:    4.6552629386
  - # 9
    frequency:    4.7426085676
  - # 10
    frequency:    6.0612234886
  - # 11
    frequency:    6.4010179820
  - # 12
    frequency:    6.5663705707
  - # 13
    frequency:   10.0471270415
  - # 14
    frequency:   10.5815222485
  - # 15
    frequency:   10.6593570291
  - # 16
    frequency:   11.1430186369
  - # 17
    frequency:   13.7734260674
  - # 18
    frequency:   13.8001264918
  - # 19
    frequency:   16.4808242787
  - # 20
    frequency:   16.5357986913
  - # 21
    frequency:   17.8244696364
  - # 22
    frequency:   31.8335211517
  - # 23
    frequency:   41.3194114201
  - # 24
    frequency:   67.4330451326

- q-position: [    0.0555556,    0.0000000,    0.0000000 ]
  distance:    0.0201451
  band:
  - # 1
    frequency:   -4.2785192056
  - # 2
    frequency:   -4.1100986222
  - # 3
    frequency:   -0.4392798718
  - # 4
    frequency:    0.2103851606
  - # 5
    frequency:    0.7755067350
  - # 6
    frequency:    0.9748476182
  - # 7
    frequency:    1.5507841295
  - # 8
    frequency:    4.6658887307
  - # 9
    frequency:    4.7696708432
  - # 10
    frequency:    6.0522062726
  - # 11
    frequency:    6.4024251621
  - # 12
    frequency:    6.5951445317
  - # 13
    frequency:   10.0010719226
  - # 14
    frequency:   10.5775973477
  - # 15
    frequency:   10.6599983939
  - # 16
    frequency:   11.1547177677
  - # 17
    frequency:   13.7746945535
  - # 18
    frequency:   13.8068789025
  - # 19
    frequency:   16.4736973198
  - # 20
    frequency:   16.5405930012
  - # 21
    frequency:   17.8231466507
  - # 22
    frequency:   31.8263676059
  - # 23
    frequency:   41.3053031194
  - # 24
    frequency:   67.4292165518

- q-position: [    0.0606061,    0.0000000,    0.0000000 ]
  distance:    0.0219765
  band:
  - # 1
    frequency:   -4.2895697001
  - # 2
    frequency:   -4.0905598305
  - # 3
    frequency:   -0.3745068246
  - # 4
    frequency:    0.2681774816
  - # 5
    frequency:    0.8911721321
  - # 6
    frequency:    1.0617846599
  - # 7
    frequency:    1.6933026178
  - # 8
    frequency:    4.6774085225
  - # 9
    frequency:    4.7985092177
  - # 10
    frequency:    6.0437417208
  - # 11
    frequency:    6.4039605587
  - # 12
    frequency:    6.6251672993
  - # 13
    frequency:    9.9540023874
  - # 14
    frequency:   10.5734648536
  - # 15
    frequency:   10.6593034089
  - # 16
    frequency:   11.1662329779
  - # 17
    frequency:   13.7760776523
  - # 18
    frequency:   13.8142204055
  - # 19
    frequency:   16.4659253440
  - # 20
    frequency:   16.5459981251
  - # 21
    frequency:   17.8214872832
  - # 22
    frequency:   31.8185977817
  - # 23
    frequency:   41.2899287781
  - # 24
    frequency:   67.4250528226

- q-position: [    0.0656566,    0.0000000,    0.0000000 ]
  distance:    0.0238079
  band:
  - # 1
    frequency:   -4.3015947110
  - # 2
    frequency:   -4.0697918597
  - # 3
    frequency:   -0.2878756872
  - # 4
    frequency:    0.3258918618
  - # 5
    frequency:    1.0015111025
  - # 6
    frequency:    1.1486065583
  - # 7
    frequency:    1.8358782997
  - # 8
    frequency:    4.6897920783
  - # 9
    frequency:    4.8289441129
  - # 10
    frequency:    6.0359056705
  - # 11
    frequency:    6.4056229567
  - # 12
    frequency:    6.6563509639
  - # 13
    frequency:    9.9061802619
  - # 14
    frequency:   10.5691667711
  - # 15
    frequency:   10.6573652398
  - # 16
    frequency:   11.1773918759
  - # 17
    frequency:   13.7775737885
  - # 18
    frequency:   13.8221371070
  - # 19
    frequency:   16.4575178366
  - # 20
    frequency:   16.5520416254
  - # 21
    frequency:   17.8194478775
  - # 22
    frequency:   31.8102287941
  - # 23
    frequency:   41.2733091355
  - # 24
    frequency:   67.4205617484

- q-position: [    0.0707071,    0.0000000,    0.0000000 ]
  distance:    0.0256392
  band:
  - # 1
    frequency:   -4.3145872740
  - # 2
    frequency:   -4.0478717088
  - # 3
    frequency:   -0.1446986399
  - # 4
    frequency:    0.3850193721
  - # 5
    frequency:    1.1078822006
  - # 6
    frequency:    1.2353103333
  - # 7
    frequency:    1.9784008476
  - # 8
    frequency:    4.7030073301
  - # 9
    frequency:    4.8607937238
  - # 10
    frequency:    6.0287598343
  - # 11
    frequency:    6.4074111789
  - # 12
    frequency:    6.6886244854
  - # 13
    frequency:    9.8578520282
  - # 14
    frequency:   10.5647473587
  - # 15
    frequency:   10.6542757368
  - # 16
    frequency:   11.1880535299
  - # 17
    frequency:   13.7791812950
  - # 18
    frequency:   13.8306142621
  - # 19
    frequency:   16.4484852177
  - # 20
    frequency:   16.5587484071
  - # 21
    frequency:   17.8169859614
  - # 22
    frequency:   31.8012789849
  - # 23
    frequency:   41.2554665518
  - # 24
    frequency:   67.4157517108

- q-position: [    0.0757576,    0.0000000,    0.0000000 ]
  distance:    0.0274706
  band:
  - # 1
    frequency:   -4.3285366542
  - # 2
    frequency:   -4.0248683369
  - # 3
    frequency:    0.2131253248
  - # 4
    frequency:    0.4461075603
  - # 5
    frequency:    1.2111526912
  - # 6
    frequency:    1.3218820485
  - # 7
    frequency:    2.1207381795
  - # 8
    frequency:    4.7170205505
  - # 9
    frequency:    4.8938759172
  - # 10
    frequency:    6.0223561347
  - # 11
    frequency:    6.4093241131
  - # 12
    frequency:    6.7219300162
  - # 13
    frequency:    9.8092544052
  - # 14
    frequency:   10.5602528053
  - # 15
    frequency:   10.6501203132
  - # 16
    frequency:   11.1981076089
  - # 17
    frequency:   13.7808984221
  - # 18
    frequency:   13.8396363584
  - # 19
    frequency:   16.4388388633
  - # 20
    frequency:   16.5661400476
  - # 21
    frequency:   17.8140610231
  - # 22
    frequency:   31.7917678617
  - # 23
    frequency:   41.2364249647
  - # 24
    frequency:   67.4106316450

- q-position: [    0.0808081,    0.0000000,    0.0000000 ]
  distance:    0.0293020
  band:
  - # 1
    frequency:   -4.3434280203
  - # 2
    frequency:   -4.0008405536
  - # 3
    frequency:    0.3407005509
  - # 4
    frequency:    0.5093430176
  - # 5
    frequency:    1.3119004754
  - # 6
    frequency:    1.4082986419
  - # 7
    frequency:    2.2627362743
  - # 8
    frequency:    4.7317965306
  - # 9
    frequency:    4.9280100291
  - # 10
    frequency:    6.0167398568
  - # 11
    frequency:    6.4113607367
  - # 12
    frequency:    6.7562203199
  - # 13
    frequency:    9.7606182805
  - # 14
    frequency:   10.5557308930
  - # 15
    frequency:   10.6449754024
  - # 16
    frequency:   11.2074725298
  - # 17
    frequency:   13.7827233460
  - # 18
    frequency:   13.8491872040
  - # 19
    frequency:   16.4285911243
  - # 20
    frequency:   16.5742342310
  - # 21
    frequency:   17.8106352232
  - # 22
    frequency:   31.7817160325
  - # 23
    frequency:   41.2162098427
  - # 24
    frequency:   67.4052110144

- q-position: [    0.0858586,    0.0000000,    0.0000000 ]
  distance:    0.0311334
  band:
  - # 1
    frequency:   -4.3592421971
  - # 2
    frequency:   -3.9758351745
  - # 3
    frequency:    0.4369110423
  - # 4
    frequency:    0.5747499590
  - # 5
    frequency:    1.4105239762
  - # 6
    frequency:    1.4945295435
  - # 7
    frequency:    2.4042192466
  - # 8
    frequency:    4.7472987610
  - # 9
    frequency:    4.9630186033
  - # 10
    frequency:    6.0119519139
  - # 11
    frequency:    6.4135201401
  - # 12
    frequency:    6.7914569471
  - # 13
    frequency:    9.7121715190
  - # 14
    frequency:   10.5512306477
  - # 15
    frequency:   10.6389074817
  - # 16
    frequency:   11.2160931051
  - # 17
    frequency:   13.7846541779
  - # 18
    frequency:   13.8592500155
  - # 19
    frequency:   16.4177553447
  - # 20
    frequency:   16.5830442944
  - # 21
    frequency:   17.8066740350
  - # 22
    frequency:   31.7711451373
  - # 23
    frequency:   41.1948481357
  - # 24
    frequency:   67.3994997839

- q-position: [    0.0909091,    0.0000000,    0.0000000 ]
  distance:    0.0329647
  band:
  - # 1
    frequency:   -4.3759555012
  - # 2
    frequency:   -3.9498854896
  - # 3
    frequency:    0.5193539440
  - # 4
    frequency:    0.6422718806
  - # 5
    frequency:    1.5073051945
  - # 6
    frequency:    1.5805380830
  - # 7
    frequency:    2.5449895973
  - # 8
    frequency:    4.7634896140
  - # 9
    frequency:    4.9987291324
  - # 10
    frequency:    6.0080304276
  - # 11
    frequency:    6.4158015469
  - # 12
    frequency:    6.8276089100
  - # 13
    frequency:    9.6641409880
  - # 14
    frequency:   10.5468019797
  - # 15
    frequency:   10.6319729899
  - # 16
    frequency:   11.2239380241
  - # 17
    frequency:   13.7866889720
  - # 18
    frequency:   13.8698075086
  - # 19
    frequency:   16.4063458773
  - # 20
    frequency:   16.5925788869
  - # 21
    frequency:   17.8021468085
  - # 22
    frequency:   31.7600777773
  - # 23
    frequency:   41.1723682237
  - # 24
    frequency:   67.3935083914

- q-position: [    0.0959596,    0.0000000,    0.0000000 ]
  distance:    0.0347961
  band:
  - # 1
    frequency:   -4.3935396609
  - # 2
    frequency:   -3.9230100765
  - # 3
    frequency:    0.5936745079
  - # 4
    frequency:    0.7118098073
  - # 5
    frequency:    1.6024477243
  - # 6
    frequency:    1.6662827087
  - # 7
    frequency:    2.6848285628
  - # 8
    frequency:    4.7803305262
  - # 9
    frequency:    5.0349758684
  - # 10
    frequency:    6.0050117640
  - # 11
    frequency:    6.4182043295
  - # 12
    frequency:    6.8646516546
  - # 13
    frequency:    9.6167540241
  - # 14
    frequency:   10.5424953186
  - # 15
    frequency:   10.6242187203
  - # 16
    frequency:   11.2309973736
  - # 17
    frequency:   13.7888257334
  - # 18
    frequency:   13.8808419861
  - # 19
    frequency:   16.3943780976
  - # 20
    frequency:   16.6028417409
  - # 21
    frequency:   17.7970272582
  - # 22
    frequency:   31.7485374409
  - # 23
    frequency:   41.1487998621
  - # 24
    frequency:   67.3872477182

- q-position: [    0.1010101,    0.0000000,    0.0000000 ]
  distance:    0.0366275
  band:
  - # 1
    frequency:   -4.4119618169
  - # 2
    frequency:   -3.8952119676
  - # 3
    frequency:    0.6625050099
  - # 4
    frequency:    0.7832420574
  - # 5
    frequency:    1.6961006751
  - # 6
    frequency:    1.7517180457
  - # 7
    frequency:    2.8234964962
  - # 8
    frequency:    4.7977821788
  - # 9
    frequency:    5.0716017747
  - # 10
    frequency:    6.0029311134
  - # 11
    frequency:    6.4207280212
  - # 12
    frequency:    6.9025661686
  - # 13
    frequency:    9.5702394923
  - # 14
    frequency:   10.5383612444
  - # 15
    frequency:   10.6156824331
  - # 16
    frequency:   11.2372803111
  - # 17
    frequency:   13.7910624255
  - # 18
    frequency:   13.8923354249
  - # 19
    frequency:   16.3818684142
  - # 20
    frequency:   16.6138315473
  - # 21
    frequency:   17.7912938751
  - # 22
    frequency:   31.7365484277
  - # 23
    frequency:   41.1241741254
  - # 24
    frequency:   67.3807290589

- q-position: [    0.1060606,    0.0000000,    0.0000000 ]
  distance:    0.0384589
  band:
  - # 1
    frequency:   -4.4311846003
  - # 2
    frequency:   -3.8664781645
  - # 3
    frequency:    0.7273075013
  - # 4
    frequency:    0.8564352858
  - # 5
    frequency:    1.7883742898
  - # 6
    frequency:    1.8367958168
  - # 7
    frequency:    2.9607332344
  - # 8
    frequency:    4.8158046760
  - # 9
    frequency:    5.1084606899
  - # 10
    frequency:    6.0018226789
  - # 11
    frequency:    6.4233723220
  - # 12
    frequency:    6.9413380881
  - # 13
    frequency:    9.5248285455
  - # 14
    frequency:   10.5344501182
  - # 15
    frequency:   10.6063935485
  - # 16
    frequency:   11.2428129392
  - # 17
    frequency:   13.7933969770
  - # 18
    frequency:   13.9042695588
  - # 19
    frequency:   16.3688342756
  - # 20
    frequency:   16.6255419264
  - # 21
    frequency:   17.7849302665
  - # 22
    frequency:   31.7241357708
  - # 23
    frequency:   41.0985233492
  - # 24
    frequency:   67.3739640892

- q-position: [    0.1111111,    0.0000000,    0.0000000 ]
  distance:    0.0402902
  band:
  - # 1
    frequency:   -4.4511662806
  - # 2
    frequency:   -3.8367794770
  - # 3
    frequency:    0.7889836283
  - # 4
    frequency:    0.9312510624
  - # 5
    frequency:    1.8793504671
  - # 6
    frequency:    1.9214656477
  - # 7
    frequency:    3.0962584259
  - # 8
    frequency:    4.8343577192
  - # 9
    frequency:    5.1454197537
  - # 10
    frequency:    6.0017195220
  - # 11
    frequency:    6.4261370996
  - # 12
    frequency:    6.9809566786
  - # 13
    frequency:    9.4807551597
  - # 14
    frequency:   10.5308117167
  - # 15
    frequency:   10.5963738455
  - # 16
    frequency:   11.2476363926
  - # 17
    frequency:   13.7958272877
  - # 18
    frequency:   13.9166259569
  - # 19
    frequency:   16.3552941735
  - # 20
    frequency:   16.6379614827
  - # 21
    frequency:   17.7779254284
  - # 22
    frequency:   31.7113251569
  - # 23
    frequency:   41.0718810694
  - # 24
    frequency:   67.3669648343

- q-position: [    0.1161616,    0.0000000,    0.0000000 ]
  distance:    0.0421216
  band:
  - # 1
    frequency:   -4.4718609776
  - # 2
    frequency:   -3.8060706479
  - # 3
    frequency:    0.8481298538
  - # 4
    frequency:    1.0075499993
  - # 5
    frequency:    1.9690900468
  - # 6
    frequency:    2.0056757725
  - # 7
    frequency:    3.2297718291
  - # 8
    frequency:    4.8534007759
  - # 9
    frequency:    5.1823621190
  - # 10
    frequency:    6.0026531166
  - # 11
    frequency:    6.4290223826
  - # 12
    frequency:    7.0214135790
  - # 13
    frequency:    9.4382565040
  - # 14
    frequency:   10.5274948720
  - # 15
    frequency:   10.5856381397
  - # 16
    frequency:   11.2518051270
  - # 17
    frequency:   13.7983512342
  - # 18
    frequency:   13.9293860959
  - # 19
    frequency:   16.3412676421
  - # 20
    frequency:   16.6510739276
  - # 21
    frequency:   17.7702739586
  - # 22
    frequency:   31.6981428457
  - # 23
    frequency:   41.0442819602
  - # 24
    frequency:   67.3597436350

- q-position: [    0.1212121,    0.0000000,    0.0000000 ]
  distance:    0.0439530
  band:
  - # 1
    frequency:   -4.4932189273
  - # 2
    frequency:   -3.7742907208
  - # 3
    frequency:    0.9051611557
  - # 4
    frequency:    1.0851944519
  - # 5
    frequency:    2.0576379751
  - # 6
    frequency:    2.0893736534
  - # 7
    frequency:    3.3609536303
  - # 8
    frequency:    4.8728932432
  - # 9
    frequency:    5.2191899174
  - # 10
    frequency:    6.0046526805
  - # 11
    frequency:    6.4320283479
  - # 12
    frequency:    7.0627011987
  - # 13
    frequency:    9.3975731876
  - # 14
    frequency:   10.5245471217
  - # 15
    frequency:   10.5741949344
  - # 16
    frequency:   11.2553853903
  - # 17
    frequency:   13.8009666741
  - # 18
    frequency:   13.9425314257
  - # 19
    frequency:   16.3267752513
  - # 20
    frequency:   16.6648582560
  - # 21
    frequency:   17.7619762155
  - # 22
    frequency:   31.6846155885
  - # 23
    frequency:   41.0157617705
  - # 24
    frequency:   67.3523131146

- q-position: [    0.1262626,    0.0000000,    0.0000000 ]
  distance:    0.0457844
  band:
  - # 1
    frequency:   -4.5151867944
  - # 2
    frequency:   -3.7413635975
  - # 3
    frequency:    0.9603774121
  - # 4
    frequency:    1.1640503405
  - # 5
    frequency:    2.1450270434
  - # 6
    frequency:    2.1725065242
  - # 7
    frequency:    3.4894648827
  - # 8
    frequency:    4.8927946037
  - # 9
    frequency:    5.2558273630
  - # 10
    frequency:    6.0077443884
  - # 11
    frequency:    6.4351552995
  - # 12
    frequency:    7.1048106721
  - # 13
    frequency:    9.3589494169
  - # 14
    frequency:   10.5220143714
  - # 15
    frequency:   10.5620470552
  - # 16
    frequency:   11.2584538497
  - # 17
    frequency:   13.8036714504
  - # 18
    frequency:   13.9560434283
  - # 19
    frequency:   16.3118385967
  - # 20
    frequency:   16.6792889589
  - # 21
    frequency:   17.7530384348
  - # 22
    frequency:   31.6707705454
  - # 23
    frequency:   40.9863572590
  - # 24
    frequency:   67.3446861438

- q-position: [    0.1313131,    0.0000000,    0.0000000 ]
  distance:    0.0476157
  band:
  - # 1
    frequency:   -4.5377080220
  - # 2
    frequency:   -3.7071987334
  - # 3
    frequency:    1.0140018209
  - # 4
    frequency:    1.2439883999
  - # 5
    frequency:    2.2312806465
  - # 6
    frequency:    2.2550218664
  - # 7
    frequency:    3.6149482364
  - # 8
    frequency:    4.9130645755
  - # 9
    frequency:    5.2922237671
  - # 10
    frequency:    6.0119506175
  - # 11
    frequency:    6.4384036408
  - # 12
    frequency:    7.1477292871
  - # 13
    frequency:    9.3226330833
  - # 14
    frequency:   10.5199405732
  - # 15
    frequency:   10.5491922824
  - # 16
    frequency:   11.2610963531
  - # 17
    frequency:   13.8064633939
  - # 18
    frequency:   13.9699036679
  - # 19
    frequency:   16.2964802823
  - # 20
    frequency:   16.6943362534
  - # 21
    frequency:   17.7434728124
  - # 22
    frequency:   31.6566352029
  - # 23
    frequency:   40.9561061273
  - # 24
    frequency:   67.3368758070

- q-position: [    0.1363636,    0.0000000,    0.0000000 ]
  distance:    0.0494471
  band:
  - # 1
    frequency:   -4.5607232110
  - # 2
    frequency:   -3.6716919161
  - # 3
    frequency:    1.0662044703
  - # 4
    frequency:    1.3248850380
  - # 5
    frequency:    2.3164148496
  - # 6
    frequency:    2.3368678244
  - # 7