nqpoint: 300    
npath: 3      
segment_nqpoint:
- 100
- 100
- 100
labels:
- [ 'G', 'M' ]
- [ 'M', 'K' ]
- [ 'K', 'G' ]
reciprocal_lattice:
- [   0.31403136,   0.18130609,   0.00000000 ] # a*
- [   0.00000000,   0.36261218,   0.00000000 ] # b*
- [   0.00000000,   0.00000000,   0.03780330 ] # c*
natom: 8      
lattice:
- [     3.184395352872577,     0.000000000000000,     0.000000000000000 ] # a
- [    -1.592197676436288,     2.757767271268655,     0.000000000000000 ] # b
- [     0.000000000000000,     0.000000000000000,    26.452717933013972 ] # c
points:
- symbol: C # 1
  coordinates: [  0.000000000000000,  0.000000000000000,  0.524133623526971 ]
  mass: 12.010700
- symbol: C # 2
  coordinates: [  0.666666984744047,  0.333332985985145,  0.385159075774785 ]
  mass: 12.010700
- symbol: N # 3
  coordinates: [  0.333332985432215,  0.666666983183674,  0.610178569650821 ]
  mass: 14.006700
- symbol: N # 4
  coordinates: [  0.666666984744047,  0.333332985985145,  0.340229689168071 ]
  mass: 14.006700
- symbol: O # 5
  coordinates: [  0.333332985432215,  0.666666983183674,  0.659770310831929 ]
  mass: 15.999400
- symbol: O # 6
  coordinates: [  0.666666984744047,  0.333332985985145,  0.435605290407837 ]
  mass: 15.999400
- symbol: Ti # 7
  coordinates: [  0.333332985432215,  0.666666983183674,  0.484984827035061 ]
  mass: 47.867000
- symbol: Ti # 8
  coordinates: [  0.666666984744047,  0.333332985985145,  0.574586021010638 ]
  mass: 47.867000

phonon:
- q-position: [    0.0000000,    0.0000000,    0.0000000 ]
  distance:    0.0000000
  band:
  - # 1
    frequency:   -4.4217616030
  - # 2
    frequency:   -4.4217616030
  - # 3
    frequency:   -0.3902648995
  - # 4
    frequency:   -0.3902648995
  - # 5
    frequency:   -0.0000027321
  - # 6
    frequency:    0.0000009006
  - # 7
    frequency:    0.0000033708
  - # 8
    frequency:    4.6987707570
  - # 9
    frequency:    4.6987707570
  - # 10
    frequency:    6.0606962426
  - # 11
    frequency:    6.3905570933
  - # 12
    frequency:    6.3905570933
  - # 13
    frequency:   10.3059230845
  - # 14
    frequency:   10.5309920091
  - # 15
    frequency:   10.5309920091
  - # 16
    frequency:   11.0105992340
  - # 17
    frequency:   13.7473558453
  - # 18
    frequency:   13.7473558453
  - # 19
    frequency:   16.2433206168
  - # 20
    frequency:   16.2433206168
  - # 21
    frequency:   17.7803454446
  - # 22
    frequency:   31.9313727278
  - # 23
    frequency:   41.4265600252
  - # 24
    frequency:   67.4615281237

- q-position: [    0.0050505,    0.0000000,    0.0000000 ]
  distance:    0.0018314
  band:
  - # 1
    frequency:   -4.4222427492
  - # 2
    frequency:   -4.4207339905
  - # 3
    frequency:   -0.3866511403
  - # 4
    frequency:   -0.3771144135
  - # 5
    frequency:   -0.1129766114
  - # 6
    frequency:    0.0802864700
  - # 7
    frequency:    0.1741003978
  - # 8
    frequency:    4.6992434227
  - # 9
    frequency:    4.6999781714
  - # 10
    frequency:    6.0597195067
  - # 11
    frequency:    6.3906118463
  - # 12
    frequency:    6.3929001535
  - # 13
    frequency:   10.3002545517
  - # 14
    frequency:   10.5308177608
  - # 15
    frequency:   10.5343897895
  - # 16
    frequency:   11.0115760596
  - # 17
    frequency:   13.7474510608
  - # 18
    frequency:   13.7477318845
  - # 19
    frequency:   16.2431716958
  - # 20
    frequency:   16.2436545186
  - # 21
    frequency:   17.7804811414
  - # 22
    frequency:   31.9308734785
  - # 23
    frequency:   41.4257858703
  - # 24
    frequency:   67.4613175468

- q-position: [    0.0101010,    0.0000000,    0.0000000 ]
  distance:    0.0036627
  band:
  - # 1
    frequency:   -4.4236854907
  - # 2
    frequency:   -4.4176553271
  - # 3
    frequency:   -0.3758541606
  - # 4
    frequency:   -0.3359482433
  - # 5
    frequency:   -0.1405976705
  - # 6
    frequency:    0.1611695108
  - # 7
    frequency:    0.3015883126
  - # 8
    frequency:    4.7006601927
  - # 9
    frequency:    4.7035902881
  - # 10
    frequency:    6.0568872750
  - # 11
    frequency:    6.3907762638
  - # 12
    frequency:    6.3998241725
  - # 13
    frequency:   10.2842941064
  - # 14
    frequency:   10.5302965814
  - # 15
    frequency:   10.5435548031
  - # 16
    frequency:   11.0144947019
  - # 17
    frequency:   13.7477364281
  - # 18
    frequency:   13.7488590228
  - # 19
    frequency:   16.2427240454
  - # 20
    frequency:   16.2446594184
  - # 21
    frequency:   17.7808835764
  - # 22
    frequency:   31.9293775381
  - # 23
    frequency:   41.4234649286
  - # 24
    frequency:   67.4606863297

- q-position: [    0.0151515,    0.0000000,    0.0000000 ]
  distance:    0.0054941
  band:
  - # 1
    frequency:   -4.4260877193
  - # 2
    frequency:   -4.4125380319
  - # 3
    frequency:   -0.3578610537
  - # 4
    frequency:   -0.2578412806
  - # 5
    frequency:   -0.1597960904
  - # 6
    frequency:    0.2430035992
  - # 7
    frequency:    0.4346569027
  - # 8
    frequency:    4.7030173934
  - # 9
    frequency:    4.7095769987
  - # 10
    frequency:    6.0524663378
  - # 11
    frequency:    6.3910508201
  - # 12
    frequency:    6.4110409473
  - # 13
    frequency:   10.2603243583
  - # 14
    frequency:   10.5294331618
  - # 15
    frequency:   10.5562570320
  - # 16
    frequency:   11.0193175794
  - # 17
    frequency:   13.7482111112
  - # 18
    frequency:   13.7507343278
  - # 19
    frequency:   16.2419750139
  - # 20
    frequency:   16.2463447536
  - # 21
    frequency:   17.7815388942
  - # 22
    frequency:   31.9268903181
  - # 23
    frequency:   41.4196017623
  - # 24
    frequency:   67.4596360109

- q-position: [    0.0202020,    0.0000000,    0.0000000 ]
  distance:    0.0073255
  band:
  - # 1
    frequency:   -4.4294458695
  - # 2
    frequency:   -4.4054024642
  - # 3
    frequency:   -0.3322301624
  - # 4
    frequency:   -0.1899640402
  - # 5
    frequency:    0.0255389319
  - # 6
    frequency:    0.3258266943
  - # 7
    frequency:    0.5717439468
  - # 8
    frequency:    4.7063089292
  - # 9
    frequency:    4.7178890082
  - # 10
    frequency:    6.0468264919
  - # 11
    frequency:    6.3914363009
  - # 12
    frequency:    6.4261454703
  - # 13
    frequency:   10.2305579385
  - # 14
    frequency:   10.5282352989
  - # 15
    frequency:   10.5703776819
  - # 16
    frequency:   11.0259759968
  - # 17
    frequency:   13.7488737216
  - # 18
    frequency:   13.7533529299
  - # 19
    frequency:   16.2409202121
  - # 20
    frequency:   16.2487257731
  - # 21
    frequency:   17.7824243695
  - # 22
    frequency:   31.9234208008
  - # 23
    frequency:   41.4142039537
  - # 24
    frequency:   67.4581691467

- q-position: [    0.0252525,    0.0000000,    0.0000000 ]
  distance:    0.0091569
  band:
  - # 1
    frequency:   -4.4337548424
  - # 2
    frequency:   -4.3962764191
  - # 3
    frequency:   -0.2975587095
  - # 4
    frequency:   -0.2065287860
  - # 5
    frequency:    0.2820419356
  - # 6
    frequency:    0.4094636648
  - # 7
    frequency:    0.7110392342
  - # 8
    frequency:    4.7105263223
  - # 9
    frequency:    4.7284591068
  - # 10
    frequency:    6.0403685993
  - # 11
    frequency:    6.3919337960
  - # 12
    frequency:    6.4446885739
  - # 13
    frequency:   10.1966293373
  - # 14
    frequency:   10.5267138644
  - # 15
    frequency:   10.5844238413
  - # 16
    frequency:   11.0343638259
  - # 17
    frequency:   13.7497223255
  - # 18
    frequency:   13.7567080493
  - # 19
    frequency:   16.2395535605
  - # 20
    frequency:   16.2518228411
  - # 21
    frequency:   17.7835089407
  - # 22
    frequency:   31.9189814854
  - # 23
    frequency:   41.4072820730
  - # 24
    frequency:   67.4562892999

- q-position: [    0.0303030,    0.0000000,    0.0000000 ]
  distance:    0.0109882
  band:
  - # 1
    frequency:   -4.4390079054
  - # 2
    frequency:   -4.3851944307
  - # 3
    frequency:   -0.2504453154
  - # 4
    frequency:   -0.2239461694
  - # 5
    frequency:    0.4191718266
  - # 6
    frequency:    0.4936789827
  - # 7
    frequency:    0.8514698597
  - # 8
    frequency:    4.7156587676
  - # 9
    frequency:    4.7412038416
  - # 10
    frequency:    6.0334711010
  - # 11
    frequency:    6.3925446897
  - # 12
    frequency:    6.4662313782
  - # 13
    frequency:   10.1596500582
  - # 14
    frequency:   10.5248827600
  - # 15
    frequency:   10.5974777950
  - # 16
    frequency:   11.0443332706
  - # 17
    frequency:   13.7507544546
  - # 18
    frequency:   13.7607910342
  - # 19
    frequency:   16.2378673532
  - # 20
    frequency:   16.2556605047
  - # 21
    frequency:   17.7847539285
  - # 22
    frequency:   31.9135883119
  - # 23
    frequency:   41.3988496334
  - # 24
    frequency:   67.4540010238

- q-position: [    0.0353535,    0.0000000,    0.0000000 ]
  distance:    0.0128196
  band:
  - # 1
    frequency:   -4.4451965706
  - # 2
    frequency:   -4.3721968929
  - # 3
    frequency:   -0.2385237373
  - # 4
    frequency:   -0.1815851665
  - # 5
    frequency:    0.5369347397
  - # 6
    frequency:    0.5782718137
  - # 7
    frequency:    0.9924626075
  - # 8
    frequency:    4.7216932013
  - # 9
    frequency:    4.7560254970
  - # 10
    frequency:    6.0264616653
  - # 11
    frequency:    6.3932706483
  - # 12
    frequency:    6.4903748401
  - # 13
    frequency:   10.1203806876
  - # 14
    frequency:   10.5227588594
  - # 15
    frequency:   10.6090247723
  - # 16
    frequency:   11.0556953209
  - # 17
    frequency:   13.7519671189
  - # 18
    frequency:   13.7655914118
  - # 19
    frequency:   16.2358523407
  - # 20
    frequency:   16.2602663681
  - # 21
    frequency:   17.7861139091
  - # 22
    frequency:   31.9072605652
  - # 23
    frequency:   41.3889230342
  - # 24
    frequency:   67.4513098417

- q-position: [    0.0404040,    0.0000000,    0.0000000 ]
  distance:    0.0146510
  band:
  - # 1
    frequency:   -4.4523104596
  - # 2
    frequency:   -4.3573290129
  - # 3
    frequency:   -0.2486406074
  - # 4
    frequency:    0.0265756120
  - # 5
    frequency:    0.6459256108
  - # 6
    frequency:    0.6631023869
  - # 7
    frequency:    1.1337079058
  - # 8
    frequency:    4.7286143824
  - # 9
    frequency:    4.7728142812
  - # 10
    frequency:    6.0196086702
  - # 11
    frequency:    6.3941136046
  - # 12
    frequency:    6.5167696764
  - # 13
    frequency:   10.0793653783
  - # 14
    frequency:   10.5203619352
  - # 15
    frequency:   10.6188125056
  - # 16
    frequency:   11.0682260018
  - # 17
    frequency:   13.7533568229
  - # 18
    frequency:   13.7710969514
  - # 19
    frequency:   16.2334978286
  - # 20
    frequency:   16.2656698193
  - # 21
    frequency:   17.7875377123
  - # 22
    frequency:   31.9000207587
  - # 23
    frequency:   41.3775214923
  - # 24
    frequency:   67.4482222222

- q-position: [    0.0454545,    0.0000000,    0.0000000 ]
  distance:    0.0164824
  band:
  - # 1
    frequency:   -4.4603371599
  - # 2
    frequency:   -4.3406396153
  - # 3
    frequency:   -0.2526801196
  - # 4
    frequency:    0.1957639651
  - # 5
    frequency:    0.7480831714
  - # 6
    frequency:    0.7499035356
  - # 7
    frequency:    1.2750236833
  - # 8
    frequency:    4.7364049855
  - # 9
    frequency:    4.7914506218
  - # 10
    frequency:    6.0131242029
  - # 11
    frequency:    6.3950757410
  - # 12
    frequency:    6.5451149474
  - # 13
    frequency:   10.0370162451
  - # 14
    frequency:   10.5177145720
  - # 15
    frequency:   10.6267559034
  - # 16
    frequency:   11.0816775951
  - # 17
    frequency:   13.7549195850
  - # 18
    frequency:   13.7772937410
  - # 19
    frequency:   16.2307917947
  - # 20
    frequency:   16.2719006630
  - # 21
    frequency:   17.7889695090
  - # 22
    frequency:   31.8918944995
  - # 23
    frequency:   41.3646669614
  - # 24
    frequency:   67.4447455507

- q-position: [    0.0505051,    0.0000000,    0.0000000 ]
  distance:    0.0183137
  band:
  - # 1
    frequency:   -4.4692620800
  - # 2
    frequency:   -4.3221798194
  - # 3
    frequency:   -0.2486446636
  - # 4
    frequency:    0.2826275809
  - # 5
    frequency:    0.8331617408
  - # 6
    frequency:    0.8506156111
  - # 7
    frequency:    1.4162862561
  - # 8
    frequency:    4.7450457029
  - # 9
    frequency:    4.8118074810
  - # 10
    frequency:    6.0071720355
  - # 11
    frequency:    6.3961594697
  - # 12
    frequency:    6.5751518049
  - # 13
    frequency:    9.9936635627
  - # 14
    frequency:   10.5148420639
  - # 15
    frequency:   10.6328732163
  - # 16
    frequency:   11.0957925411
  - # 17
    frequency:   13.7566509589
  - # 18
    frequency:   13.7841662772
  - # 19
    frequency:   16.2277210200
  - # 20
    frequency:   16.2789877128
  - # 21
    frequency:   17.7903499533
  - # 22
    frequency:   31.8829103355
  - # 23
    frequency:   41.3503840415
  - # 24
    frequency:   67.4408880968

- q-position: [    0.0555556,    0.0000000,    0.0000000 ]
  distance:    0.0201451
  band:
  - # 1
    frequency:   -4.4790683110
  - # 2
    frequency:   -4.3020016185
  - # 3
    frequency:   -0.2336030934
  - # 4
    frequency:    0.3540569753
  - # 5
    frequency:    0.9183062378
  - # 6
    frequency:    0.9489954851
  - # 7
    frequency:    1.5573960399
  - # 8
    frequency:    4.7545153558
  - # 9
    frequency:    4.8337526207
  - # 10
    frequency:    6.0018767328
  - # 11
    frequency:    6.3973674114
  - # 12
    frequency:    6.6066562146
  - # 13
    frequency:    9.9495856669
  - # 14
    frequency:   10.5117722955
  - # 15
    frequency:   10.6372424909
  - # 16
    frequency:   11.1103173016
  - # 17
    frequency:   13.7585460592
  - # 18
    frequency:   13.7916975685
  - # 19
    frequency:   16.2242712365
  - # 20
    frequency:   16.2869573963
  - # 21
    frequency:   17.7916173468
  - # 22
    frequency:   31.8730995857
  - # 23
    frequency:   41.3346998771
  - # 24
    frequency:   67.4366589776

- q-position: [    0.0606061,    0.0000000,    0.0000000 ]
  distance:    0.0219765
  band:
  - # 1
    frequency:   -4.4897365005
  - # 2
    frequency:   -4.2801563933
  - # 3
    frequency:   -0.2022045871
  - # 4
    frequency:    0.4180055631
  - # 5
    frequency:    1.0034954839
  - # 6
    frequency:    1.0455867638
  - # 7
    frequency:    1.6982601733
  - # 8
    frequency:    4.7647910113
  - # 9
    frequency:    4.8571507658
  - # 10
    frequency:    5.9973320711
  - # 11
    frequency:    6.3987023715
  - # 12
    frequency:    6.6394324326
  - # 13
    frequency:    9.9050271631
  - # 14
    frequency:   10.5085356072
  - # 15
    frequency:   10.6399718374
  - # 16
    frequency:   11.1250140300
  - # 17
    frequency:   13.7605995879
  - # 18
    frequency:   13.7998692515
  - # 19
    frequency:   16.2204272880
  - # 20
    frequency:   16.2958324219
  - # 21
    frequency:   17.7927087930
  - # 22
    frequency:   31.8624961556
  - # 23
    frequency:   41.3176440468
  - # 24
    frequency:   67.4320681185

- q-position: [    0.0656566,    0.0000000,    0.0000000 ]
  distance:    0.0238079
  band:
  - # 1
    frequency:   -4.5012447457
  - # 2
    frequency:   -4.2566933936
  - # 3
    frequency:   -0.1399213831
  - # 4
    frequency:    0.4774446782
  - # 5
    frequency:    1.0887128797
  - # 6
    frequency:    1.1407242978
  - # 7
    frequency:    1.8387833208
  - # 8
    frequency:    4.7758481052
  - # 9
    frequency:    4.8818656377
  - # 10
    frequency:    5.9936081194
  - # 11
    frequency:    6.4001673158
  - # 12
    frequency:    6.6733078453
  - # 13
    frequency:    9.8602103346
  - # 14
    frequency:   10.5051646440
  - # 15
    frequency:   10.6411797014
  - # 16
    frequency:   11.1396689472
  - # 17
    frequency:   13.7628058656
  - # 18
    frequency:   13.8086617189
  - # 19
    frequency:   16.2161733037
  - # 20
    frequency:   16.3056305543
  - # 21
    frequency:   17.7935613164
  - # 22
    frequency:   31.8511363379
  - # 23
    frequency:   41.2992484433
  - # 24
    frequency:   67.4271262098

- q-position: [    0.0707071,    0.0000000,    0.0000000 ]
  distance:    0.0256392
  band:
  - # 1
    frequency:   -4.5135685113
  - # 2
    frequency:   -4.2316582279
  - # 3
    frequency:    0.1026009925
  - # 4
    frequency:    0.5338329723
  - # 5
    frequency:    1.1739428402
  - # 6
    frequency:    1.2346221526
  - # 7
    frequency:    1.9788625175
  - # 8
    frequency:    4.7876605681
  - # 9
    frequency:    4.9077618525
  - # 10
    frequency:    5.9907568960
  - # 11
    frequency:    6.4017653440
  - # 12
    frequency:    6.7081292208
  - # 13
    frequency:    9.8153424941
  - # 14
    frequency:   10.5016941860
  - # 15
    frequency:   10.6409824929
  - # 16
    frequency:   11.1540973062
  - # 17
    frequency:   13.7651588635
  - # 18
    frequency:   13.8180542578
  - # 19
    frequency:   16.2114928847
  - # 20
    frequency:   16.3163635333
  - # 21
    frequency:   17.7941129233
  - # 22
    frequency:   31.8390586015
  - # 23
    frequency:   41.2795471463
  - # 24
    frequency:   67.4218446611

- q-position: [    0.0757576,    0.0000000,    0.0000000 ]
  distance:    0.0274706
  band:
  - # 1
    frequency:   -4.5266805762
  - # 2
    frequency:   -4.2050913976
  - # 3
    frequency:    0.2248509127
  - # 4
    frequency:    0.5879956163
  - # 5
    frequency:    1.2591687992
  - # 6
    frequency:    1.3274202974
  - # 7
    frequency:    2.1183840732
  - # 8
    frequency:    4.8002009540
  - # 9
    frequency:    4.9347066927
  - # 10
    frequency:    5.9888167427
  - # 11
    frequency:    6.4034996628
  - # 12
    frequency:    6.7437601875
  - # 13
    frequency:    9.7706208330
  - # 14
    frequency:   10.4981609647
  - # 15
    frequency:   10.6394874885
  - # 16
    frequency:   11.1681454632
  - # 17
    frequency:   13.7676522390
  - # 18
    frequency:   13.8280251962
  - # 19
    frequency:   16.2063692991
  - # 20
    frequency:   16.3280361698
  - # 21
    frequency:   17.7943035872
  - # 22
    frequency:   31.8263033694
  - # 23
    frequency:   41.2585762868
  - # 24
    frequency:   67.4162355527

- q-position: [    0.0808081,    0.0000000,    0.0000000 ]
  distance:    0.0293020
  band:
  - # 1
    frequency:   -4.5405510138
  - # 2
    frequency:   -4.1770269152
  - # 3
    frequency:    0.3187279545
  - # 4
    frequency:    0.6404424273
  - # 5
    frequency:    1.3443721527
  - # 6
    frequency:    1.4192111324
  - # 7
    frequency:    2.2572215542
  - # 8
    frequency:    4.8134405705
  - # 9
    frequency:    4.9625717801
  - # 10
    frequency:    5.9878156201
  - # 11
    frequency:    6.4053735579
  - # 12
    frequency:    6.7800796964
  - # 13
    frequency:    9.7262356734
  - # 14
    frequency:   10.4946034606
  - # 15
    frequency:   10.6367893298
  - # 16
    frequency:   11.1816908161
  - # 17
    frequency:   13.7702793727
  - # 18
    frequency:   13.8385520553
  - # 19
    frequency:   16.2007856875
  - # 20
    frequency:   16.3406456380
  - # 21
    frequency:   17.7940761465
  - # 22
    frequency:   31.8129127874
  - # 23
    frequency:   41.2363739070
  - # 24
    frequency:   67.4103115848

- q-position: [    0.0858586,    0.0000000,    0.0000000 ]
  distance:    0.0311334
  band:
  - # 1
    frequency:   -4.5551472066
  - # 2
    frequency:   -4.1474910408
  - # 3
    frequency:    0.4057310239
  - # 4
    frequency:    0.6915078951
  - # 5
    frequency:    1.4295317563
  - # 6
    frequency:    1.5100553958
  - # 7
    frequency:    2.3952343371
  - # 8
    frequency:    4.8273496084
  - # 9
    frequency:    4.9912346849
  - # 10
    frequency:    5.9877735257
  - # 11
    frequency:    6.4073903657
  - # 12
    frequency:    6.8169812264
  - # 13
    frequency:    9.6823726608
  - # 14
    frequency:   10.4910616863
  - # 15
    frequency:   10.6329688315
  - # 16
    frequency:   11.1946403578
  - # 17
    frequency:   13.7730334081
  - # 18
    frequency:   13.8496117054
  - # 19
    frequency:   16.1947252752
  - # 20
    frequency:   16.3541809793
  - # 21
    frequency:   17.7933771041
  - # 22
    frequency:   31.7989304852
  - # 23
    frequency:   41.2129798131
  - # 24
    frequency:   67.4040860246

- q-position: [    0.0909091,    0.0000000,    0.0000000 ]
  distance:    0.0329647
  band:
  - # 1
    frequency:   -4.5704338986
  - # 2
    frequency:   -4.1165011672
  - # 3
    frequency:    0.4904778635
  - # 4
    frequency:    0.7414211929
  - # 5
    frequency:    1.5146237487
  - # 6
    frequency:    1.5999921338
  - # 7
    frequency:    2.5322664627
  - # 8
    frequency:    4.8418972716
  - # 9
    frequency:    5.0205805083
  - # 10
    frequency:    5.9887042062
  - # 11
    frequency:    6.4095534442
  - # 12
    frequency:    6.8543725225
  - # 13
    frequency:    9.6392142333
  - # 14
    frequency:   10.4875769553
  - # 15
    frequency:   10.6280931677
  - # 16
    frequency:   11.2069284418
  - # 17
    frequency:   13.7759072923
  - # 18
    frequency:   13.8611805209
  - # 19
    frequency:   16.1881715898
  - # 20
    frequency:   16.3686228222
  - # 21
    frequency:   17.7921573277
  - # 22
    frequency:   31.7844013328
  - # 23
    frequency:   41.1884354248
  - # 24
    frequency:   67.3975726521

- q-position: [    0.0959596,    0.0000000,    0.0000000 ]
  distance:    0.0347961
  band:
  - # 1
    frequency:   -4.5863732830
  - # 2
    frequency:   -4.0840648787
  - # 3
    frequency:    0.5746907598
  - # 4
    frequency:    0.7903444941
  - # 5
    frequency:    1.5996215665
  - # 6
    frequency:    1.6890451836
  - # 7
    frequency:    2.6681456402
  - # 8
    frequency:    4.8570519051
  - # 9
    frequency:    5.0505034779
  - # 10
    frequency:    5.9906163077
  - # 11
    frequency:    6.4118661447
  - # 12
    frequency:    6.8921756838
  - # 13
    frequency:    9.5969405795
  - # 14
    frequency:   10.4841916360
  - # 15
    frequency:   10.6222168100
  - # 16
    frequency:   11.2185141871
  - # 17
    frequency:   13.7788938188
  - # 18
    frequency:   13.8732345337
  - # 19
    frequency:   16.1811086837
  - # 20
    frequency:   16.3839433174
  - # 21
    frequency:   17.7903726465
  - # 22
    frequency:   31.7693711916
  - # 23
    frequency:   41.1627836213
  - # 24
    frequency:   67.3907857040

- q-position: [    0.1010101,    0.0000000,    0.0000000 ]
  distance:    0.0366275
  band:
  - # 1
    frequency:   -4.6029251270
  - # 2
    frequency:   -4.0501792012
  - # 3
    frequency:    0.6591299567
  - # 4
    frequency:    0.8383954179
  - # 5
    frequency:    1.6844960675
  - # 6
    frequency:    1.7772275227
  - # 7
    frequency:    2.8026823170
  - # 8
    frequency:    4.8727811213
  - # 9
    frequency:    5.0809085785
  - # 10
    frequency:    5.9935140881
  - # 11
    frequency:    6.4143317827
  - # 12
    frequency:    6.9303274436
  - # 13
    frequency:    9.5557302321
  - # 14
    frequency:   10.4809488947
  - # 15
    frequency:   10.6153828160
  - # 16
    frequency:   11.2293787937
  - # 17
    frequency:   13.7819856709
  - # 18
    frequency:   13.8857495801
  - # 19
    frequency:   16.1735213579
  - # 20
    frequency:   16.4001062768
  - # 21
    frequency:   17.7879843477
  - # 22
    frequency:   31.7538866650
  - # 23
    frequency:   41.1360685840
  - # 24
    frequency:   67.3837398168

- q-position: [    0.1060606,    0.0000000,    0.0000000 ]
  distance:    0.0384589
  band:
  - # 1
    frequency:   -4.6200469292
  - # 2
    frequency:   -4.0148300524
  - # 3
    frequency:    0.7441416444
  - # 4
    frequency:    0.8856608935
  - # 5
    frequency:    1.7692157155
  - # 6
    frequency:    1.8645442679
  - # 7
    frequency:    2.9356687801
  - # 8
    frequency:    4.8890519246
  - # 9
    frequency:    5.1117132309
  - # 10
    frequency:    5.9973977987
  - # 11
    frequency:    6.4169536099
  - # 12
    frequency:    6.9687795012
  - # 13
    frequency:    9.5157603993
  - # 14
    frequency:   10.4778924280
  - # 15
    frequency:   10.6076242328
  - # 16
    frequency:   11.2395229281
  - # 17
    frequency:   13.7851754664
  - # 18
    frequency:   13.8987014392
  - # 19
    frequency:   16.1653953870
  - # 20
    frequency:   16.4170675039
  - # 21
    frequency:   17.7849595754
  - # 22
    frequency:   31.7379948477
  - # 23
    frequency:   41.1083356386
  - # 24
    frequency:   67.3764499695

- q-position: [    0.1111111,    0.0000000,    0.0000000 ]
  distance:    0.0402902
  band:
  - # 1
    frequency:   -4.6376941094
  - # 2
    frequency:   -3.9779918939
  - # 3
    frequency:    0.8298663475
  - # 4
    frequency:    0.9322060971
  - # 5
    frequency:    1.8537467930
  - # 6
    frequency:    1.9509947912
  - # 7
    frequency:    3.0668782909
  - # 8
    frequency:    4.9058308331
  - # 9
    frequency:    5.1428489948
  - # 10
    frequency:    6.0022638437
  - # 11
    frequency:    6.4197347862
  - # 12
    frequency:    7.0074987705
  - # 13
    frequency:    9.4772071171
  - # 14
    frequency:   10.4750661871
  - # 15
    frequency:   10.5989654864
  - # 16
    frequency:   11.2489642624
  - # 17
    frequency:   13.7884558022
  - # 18
    frequency:   13.9120659618
  - # 19
    frequency:   16.1567177420
  - # 20
    frequency:   16.4347752943
  - # 21
    frequency:   17.7812716388
  - # 22
    frequency:   31.7217430769
  - # 23
    frequency:   41.0796310968
  - # 24
    frequency:   67.3689314256

- q-position: [    0.1161616,    0.0000000,    0.0000000 ]
  distance:    0.0421216
  band:
  - # 1
    frequency:   -4.6558202252
  - # 2
    frequency:   -3.9396275769
  - # 3
    frequency:    0.9163332382
  - # 4
    frequency:    0.9780804190
  - # 5
    frequency:    1.9380536247
  - # 6
    frequency:    2.0365742446
  - # 7
    frequency:    3.1960642965
  - # 8
    frequency:    4.9230839980
  - # 9
    frequency:    5.1742632405
  - # 10
    frequency:    6.0081048273
  - # 11
    frequency:    6.4226783523
  - # 12
    frequency:    7.0464674141
  - # 13
    frequency:    9.4402452898
  - # 14
    frequency:   10.4725140962
  - # 15
    frequency:   10.5894236939
  - # 16
    frequency:   11.2577352012
  - # 17
    frequency:   13.7918192997
  - # 18
    frequency:   13.9258191852
  - # 19
    frequency:   16.1474768104
  - # 20
    frequency:   16.4531710830
  - # 21
    frequency:   17.7769002347
  - # 22
    frequency:   31.7051786867
  - # 23
    frequency:   41.0500020971
  - # 24
    frequency:   67.3611996752

- q-position: [    0.1212121,    0.0000000,    0.0000000 ]
  distance:    0.0439530
  band:
  - # 1
    frequency:   -4.6743772136
  - # 2
    frequency:   -3.8996883664
  - # 3
    frequency:    1.0035081818
  - # 4
    frequency:    1.0233215678
  - # 5
    frequency:    2.0220987961
  - # 6
    frequency:    2.1212746791
  - # 7
    frequency:    3.3229598068
  - # 8
    frequency:    4.9407773201
  - # 9
    frequency:    5.2059206760
  - # 10
    frequency:    6.0149096092
  - # 11
    frequency:    6.4257872030
  - # 12
    frequency:    7.0856825299
  - # 13
    frequency:    9.4050486817
  - # 14
    frequency:   10.4702797673
  - # 15
    frequency:   10.5790098755
  - # 16
    frequency:   11.2658808086
  - # 17
    frequency:   13.7952586487
  - # 18
    frequency:   13.9399374365
  - # 19
    frequency:   16.1376626110
  - # 20
    frequency:   16.4721902130
  - # 21
    frequency:   17.7718315922
  - # 22
    frequency:   31.6883487679
  - # 23
    frequency:   41.0194964491
  - # 24
    frequency:   67.3532703772

- q-position: [    0.1262626,    0.0000000,    0.0000000 ]
  distance:    0.0457844
  band:
  - # 1
    frequency:   -4.6933156520
  - # 2
    frequency:   -3.8581141203
  - # 3
    frequency:    1.0679584632
  - # 4
    frequency:    1.0913204318
  - # 5
    frequency:    2.1058433621
  - # 6
    frequency:    2.2050858789
  - # 7
    frequency:    3.4472770869
  - # 8
    frequency:    4.9588765642
  - # 9
    frequency:    5.2378045539
  - # 10
    frequency:    6.0226635053
  - # 11
    frequency:    6.4290640611
  - # 12
    frequency:    7.1251553493
  - # 13
    frequency:    9.3717899186
  - # 14
    frequency:   10.4684062141
  - # 15
    frequency:   10.5677300652
  - # 16
    frequency:   11.2734569331
  - # 17
    frequency:   13.7987666513
  - # 18
    frequency:   13.9543974197
  - # 19
    frequency:   16.1272670013
  - # 20
    frequency:   16.4917627968
  - # 21
    frequency:   17.7660585484
  - # 22
    frequency:   31.6712999337
  - # 23
    frequency:   40.9881624781
  - # 24
    frequency:   67.3451593030

- q-position: [    0.1313131,    0.0000000,    0.0000000 ]
  distance:    0.0476157
  band:
  - # 1
    frequency:   -4.7125850346
  - # 2
    frequency:   -3.8148335938
  - # 3
    frequency:    1.1120133214
  - # 4
    frequency:    1.1796784849
  - # 5
    frequency:    2.1892470382
  - # 6
    frequency:    2.2879959922
  - # 7
    frequency:    3.5687078850
  - # 8
    frequency:    4.9773474702
  - # 9
    frequency:    5.2699172976
  - # 10
    frequency:    6.0313487803
  - # 11
    frequency:    6.4325114520
  - # 12
    frequency:    7.1649098084
  - # 13
    frequency:    9.3406405577
  - # 14
    frequency:   10.4669355675
  - # 15
    frequency:   10.5555863277
  - # 16
    frequency:   11.2805285225
  - # 17
    frequency:   13.8023362649
  - # 18
    frequency:   13.9691762895
  - # 19
    frequency:   16.1162838766
  - # 20
    frequency:   16.5118146430
  - # 21
    frequency:   17.7595805631
  - # 22
    frequency:   31.6540780935
  - # 23
    frequency:   40.9560488744
  - # 24
    frequency:   67.3368822797

- q-position: [    0.1363636,    0.0000000,    0.0000000 ]
  distance:    0.0494471
  band:
  - # 1
    frequency:   -4.7321340609
  - # 2
    frequency:   -3.7697648333
  - # 3
    frequency:    1.1555031852
  - # 4
    frequency:    1.2684800031
  - # 5
    frequency:    2.2722683713
  - # 6
    frequency:    2.3699920153
  - # 7