nqpoint: 300    
npath: 3      
segment_nqpoint:
- 100
- 100
- 100
labels:
- [ 'G', 'M' ]
- [ 'M', 'K' ]
- [ 'K', 'G' ]
reciprocal_lattice:
- [   0.29978117,   0.17307874,   0.00000000 ] # a*
- [   0.00000000,   0.34615748,   0.00000000 ] # b*
- [   0.00000000,   0.00000000,   0.03958324 ] # c*
natom: 7      
lattice:
- [     3.335766544715209,     0.000000000000000,     0.000000000000000 ] # a
- [    -1.667883272357604,     2.888858568806096,     0.000000000000000 ] # b
- [     0.000000000000000,     0.000000000000000,    25.263217856011099 ] # c
points:
- symbol: C # 1
  coordinates: [  0.000000000000000,  0.000000000000000,  0.554951280939976 ]
  mass: 12.010700
- symbol: C # 2
  coordinates: [  0.666666984744047,  0.333332985985145,  0.403272400034399 ]
  mass: 12.010700
- symbol: H # 3
  coordinates: [  0.333332985432215,  0.666666983183674,  0.643750845545650 ]
  mass: 1.007940
- symbol: N # 4
  coordinates: [  0.666666984744047,  0.333332985985145,  0.356249154454351 ]
  mass: 14.006700
- symbol: O # 5
  coordinates: [  0.666666984744047,  0.333332985985145,  0.456165495713170 ]
  mass: 15.999400
- symbol: Sc # 6
  coordinates: [  0.333332985432215,  0.666666983183674,  0.505157462150193 ]
  mass: 44.955912
- symbol: Sc # 7
  coordinates: [  0.666666984744047,  0.333332985985145,  0.604395409348025 ]
  mass: 44.955912

phonon:
- q-position: [    0.0000000,    0.0000000,    0.0000000 ]
  distance:    0.0000000
  band:
  - # 1
    frequency:   -1.3087738920
  - # 2
    frequency:   -1.3087738920
  - # 3
    frequency:   -0.0000030490
  - # 4
    frequency:    0.0000021568
  - # 5
    frequency:    0.0000026140
  - # 6
    frequency:    5.0523747344
  - # 7
    frequency:    5.0523747344
  - # 8
    frequency:    6.4126590208
  - # 9
    frequency:    6.4126590208
  - # 10
    frequency:    6.9548210722
  - # 11
    frequency:   11.3057285236
  - # 12
    frequency:   11.3057285236
  - # 13
    frequency:   11.5100462807
  - # 14
    frequency:   13.7641972198
  - # 15
    frequency:   13.7641972198
  - # 16
    frequency:   19.2608710389
  - # 17
    frequency:   25.5293626213
  - # 18
    frequency:   25.5293626213
  - # 19
    frequency:   27.3704197598
  - # 20
    frequency:   32.1753351744
  - # 21
    frequency:   68.0150127748

- q-position: [    0.0050505,    0.0000000,    0.0000000 ]
  distance:    0.0017483
  band:
  - # 1
    frequency:   -1.3077355884
  - # 2
    frequency:   -1.3053284759
  - # 3
    frequency:   -0.0352813058
  - # 4
    frequency:    0.0885078437
  - # 5
    frequency:    0.1383317245
  - # 6
    frequency:    5.0526929556
  - # 7
    frequency:    5.0540336092
  - # 8
    frequency:    6.4129467830
  - # 9
    frequency:    6.4153500116
  - # 10
    frequency:    6.9554176156
  - # 11
    frequency:   11.3064574296
  - # 12
    frequency:   11.3146048748
  - # 13
    frequency:   11.5094802873
  - # 14
    frequency:   13.7642513902
  - # 15
    frequency:   13.7644541092
  - # 16
    frequency:   19.2584433618
  - # 17
    frequency:   25.5294055839
  - # 18
    frequency:   25.5313130658
  - # 19
    frequency:   27.3694751178
  - # 20
    frequency:   32.1747234113
  - # 21
    frequency:   68.0147143376

- q-position: [    0.0101010,    0.0000000,    0.0000000 ]
  distance:    0.0034965
  band:
  - # 1
    frequency:   -1.3046381599
  - # 2
    frequency:   -1.2950356186
  - # 3
    frequency:   -0.0505782796
  - # 4
    frequency:    0.1771150994
  - # 5
    frequency:    0.2727582795
  - # 6
    frequency:    5.0536465673
  - # 7
    frequency:    5.0589763375
  - # 8
    frequency:    6.4138069896
  - # 9
    frequency:    6.4232720500
  - # 10
    frequency:    6.9572588163
  - # 11
    frequency:   11.3086387698
  - # 12
    frequency:   11.3408334209
  - # 13
    frequency:   11.5081318942
  - # 14
    frequency:   13.7644139323
  - # 15
    frequency:   13.7652243528
  - # 16
    frequency:   19.2511704200
  - # 17
    frequency:   25.5295335867
  - # 18
    frequency:   25.5371521795
  - # 19
    frequency:   27.3666503887
  - # 20
    frequency:   32.1728904403
  - # 21
    frequency:   68.0138198590

- q-position: [    0.0151515,    0.0000000,    0.0000000 ]
  distance:    0.0052448
  band:
  - # 1
    frequency:   -1.2995323980
  - # 2
    frequency:   -1.2780145612
  - # 3
    frequency:   -0.0669136617
  - # 4
    frequency:    0.2659112401
  - # 5
    frequency:    0.4087889229
  - # 6
    frequency:    5.0552324183
  - # 7
    frequency:    5.0671049052
  - # 8
    frequency:    6.4152304513
  - # 9
    frequency:    6.4359790276
  - # 10
    frequency:    6.9604995364
  - # 11
    frequency:   11.3122564564
  - # 12
    frequency:   11.3824605652
  - # 13
    frequency:   11.5077994211
  - # 14
    frequency:   13.7646849387
  - # 15
    frequency:   13.7665066965
  - # 16
    frequency:   19.2390823568
  - # 17
    frequency:   25.5297439847
  - # 18
    frequency:   25.5468431566
  - # 19
    frequency:   27.3619733692
  - # 20
    frequency:   32.1698432002
  - # 21
    frequency:   68.0123318333

- q-position: [    0.0202020,    0.0000000,    0.0000000 ]
  distance:    0.0069931
  band:
  - # 1
    frequency:   -1.2924976360
  - # 2
    frequency:   -1.2544290350
  - # 3
    frequency:   -0.0816836824
  - # 4
    frequency:    0.3549669571
  - # 5
    frequency:    0.5460114582
  - # 6
    frequency:    5.0574452689
  - # 7
    frequency:    5.0782673752
  - # 8
    frequency:    6.4172020210
  - # 9
    frequency:    6.4527503695
  - # 10
    frequency:    6.9653971955
  - # 11
    frequency:   11.3172838274
  - # 12
    frequency:   11.4303509941
  - # 13
    frequency:   11.5173515455
  - # 14
    frequency:   13.7650645637
  - # 15
    frequency:   13.7682991169
  - # 16
    frequency:   19.2222289992
  - # 17
    frequency:   25.5300323999
  - # 18
    frequency:   25.5603241467
  - # 19
    frequency:   27.3554910841
  - # 20
    frequency:   32.1655932051
  - # 21
    frequency:   68.0102544029

- q-position: [    0.0252525,    0.0000000,    0.0000000 ]
  distance:    0.0087414
  band:
  - # 1
    frequency:   -1.2836344342
  - # 2
    frequency:   -1.2244400709
  - # 3
    frequency:   -0.0930845307
  - # 4
    frequency:    0.4443273848
  - # 5
    frequency:    0.6844095924
  - # 6
    frequency:    5.0602778112
  - # 7
    frequency:    5.0922724038
  - # 8
    frequency:    6.4197008418
  - # 9
    frequency:    6.4726278250
  - # 10
    frequency:    6.9723063795
  - # 11
    frequency:   11.3236838729
  - # 12
    frequency:   11.4549599380
  - # 13
    frequency:   11.5659450852
  - # 14
    frequency:   13.7655530233
  - # 15
    frequency:   13.7705989306
  - # 16
    frequency:   19.2006792657
  - # 17
    frequency:   25.5303927671
  - # 18
    frequency:   25.5775074215
  - # 19
    frequency:   27.3472708819
  - # 20
    frequency:   32.1601564688
  - # 21
    frequency:   68.0075933367

- q-position: [    0.0303030,    0.0000000,    0.0000000 ]
  distance:    0.0104896
  band:
  - # 1
    frequency:   -1.2730556129
  - # 2
    frequency:   -1.1881508025
  - # 3
    frequency:   -0.0992131182
  - # 4
    frequency:    0.5340080995
  - # 5
    frequency:    0.8239422770
  - # 6
    frequency:    5.0637206974
  - # 7
    frequency:    5.1089052361
  - # 8
    frequency:    6.4227006827
  - # 9
    frequency:    6.4944721175
  - # 10
    frequency:    6.9816621552
  - # 11
    frequency:   11.3314095500
  - # 12
    frequency:   11.4537237991
  - # 13
    frequency:   11.6556237045
  - # 14
    frequency:   13.7661505950
  - # 15
    frequency:   13.7734029680
  - # 16
    frequency:   19.1745203817
  - # 17
    frequency:   25.5308173974
  - # 18
    frequency:   25.5982780656
  - # 19
    frequency:   27.3374020686
  - # 20
    frequency:   32.1535533999
  - # 21
    frequency:   68.0043559988

- q-position: [    0.0353535,    0.0000000,    0.0000000 ]
  distance:    0.0122379
  band:
  - # 1
    frequency:   -1.2608767345
  - # 2
    frequency:   -1.1455527844
  - # 3
    frequency:   -0.0972495508
  - # 4
    frequency:    0.6239942129
  - # 5
    frequency:    0.9644906438
  - # 6
    frequency:    5.0677625793
  - # 7
    frequency:    5.1279425312
  - # 8
    frequency:    6.4261703549
  - # 9
    frequency:    6.5170442439
  - # 10
    frequency:    6.9939434450
  - # 11
    frequency:   11.3404041853
  - # 12
    frequency:   11.4438434081
  - # 13
    frequency:   11.7685258157
  - # 14
    frequency:   13.7668576163
  - # 15
    frequency:   13.7767078405
  - # 16
    frequency:   19.1438569480
  - # 17
    frequency:   25.5312970582
  - # 18
    frequency:   25.6224920452
  - # 19
    frequency:   27.3259981888
  - # 20
    frequency:   32.1458086686
  - # 21
    frequency:   68.0005513104

- q-position: [    0.0404040,    0.0000000,    0.0000000 ]
  distance:    0.0139862
  band:
  - # 1
    frequency:   -1.2472071676
  - # 2
    frequency:   -1.0964820510
  - # 3
    frequency:   -0.0812365714
  - # 4
    frequency:    0.7142424147
  - # 5
    frequency:    1.1058681270
  - # 6
    frequency:    5.0723901593
  - # 7
    frequency:    5.1491641780
  - # 8
    frequency:    6.4300741949
  - # 9
    frequency:    6.5391136811
  - # 10
    frequency:    7.0096098036
  - # 11
    frequency:   11.3506019628
  - # 12
    frequency:   11.4300285270
  - # 13
    frequency:   11.8991353860
  - # 14
    frequency:   13.7676744837
  - # 15
    frequency:   13.7805103564
  - # 16
    frequency:   19.1088099111
  - # 17
    frequency:   25.5318210713
  - # 18
    frequency:   25.6499734636
  - # 19
    frequency:   27.3132001013
  - # 20
    frequency:   32.1369510461
  - # 21
    frequency:   67.9961897028

- q-position: [    0.0454545,    0.0000000,    0.0000000 ]
  distance:    0.0157344
  band:
  - # 1
    frequency:   -1.2321426779
  - # 2
    frequency:   -1.0405898376
  - # 3
    frequency:   -0.0126148925
  - # 4
    frequency:    0.8046853861
  - # 5
    frequency:    1.2478470691
  - # 6
    frequency:    5.0775882540
  - # 7
    frequency:    5.1723613039
  - # 8
    frequency:    6.4343726031
  - # 9
    frequency:    6.5595858449
  - # 10
    frequency:    7.0290149922
  - # 11
    frequency:   11.3619284934
  - # 12
    frequency:   11.4134689921
  - # 13
    frequency:   12.0453119068
  - # 14
    frequency:   13.7686016492
  - # 15
    frequency:   13.7848081898
  - # 16
    frequency:   19.0695154899
  - # 17
    frequency:   25.5323774251
  - # 18
    frequency:   25.6805107684
  - # 19
    frequency:   27.2991800425
  - # 20
    frequency:   32.1270132184
  - # 21
    frequency:   67.9912830627

- q-position: [    0.0505051,    0.0000000,    0.0000000 ]
  distance:    0.0174827
  band:
  - # 1
    frequency:   -1.2157601329
  - # 2
    frequency:   -0.9773317861
  - # 3
    frequency:    0.1061297351
  - # 4
    frequency:    0.8952377069
  - # 5
    frequency:    1.3901857348
  - # 6
    frequency:    5.0833398724
  - # 7
    frequency:    5.1973405877
  - # 8
    frequency:    6.4390226228
  - # 9
    frequency:    6.5776242761
  - # 10
    frequency:    7.0523184628
  - # 11
    frequency:   11.3743014640
  - # 12
    frequency:   11.3945913156
  - # 13
    frequency:   12.2055413118
  - # 14
    frequency:   13.7696396160
  - # 15
    frequency:   13.7896010124
  - # 16
    frequency:   19.0261241196
  - # 17
    frequency:   25.5329529030
  - # 18
    frequency:   25.7138516275
  - # 19
    frequency:   27.2841469170
  - # 20
    frequency:   32.1160315757
  - # 21
    frequency:   67.9858446709

- q-position: [    0.0555556,    0.0000000,    0.0000000 ]
  distance:    0.0192310
  band:
  - # 1
    frequency:   -1.1981144653
  - # 2
    frequency:   -0.9059875353
  - # 3
    frequency:    0.1718394070
  - # 4
    frequency:    0.9858022886
  - # 5
    frequency:    1.5326486777
  - # 6
    frequency:    5.0896263093
  - # 7
    frequency:    5.2239255747
  - # 8
    frequency:    6.4439785470
  - # 9
    frequency:    6.5927304900
  - # 10
    frequency:    7.0794297570
  - # 11
    frequency:   11.3735990789
  - # 12
    frequency:   11.3876313603
  - # 13
    frequency:   12.3784088386
  - # 14
    frequency:   13.7707889317
  - # 15
    frequency:   13.7948925376
  - # 16
    frequency:   18.9787994685
  - # 17
    frequency:   25.5335332251
  - # 18
    frequency:   25.7496961588
  - # 19
    frequency:   27.2683530968
  - # 20
    frequency:   32.1040459796
  - # 21
    frequency:   67.9798891343

- q-position: [    0.0606061,    0.0000000,    0.0000000 ]
  distance:    0.0209792
  band:
  - # 1
    frequency:   -1.1792376460
  - # 2
    frequency:   -0.8257498080
  - # 3
    frequency:    0.2393058193
  - # 4
    frequency:    1.0762764892
  - # 5
    frequency:    1.6750186321
  - # 6
    frequency:    5.0964272552
  - # 7
    frequency:    5.2519559199
  - # 8
    frequency:    6.4491925378
  - # 9
    frequency:    6.6047529946
  - # 10
    frequency:    7.1100137729
  - # 11
    frequency:   11.3506150941
  - # 12
    frequency:   11.4018222586
  - # 13
    frequency:   12.5624736737
  - # 14
    frequency:   13.7720501795
  - # 15
    frequency:   13.8006945107
  - # 16
    frequency:   18.9277175930
  - # 17
    frequency:   25.5341032026
  - # 18
    frequency:   25.7876881929
  - # 19
    frequency:   27.2521030211
  - # 20
    frequency:   32.0910995098
  - # 21
    frequency:   67.9734323108

- q-position: [    0.0656566,    0.0000000,    0.0000000 ]
  distance:    0.0227275
  band:
  - # 1
    frequency:   -1.1591391551
  - # 2
    frequency:   -0.7359746298
  - # 3
    frequency:    0.3136767344
  - # 4
    frequency:    1.1665573139
  - # 5
    frequency:    1.8171011126
  - # 6
    frequency:    5.1037209224
  - # 7
    frequency:    5.2812854449
  - # 8
    frequency:    6.4546152463
  - # 9
    frequency:    6.6138277062
  - # 10
    frequency:    7.1435554582
  - # 11
    frequency:   11.3257288801
  - # 12
    frequency:   11.4167726802
  - # 13
    frequency:   12.7562374024
  - # 14
    frequency:   13.7734239660
  - # 15
    frequency:   13.8070352998
  - # 16
    frequency:   18.8730662905
  - # 17
    frequency:   25.5346469041
  - # 18
    frequency:   25.8274043134
  - # 19
    frequency:   27.2357638363
  - # 20
    frequency:   32.0772381921
  - # 21
    frequency:   67.9664912302

- q-position: [    0.0707071,    0.0000000,    0.0000000 ]
  distance:    0.0244758
  band:
  - # 1
    frequency:   -1.1378073357
  - # 2
    frequency:   -0.6366845710
  - # 3
    frequency:    0.3983554823
  - # 4
    frequency:    1.2565454098
  - # 5
    frequency:    1.9587240229
  - # 6
    frequency:    5.1114841881
  - # 7
    frequency:    5.3117797146
  - # 8
    frequency:    6.4601964208
  - # 9
    frequency:    6.6202816488
  - # 10
    frequency:    7.1794537424
  - # 11
    frequency:   11.2990154190
  - # 12
    frequency:   11.4323765008
  - # 13
    frequency:   12.9581304759
  - # 14
    frequency:   13.7749109060
  - # 15
    frequency:   13.8139808547
  - # 16
    frequency:   18.8150447216
  - # 17
    frequency:   25.5351478308
  - # 18
    frequency:   25.8683406368
  - # 19
    frequency:   27.2197781086
  - # 20
    frequency:   32.0625107109
  - # 21
    frequency:   67.9590840086

- q-position: [    0.0757576,    0.0000000,    0.0000000 ]
  distance:    0.0262241
  band:
  - # 1
    frequency:   -1.1152110442
  - # 2
    frequency:   -0.5288743934
  - # 3
    frequency:    0.4954649707
  - # 4
    frequency:    1.3461478135
  - # 5
    frequency:    2.0997344814
  - # 6
    frequency:    5.1196927538
  - # 7
    frequency:    5.3433136088
  - # 8
    frequency:    6.4658854926
  - # 9
    frequency:    6.6245379596
  - # 10
    frequency:    7.2171088078
  - # 11
    frequency:   11.2705435200
  - # 12
    frequency:   11.4485239076
  - # 13
    frequency:   13.1664689489
  - # 14
    frequency:   13.7765116035
  - # 15
    frequency:   13.8216954716
  - # 16
    frequency:   18.7538633796
  - # 17
    frequency:   25.5355891013
  - # 18
    frequency:   25.9098978013
  - # 19
    frequency:   27.2046781477
  - # 20
    frequency:   32.0469681077
  - # 21
    frequency:   67.9512297596

- q-position: [    0.0808081,    0.0000000,    0.0000000 ]
  distance:    0.0279723
  band:
  - # 1
    frequency:   -1.0913011144
  - # 2
    frequency:   -0.4121927713
  - # 3
    frequency:    0.6038267375
  - # 4
    frequency:    1.4352795886
  - # 5
    frequency:    2.2399944828
  - # 6
    frequency:    5.1283213202
  - # 7
    frequency:    5.3757691655
  - # 8
    frequency:    6.4716321315
  - # 9
    frequency:    6.6270452674
  - # 10
    frequency:    7.2559817510
  - # 11
    frequency:   11.2403798991
  - # 12
    frequency:   11.4651023942
  - # 13
    frequency:   13.3792457329
  - # 14
    frequency:   13.7782266285
  - # 15
    frequency:   13.8306703341
  - # 16
    frequency:   18.6897445077
  - # 17
    frequency:   25.5359536428
  - # 18
    frequency:   25.9513656432
  - # 19
    frequency:   27.1911004830
  - # 20
    frequency:   32.0306634688
  - # 21
    frequency:   67.9429485010

- q-position: [    0.0858586,    0.0000000,    0.0000000 ]
  distance:    0.0297206
  band:
  - # 1
    frequency:   -1.0660112753
  - # 2
    frequency:   -0.2745097945
  - # 3
    frequency:    0.7183435196
  - # 4
    frequency:    1.5238645769
  - # 5
    frequency:    2.3793763780
  - # 6
    frequency:    5.1373437769
  - # 7
    frequency:    5.4090338208
  - # 8
    frequency:    6.4773867642
  - # 9
    frequency:    6.6282359933
  - # 10
    frequency:    7.2956239072
  - # 11
    frequency:   11.2085913046
  - # 12
    frequency:   11.4819977839
  - # 13
    frequency:   13.5927925546
  - # 14
    frequency:   13.7800564905
  - # 15
    frequency:   13.8430800569
  - # 16
    frequency:   18.6229230917
  - # 17
    frequency:   25.5362243867
  - # 18
    frequency:   25.9919108218
  - # 19
    frequency:   27.1797972628
  - # 20
    frequency:   32.0136516037
  - # 21
    frequency:   67.9342610595

- q-position: [    0.0909091,    0.0000000,    0.0000000 ]
  distance:    0.0314689
  band:
  - # 1
    frequency:   -1.0392582582
  - # 2
    frequency:    0.0988341657
  - # 3
    frequency:    0.8333083780
  - # 4
    frequency:    1.6118355045
  - # 5
    frequency:    2.5177586714
  - # 6
    frequency:    5.1467334041
  - # 7
    frequency:    5.4429990723
  - # 8
    frequency:    6.4831010487
  - # 9
    frequency:    6.6285074735
  - # 10
    frequency:    7.3356833236
  - # 11
    frequency:   11.1752456789
  - # 12
    frequency:   11.4990952712
  - # 13
    frequency:   13.7815522574
  - # 14
    frequency:   13.7820016069
  - # 15
    frequency:   13.8830257764
  - # 16
    frequency:   18.5536486120
  - # 17
    frequency:   25.5363844688
  - # 18
    frequency:   26.0305733591
  - # 19
    frequency:   27.1716386528
  - # 20
    frequency:   31.9959887181
  - # 21
    frequency:   67.9251889720

- q-position: [    0.0959596,    0.0000000,    0.0000000 ]
  distance:    0.0332171
  band:
  - # 1
    frequency:   -1.0109408808
  - # 2
    frequency:    0.3034866009
  - # 3
    frequency:    0.9453038622
  - # 4
    frequency:    1.6991336593
  - # 5
    frequency:    2.6550223225
  - # 6
    frequency:    5.1564630860
  - # 7
    frequency:    5.4775595442
  - # 8
    frequency:    6.4887283056
  - # 9
    frequency:    6.6282173653
  - # 10
    frequency:    7.3758978435
  - # 11
    frequency:   11.1404128136
  - # 12
    frequency:   11.5162804710
  - # 13
    frequency:   13.7840622686
  - # 14
    frequency:   13.8368979685
  - # 15
    frequency:   14.0577273065
  - # 16
    frequency:   18.4821878134
  - # 17
    frequency:   25.5364174295
  - # 18
    frequency:   26.0662812936
  - # 19
    frequency:   27.1675970884
  - # 20
    frequency:   31.9777320825
  - # 21
    frequency:   67.9157543863

- q-position: [    0.1010101,    0.0000000,    0.0000000 ]
  distance:    0.0349654
  band:
  - # 1
    frequency:   -0.9809378842
  - # 2
    frequency:    0.4203188639
  - # 3
    frequency:    1.0530965473
  - # 4
    frequency:    1.7857083170
  - # 5
    frequency:    2.7910475697
  - # 6
    frequency:    5.1665055322
  - # 7
    frequency:    5.5126124117
  - # 8
    frequency:    6.4942239001
  - # 9
    frequency:    6.6276864544
  - # 10
    frequency:    7.4160821985
  - # 11
    frequency:   11.1041647219
  - # 12
    frequency:   11.5334404638
  - # 13
    frequency:   13.7862386008
  - # 14
    frequency:   13.8515160923
  - # 15
    frequency:   14.2731468614
  - # 16
    frequency:   18.4088288800
  - # 17
    frequency:   25.5363074147
  - # 18
    frequency:   26.0978946959
  - # 19
    frequency:   27.1687021872
  - # 20
    frequency:   31.9589397008
  - # 21
    frequency:   67.9059799600

- q-position: [    0.1060606,    0.0000000,    0.0000000 ]
  distance:    0.0367137
  band:
  - # 1
    frequency:   -0.9491042191
  - # 2
    frequency:    0.5165331857
  - # 3
    frequency:    1.1565741607
  - # 4
    frequency:    1.8715160404
  - # 5
    frequency:    2.9257112163
  - # 6
    frequency:    5.1768335058
  - # 7
    frequency:    5.5480571462
  - # 8
    frequency:    6.4995455792
  - # 9
    frequency:    6.6272044905
  - # 10
    frequency:    7.4561136771
  - # 11
    frequency:   11.0665758502
  - # 12
    frequency:   11.5504648252
  - # 13
    frequency:   13.7885305219
  - # 14
    frequency:   13.8625080751
  - # 15
    frequency:   14.4908889732
  - # 16
    frequency:   18.3338875926
  - # 17
    frequency:   25.5360393731
  - # 18
    frequency:   26.1242875690
  - # 19
    frequency:   27.1759578677
  - # 20
    frequency:   31.9396699798
  - # 21
    frequency:   67.8958887598

- q-position: [    0.1111111,    0.0000000,    0.0000000 ]
  distance:    0.0384619
  band:
  - # 1
    frequency:   -0.9152653060
  - # 2
    frequency:    0.6039456398
  - # 3
    frequency:    1.2560412219
  - # 4
    frequency:    1.9565199404
  - # 5
    frequency:    3.0588842923
  - # 6
    frequency:    5.1874200549
  - # 7
    frequency:    5.5837955573
  - # 8
    frequency:    6.5046537624
  - # 9
    frequency:    6.6270366613
  - # 10
    frequency:    7.4959187243
  - # 11
    frequency:   11.0277231910
  - # 12
    frequency:   11.5672466305
  - # 13
    frequency:   13.7909377002
  - # 14
    frequency:   13.8727945189
  - # 15
    frequency:   14.7067924554
  - # 16
    frequency:   18.2577163564
  - # 17
    frequency:   25.5355992500
  - # 18
    frequency:   26.1444645351
  - # 19
    frequency:   27.1902248322
  - # 20
    frequency:   31.9199814032
  - # 21
    frequency:   67.8855041610

- q-position: [    0.1161616,    0.0000000,    0.0000000 ]
  distance:    0.0402102
  band:
  - # 1
    frequency:   -0.8792084877
  - # 2
    frequency:    0.6870638400
  - # 3
    frequency:    1.3519045359
  - # 4
    frequency:    2.0406889510
  - # 5
    frequency:    3.1904300126
  - # 6
    frequency:    5.1982387449
  - # 7
    frequency:    5.6197321271
  - # 8
    frequency:    6.5095117900
  - # 9
    frequency:    6.6274295589
  - # 10
    frequency:    7.5354614381
  - # 11
    frequency:   10.9876863382
  - # 12
    frequency:   11.5836834205
  - # 13
    frequency:   13.7934595088
  - # 14
    frequency:   13.8829720353
  - # 15
    frequency:   14.9190630258
  - # 16
    frequency:   18.1807174712
  - # 17
    frequency:   25.5349741741
  - # 18
    frequency:   26.1576892217
  - # 19
    frequency:   27.2120915680
  - # 20
    frequency:   31.8999322121
  - # 21
    frequency:   67.8748497478

- q-position: [    0.1212121,    0.0000000,    0.0000000 ]
  distance:    0.0419585
  band:
  - # 1
    frequency:   -0.8406703529
  - # 2
    frequency:    0.7680345122
  - # 3
    frequency:    1.4445562371
  - # 4
    frequency:    2.1239971500
  - # 5
    frequency:    3.3202019660
  - # 6
    frequency:    5.2092638894
  - # 7
    frequency:    5.6557746557
  - # 8
    frequency:    6.5140861313
  - # 9
    frequency:    6.6286161596
  - # 10
    frequency:    7.5747341745
  - # 11
    frequency:   10.9465475075
  - # 12
    frequency:   11.5996781206
  - # 13
    frequency:   13.7960949816
  - # 14
    frequency:   13.8932296218
  - # 15
    frequency:   15.1263380393
  - # 16
    frequency:   18.1033627934
  - # 17
    frequency:   25.5341526359
  - # 18
    frequency:   26.1635837765
  - # 19
    frequency:   27.2417744934
  - # 20
    frequency:   31.8795800945
  - # 21
    frequency:   67.8639492158

- q-position: [    0.1262626,    0.0000000,    0.0000000 ]
  distance:    0.0437068
  band:
  - # 1
    frequency:   -0.7993176401
  - # 2
    frequency:    0.8480017388
  - # 3
    frequency:    1.5343382484
  - # 4
    frequency:    2.2064231382
  - # 5
    frequency:    3.4480424967
  - # 6
    frequency:    5.2204707755
  - # 7
    frequency:    5.6918352518
  - # 8
    frequency:    6.5183465577
  - # 9
    frequency:    6.6308196539
  - # 10
    frequency:    7.6137501106
  - # 11
    frequency:   10.9043915387
  - # 12
    frequency:   11.6151399007
  - # 13
    frequency:   13.7988427705
  - # 14
    frequency:   13.9036391610
  - # 15
    frequency:   15.3273656887
  - # 16
    frequency:   18.0262231784
  - # 17
    frequency:   25.5331246558
  - # 18
    frequency:   26.1621611645
  - # 19
    frequency:   27.2790856473
  - # 20
    frequency:   31.8589818866
  - # 21
    frequency:   67.8528262758

- q-position: [    0.1313131,    0.0000000,    0.0000000 ]
  distance:    0.0454550
  band:
  - # 1
    frequency:   -0.7547175824
  - # 2
    frequency:    0.9276158938
  - # 3
    frequency:    1.6215372171
  - # 4
    frequency:    2.2879494818
  - # 5
    frequency:    3.5737812695
  - # 6
    frequency:    5.2318358829
  - # 7
    frequency:    5.7278317164
  - # 8
    frequency:    6.5222662824
  - # 9
    frequency:    6.6342560920
  - # 10
    frequency:    7.6525374779
  - # 11
    frequency:   10.8613058911
  - # 12
    frequency:   11.6299849680
  - # 13
    frequency:   13.8017011061
  - # 14
    frequency:   13.9142285866
  - # 15
    frequency:   15.5208851069
  - # 16
    frequency:   17.9500130353
  - # 17
    frequency:   25.5318819408
  - # 18
    frequency:   26.1537791943
  - # 19
    frequency:   27.3234790134
  - # 20
    frequency:   31.8381932877
  - # 21
    frequency:   67.8415045618

- q-position: [    0.1363636,    0.0000000,    0.0000000 ]
  distance:    0.0472033
  band:
  - # 1
    frequency:   -0.7062898126
  - # 2
    frequency:    1.0072596995
  - # 3
    frequency:    1.7063896838
  - # 4
    frequency:    2.3685622171
  - # 5
    frequency:    3.6972340405
  - # 6
    frequency:    5.2433370916
  - # 7
    frequency:    5.7636893618
  - # 8
    frequency:    6.5258220736
  - # 9
    frequency:    6.6391358458
  - # 10
    frequency:    7.6911351469
  - # 11
    frequency:   10.8173806436
  - # 12
    frequency:   11.6441372835
  - # 13
    frequency:   13.8046677631
  - # 14
    frequency:   13.9250062572
  - # 15
    frequency:   15.7055308720
  - # 16
    frequency:   17.8756582079
  - # 17
    frequency:   25.5304180257
  - # 18
    frequency:   26.1390396725
  - # 19
    frequency:   27.3741521075
  - # 20
    frequency:   31.8172685910
  - # 21
    frequency:   67.8300075406

- q-position: [    0.1414141,    0.0000000,    0.0000000 ]
  distance:    0.0489516
  band:
  - # 1
    frequency:   -0.6532237155
  - # 2
    frequency:    1.0871604228
  - # 3
    frequency:    1.7890898156
  - # 4
    frequency:    2.4482504111
  - # 5
    frequency:    3.8182016977
  - # 6
    frequency:    5.2549538774
  - # 7
    frequency:    5.7993432841
  - # 8
    frequency:    6.5289943418
  - # 9
    frequency:    6.6456638936
  - # 10
    frequency:    7.7295892654
  - # 11
    frequency:   10.7727085079
  - # 12
    frequency:   11.6575291941
  - # 13
    frequency:   13.8077400326
  - # 14
    frequency:   13.9359706811
  - # 15
    frequency:   15.8797161181
  - # 16
    frequency:   17.8043990552
  - # 17
    frequency:   25.5287284004
  - # 18
    frequency:   26.1186728498
  - # 19
    frequency:   27.4301626721
  - # 20
    frequency:   31.7962604329
  - # 21
    frequency:   67.8183584265

- q-position: [    0.1464646,    0.0000000,    0.0000000 ]
  distance:    0.0506998
  band:
  - # 1
    frequency:   -0.5943250840
  - # 2
    frequency:    1.1674501949
  - # 3
    frequency:    1.8697969648
  - # 4
    frequency:    2.5270057732
  - # 5
    frequency:    3.9364696763
  - # 6
    frequency:    5.2666674922
  - # 7
    frequency:    5.8347410541
  - # 8
    frequency:    6.5317672078
  - # 9
    frequency:    6.6540389443
  - # 10
    frequency:    7.7679506915
  - # 11
    frequency:   10.7273848668
  - # 12
    frequency:   11.6701019745
  - # 13
    frequency:   13.8109147021
  - # 14
    frequency:   13.9471149215
  - # 15
    frequency:   16.0414709007
  - # 16
    frequency:   17.7379429336
  - # 17
    frequency:   25.5268106191
  - # 18
    frequency:   26.0934398799
  - # 19
    frequency:   27.4905277537
  - # 20
    frequency:   31.7752195630
  - # 21
    frequency:   67.8065800994

- q-position: [    0.1515152,    0.0000000,    0.0000000 ]
  distance:    0.0524481
  band:
  - # 1
    frequency:   -0.5277002071
  - # 2
    frequency:    1.2482004866
  - # 3
    frequency:    1.9486422181
  - # 4
    frequency:    2.6048223116
  - # 5
    frequency:    4.0518079092
  - # 6
    frequency:    5.2784611259
  - # 7
    frequency:    5.8698457002
  - # 8
    frequency:    6.5341285515
  - # 9
    frequency:    6.6644514462
  - # 10
    frequency:    7.8062730048
  - # 11
    frequency:   10.6815078470
  - # 12
    frequency:   11.6818062724
  - # 13
    frequency:   13.8141880454
  - # 14
    frequency:   13.9584287864
  - # 15
    frequency:   16.1882264891
  - # 16
    frequency:   17.6786724582
  - # 17
    frequency:   25.5246643915
  - # 18
    frequency:   26.0640672932
  - # 19
    frequency:   27.5542911352
  - # 20
    frequency:   31.7541946360
  - # 21
    frequency:   67.7946950280
