nqpoint: 300    
npath: 3      
segment_nqpoint:
- 100
- 100
- 100
labels:
- [ 'G', 'M' ]
- [ 'M', 'K' ]
- [ 'K', 'G' ]
reciprocal_lattice:
- [   0.30935863,   0.17860829,   0.00000000 ] # a*
- [   0.00000000,   0.35721658,   0.00000000 ] # b*
- [   0.00000000,   0.00000000,   0.04165194 ] # c*
natom: 6      
lattice:
- [     3.232494257685826,     0.000000000000000,     0.000000000000000 ] # a
- [    -1.616247128842913,     2.799422144745407,     0.000000000000000 ] # b
- [     0.000000000000000,     0.000000000000000,    24.008484805365807 ] # c
points:
- symbol: H # 1
  coordinates: [  0.666666984744047,  0.333332985985145,  0.374867471769336 ]
  mass: 1.007940
- symbol: Hf # 2
  coordinates: [  0.333332985432215,  0.666666983183674,  0.414659424296640 ]
  mass: 178.490000
- symbol: Hf # 3
  coordinates: [  0.666666984744047,  0.333332985985145,  0.520199167487909 ]
  mass: 178.490000
- symbol: N # 4
  coordinates: [  0.000000000000000,  0.000000000000000,  0.466843904591765 ]
  mass: 14.006700
- symbol: N # 5
  coordinates: [  0.333332985432215,  0.666666983183674,  0.569584613337899 ]
  mass: 14.006700
- symbol: O # 6
  coordinates: [  0.333332985432215,  0.666666983183674,  0.625132528230664 ]
  mass: 15.999400

phonon:
- q-position: [    0.0000000,    0.0000000,    0.0000000 ]
  distance:    0.0000000
  band:
  - # 1
    frequency:   -4.6209560435
  - # 2
    frequency:   -4.6209560435
  - # 3
    frequency:   -0.0000068821
  - # 4
    frequency:    0.0000001877
  - # 5
    frequency:    0.0000066929
  - # 6
    frequency:    2.8278580123
  - # 7
    frequency:    2.8278580123
  - # 8
    frequency:    4.4505390649
  - # 9
    frequency:    6.6801816379
  - # 10
    frequency:    6.6801816379
  - # 11
    frequency:    8.6667613221
  - # 12
    frequency:   14.7976180368
  - # 13
    frequency:   14.7976180368
  - # 14
    frequency:   15.3779396170
  - # 15
    frequency:   27.6207660558
  - # 16
    frequency:   31.6589627955
  - # 17
    frequency:   31.6589627955
  - # 18
    frequency:   37.1990802706

- q-position: [    0.0050505,    0.0000000,    0.0000000 ]
  distance:    0.0018041
  band:
  - # 1
    frequency:   -4.6201822225
  - # 2
    frequency:   -4.6196951828
  - # 3
    frequency:    0.0007901763
  - # 4
    frequency:    0.0455540698
  - # 5
    frequency:    0.0960989712
  - # 6
    frequency:    2.8284211896
  - # 7
    frequency:    2.8289281225
  - # 8
    frequency:    4.4503728106
  - # 9
    frequency:    6.6799517061
  - # 10
    frequency:    6.6811407108
  - # 11
    frequency:    8.6662866618
  - # 12
    frequency:   14.7976691139
  - # 13
    frequency:   14.7977147925
  - # 14
    frequency:   15.3773059300
  - # 15
    frequency:   27.6205996183
  - # 16
    frequency:   31.6592896720
  - # 17
    frequency:   31.6596173487
  - # 18
    frequency:   37.1983541292

- q-position: [    0.0101010,    0.0000000,    0.0000000 ]
  distance:    0.0036082
  band:
  - # 1
    frequency:   -4.6178652776
  - # 2
    frequency:   -4.6159170564
  - # 3
    frequency:    0.0031576577
  - # 4
    frequency:    0.0911781020
  - # 5
    frequency:    0.1922132601
  - # 6
    frequency:    2.8301075411
  - # 7
    frequency:    2.8321328602
  - # 8
    frequency:    4.4498741568
  - # 9
    frequency:    6.6792636734
  - # 10
    frequency:    6.6840161461
  - # 11
    frequency:    8.6648652380
  - # 12
    frequency:   14.7978227096
  - # 13
    frequency:   14.7980031169
  - # 14
    frequency:   15.3754074224
  - # 15
    frequency:   27.6201006308
  - # 16
    frequency:   31.6602690369
  - # 17
    frequency:   31.6615795479
  - # 18
    frequency:   37.1961771040

- q-position: [    0.0151515,    0.0000000,    0.0000000 ]
  distance:    0.0054124
  band:
  - # 1
    frequency:   -4.6140187406
  - # 2
    frequency:   -4.6096350030
  - # 3
    frequency:    0.0070937774
  - # 4
    frequency:    0.1369406145
  - # 5
    frequency:    0.2883568887
  - # 6
    frequency:    2.8329075666
  - # 7
    frequency:    2.8374555649
  - # 8
    frequency:    4.4490434125
  - # 9
    frequency:    6.6781228233
  - # 10
    frequency:    6.6888025914
  - # 11
    frequency:    8.6625047321
  - # 12
    frequency:   14.7980799151
  - # 13
    frequency:   14.7984771807
  - # 14
    frequency:   15.3722517681
  - # 15
    frequency:   27.6192700689
  - # 16
    frequency:   31.6618971019
  - # 17
    frequency:   31.6648450143
  - # 18
    frequency:   37.1925533875

- q-position: [    0.0202020,    0.0000000,    0.0000000 ]
  distance:    0.0072165
  band:
  - # 1
    frequency:   -4.6086650879
  - # 2
    frequency:   -4.6008711565
  - # 3
    frequency:    0.0125841946
  - # 4
    frequency:    0.1829072621
  - # 5
    frequency:    0.3845413023
  - # 6
    frequency:    2.8368055702
  - # 7
    frequency:    2.8448688578
  - # 8
    frequency:    4.4478810326
  - # 9
    frequency:    6.6765379456
  - # 10
    frequency:    6.6954911192
  - # 11
    frequency:    8.6592179786
  - # 12
    frequency:   14.7984425413
  - # 13
    frequency:   14.7991272640
  - # 14
    frequency:   15.3678518013
  - # 15
    frequency:   27.6181095620
  - # 16
    frequency:   31.6641675700
  - # 17
    frequency:   31.6694064543
  - # 18
    frequency:   37.1874899545

- q-position: [    0.0252525,    0.0000000,    0.0000000 ]
  distance:    0.0090206
  band:
  - # 1
    frequency:   -4.6018356231
  - # 2
    frequency:   -4.5896562973
  - # 3
    frequency:    0.0196091878
  - # 4
    frequency:    0.2291394626
  - # 5
    frequency:    0.4807741247
  - # 6
    frequency:    2.8417798612
  - # 7
    frequency:    2.8543352055
  - # 8
    frequency:    4.4463875312
  - # 9
    frequency:    6.6745213115
  - # 10
    frequency:    6.7040692114
  - # 11
    frequency:    8.6550230155
  - # 12
    frequency:   14.7989131081
  - # 13
    frequency:   14.7999397457
  - # 14
    frequency:   15.3622255873
  - # 15
    frequency:   27.6166213976
  - # 16
    frequency:   31.6670716609
  - # 17
    frequency:   31.6752536681
  - # 18
    frequency:   37.1809965426

- q-position: [    0.0303030,    0.0000000,    0.0000000 ]
  distance:    0.0108247
  band:
  - # 1
    frequency:   -4.5935703078
  - # 2
    frequency:   -4.5760296379
  - # 3
    frequency:    0.0281439810
  - # 4
    frequency:    0.2756930909
  - # 5
    frequency:    0.5770579629
  - # 6
    frequency:    2.8478030287
  - # 7
    frequency:    2.8658076735
  - # 8
    frequency:    4.4445633670
  - # 9
    frequency:    6.6720886389
  - # 10
    frequency:    6.7145207279
  - # 11
    frequency:    8.6499431553
  - # 12
    frequency:   14.7994948283
  - # 13
    frequency:   14.8008970801
  - # 14
    frequency:   15.3553965280
  - # 15
    frequency:   27.6148085276
  - # 16
    frequency:   31.6705981462
  - # 17
    frequency:   31.6823735608
  - # 18
    frequency:   37.1730856249

- q-position: [    0.0353535,    0.0000000,    0.0000000 ]
  distance:    0.0126289
  band:
  - # 1
    frequency:   -4.5839175356
  - # 2
    frequency:   -4.5600385378
  - # 3
    frequency:    0.0381591257
  - # 4
    frequency:    0.3226172601
  - # 5
    frequency:    0.6733892817
  - # 6
    frequency:    2.8548422804
  - # 7
    frequency:    2.8792308354
  - # 8
    frequency:    4.4424088078
  - # 9
    frequency:    6.6692590457
  - # 10
    frequency:    6.7268258505
  - # 11
    frequency:    8.6440070808
  - # 12
    frequency:   14.8001915863
  - # 13
    frequency:   14.8019777521
  - # 14
    frequency:   15.3473935096
  - # 15
    frequency:   27.6126745750
  - # 16
    frequency:   31.6747333945
  - # 17
    frequency:   31.6907501576
  - # 18
    frequency:   37.1637723757

- q-position: [    0.0404040,    0.0000000,    0.0000000 ]
  distance:    0.0144330
  band:
  - # 1
    frequency:   -4.5729338447
  - # 2
    frequency:   -4.5417381404
  - # 3
    frequency:    0.0496209157
  - # 4
    frequency:    0.3699532069
  - # 5
    frequency:    0.7697573648
  - # 6
    frequency:    2.8628598367
  - # 7
    frequency:    2.8945418004
  - # 8
    frequency:    4.4399237808
  - # 9
    frequency:    6.6660549916
  - # 10
    frequency:    6.7409609905
  - # 11
    frequency:    8.6372489671
  - # 12
    frequency:   14.8010079110
  - # 13
    frequency:   14.8031561998
  - # 14
    frequency:   15.3382511026
  - # 15
    frequency:   27.6102238419
  - # 16
    frequency:   31.6794614262
  - # 17
    frequency:   31.7003646240
  - # 18
    frequency:   37.1530746284

- q-position: [    0.0454545,    0.0000000,    0.0000000 ]
  distance:    0.0162371
  band:
  - # 1
    frequency:   -4.5606835612
  - # 2
    frequency:   -4.5211909288
  - # 3
    frequency:    0.0624918091
  - # 4
    frequency:    0.4177332945
  - # 5
    frequency:    0.8661433835
  - # 6
    frequency:    2.8718133716
  - # 7
    frequency:    2.9116713196
  - # 8
    frequency:    4.4371077184
  - # 9
    frequency:    6.6625022062
  - # 10
    frequency:    6.7568986476
  - # 11
    frequency:    8.6297086327
  - # 12
    frequency:   14.8019489436
  - # 13
    frequency:   14.8044026891
  - # 14
    frequency:   15.3280098270
  - # 15
    frequency:   27.6074613170
  - # 16
    frequency:   31.6847639775
  - # 17
    frequency:   31.7111952910
  - # 18
    frequency:   37.1410128259

- q-position: [    0.0505051,    0.0000000,    0.0000000 ]
  distance:    0.0180412
  band:
  - # 1
    frequency:   -4.5472383698
  - # 2
    frequency:   -4.4984661934
  - # 3
    frequency:    0.0767308351
  - # 4
    frequency:    0.4659801469
  - # 5
    frequency:    0.9625195903
  - # 6
    frequency:    2.8816564892
  - # 7
    frequency:    2.9305449297
  - # 8
    frequency:    4.4339594067
  - # 9
    frequency:    6.6586296037
  - # 10
    frequency:    6.7746072062
  - # 11
    frequency:    8.6214317264
  - # 12
    frequency:   14.8030203975
  - # 13
    frequency:   14.8056831214
  - # 14
    frequency:   15.3167164978
  - # 15
    frequency:   27.6043926831
  - # 16
    frequency:   31.6906205734
  - # 17
    frequency:   31.7232176861
  - # 18
    frequency:   37.1276099647

- q-position: [    0.0555556,    0.0000000,    0.0000000 ]
  distance:    0.0198454
  band:
  - # 1
    frequency:   -4.5326768037
  - # 2
    frequency:   -4.4736394097
  - # 3
    frequency:    0.0922939655
  - # 4
    frequency:    0.5147059243
  - # 5
    frequency:    1.0588486590
  - # 6
    frequency:    2.8923392257
  - # 7
    frequency:    2.9510840961
  - # 8
    frequency:    4.4304768484
  - # 9
    frequency:    6.6544691801
  - # 10
    frequency:    6.7940506544
  - # 11
    frequency:    8.6124699516
  - # 12
    frequency:   14.8042285122
  - # 13
    frequency:   14.8069587535
  - # 14
    frequency:   15.3044246716
  - # 15
    frequency:   27.6010243233
  - # 16
    frequency:   31.6970086097
  - # 17
    frequency:   31.7364045706
  - # 18
    frequency:   37.1128915313

- q-position: [    0.0606061,    0.0000000,    0.0000000 ]
  distance:    0.0216495
  band:
  - # 1
    frequency:   -4.5170836513
  - # 2
    frequency:   -4.4467915268
  - # 3
    frequency:    0.1091344324
  - # 4
    frequency:    0.5639117497
  - # 5
    frequency:    1.1550831903
  - # 6
    frequency:    2.9038085684
  - # 7
    frequency:    2.9732073236
  - # 8
    frequency:    4.4266571465
  - # 9
    frequency:    6.6500558948
  - # 10
    frequency:    6.8151882115
  - # 11
    frequency:    8.6028813379
  - # 12
    frequency:   14.8055799989
  - # 13
    frequency:   14.8081858012
  - # 14
    frequency:   15.2911952162
  - # 15
    frequency:   27.5973633253
  - # 16
    frequency:   31.7039034435
  - # 17
    frequency:   31.7507259848
  - # 18
    frequency:   37.0968854318

- q-position: [    0.0656566,    0.0000000,    0.0000000 ]
  distance:    0.0234536
  band:
  - # 1
    frequency:   -4.5005492753
  - # 2
    frequency:   -4.4180081700
  - # 3
    frequency:    0.1272029804
  - # 4
    frequency:    0.6135872952
  - # 5
    frequency:    1.2511654003
  - # 6
    frequency:    2.9160089828
  - # 7
    frequency:    2.9968312029
  - # 8
    frequency:    4.4224964180
  - # 9
    frequency:    6.6454275313
  - # 10
    frequency:    6.8379738488
  - # 11
    frequency:    8.5927305654
  - # 12
    frequency:   14.8070819791
  - # 13
    frequency:   14.8093148980
  - # 14
    frequency:   15.2770970316
  - # 15
    frequency:   27.5934174843
  - # 16
    frequency:   31.7112784914
  - # 17
    frequency:   31.7661493008
  - # 18
    frequency:   37.0796219162

- q-position: [    0.0707071,    0.0000000,    0.0000000 ]
  distance:    0.0252577
  band:
  - # 1
    frequency:   -4.4831688457
  - # 2
    frequency:   -4.3873787655
  - # 3
    frequency:    0.1464480448
  - # 4
    frequency:    0.6637105376
  - # 5
    frequency:    1.3470270107
  - # 6
    frequency:    2.9288829407
  - # 7
    frequency:    3.0218713726
  - # 8
    frequency:    4.4179897462
  - # 9
    frequency:    6.6406245381
  - # 10
    frequency:    6.8623556895
  - # 11
    frequency:    8.5820893502
  - # 12
    frequency:   14.8087419139
  - # 13
    frequency:   14.8102903755
  - # 14
    frequency:   15.2622079498
  - # 15
    frequency:   27.5891953020
  - # 16
    frequency:   31.7191053351
  - # 17
    frequency:   31.7826392842
  - # 18
    frequency:   37.0611334955

- q-position: [    0.0757576,    0.0000000,    0.0000000 ]
  distance:    0.0270619
  band:
  - # 1
    frequency:   -4.4650414886
  - # 2
    frequency:   -4.3549956005
  - # 3
    frequency:    0.1668158498
  - # 4
    frequency:    0.7142476914
  - # 5
    frequency:    1.4425893519
  - # 6
    frequency:    2.9423714437
  - # 7
    frequency:    3.0482433781
  - # 8
    frequency:    4.4131311759
  - # 9
    frequency:    6.6356898460
  - # 10
    frequency:    6.8882752756
  - # 11
    frequency:    8.5710369025
  - # 12
    frequency:   14.8105675258
  - # 13
    frequency:   14.8110493358
  - # 14
    frequency:   15.2466158409
  - # 15
    frequency:   27.5847059836
  - # 16
    frequency:   31.7273538351
  - # 17
    frequency:   31.8001581650
  - # 18
    frequency:   37.0414548528

- q-position: [    0.0808081,    0.0000000,    0.0000000 ]
  distance:    0.0288660
  band:
  - # 1
    frequency:   -4.4462693577
  - # 2
    frequency:   -4.3209528354
  - # 3
    frequency:    0.1882504280
  - # 4
    frequency:    0.7651533289
  - # 5
    frequency:    1.5377636904
  - # 6
    frequency:    2.9564145370
  - # 7
    frequency:    3.0758634168
  - # 8
    frequency:    4.4079137604
  - # 9
    frequency:    6.6306686614
  - # 10
    frequency:    6.9156666891
  - # 11
    frequency:    8.5596604668
  - # 12
    frequency:   14.8115204932
  - # 13
    frequency:   14.8125667115
  - # 14
    frequency:   15.2304199424
  - # 15
    frequency:   27.5799594302
  - # 16
    frequency:   31.7359922499
  - # 17
    frequency:   31.8186657182
  - # 18
    frequency:   37.0206227498

- q-position: [    0.0858586,    0.0000000,    0.0000000 ]
  distance:    0.0306701
  band:
  - # 1
    frequency:   -4.4269566396
  - # 2
    frequency:   -4.2853454920
  - # 3
    frequency:    0.2106935615
  - # 4
    frequency:    0.8163706961
  - # 5
    frequency:    1.6324517818
  - # 6
    frequency:    2.9709518114
  - # 7
    frequency:    3.1046489618
  - # 8
    frequency:    4.4023296629
  - # 9
    frequency:    6.6256082321
  - # 10
    frequency:    6.9444555182
  - # 11
    frequency:    8.5480559561
  - # 12
    frequency:   14.8116227864
  - # 13
    frequency:   14.8147474466
  - # 14
    frequency:   15.2137324092
  - # 15
    frequency:   27.5749662279
  - # 16
    frequency:   31.7449873621
  - # 17
    frequency:   31.8381193554
  - # 18
    frequency:   36.9986759273

- q-position: [    0.0909091,    0.0000000,    0.0000000 ]
  distance:    0.0324742
  band:
  - # 1
    frequency:   -4.4072085083
  - # 2
    frequency:   -4.2482684398
  - # 3
    frequency:    0.2340846510
  - # 4
    frequency:    0.8678322322
  - # 5
    frequency:    1.7265466482
  - # 6
    frequency:    2.9859228897
  - # 7
    frequency:    3.1345192638
  - # 8
    frequency:    4.3963703180
  - # 9
    frequency:    6.6205575864
  - # 10
    frequency:    6.9745576615
  - # 11
    frequency:    8.5363286910
  - # 12
    frequency:   14.8112638069
  - # 13
    frequency:   14.8171176822
  - # 14
    frequency:   15.1966800308
  - # 15
    frequency:   27.5697376324
  - # 16
    frequency:   31.7543046098
  - # 17
    frequency:   31.8584742261
  - # 18
    frequency:   36.9756550006

- q-position: [    0.0959596,    0.0000000,    0.0000000 ]
  distance:    0.0342784
  band:
  - # 1
    frequency:   -4.3871300490
  - # 2
    frequency:   -4.2098154121
  - # 3
    frequency:    0.2583605159
  - # 4
    frequency:    0.9194602993
  - # 5
    frequency:    1.8199335672
  - # 6
    frequency:    3.0012678980
  - # 7
    frequency:    3.1653957292
  - # 8
    frequency:    4.3900266581
  - # 9
    frequency:    6.6155672421
  - # 10
    frequency:    7.0058779696
  - # 11
    frequency:    8.5245942536
  - # 12
    frequency:   14.8103381777
  - # 13
    frequency:   14.8196852342
  - # 14
    frequency:   15.1794059817
  - # 15
    frequency:   27.5642855496
  - # 16
    frequency:   31.7639082233
  - # 17
    frequency:   31.8796833309
  - # 18
    frequency:   36.9516023508

- q-position: [    0.1010101,    0.0000000,    0.0000000 ]
  distance:    0.0360825
  band:
  - # 1
    frequency:   -4.3668251750
  - # 2
    frequency:   -4.1700780774
  - # 3
    frequency:    0.2834551353
  - # 4
    frequency:    0.9711681259
  - # 5
    frequency:    1.9124912542
  - # 6
    frequency:    3.0169279201
  - # 7
    frequency:    3.1972021785
  - # 8
    frequency:    4.3832894075
  - # 9
    frequency:    6.6106888863
  - # 10
    frequency:    7.0383087271
  - # 11
    frequency:    8.5129794594
  - # 12
    frequency:   14.8087261528
  - # 13
    frequency:   14.8224576662
  - # 14
    frequency:   15.1620713262
  - # 15
    frequency:   27.5586225117
  - # 16
    frequency:   31.7737613661
  - # 17
    frequency:   31.9016976445
  - # 18
    frequency:   36.9265620117

- q-position: [    0.1060606,    0.0000000,    0.0000000 ]
  distance:    0.0378866
  band:
  - # 1
    frequency:   -4.3463955653
  - # 2
    frequency:   -4.1291451957
  - # 3
    frequency:    0.3092993342
  - # 4
    frequency:    1.0228609633
  - # 5
    frequency:    2.0040932089
  - # 6
    frequency:    3.0328454347
  - # 7
    frequency:    3.2298649890
  - # 8
    frequency:    4.3761494507
  - # 9
    frequency:    6.6059750252
  - # 10
    frequency:    7.0717279923
  - # 11
    frequency:    8.5016234449
  - # 12
    frequency:   14.8062929252
  - # 13
    frequency:   14.8254421662
  - # 14
    frequency:   15.1448557898
  - # 15
    frequency:   27.5527616494
  - # 16
    frequency:   31.7838262798
  - # 17
    frequency:   31.9244662507
  - # 18
    frequency:   36.9005795527

- q-position: [    0.1111111,    0.0000000,    0.0000000 ]
  distance:    0.0396907
  band:
  - # 1
    frequency:   -4.3259396529
  - # 2
    frequency:   -4.0871018844
  - # 3
    frequency:    0.3358204224
  - # 4
    frequency:    1.0744374508
  - # 5
    frequency:    2.0946091910
  - # 6
    frequency:    3.0489647358
  - # 7
    frequency:    3.2633131228
  - # 8
    frequency:    4.3685982809
  - # 9
    frequency:    6.6014786045
  - # 10
    frequency:    7.1059978273
  - # 11
    frequency:    8.4906788510
  - # 12
    frequency:   14.8028894030
  - # 13
    frequency:   14.8286454197
  - # 14
    frequency:   15.1279570311
  - # 15
    frequency:   27.5467166590
  - # 16
    frequency:   31.7940644328
  - # 17
    frequency:   31.9479364872
  - # 18
    frequency:   36.8737019578

- q-position: [    0.1161616,    0.0000000,    0.0000000 ]
  distance:    0.0414949
  band:
  - # 1
    frequency:   -4.3055516949
  - # 2
    frequency:   -4.0440290142
  - # 3
    frequency:    0.3629417921
  - # 4
    frequency:    1.1257911766
  - # 5
    frequency:    2.1839067819
  - # 6
    frequency:    3.0652323356
  - # 7
    frequency:    3.2974780438
  - # 8
    frequency:    4.3606285366
  - # 9
    frequency:    6.5972526031
  - # 10
    frequency:    7.1409624771
  - # 11
    frequency:    8.4803130591
  - # 12
    frequency:   14.7983554887
  - # 13
    frequency:   14.8320734797
  - # 14
    frequency:   15.1115873772
  - # 15
    frequency:   27.5405017675
  - # 16
    frequency:   31.8044366714
  - # 17
    frequency:   31.9720541012
  - # 18
    frequency:   36.8459775021

- q-position: [    0.1212121,    0.0000000,    0.0000000 ]
  distance:    0.0432990
  band:
  - # 1
    frequency:   -4.2853209540
  - # 2
    frequency:   -4.0000027504
  - # 3
    frequency:    0.3905824784
  - # 4
    frequency:    1.1768124183
  - # 5
    frequency:    2.2718529843
  - # 6
    frequency:    3.0815973473
  - # 7
    frequency:    3.3322935225
  - # 8
    frequency:    4.3522346396
  - # 9
    frequency:    6.5933496011
  - # 10
    frequency:    7.1764465964
  - # 11
    frequency:    8.4707093978
  - # 12
    frequency:   14.7925270005
  - # 13
    frequency:   14.8357316353
  - # 14
    frequency:   15.0959668807
  - # 15
    frequency:   27.5341316922
  - # 16
    frequency:   31.8149033726
  - # 17
    frequency:   31.9967634147
  - # 18
    frequency:   36.8174556252

- q-position: [    0.1262626,    0.0000000,    0.0000000 ]
  distance:    0.0451031
  band:
  - # 1
    frequency:   -4.2653310204
  - # 2
    frequency:   -3.9550942482
  - # 3
    frequency:    0.4186566863
  - # 4
    frequency:    1.2273900379
  - # 5
    frequency:    2.3583158087
  - # 6
    frequency:    3.0980118494
  - # 7
    frequency:    3.3676953209
  - # 8
    frequency:    4.3434135501
  - # 9
    frequency:    6.5898213280
  - # 10
    frequency:    7.2122536760
  - # 11
    frequency:    8.4620681851
  - # 12
    frequency:   14.7852470223
  - # 13
    frequency:   14.8396242822
  - # 14
    frequency:   15.0813119077
  - # 15
    frequency:   27.5276215983
  - # 16
    frequency:   31.8254245998
  - # 17
    frequency:   32.0220074988
  - # 18
    frequency:   36.7881868020

- q-position: [    0.1313131,    0.0000000,    0.0000000 ]
  distance:    0.0469072
  band:
  - # 1
    frequency:   -4.2456592975
  - # 2
    frequency:   -3.9093695039
  - # 3
    frequency:    0.4470732872
  - # 4
    frequency:    1.2774134999
  - # 5
    frequency:    2.4431657938
  - # 6
    frequency:    3.1144312247
  - # 7
    frequency:    3.4036207478
  - # 8
    frequency:    4.3341656656
  - # 9
    frequency:    6.5867181946
  - # 10
    frequency:    7.2481649010
  - # 11
    frequency:    8.4546073896
  - # 12
    frequency:   14.7763813669
  - # 13
    frequency:   14.8437547951
  - # 14
    frequency:   15.0678195716
  - # 15
    frequency:   27.5209870536
  - # 16
    frequency:   31.8359602578
  - # 17
    frequency:   32.0477283570
  - # 18
    frequency:   36.7582224112

- q-position: [    0.1363636,    0.0000000,    0.0000000 ]
  distance:    0.0487114
  band:
  - # 1
    frequency:   -4.2263766692
  - # 2
    frequency:   -3.8628893561
  - # 3
    frequency:    0.4757352852
  - # 4
    frequency:    1.3267749774
  - # 5
    frequency:    2.5262774090
  - # 6
    frequency:    3.1308144739
  - # 7
    frequency:    3.4400080604
  - # 8
    frequency:    4.3244958972
  - # 9
    frequency:    6.5840888166
  - # 10
    frequency:    7.2839387703
  - # 11
    frequency:    8.4485625971
  - # 12
    frequency:   14.7658360100
  - # 13
    frequency:   14.8481254059
  - # 14
    frequency:   15.0556501517
  - # 15
    frequency:   27.5142439804
  - # 16
    frequency:   31.8464702493
  - # 17
    frequency:   32.0738671156
  - # 18
    frequency:   36.7276146029

- q-position: [    0.1414141,    0.0000000,    0.0000000 ]
  distance:    0.0505155
  band:
  - # 1
    frequency:   -4.2075473619
  - # 2
    frequency:   -3.8157096273
  - # 3
    frequency:    0.5045392530
  - # 4
    frequency:    1.3753715025
  - # 5
    frequency:    2.6075302883
  - # 6
    frequency:    3.1471244978
  - # 7
    frequency:    3.4767956763
  - # 8
    frequency:    4.3144149777
  - # 9
    frequency:    6.5819795367
  - # 10
    frequency:    7.3193119209
  - # 11
    frequency:    8.4441858508
  - # 12
    frequency:   14.7535724906
  - # 13
    frequency:   14.8527370892
  - # 14
    frequency:   15.0449115025
  - # 15
    frequency:   27.5074086060
  - # 16
    frequency:   31.8569146311
  - # 17
    frequency:   32.1003642210
  - # 18
    frequency:   36.6964161640

- q-position: [    0.1464646,    0.0000000,    0.0000000 ]
  distance:    0.0523196
  band:
  - # 1
    frequency:   -4.1892290036
  - # 2
    frequency:   -3.7678813892
  - # 3
    frequency:    0.5333747350
  - # 4
    frequency:    1.4231071189
  - # 5
    frequency:    2.6868102500
  - # 6
    frequency:    3.1633283429
  - # 7
    frequency:    3.5139211376
  - # 8
    frequency:    4.3039410766
  - # 9
    frequency:    6.5804339539
  - # 10
    frequency:    7.3540017167
  - # 11
    frequency:    8.4417428173
  - # 12
    frequency:   14.7396166828
  - # 13
    frequency:   14.8575894578
  - # 14
    frequency:   15.0356500443
  - # 15
    frequency:   27.5004974112
  - # 16
    frequency:   31.8672537684
  - # 17
    frequency:   32.1271596428
  - # 18
    frequency:   36.6646803831

- q-position: [    0.1515152,    0.0000000,    0.0000000 ]
  distance:    0.0541237
  band:
  - # 1
    frequency:   -4.1714728770
  - # 2
    frequency:   -3.7194513323
  - # 3
    frequency:    0.5621236155
  - # 4
    frequency:    1.4698949888
  - # 5
    frequency:    2.7640100559
  - # 6
    frequency:    3.1793974055
  - # 7
    frequency:    3.5513197359
  - # 8
    frequency:    4.2931018371
  - # 9
    frequency:    6.5794924715
  - # 10
    frequency:    7.3877112254
  - # 11
    frequency:    8.4415076619
  - # 12
    frequency:   14.7240579756
  - # 13
    frequency:   14.8626806701
  - # 14
    frequency:   15.0278513027
  - # 15
    frequency:   27.4935270785
  - # 16
    frequency:   31.8774484890
  - # 17
    frequency:   32.1541930810
  - # 18
    frequency:   36.6324609144

- q-position: [    0.1565657,    0.0000000,    0.0000000 ]
  distance:    0.0559278
  band:
  - # 1
    frequency:   -4.1543243552
  - # 2
    frequency:   -3.6704622200
  - # 3
    frequency:    0.5906594446
  - # 4
    frequency:    1.5156594062
  - # 5
    frequency:    2.8390298687
  - # 6
    frequency:    3.1953075874
  - # 7
    frequency:    3.5889226538
  - # 8
    frequency:    4.2819370071
  - # 9
    frequency:    6.5791918717
  - # 10
    frequency:    7.4201371660
  - # 11
    frequency:    8.4437550533
  - # 12
    frequency:   14.7070392060
  - # 13
    frequency:   14.8680073518
  - # 14
    frequency:   15.0214496501
  - # 15
    frequency:   27.4865144390
  - # 16
    frequency:   31.8874602347
  - # 17
    frequency:   32.1814041775
  - # 18
    frequency:   36.5998116418

- q-position: [    0.1616162,    0.0000000,    0.0000000 ]
  distance:    0.0577320
  band:
  - # 1
    frequency:   -4.1378235004
  - # 2
    frequency:   -3.6209534045
  - # 3
    frequency:    0.6188467173
  - # 4
    frequency:    1.5603376725
  - # 5
    frequency:    2.9117773634
  - # 6
    frequency:    3.2110393990
  - # 7
    frequency:    3.6266543963
  - # 8
    frequency:    4.2705019299
  - # 9
    frequency:    6.5795649302
  - # 10
    frequency:    7.4509811674
  - # 11
    frequency:    8.4487489603
  - # 12
    frequency:   14.6887407720
  - # 13
    frequency:   14.8735645346
  - # 14
    frequency:   15.0163438248
  - # 15
    frequency:   27.4794764196
  - # 16
    frequency:   31.8972512104
  - # 17
    frequency:   32.2087327286
  - # 18
    frequency:   36.5667865425

- q-position: [    0.1666667,    0.0000000,    0.0000000 ]
  distance:    0.0595361
  band:
  - # 1
    frequency:   -4.1220058014
  - # 2
    frequency:   -3.5709613842
  - # 3
    frequency:    0.6465400942
  - # 4
    frequency:    1.6038817871
  - # 5
    frequency:    2.9821674444
  - # 6
    frequency:    3.2265780038
  - # 7
    frequency:    3.6644291448
  - # 8
    frequency:    4.2588723103
  - # 9
    frequency:    6.5806400794
  - # 10
    frequency:    7.4799641630
  - # 11
    frequency:    8.4567284094
  - # 12
    frequency:   14.6693634948
  - # 13
    frequency:   14.8793456125
  - # 14
    frequency:   15.0124136615
  - # 15
    frequency:   27.4724299901
  - # 16
    frequency:   31.9067845297
  - # 17
    frequency:   32.2361188998
  - # 18
    frequency:   36.5334395512

- q-position: [    0.1717172,    0.0000000,    0.0000000 ]
  distance:    0.0613402
  band:
  - # 1
    frequency:   -4.1069030199
  - # 2
    frequency:   -3.5205203854
  - # 3
    frequency:    0.6735835549
  - # 4
    frequency:    1.6462599132
  - # 5
    frequency:    3.0501215101
  - # 6
    frequency:    3.2419132008
  - # 7
    frequency:    3.7021454387
  - # 8
    frequency:    4.2471509165
  - # 9
    frequency:    6.5824411297
  - # 10
    frequency:    7.5068429595
  - # 11
    frequency:    8.4678911600
  - # 12
    frequency:   14.6491138632
  - # 13
    frequency:   14.8853423183
  - # 14
    frequency:   15.0095344021
  - # 15
    frequency:   27.4653921104
  - # 16
    frequency:   31.9160243578
  - # 17
    frequency:   32.2635034396
  - # 18
    frequency:   36.4998244256

- q-position: [    0.1767677,    0.0000000,    0.0000000 ]
  distance:    0.0631443
  band:
  - # 1
    frequency:   -4.0925441121
  - # 2
    frequency:   -3.4696629509
  - # 3
    frequency:    0.6998094667
  - # 4
    frequency:    1.6874575774
  - # 5
    frequency:    3.1155661903
  - # 6
    frequency:    3.2570393442
  - # 7
    frequency:    3.7396781962
  - # 8
    frequency:    4.2354772931
  - # 9
    frequency:    6.5849870602
  - # 10
    frequency:    7.5314271045
  - # 11
    frequency:    8.4823771632
  - # 12
    frequency:   14.6281934024
  - # 13
    frequency:   14.8915447212
  - # 14