nqpoint: 300    
npath: 3      
segment_nqpoint:
- 100
- 100
- 100
labels:
- [ 'G', 'M' ]
- [ 'M', 'K' ]
- [ 'K', 'G' ]
reciprocal_lattice:
- [   0.26504132,   0.15302168,   0.00000000 ] # a*
- [   0.00000000,   0.30604335,   0.00000000 ] # b*
- [   0.00000000,   0.00000000,   0.03985874 ] # c*
natom: 6      
lattice:
- [     3.772996605821787,     0.000000000000000,     0.000000000000000 ] # a
- [    -1.886498302910893,     3.267510909054371,     0.000000000000000 ] # b
- [     0.000000000000000,     0.000000000000000,    25.088600879337527 ] # c
points:
- symbol: Br # 1
  coordinates: [  0.666666984744047,  0.333332985985145,  0.358728653035898 ]
  mass: 79.904000
- symbol: Cl # 2
  coordinates: [  0.333332985432215,  0.666666983183674,  0.641271346964102 ]
  mass: 35.453000
- symbol: N # 3
  coordinates: [  0.000000000000000,  0.000000000000000,  0.465089538240836 ]
  mass: 14.006700
- symbol: O # 4
  coordinates: [  0.333332985432215,  0.666666983183674,  0.534431656133589 ]
  mass: 15.999400
- symbol: Y # 5
  coordinates: [  0.333332985432215,  0.666666983183674,  0.438223360278587 ]
  mass: 88.905850
- symbol: Y # 6
  coordinates: [  0.666666984744047,  0.333332985985145,  0.562184034762240 ]
  mass: 88.905850

phonon:
- q-position: [    0.0000000,    0.0000000,    0.0000000 ]
  distance:    0.0000000
  band:
  - # 1
    frequency:   -1.7689043216
  - # 2
    frequency:   -1.7689043215
  - # 3
    frequency:   -0.0000110516
  - # 4
    frequency:    0.0000001753
  - # 5
    frequency:    0.0000240419
  - # 6
    frequency:    1.2861720291
  - # 7
    frequency:    1.2861720293
  - # 8
    frequency:    2.5271731523
  - # 9
    frequency:    3.0424415029
  - # 10
    frequency:    3.0424415030
  - # 11
    frequency:    5.3609220346
  - # 12
    frequency:    7.3781255633
  - # 13
    frequency:    8.3946988473
  - # 14
    frequency:    8.3946988474
  - # 15
    frequency:    9.8698155390
  - # 16
    frequency:   12.2153362522
  - # 17
    frequency:   12.2153362522
  - # 18
    frequency:   13.1999235861

- q-position: [    0.0050505,    0.0000000,    0.0000000 ]
  distance:    0.0015457
  band:
  - # 1
    frequency:   -1.7688001428
  - # 2
    frequency:   -1.7677205718
  - # 3
    frequency:    0.0014639814
  - # 4
    frequency:    0.0164563330
  - # 5
    frequency:    0.0675424573
  - # 6
    frequency:    1.2872357278
  - # 7
    frequency:    1.2888296597
  - # 8
    frequency:    2.5266574041
  - # 9
    frequency:    3.0427087589
  - # 10
    frequency:    3.0431067487
  - # 11
    frequency:    5.3605684909
  - # 12
    frequency:    7.3758269961
  - # 13
    frequency:    8.3940550728
  - # 14
    frequency:    8.3942800330
  - # 15
    frequency:    9.8716871415
  - # 16
    frequency:   12.2148147478
  - # 17
    frequency:   12.2153587993
  - # 18
    frequency:   13.2005146385

- q-position: [    0.0101010,    0.0000000,    0.0000000 ]
  distance:    0.0030913
  band:
  - # 1
    frequency:   -1.7684880873
  - # 2
    frequency:   -1.7641687081
  - # 3
    frequency:    0.0058264699
  - # 4
    frequency:    0.0330864786
  - # 5
    frequency:    0.1350832281
  - # 6
    frequency:    1.2904163135
  - # 7
    frequency:    1.2967466153
  - # 8
    frequency:    2.5251236132
  - # 9
    frequency:    3.0435100541
  - # 10
    frequency:    3.0450864829
  - # 11
    frequency:    5.3595089489
  - # 12
    frequency:    7.3689563831
  - # 13
    frequency:    8.3921372095
  - # 14
    frequency:    8.3930239383
  - # 15
    frequency:    9.8772666710
  - # 16
    frequency:   12.2132557492
  - # 17
    frequency:   12.2154263533
  - # 18
    frequency:   13.2022842693

- q-position: [    0.0151515,    0.0000000,    0.0000000 ]
  distance:    0.0046370
  band:
  - # 1
    frequency:   -1.7679695955
  - # 2
    frequency:   -1.7582468665
  - # 3
    frequency:    0.0130019502
  - # 4
    frequency:    0.0500558742
  - # 5
    frequency:    0.2026191379
  - # 6
    frequency:    1.2956827107
  - # 7
    frequency:    1.3097591531
  - # 8
    frequency:    2.5226114395
  - # 9
    frequency:    3.0448439733
  - # 10
    frequency:    3.0483336679
  - # 11
    frequency:    5.3577467120
  - # 12
    frequency:    7.3575882699
  - # 13
    frequency:    8.3889842566
  - # 14
    frequency:    8.3909316079
  - # 15
    frequency:    9.8864503684
  - # 16
    frequency:   12.2106756735
  - # 17
    frequency:   12.2155386525
  - # 18
    frequency:   13.2052220341

- q-position: [    0.0202020,    0.0000000,    0.0000000 ]
  distance:    0.0061827
  band:
  - # 1
    frequency:   -1.7672470601
  - # 2
    frequency:   -1.7499518724
  - # 3
    frequency:    0.0228587833
  - # 4
    frequency:    0.0675141856
  - # 5
    frequency:    0.2701440700
  - # 6
    frequency:    1.3029845962
  - # 7
    frequency:    1.3276070275
  - # 8
    frequency:    2.5191848245
  - # 9
    frequency:    3.0467081694
  - # 10
    frequency:    3.0527729862
  - # 11
    frequency:    5.3552874078
  - # 12
    frequency:    7.3418445255
  - # 13
    frequency:    8.3846568731
  - # 14
    frequency:    8.3880047799
  - # 15
    frequency:    9.8990719177
  - # 16
    frequency:   12.2071014716
  - # 17
    frequency:   12.2156952654
  - # 18
    frequency:   13.2093109620

- q-position: [    0.0252525,    0.0000000,    0.0000000 ]
  distance:    0.0077284
  band:
  - # 1
    frequency:   -1.7663238134
  - # 2
    frequency:   -1.7392791416
  - # 3
    frequency:    0.0352328815
  - # 4
    frequency:    0.0855896891
  - # 5
    frequency:    0.3376476414
  - # 6
    frequency:    1.3122544479
  - # 7
    frequency:    1.3499496789
  - # 8
    frequency:    2.5149293441
  - # 9
    frequency:    3.0490993810
  - # 10
    frequency:    3.0583049473
  - # 11
    frequency:    5.3521391707
  - # 12
    frequency:    7.3218908957
  - # 13
    frequency:    8.3792317267
  - # 14
    frequency:    8.3842458818
  - # 15
    frequency:    9.9149113966
  - # 16
    frequency:   12.2025700484
  - # 17
    frequency:   12.2158955960
  - # 18
    frequency:   13.2145281746

- q-position: [    0.0303030,    0.0000000,    0.0000000 ]
  distance:    0.0092740
  band:
  - # 1
    frequency:   -1.7652041109
  - # 2
    frequency:   -1.7262225468
  - # 3
    frequency:    0.0499429572
  - # 4
    frequency:    0.1043858242
  - # 5
    frequency:    0.4051140072
  - # 6
    frequency:    1.3234101276
  - # 7
    frequency:    1.3763842341
  - # 8
    frequency:    2.5099495375
  - # 9
    frequency:    3.0520134556
  - # 10
    frequency:    3.0648107703
  - # 11
    frequency:    5.3483128961
  - # 12
    frequency:    7.2979324100
  - # 13
    frequency:    8.3727950418
  - # 14
    frequency:    8.3796580245
  - # 15
    frequency:    9.9337061044
  - # 16
    frequency:   12.1971275186
  - # 17
    frequency:   12.2161388922
  - # 18
    frequency:   13.2208456820

- q-position: [    0.0353535,    0.0000000,    0.0000000 ]
  distance:    0.0108197
  band:
  - # 1
    frequency:   -1.7638931095
  - # 2
    frequency:   -1.7107742565
  - # 3
    frequency:    0.0668049173
  - # 4
    frequency:    0.1239799415
  - # 5
    frequency:    0.4725208070
  - # 6
    frequency:    1.3363577741
  - # 7
    frequency:    1.4064623619
  - # 8
    frequency:    2.5043669738
  - # 9
    frequency:    3.0554453806
  - # 10
    frequency:    3.0721574633
  - # 11
    frequency:    5.3438225664
  - # 12
    frequency:    7.2702078926
  - # 13
    frequency:    8.3654363156
  - # 14
    frequency:    8.3742449959
  - # 15
    frequency:    9.9551620434
  - # 16
    frequency:   12.1908283570
  - # 17
    frequency:   12.2164242562
  - # 18
    frequency:   13.2282313020

- q-position: [    0.0404040,    0.0000000,    0.0000000 ]
  distance:    0.0123654
  band:
  - # 1
    frequency:   -1.7623968415
  - # 2
    frequency:   -1.6929245573
  - # 3
    frequency:    0.0856437911
  - # 4
    frequency:    0.1444239497
  - # 5
    frequency:    0.5398382246
  - # 6
    frequency:    1.3509947821
  - # 7
    frequency:    1.4397037086
  - # 8
    frequency:    2.4983197768
  - # 9
    frequency:    3.0593893191
  - # 10
    frequency:    3.0802026383
  - # 11
    frequency:    5.3386856435
  - # 12
    frequency:    7.2389838837
  - # 13
    frequency:    8.3572429627
  - # 14
    frequency:    8.3680112516
  - # 15
    frequency:    9.9789649776
  - # 16
    frequency:   12.1837344996
  - # 17
    frequency:   12.2167506565
  - # 18
    frequency:   13.2366496382

- q-position: [    0.0454545,    0.0000000,    0.0000000 ]
  distance:    0.0139111
  band:
  - # 1
    frequency:   -1.7607221849
  - # 2
    frequency:   -1.6726616740
  - # 3
    frequency:    0.1063024788
  - # 4
    frequency:    0.1657463833
  - # 5
    frequency:    0.6070281087
  - # 6
    frequency:    1.3672126737
  - # 7
    frequency:    1.4756045108
  - # 8
    frequency:    2.4919642444
  - # 9
    frequency:    3.0638386525
  - # 10
    frequency:    3.0887987776
  - # 11
    frequency:    5.3329235251
  - # 12
    frequency:    7.2045483129
  - # 13
    frequency:    8.3482963294
  - # 14
    frequency:    8.3609619064
  - # 15
    frequency:   10.0047902730
  - # 16
    frequency:   12.1759144538
  - # 17
    frequency:   12.2171169424
  - # 18
    frequency:   13.2460630621

- q-position: [    0.0505051,    0.0000000,    0.0000000 ]
  distance:    0.0154567
  band:
  - # 1
    frequency:   -1.7588768294
  - # 2
    frequency:   -1.6499716120
  - # 3
    frequency:    0.1286473633
  - # 4
    frequency:    0.1879553612
  - # 5
    frequency:    0.6740430677
  - # 6
    frequency:    1.3848997128
  - # 7
    frequency:    1.5136407354
  - # 8
    frequency:    2.4854791193
  - # 9
    frequency:    3.0687860274
  - # 10
    frequency:    3.0977968415
  - # 11
    frequency:    5.3265620547
  - # 12
    frequency:    7.1672042562
  - # 13
    frequency:    8.3386691965
  - # 14
    frequency:    8.3531027238
  - # 15
    frequency:   10.0323110602
  - # 16
    frequency:   12.1674424634
  - # 17
    frequency:   12.2175218587
  - # 18
    frequency:   13.2564326487

- q-position: [    0.0555556,    0.0000000,    0.0000000 ]
  distance:    0.0170024
  band:
  - # 1
    frequency:   -1.7568692398
  - # 2
    frequency:   -1.6248380543
  - # 3
    frequency:    0.1525713010
  - # 4
    frequency:    0.2110419578
  - # 5
    frequency:    0.7408254183
  - # 6
    frequency:    1.4039431674
  - # 7
    frequency:    1.5532656075
  - # 8
    frequency:    2.4790730143
  - # 9
    frequency:    3.0742234078
  - # 10
    frequency:    3.1070492532
  - # 11
    frequency:    5.3196320741
  - # 12
    frequency:    7.1272640565
  - # 13
    frequency:    8.3284246439
  - # 14
    frequency:    8.3444401053
  - # 15
    frequency:   10.0612045555
  - # 16
    frequency:   12.1583977618
  - # 17
    frequency:   12.2179640631
  - # 18
    frequency:   13.2677190278

- q-position: [    0.0606061,    0.0000000,    0.0000000 ]
  distance:    0.0185481
  band:
  - # 1
    frequency:   -1.7547086156
  - # 2
    frequency:   -1.5972423637
  - # 3
    frequency:    0.1779947077
  - # 4
    frequency:    0.2349836068
  - # 5
    frequency:    0.8073058198
  - # 6
    frequency:    1.4242311723
  - # 7
    frequency:    1.5939017063
  - # 8
    frequency:    2.4729954232
  - # 9
    frequency:    3.0801421320
  - # 10
    frequency:    3.1164123848
  - # 11
    frequency:    5.3121699991
  - # 12
    frequency:    7.0850440106
  - # 13
    frequency:    8.3176159983
  - # 14
    frequency:    8.3349810797
  - # 15
    frequency:   10.0911566061
  - # 16
    frequency:   12.1488639348
  - # 17
    frequency:   12.2184421433
  - # 18
    frequency:   13.2798831241

- q-position: [    0.0656566,    0.0000000,    0.0000000 ]
  distance:    0.0200938
  band:
  - # 1
    frequency:   -1.7524048501
  - # 2
    frequency:   -1.5671637577
  - # 3
    frequency:    0.2048654566
  - # 4
    frequency:    0.2597472842
  - # 5
    frequency:    0.8734013611
  - # 6
    frequency:    1.4456541855
  - # 7
    frequency:    1.6349281403
  - # 8
    frequency:    2.4675515268
  - # 9
    frequency:    3.0865329718
  - # 10
    frequency:    3.1257487182
  - # 11
    frequency:    5.3042183957
  - # 12
    frequency:    7.0408597340
  - # 13
    frequency:    8.3062875385
  - # 14
    frequency:    8.3247332921
  - # 15
    frequency:   10.1218646704
  - # 16
    frequency:   12.1389283982
  - # 17
    frequency:   12.2189546360
  - # 18
    frequency:   13.2928867736

- q-position: [    0.0707071,    0.0000000,    0.0000000 ]
  distance:    0.0216394
  band:
  - # 1
    frequency:   -1.7499684861
  - # 2
    frequency:   -1.5345797569
  - # 3
    frequency:    0.2331581937
  - # 4
    frequency:    0.2852923181
  - # 5
    frequency:    0.9390127534
  - # 6
    frequency:    1.4681060630
  - # 7
    frequency:    1.6756640078
  - # 8
    frequency:    2.4631203712
  - # 9
    frequency:    3.0933861965
  - # 10
    frequency:    3.1349288618
  - # 11
    frequency:    5.2958265224
  - # 12
    frequency:    6.9950222345
  - # 13
    frequency:    8.2944756466
  - # 14
    frequency:    8.3137049934
  - # 15
    frequency:   10.1530395146
  - # 16
    frequency:   12.1286819833
  - # 17
    frequency:   12.2195000450
  - # 18
    frequency:   13.3066932095

- q-position: [    0.0757576,    0.0000000,    0.0000000 ]
  distance:    0.0231851
  band:
  - # 1
    frequency:   -1.7474106731
  - # 2
    frequency:   -1.4994670452
  - # 3
    frequency:    0.2628735167
  - # 4
    frequency:    0.3115727626
  - # 5
    frequency:    1.0040201007
  - # 6
    frequency:    1.4914847951
  - # 7
    frequency:    1.7153509542
  - # 8
    frequency:    2.4601744912
  - # 9
    frequency:    3.1006916379
  - # 10
    frequency:    3.1438335957
  - # 11
    frequency:    5.2870507991
  - # 12
    frequency:    6.9478346520
  - # 13
    frequency:    8.2822101567
  - # 14
    frequency:    8.3019050305
  - # 15
    frequency:   10.1844059240
  - # 16
    frequency:   12.1182186134
  - # 17
    frequency:   12.2200768604
  - # 18
    frequency:   13.3212674245

- q-position: [    0.0808081,    0.0000000,    0.0000000 ]
  distance:    0.0247308
  band:
  - # 1
    frequency:   -1.7447431235
  - # 2
    frequency:   -1.4618029353
  - # 3
    frequency:    0.2940372914
  - # 4
    frequency:    0.3385393324
  - # 5
    frequency:    1.0682763996
  - # 6
    frequency:    1.5156929551
  - # 7
    frequency:    1.7531408512
  - # 8
    frequency:    2.4592960687
  - # 9
    frequency:    3.1084387579
  - # 10
    frequency:    3.1523560953
  - # 11
    frequency:    5.2779551534
  - # 12
    frequency:    6.8995895871
  - # 13
    frequency:    8.2695157165
  - # 14
    frequency:    8.2893428368
  - # 15
    frequency:   10.2157027115
  - # 16
    frequency:   12.1076350401
  - # 17
    frequency:   12.2206835772
  - # 18
    frequency:   13.3365764169

- q-position: [    0.0858586,    0.0000000,    0.0000000 ]
  distance:    0.0262764
  band:
  - # 1
    frequency:   -1.7419780702
  - # 2
    frequency:   -1.4215677041
  - # 3
    frequency:    0.3267002028
  - # 4
    frequency:    0.3661409277
  - # 5
    frequency:    1.1315973660
  - # 6
    frequency:    1.5406379163
  - # 7
    frequency:    1.7880999214
  - # 8
    frequency:    2.4611798979
  - # 9
    frequency:    3.1166167170
  - # 10
    frequency:    3.1604044552
  - # 11
    frequency:    5.2686111884
  - # 12
    frequency:    6.8505669139
  - # 13
    frequency:    8.2564130486
  - # 14
    frequency:    8.2760284250
  - # 15
    frequency:   10.2466822723
  - # 16
    frequency:   12.0970306073
  - # 17
    frequency:   12.2213187135
  - # 18
    frequency:   13.3525893342

- q-position: [    0.0909091,    0.0000000,    0.0000000 ]
  distance:    0.0278221
  band:
  - # 1
    frequency:   -1.7391282273
  - # 2
    frequency:   -1.3787481493
  - # 3
    frequency:    0.3609374446
  - # 4
    frequency:    0.3943258029
  - # 5
    frequency:    1.1937451993
  - # 6
    frequency:    1.5662318883
  - # 7
    frequency:    1.8192470107
  - # 8
    frequency:    2.4666079816
  - # 9
    frequency:    3.1252144434
  - # 10
    frequency:    3.1679046128
  - # 11
    frequency:    5.2590981113
  - # 12
    frequency:    6.8010319786
  - # 13
    frequency:    8.2429200487
  - # 14
    frequency:    8.2619723801
  - # 15
    frequency:   10.2771098951
  - # 16
    frequency:   12.0865069968
  - # 17
    frequency:   12.2219808279
  - # 18
    frequency:   13.3692775311

- q-position: [    0.0959596,    0.0000000,    0.0000000 ]
  distance:    0.0293678
  band:
  - # 1
    frequency:   -1.7362067526
  - # 2
    frequency:   -1.3333428153
  - # 3
    frequency:    0.3968482003
  - # 4
    frequency:    0.4230424357
  - # 5
    frequency:    1.2544021281
  - # 6
    frequency:    1.5923918189
  - # 7
    frequency:    1.8456466025
  - # 8
    frequency:    2.4763794202
  - # 9
    frequency:    3.1342207011
  - # 10
    frequency:    3.1748037492
  - # 11
    frequency:    5.2495023607
  - # 12
    frequency:    6.7512340953
  - # 13
    frequency:    8.2290526967
  - # 14
    frequency:    8.2471858548
  - # 15
    frequency:   10.3067630021
  - # 16
    frequency:   12.0761679106
  - # 17
    frequency:   12.2226685361
  - # 18
    frequency:   13.3866145538

- q-position: [    0.1010101,    0.0000000,    0.0000000 ]
  distance:    0.0309135
  band:
  - # 1
    frequency:   -1.7332272156
  - # 2
    frequency:   -1.2853694132
  - # 3
    frequency:    0.4345542247
  - # 4
    frequency:    0.4522401540
  - # 5
    frequency:    1.3131264384
  - # 6
    frequency:    1.6190392011
  - # 7
    frequency:    1.8665683010
  - # 8
    frequency:    2.4911912373
  - # 9
    frequency:    3.1436241580
  - # 10
    frequency:    3.1810742348
  - # 11
    frequency:    5.2399168809
  - # 12
    frequency:    6.7014052788
  - # 13
    frequency:    8.2148257838
  - # 14
    frequency:    8.2316805666
  - # 15
    frequency:   10.3354304572
  - # 16
    frequency:   12.0661186391
  - # 17
    frequency:   12.2233805259
  - # 18
    frequency:   13.4045760684

- q-position: [    0.1060606,    0.0000000,    0.0000000 ]
  distance:    0.0324591
  band:
  - # 1
    frequency:   -1.7302035694
  - # 2
    frequency:   -1.2348749691
  - # 3
    frequency:    0.4741963239
  - # 4
    frequency:    0.4818695724
  - # 5
    frequency:    1.3692783548
  - # 6
    frequency:    1.6460998173
  - # 7
    frequency:    1.8817002715
  - # 8
    frequency:    2.5114953663
  - # 9
    frequency:    3.1534134513
  - # 10
    frequency:    3.1867182022
  - # 11
    frequency:    5.2304399976
  - # 12
    frequency:    6.6517591775
  - # 13
    frequency:    8.2002534710
  - # 14
    frequency:    8.2154687970
  - # 15
    frequency:   10.3629120530
  - # 16
    frequency:   12.0564654649
  - # 17
    frequency:   12.2241155711
  - # 18
    frequency:   13.4231397456

- q-position: [    0.1111111,    0.0000000,    0.0000000 ]
  distance:    0.0340048
  band:
  - # 1
    frequency:   -1.7271501287
  - # 2
    frequency:   -1.1819490515
  - # 3
    frequency:    0.5118828814
  - # 4
    frequency:    0.5159268200
  - # 5
    frequency:    1.4218955199
  - # 6
    frequency:    1.6735034461
  - # 7
    frequency:    1.8913807970
  - # 8
    frequency:    2.5373879949
  - # 9
    frequency:    3.1635772510
  - # 10
    frequency:    3.1917728687
  - # 11
    frequency:    5.2211738791
  - # 12
    frequency:    6.6024901985
  - # 13
    frequency:    8.1853497031
  - # 14
    frequency:    8.1985633927
  - # 15
    frequency:   10.3890182630
  - # 16
    frequency:   12.0473148553
  - # 17
    frequency:   12.2248725439
  - # 18
    frequency:   13.4422851135

- q-position: [    0.1161616,    0.0000000,    0.0000000 ]
  distance:    0.0355505
  band:
  - # 1
    frequency:   -1.7240815539
  - # 2
    frequency:   -1.1267398991
  - # 3
    frequency:    0.5422340287
  - # 4
    frequency:    0.5598951647
  - # 5
    frequency:    1.4694936111
  - # 6
    frequency:    1.7011835524
  - # 7
    frequency:    1.8968186938
  - # 8
    frequency:    2.5685852142
  - # 9
    frequency:    3.1741043202
  - # 10
    frequency:    3.1963168414
  - # 11
    frequency:    5.2122225920
  - # 12
    frequency:    6.5537728365
  - # 13
    frequency:    8.1701285013
  - # 14
    frequency:    8.1809777693
  - # 15
    frequency:   10.4135703191
  - # 16
    frequency:   12.0387724041
  - # 17
    frequency:   12.2256504251
  - # 18
    frequency:   13.4619933883

- q-position: [    0.1212121,    0.0000000,    0.0000000 ]
  distance:    0.0370962
  band:
  - # 1
    frequency:   -1.7210128412
  - # 2
    frequency:   -1.0694721947
  - # 3
    frequency:    0.5728788193
  - # 4
    frequency:    0.6062228824
  - # 5
    frequency:    1.5097975041
  - # 6
    frequency:    1.7290769736
  - # 7
    frequency:    1.9002907485
  - # 8
    frequency:    2.6044919155
  - # 9
    frequency:    3.1849835709
  - # 10
    frequency:    3.2004778261
  - # 11
    frequency:    5.2036897992
  - # 12
    frequency:    6.5057612354
  - # 13
    frequency:    8.1546041608
  - # 14
    frequency:    8.1627259172
  - # 15
    frequency:   10.4364006540
  - # 16
    frequency:   12.0309414962
  - # 17
    frequency:   12.2264483128
  - # 18
    frequency:   13.4822472928

- q-position: [    0.1262626,    0.0000000,    0.0000000 ]
  distance:    0.0386418
  band:
  - # 1
    frequency:   -1.7179593202
  - # 2
    frequency:   -1.0104636353
  - # 3
    frequency:    0.6037749594
  - # 4
    frequency:    0.6549632850
  - # 5
    frequency:    1.5395657379
  - # 6
    frequency:    1.7571236151
  - # 7
    frequency:    1.9052000740
  - # 8
    frequency:    2.6443185752
  - # 9
    frequency:    3.1962041154
  - # 10
    frequency:    3.2044424932
  - # 11
    frequency:    5.1956761868
  - # 12
    frequency:    6.4585890173
  - # 13
    frequency:    8.1387913722
  - # 14
    frequency:    8.1438224102
  - # 15
    frequency:   10.4573537137
  - # 16
    frequency:   12.0239216916
  - # 17
    frequency:   12.2272654291
  - # 18
    frequency:   13.5030308678

- q-position: [    0.1313131,    0.0000000,    0.0000000 ]
  distance:    0.0401875
  band:
  - # 1
    frequency:   -1.7149366572
  - # 2
    frequency:   -0.9501360395
  - # 3
    frequency:    0.6348820604
  - # 4
    frequency:    0.7060411479
  - # 5
    frequency:    1.5550269869
  - # 6
    frequency:    1.7852661603
  - # 7
    frequency:    1.9155381556
  - # 8
    frequency:    2.6871877191
  - # 9
    frequency:    3.2077553124
  - # 10
    frequency:    3.2084697372
  - # 11
    frequency:    5.1882767427
  - # 12
    frequency:    6.4123694121
  - # 13
    frequency:    8.1227052866
  - # 14
    frequency:    8.1242824159
  - # 15
    frequency:   10.4762871201
  - # 16
    frequency:   12.0178068477
  - # 17
    frequency:   12.2281011246
  - # 18
    frequency:   13.5243292821

- q-position: [    0.1363636,    0.0000000,    0.0000000 ]
  distance:    0.0417332
  band:
  - # 1
    frequency:   -1.7119608653
  - # 2
    frequency:   -0.8890175987
  - # 3
    frequency:    0.6661616170
  - # 4
    frequency:    0.7591667204
  - # 5
    frequency:    1.5534148606
  - # 6
    frequency:    1.8134498023
  - # 7
    frequency:    1.9343069252
  - # 8
    frequency:    2.7321957963
  - # 9
    frequency:    3.2129091828
  - # 10
    frequency:    3.2196268066
  - # 11
    frequency:    5.1815780381
  - # 12
    frequency:    6.3671957123
  - # 13
    frequency:    8.1041217090
  - # 14
    frequency:    8.1063615377
  - # 15
    frequency:   10.4930731219
  - # 16
    frequency:   12.0126830380
  - # 17
    frequency:   12.2289548809
  - # 18
    frequency:   13.5461286465

- q-position: [    0.1414141,    0.0000000,    0.0000000 ]
  distance:    0.0432789
  band:
  - # 1
    frequency:   -1.7090483192
  - # 2
    frequency:   -0.8277397762
  - # 3
    frequency:    0.6975769683
  - # 4
    frequency:    0.8137114099
  - # 5
    frequency:    1.5345635833
  - # 6
    frequency:    1.8416219988
  - # 7
    frequency:    1.9619657576
  - # 8
    frequency:    2.7784250974
  - # 9
    frequency:    3.2182272250
  - # 10
    frequency:    3.2318085613
  - # 11
    frequency:    5.1756556774
  - # 12
    frequency:    6.3231420625
  - # 13
    frequency:    8.0833566865
  - # 14
    frequency:    8.0897762337
  - # 15
    frequency:   10.5076002383
  - # 16
    frequency:   12.0086263549
  - # 17
    frequency:   12.2298263114
  - # 18
    frequency:   13.5684158325

- q-position: [    0.1464646,    0.0000000,    0.0000000 ]
  distance:    0.0448245
  band:
  - # 1
    frequency:   -1.7062157758
  - # 2
    frequency:   -0.7670495348
  - # 3
    frequency:    0.7290932487
  - # 4
    frequency:    0.8685016935
  - # 5
    frequency:    1.5007470993
  - # 6
    frequency:    1.8697322539
  - # 7
    frequency:    1.9967704465
  - # 8
    frequency:    2.8249160895
  - # 9
    frequency:    3.2250420362
  - # 10
    frequency:    3.2442908833
  - # 11
    frequency:    5.1705720789
  - # 12
    frequency:    6.2802645753
  - # 13
    frequency:    8.0620043848
  - # 14
    frequency:    8.0729659276
  - # 15
    frequency:   10.5197749622
  - # 16
    frequency:   12.0057007242
  - # 17
    frequency:   12.2307151593
  - # 18
    frequency:   13.5911782997

- q-position: [    0.1515152,    0.0000000,    0.0000000 ]
  distance:    0.0463702
  band:
  - # 1
    frequency:   -1.7034803971
  - # 2
    frequency:   -0.7078879964
  - # 3
    frequency:    0.7606773336
  - # 4
    frequency:    0.9213869751
  - # 5
    frequency:    1.4555707456
  - # 6
    frequency:    1.8977319261
  - # 7
    frequency:    2.0363459276
  - # 8
    frequency:    2.8706175280
  - # 9
    frequency:    3.2341637210
  - # 10
    frequency:    3.2570644399
  - # 11
    frequency:    5.1663747264
  - # 12
    frequency:    6.2386027446
  - # 13
    frequency:    8.0400824986
  - # 14
    frequency:    8.0559475731
  - # 15
    frequency:   10.5295233654
  - # 16
    frequency:   12.0039558814
  - # 17
    frequency:   12.2316212947
  - # 18
    frequency:   13.6144039321

- q-position: [    0.1565657,    0.0000000,    0.0000000 ]
  distance:    0.0479159
  band:
  - # 1
    frequency:   -1.7008597765
  - # 2
    frequency:   -0.6516342649
  - # 3
    frequency:    0.7922977825
  - # 4
    frequency:    0.9681565925
  - # 5
    frequency:    1.4041466732
  - # 6
    frequency:    1.9255740643
  - # 7
    frequency:    2.0786989834
  - # 8
    frequency:    2.9143442050
  - # 9
    frequency:    3.2466195506
  - # 10
    frequency:    3.2701202662
  - # 11
    frequency:    5.1630949929
  - # 12
    frequency:    6.1981811142
  - # 13
    frequency:    8.0176094016
  - # 14
    frequency:    8.0387384718
  - # 15
    frequency:   10.5367924369
  - # 16
    frequency:   12.0034256713
  - # 17
    frequency:   12.2325447092
  - # 18
    frequency:   13.6380808848

- q-position: [    0.1616162,    0.0000000,    0.0000000 ]
  distance:    0.0494616
  band:
  - # 1
    frequency:   -1.6983719649
  - # 2
    frequency:   -0.6006907953
  - # 3
    frequency:    0.8239247814
  - # 4
    frequency:    0.9999190291
  - # 5
    frequency:    1.3557328484
  - # 6
    frequency:    1.9532132708
  - # 7
    frequency:    2.1224192567
  - # 8
    frequency:    2.9548015204
  - # 9
    frequency:    3.2636107508
  - # 10
    frequency:    3.2834497635
  - # 11
    frequency:    5.1607475910
  - # 12
    frequency:    6.1590111417
  - # 13
    frequency:    7.9946041678
  - # 14
    frequency:    8.0213562144
  - # 15
    frequency:   10.5415509919
  - # 16
    frequency:   12.0041268280
  - # 17
    frequency:   12.2334855083
  - # 18
    frequency:   13.6621974398

- q-position: [    0.1666667,    0.0000000,    0.0000000 ]
  distance:    0.0510072
  band:
  - # 1
    frequency:   -1.6960354967
  - # 2
    frequency:   -0.5596963940
  - # 3
    frequency:    0.8555300858
  - # 4
    frequency:    1.0003753823
  - # 5
    frequency:    1.3270541646
  - # 6
    frequency:    1.9806055914
  - # 7
    frequency:    2.1665595114
  - # 8
    frequency:    2.9907636942
  - # 9
    frequency:    3.2863167859
  - # 10
    frequency:    3.2970446869
  - # 11
    frequency:    5.1593306486
  - # 12
    frequency:    6.1210931959
  - # 13
    frequency:    7.9710865944
  - # 14
    frequency:    8.0038186198
  - # 15
    frequency:   10.5437900207
  - # 16
    frequency:   12.0060583579
  - # 17
    frequency:   12.2344439037
  - # 18
    frequency:   13.6867418729

- q-position: [    0.1717172,    0.0000000,    0.0000000 ]
  distance:    0.0525529
  band:
  - # 1
    frequency:   -1.6938694121
  - # 2
    frequency:   -0.5375721946
  - # 3
    frequency:    0.8870869646
  - # 4
    frequency:    0.9573158669
  - # 5
    frequency:    1.3320867755
  - # 6
    frequency:    2.0077084309
  - # 7
    frequency:    2.2104838702
  - # 8
    frequency:    3.0214294315
  - # 9
    frequency:    3.3108971227
  - # 10
    frequency:    3.3155244275
  - # 11
    frequency:    5.1588263593
  - # 12
    frequency:    6.0844186221
  - # 13
    frequency:    7.9470772244
  - # 14
    frequency:    7.9861436731
  - # 15
    frequency:   10.5435223979
  - # 16
    frequency:   12.0092016027
  - # 17
    frequency:   12.2354202022
  - # 18
    frequency:   13.7117023294

- q-position: [    0.1767677,    0.0000000,    0.0000000 ]
  distance:    0.0540986
  band:
  - # 1
    frequency:   -1.6918932763
  - # 2
    frequency:   -0.5490996510
  - # 3
    frequency:    0.8830661311
  - # 4
    frequency:    0.9185701449
  - # 5
    frequency:    1.3642517178
  - # 6
    frequency:    2.0344804949
  - # 7
    frequency:    2.2537571453
  - # 8
    frequency:    3.0467605154
  - # 9
    frequency:    3.3249994557
  - # 10
    frequency:    3.3512763667
  - # 11
    frequency:    5.1592021196
  - # 12
    frequency:    6.0489718151
  - # 13
    frequency:    7.9225973694
  - # 14