nqpoint: 300    
npath: 3      
segment_nqpoint:
- 100
- 100
- 100
labels:
- [ 'G', 'M' ]
- [ 'M', 'K' ]
- [ 'K', 'G' ]
reciprocal_lattice:
- [   0.29605106,   0.17092516,   0.00000000 ] # a*
- [   0.00000000,   0.34185031,   0.00000000 ] # b*
- [   0.00000000,   0.00000000,   0.03846667 ] # c*
natom: 7      
lattice:
- [     3.377795748213523,     0.000000000000000,     0.000000000000000 ] # a
- [    -1.688897874106762,     2.925256926747006,     0.000000000000000 ] # b
- [     0.000000000000000,     0.000000000000000,    25.996532771210518 ] # c
points:
- symbol: Br # 1
  coordinates: [  0.333332985432215,  0.666666983183674,  0.653799986359453 ]
  mass: 79.904000
- symbol: C # 2
  coordinates: [  0.666666984744047,  0.333332985985144,  0.391902905457799 ]
  mass: 12.010700
- symbol: N # 3
  coordinates: [  0.000000000000000,  0.000000000000000,  0.535563191844357 ]
  mass: 14.006700
- symbol: N # 4
  coordinates: [  0.666666984744047,  0.333332985985144,  0.346200013640547 ]
  mass: 14.006700
- symbol: O # 5
  coordinates: [  0.666666984744047,  0.333332985985144,  0.443316444778898 ]
  mass: 15.999400
- symbol: Sc # 6
  coordinates: [  0.333332985432215,  0.666666983183674,  0.490638842158719 ]
  mass: 44.955912
- symbol: Sc # 7
  coordinates: [  0.666666984744047,  0.333332985985144,  0.582016737808918 ]
  mass: 44.955912

phonon:
- q-position: [    0.0000000,    0.0000000,    0.0000000 ]
  distance:    0.0000000
  band:
  - # 1
    frequency:   -1.0022504823
  - # 2
    frequency:   -1.0022504823
  - # 3
    frequency:   -0.0000007903
  - # 4
    frequency:   -0.0000002453
  - # 5
    frequency:    0.0000008584
  - # 6
    frequency:    3.1174945079
  - # 7
    frequency:    3.1174945079
  - # 8
    frequency:    4.6028214724
  - # 9
    frequency:    5.9254777378
  - # 10
    frequency:    5.9254777378
  - # 11
    frequency:    6.7652007345
  - # 12
    frequency:    6.7652007345
  - # 13
    frequency:    8.4232416573
  - # 14
    frequency:   11.5304637276
  - # 15
    frequency:   12.5725095816
  - # 16
    frequency:   12.5725095816
  - # 17
    frequency:   13.9916959180
  - # 18
    frequency:   13.9916959180
  - # 19
    frequency:   14.0794530203
  - # 20
    frequency:   32.1045852221
  - # 21
    frequency:   67.9516189404

- q-position: [    0.0050505,    0.0000000,    0.0000000 ]
  distance:    0.0017265
  band:
  - # 1
    frequency:   -1.0013888203
  - # 2
    frequency:   -0.9989050265
  - # 3
    frequency:   -0.0511075809
  - # 4
    frequency:    0.0680212491
  - # 5
    frequency:    0.1254495670
  - # 6
    frequency:    3.1180101172
  - # 7
    frequency:    3.1192453272
  - # 8
    frequency:    4.6023657597
  - # 9
    frequency:    5.9254163124
  - # 10
    frequency:    5.9259167411
  - # 11
    frequency:    6.7653956205
  - # 12
    frequency:    6.7656346555
  - # 13
    frequency:    8.4226336050
  - # 14
    frequency:   11.5271660963
  - # 15
    frequency:   12.5722905772
  - # 16
    frequency:   12.5726964095
  - # 17
    frequency:   13.9901489728
  - # 18
    frequency:   13.9917290458
  - # 19
    frequency:   14.0791961374
  - # 20
    frequency:   32.1038846822
  - # 21
    frequency:   67.9513147359

- q-position: [    0.0101010,    0.0000000,    0.0000000 ]
  distance:    0.0034530
  band:
  - # 1
    frequency:   -0.9988089136
  - # 2
    frequency:   -0.9888650603
  - # 3
    frequency:   -0.0775956958
  - # 4
    frequency:    0.1360815067
  - # 5
    frequency:    0.2421281207
  - # 6
    frequency:    3.1195567188
  - # 7
    frequency:    3.1244820537
  - # 8
    frequency:    4.6010022213
  - # 9
    frequency:    5.9252349659
  - # 10
    frequency:    5.9272288816
  - # 11
    frequency:    6.7659779817
  - # 12
    frequency:    6.7669331475
  - # 13
    frequency:    8.4208123318
  - # 14
    frequency:   11.5173198906
  - # 15
    frequency:   12.5716349484
  - # 16
    frequency:   12.5732062205
  - # 17
    frequency:   13.9854415232
  - # 18
    frequency:   13.9918283202
  - # 19
    frequency:   14.0785080233
  - # 20
    frequency:   32.1017857577
  - # 21
    frequency:   67.9504030365

- q-position: [    0.0151515,    0.0000000,    0.0000000 ]
  distance:    0.0051796
  band:
  - # 1
    frequency:   -0.9945254012
  - # 2
    frequency:   -0.9721064135
  - # 3
    frequency:   -0.1063950369
  - # 4
    frequency:    0.2042157832
  - # 5
    frequency:    0.3606086656
  - # 6
    frequency:    3.1221336381
  - # 7
    frequency:    3.1331580853
  - # 8
    frequency:    4.5987416059
  - # 9
    frequency:    5.9249424149
  - # 10
    frequency:    5.9293996134
  - # 11
    frequency:    6.7669408739
  - # 12
    frequency:    6.7690864899
  - # 13
    frequency:    8.4177865407
  - # 14
    frequency:   11.5010606678
  - # 15
    frequency:   12.5705468209
  - # 16
    frequency:   12.5738916013
  - # 17
    frequency:   13.9774095917
  - # 18
    frequency:   13.9919934122
  - # 19
    frequency:   14.0776003234
  - # 20
    frequency:   32.0982965175
  - # 21
    frequency:   67.9488865799

- q-position: [    0.0202020,    0.0000000,    0.0000000 ]
  distance:    0.0069061
  band:
  - # 1
    frequency:   -0.9885607512
  - # 2
    frequency:   -0.9485467616
  - # 3
    frequency:   -0.1350121913
  - # 4
    frequency:    0.2724514741
  - # 5
    frequency:    0.4796706333
  - # 6
    frequency:    3.1257397639
  - # 7
    frequency:    3.1451976657
  - # 8
    frequency:    4.5956016664
  - # 9
    frequency:    5.9245529542
  - # 10
    frequency:    5.9324049019
  - # 11
    frequency:    6.7682725481
  - # 12
    frequency:    6.7720787834
  - # 13
    frequency:    8.4135709101
  - # 14
    frequency:   11.4786003894
  - # 15
    frequency:   12.5690329814
  - # 16
    frequency:   12.5745211722
  - # 17
    frequency:   13.9658780885
  - # 18
    frequency:   13.9922237712
  - # 19
    frequency:   14.0767272529
  - # 20
    frequency:   32.0934303565
  - # 21
    frequency:   67.9467699121

- q-position: [    0.0252525,    0.0000000,    0.0000000 ]
  distance:    0.0086326
  band:
  - # 1
    frequency:   -0.9809425889
  - # 2
    frequency:   -0.9179898016
  - # 3
    frequency:   -0.1621106978
  - # 4
    frequency:    0.3408054541
  - # 5
    frequency:    0.5989191849
  - # 6
    frequency:    3.1303735666
  - # 7
    frequency:    3.1604985597
  - # 8
    frequency:    4.5916069305
  - # 9
    frequency:    5.9240861192
  - # 10
    frequency:    5.9362115231
  - # 11
    frequency:    6.7699561926
  - # 12
    frequency:    6.7758883848
  - # 13
    frequency:    8.4081863489
  - # 14
    frequency:   11.4502097367
  - # 15
    frequency:   12.5671027455
  - # 16
    frequency:   12.5747978244
  - # 17
    frequency:   13.9507463475
  - # 18
    frequency:   13.9925186214
  - # 19
    frequency:   14.0760995311
  - # 20
    frequency:   32.0872059150
  - # 21
    frequency:   67.9440593637

- q-position: [    0.0303030,    0.0000000,    0.0000000 ]
  distance:    0.0103591
  band:
  - # 1
    frequency:   -0.9717003696
  - # 2
    frequency:   -0.8800562390
  - # 3
    frequency:   -0.1867452659
  - # 4
    frequency:    0.4092821171
  - # 5
    frequency:    0.7180890776
  - # 6
    frequency:    3.1360331201
  - # 7
    frequency:    3.1789354366
  - # 8
    frequency:    4.5867884059
  - # 9
    frequency:    5.9235662380
  - # 10
    frequency:    5.9407774572
  - # 11
    frequency:    6.7719695852
  - # 12
    frequency:    6.7804884790
  - # 13
    frequency:    8.4016603459
  - # 14
    frequency:   11.4161986218
  - # 15
    frequency:   12.5647677780
  - # 16
    frequency:   12.5743790742
  - # 17
    frequency:   13.9320296295
  - # 18
    frequency:   13.9928769578
  - # 19
    frequency:   14.0758420419
  - # 20
    frequency:   32.0796469683
  - # 21
    frequency:   67.9407630155

- q-position: [    0.0353535,    0.0000000,    0.0000000 ]
  distance:    0.0120856
  band:
  - # 1
    frequency:   -0.9608617297
  - # 2
    frequency:   -0.8341005273
  - # 3
    frequency:   -0.2080208909
  - # 4
    frequency:    0.4778724669
  - # 5
    frequency:    0.8369299938
  - # 6
    frequency:    3.1427161254
  - # 7
    frequency:    3.2003636690
  - # 8
    frequency:    4.5811832435
  - # 9
    frequency:    5.9230218937
  - # 10
    frequency:    5.9460523547
  - # 11
    frequency:    6.7742846696
  - # 12
    frequency:    6.7858477586
  - # 13
    frequency:    8.3940274036
  - # 14
    frequency:   11.3768979153
  - # 15
    frequency:   12.5620418708
  - # 16
    frequency:   12.5728965998
  - # 17
    frequency:   13.9098526346
  - # 18
    frequency:   13.9932975431
  - # 19
    frequency:   14.0759990810
  - # 20
    frequency:   32.0707822851
  - # 21
    frequency:   67.9368906559

- q-position: [    0.0404040,    0.0000000,    0.0000000 ]
  distance:    0.0138121
  band:
  - # 1
    frequency:   -0.9484488439
  - # 2
    frequency:   -0.7791031824
  - # 3
    frequency:   -0.2248704249
  - # 4
    frequency:    0.5465542269
  - # 5
    frequency:    0.9551917651
  - # 6
    frequency:    3.1504199308
  - # 7
    frequency:    3.2246232454
  - # 8
    frequency:    4.5748343880
  - # 9
    frequency:    5.9224853196
  - # 10
    frequency:    5.9519780446
  - # 11
    frequency:    6.7768670737
  - # 12
    frequency:    6.7919311747
  - # 13
    frequency:    8.3853295453
  - # 14
    frequency:   11.3326443701
  - # 15
    frequency:   12.5589406834
  - # 16
    frequency:   12.5699730990
  - # 17
    frequency:   13.8844199161
  - # 18
    frequency:   13.9937789059
  - # 19
    frequency:   14.0765621737
  - # 20
    frequency:   32.0606454568
  - # 21
    frequency:   67.9324537284

- q-position: [    0.0454545,    0.0000000,    0.0000000 ]
  distance:    0.0155387
  band:
  - # 1
    frequency:   -0.9344750466
  - # 2
    frequency:   -0.7135267344
  - # 3
    frequency:   -0.2356941458
  - # 4
    frequency:    0.6152928136
  - # 5
    frequency:    1.0726306480
  - # 6
    frequency:    3.1591415459
  - # 7
    frequency:    3.2515425232
  - # 8
    frequency:    4.5677902454
  - # 9
    frequency:    5.9219917473
  - # 10
    frequency:    5.9584890541
  - # 11
    frequency:    6.7796755970
  - # 12
    frequency:    6.7987007225
  - # 13
    frequency:    8.3756168786
  - # 14
    frequency:   11.2837695581
  - # 15
    frequency:   12.5554814542
  - # 16
    frequency:   12.5652357882
  - # 17
    frequency:   13.8559863011
  - # 18
    frequency:   13.9943193420
  - # 19
    frequency:   14.0774972091
  - # 20
    frequency:   32.0492747002
  - # 21
    frequency:   67.9274652717

- q-position: [    0.0505051,    0.0000000,    0.0000000 ]
  distance:    0.0172652
  band:
  - # 1
    frequency:   -0.9189418667
  - # 2
    frequency:   -0.6351916458
  - # 3
    frequency:   -0.2373340339
  - # 4
    frequency:    0.6840429343
  - # 5
    frequency:    1.1890175229
  - # 6
    frequency:    3.1688776438
  - # 7
    frequency:    3.2809415981
  - # 8
    frequency:    4.5601044019
  - # 9
    frequency:    5.9215787296
  - # 10
    frequency:    5.9655131040
  - # 11
    frequency:    6.7826617006
  - # 12
    frequency:    6.8061162289
  - # 13
    frequency:    8.3649481981
  - # 14
    frequency:   11.2305927198
  - # 15
    frequency:   12.5516826900
  - # 16
    frequency:   12.5583267905
  - # 17
    frequency:   13.8248358791
  - # 18
    frequency:   13.9949169186
  - # 19
    frequency:   14.0787621764
  - # 20
    frequency:   32.0367126323
  - # 21
    frequency:   67.9219398508

- q-position: [    0.0555556,    0.0000000,    0.0000000 ]
  distance:    0.0189917
  band:
  - # 1
    frequency:   -0.9018364904
  - # 2
    frequency:   -0.5418471006
  - # 3
    frequency:   -0.2208452548
  - # 4
    frequency:    0.7527505409
  - # 5
    frequency:    1.3041431368
  - # 6
    frequency:    3.1796245483
  - # 7
    frequency:    3.3126351258
  - # 8
    frequency:    4.5518354274
  - # 9
    frequency:    5.9212854503
  - # 10
    frequency:    5.9729715418
  - # 11
    frequency:    6.7857690406
  - # 12
    frequency:    6.8141361082
  - # 13
    frequency:    8.3533915989
  - # 14
    frequency:   11.1734168995
  - # 15
    frequency:   12.5475638407
  - # 16
    frequency:   12.5489111769
  - # 17
    frequency:   13.7912685976
  - # 18
    frequency:   13.9955694841
  - # 19
    frequency:   14.0803163142
  - # 20
    frequency:   32.0230060221
  - # 21
    frequency:   67.9158934813

- q-position: [    0.0606061,    0.0000000,    0.0000000 ]
  distance:    0.0207182
  band:
  - # 1
    frequency:   -0.8831295330
  - # 2
    frequency:   -0.4376775866
  - # 3
    frequency:   -0.1422765707
  - # 4
    frequency:    0.8213548874
  - # 5
    frequency:    1.4178200433
  - # 6
    frequency:    3.1913782003
  - # 7
    frequency:    3.3464344936
  - # 8
    frequency:    4.5430468015
  - # 9
    frequency:    5.9211520345
  - # 10
    frequency:    5.9807796725
  - # 11
    frequency:    6.7889331020
  - # 12
    frequency:    6.8227180637
  - # 13
    frequency:    8.3410250733
  - # 14
    frequency:   11.1125275416
  - # 15
    frequency:   12.5366835736
  - # 16
    frequency:   12.5431449697
  - # 17
    frequency:   13.7555910729
  - # 18
    frequency:   13.9962746828
  - # 19
    frequency:   14.0821239685
  - # 20
    frequency:   32.0082055189
  - # 21
    frequency:   67.9093435461

- q-position: [    0.0656566,    0.0000000,    0.0000000 ]
  distance:    0.0224447
  band:
  - # 1
    frequency:   -0.8627728857
  - # 2
    frequency:   -0.3535783796
  - # 3
    frequency:    0.2398171894
  - # 4
    frequency:    0.8897904969
  - # 5
    frequency:    1.5298822106
  - # 6
    frequency:    3.2041341004
  - # 7
    frequency:    3.3821492893
  - # 8
    frequency:    4.5338069989
  - # 9
    frequency:    5.9212188629
  - # 10
    frequency:    5.9888469423
  - # 11
    frequency:    6.7920809959
  - # 12
    frequency:    6.8318197132
  - # 13
    frequency:    8.3279370476
  - # 14
    frequency:   11.0481927561
  - # 15
    frequency:   12.5213741283
  - # 16
    frequency:   12.5384464261
  - # 17
    frequency:   13.7181089695
  - # 18
    frequency:   13.9970299761
  - # 19
    frequency:   14.0841557999
  - # 20
    frequency:   31.9923653608
  - # 21
    frequency:   67.9023087067

- q-position: [    0.0707071,    0.0000000,    0.0000000 ]
  distance:    0.0241712
  band:
  - # 1
    frequency:   -0.8406973080
  - # 2
    frequency:   -0.3031723116
  - # 3
    frequency:    0.4277943383
  - # 4
    frequency:    0.9579889138
  - # 5
    frequency:    1.6401833541
  - # 6
    frequency:    3.2178872248
  - # 7
    frequency:    3.4195880524
  - # 8
    frequency:    4.5241897790
  - # 9
    frequency:    5.9215258936
  - # 10
    frequency:    5.9970769321
  - # 11
    frequency:    6.7951315026
  - # 12
    frequency:    6.8413991262
  - # 13
    frequency:    8.3142268151
  - # 14
    frequency:   10.9806645986
  - # 15
    frequency:   12.5027543452
  - # 16
    frequency:   12.5334885274
  - # 17
    frequency:   13.6791195701
  - # 18
    frequency:   13.9978326694
  - # 19
    frequency:   14.0863888551
  - # 20
    frequency:   31.9755430640
  - # 21
    frequency:   67.8948088081

- q-position: [    0.0757576,    0.0000000,    0.0000000 ]
  distance:    0.0258978
  band:
  - # 1
    frequency:   -0.8168093422
  - # 2
    frequency:   -0.2590301756
  - # 3
    frequency:    0.5758691261
  - # 4
    frequency:    1.0258801865
  - # 5
    frequency:    1.7485947455
  - # 6
    frequency:    3.2326319118
  - # 7
    frequency:    3.4585583131
  - # 8
    frequency:    4.5142747295
  - # 9
    frequency:    5.9221119909
  - # 10
    frequency:    6.0053671096
  - # 11
    frequency:    6.7979954528
  - # 12
    frequency:    6.8514152674
  - # 13
    frequency:    8.3000048021
  - # 14
    frequency:   10.9101808781
  - # 15
    frequency:   12.4806429439
  - # 16
    frequency:   12.5282912595
  - # 17
    frequency:   13.6389041466
  - # 18
    frequency:   13.9986799456
  - # 19
    frequency:   14.0888062244
  - # 20
    frequency:   31.9577990971
  - # 21
    frequency:   67.8868647789

- q-position: [    0.0808081,    0.0000000,    0.0000000 ]
  distance:    0.0276243
  band:
  - # 1
    frequency:   -0.7909870078
  - # 2
    frequency:   -0.2011648600
  - # 3
    frequency:    0.7026752436
  - # 4
    frequency:    1.0933940764
  - # 5
    frequency:    1.8550029194
  - # 6
    frequency:    3.2483617177
  - # 7
    frequency:    3.4988659307
  - # 8
    frequency:    4.5041481272
  - # 9
    frequency:    5.9230142571
  - # 10
    frequency:    6.0136082912
  - # 11
    frequency:    6.8005765568
  - # 12
    frequency:    6.8618283432
  - # 13
    frequency:    8.2853926024
  - # 14
    frequency:   10.8369671627
  - # 15
    frequency:   12.4549115283
  - # 16
    frequency:   12.5228739989
  - # 17
    frequency:   13.5977203856
  - # 18
    frequency:   13.9995689044
  - # 19
    frequency:   14.0913965800
  - # 20
    frequency:   31.9391965410
  - # 21
    frequency:   67.8784985273

- q-position: [    0.0858586,    0.0000000,    0.0000000 ]
  distance:    0.0293508
  band:
  - # 1
    frequency:   -0.7630735402
  - # 2
    frequency:   -0.0929211555
  - # 3
    frequency:    0.8163555829
  - # 4
    frequency:    1.1604610261
  - # 5
    frequency:    1.9593074567
  - # 6
    frequency:    3.2650692445
  - # 7
    frequency:    3.5403137288
  - # 8
    frequency:    4.4939041938
  - # 9
    frequency:    5.9242673655
  - # 10
    frequency:    6.0216837630
  - # 11
    frequency:    6.8027728016
  - # 12
    frequency:    6.8726000576
  - # 13
    frequency:    8.2705226960
  - # 14
    frequency:   10.7612387778
  - # 15
    frequency:   12.4254895424
  - # 16
    frequency:   12.5172552618
  - # 17
    frequency:   13.5557955118
  - # 18
    frequency:   14.0004966059
  - # 19
    frequency:   14.0941536843
  - # 20
    frequency:   31.9198007382
  - # 21
    frequency:   67.8697328340

- q-position: [    0.0909091,    0.0000000,    0.0000000 ]
  distance:    0.0310773
  band:
  - # 1
    frequency:   -0.7328680869
  - # 2
    frequency:    0.1731954403
  - # 3
    frequency:    0.9211223894
  - # 4
    frequency:    1.2270129317
  - # 5
    frequency:    2.0614188757
  - # 6
    frequency:    3.2827459401
  - # 7
    frequency:    3.5826994010
  - # 8
    frequency:    4.4836468503
  - # 9
    frequency:    5.9259028926
  - # 10
    frequency:    6.0294680122
  - # 11
    frequency:    6.8044785393
  - # 12
    frequency:    6.8836937837
  - # 13
    frequency:    8.2555377691
  - # 14
    frequency:   10.6832026880
  - # 15
    frequency:   12.3923677977
  - # 16
    frequency:   12.5114524835
  - # 17
    frequency:   13.5133209395
  - # 18
    frequency:   14.0014601192
  - # 19
    frequency:   14.0970758799
  - # 20
    frequency:   31.8996789329
  - # 21
    frequency:   67.8605912412

- q-position: [    0.0959596,    0.0000000,    0.0000000 ]
  distance:    0.0328038
  band:
  - # 1
    frequency:   -0.7001116189
  - # 2
    frequency:    0.2764543128
  - # 3
    frequency:    1.0193964593
  - # 4
    frequency:    1.2929837668
  - # 5
    frequency:    2.1612565886
  - # 6
    frequency:    3.3013818757
  - # 7
    frequency:    3.6258126217
  - # 8
    frequency:    4.4734921040
  - # 9
    frequency:    5.9279486509
  - # 10
    frequency:    6.0368250310
  - # 11
    frequency:    6.8055873898
  - # 12
    frequency:    6.8950746629
  - # 13
    frequency:    8.2405895437
  - # 14
    frequency:   10.6030592208
  - # 15
    frequency:   12.3555998378
  - # 16
    frequency:   12.5054818267
  - # 17
    frequency:   13.4704492640
  - # 18
    frequency:   14.0024565730
  - # 19
    frequency:   14.1001655464
  - # 20
    frequency:   31.8788999053
  - # 21
    frequency:   67.8510979411

- q-position: [    0.1010101,    0.0000000,    0.0000000 ]
  distance:    0.0345303
  band:
  - # 1
    frequency:   -0.6644650617
  - # 2
    frequency:    0.3624971440
  - # 3
    frequency:    1.1126850256
  - # 4
    frequency:    1.3583100976
  - # 5
    frequency:    2.2587468418
  - # 6
    frequency:    3.3209655076
  - # 7
    frequency:    3.6694312466
  - # 8
    frequency:    4.4635712385
  - # 9
    frequency:    5.9304280250
  - # 10
    frequency:    6.0436061702
  - # 11
    frequency:    6.8059960564
  - # 12
    frequency:    6.9067096448
  - # 13
    frequency:    8.2258370360
  - # 14
    frequency:   10.5210036342
  - # 15
    frequency:   12.3153005772
  - # 16
    frequency:   12.4993580202
  - # 17
    frequency:   13.4272941932
  - # 18
    frequency:   14.0034832070
  - # 19
    frequency:   14.1034285113
  - # 20
    frequency:   31.8575336026
  - # 21
    frequency:   67.8412776620

- q-position: [    0.1060606,    0.0000000,    0.0000000 ]
  distance:    0.0362569
  band:
  - # 1
    frequency:   -0.6254741260
  - # 2
    frequency:    0.4421968366
  - # 3
    frequency:    1.2019845813
  - # 4
    frequency:    1.4229315180
  - # 5
    frequency:    2.3538205514
  - # 6
    frequency:    3.3414834293
  - # 7
    frequency:    3.7133164337
  - # 8
    frequency:    4.4540350200
  - # 9
    frequency:    5.9333593200
  - # 10
    frequency:    6.0496475545
  - # 11
    frequency:    6.8056091055
  - # 12
    frequency:    6.9185674811
  - # 13
    frequency:    8.2114441805
  - # 14
    frequency:   10.4372275656
  - # 15
    frequency:   12.2716419854
  - # 16
    frequency:   12.4930942241
  - # 17
    frequency:   13.3839336504
  - # 18
    frequency:   14.0045374234
  - # 19
    frequency:   14.1068734115
  - # 20
    frequency:   31.8356507677
  - # 21
    frequency:   67.8311555547

- q-position: [    0.1111111,    0.0000000,    0.0000000 ]
  distance:    0.0379834
  band:
  - # 1
    frequency:   -0.5825099082
  - # 2
    frequency:    0.5189861544
  - # 3
    frequency:    1.2879846777
  - # 4
    frequency:    1.4867910205
  - # 5
    frequency:    2.4464109385
  - # 6
    frequency:    3.3629201254
  - # 7
    frequency:    3.7572064792
  - # 8
    frequency:    4.4450591557
  - # 9
    frequency:    5.9367551350
  - # 10
    frequency:    6.0547671237
  - # 11
    frequency:    6.8043446825
  - # 12
    frequency:    6.9306186878
  - # 13
    frequency:    8.1975767942
  - # 14
    frequency:   10.3519204187
  - # 15
    frequency:   12.2248460075
  - # 16
    frequency:   12.4867019168
  - # 17
    frequency:   13.3404158365
  - # 18
    frequency:   14.0056168355
  - # 19
    frequency:   14.1105110151
  - # 20
    frequency:   31.8133225709
  - # 21
    frequency:   67.8207570790

- q-position: [    0.1161616,    0.0000000,    0.0000000 ]
  distance:    0.0397099
  band:
  - # 1
    frequency:   -0.5346616471
  - # 2
    frequency:    0.5943706588
  - # 3
    frequency:    1.3711796052
  - # 4
    frequency:    1.5498353102
  - # 5
    frequency:    2.5364508685
  - # 6
    frequency:    3.3852577354
  - # 7
    frequency:    3.8008091740
  - # 8
    frequency:    4.4368512086
  - # 9
    frequency:    5.9406217765
  - # 10
    frequency:    6.0587614533
  - # 11
    frequency:    6.8021410074
  - # 12
    frequency:    6.9428354895
  - # 13
    frequency:    8.1843989086
  - # 14
    frequency:   10.2652707597
  - # 15
    frequency:   12.1751752980
  - # 16
    frequency:   12.4801907991
  - # 17
    frequency:   13.2967676297
  - # 18
    frequency:   14.0067193124
  - # 19
    frequency:   14.1143535205
  - # 20
    frequency:   31.7906202442
  - # 21
    frequency:   67.8101078909

- q-position: [    0.1212121,    0.0000000,    0.0000000 ]
  distance:    0.0414364
  band:
  - # 1
    frequency:   -0.4805245238
  - # 2
    frequency:    0.6691129356
  - # 3
    frequency:    1.4519336700
  - # 4
    frequency:    1.6120150616
  - # 5
    frequency:    2.6238697963
  - # 6
    frequency:    3.4084758399
  - # 7
    frequency:    3.8437926641
  - # 8
    frequency:    4.4296589873
  - # 9
    frequency:    5.9449587343
  - # 10
    frequency:    6.0614026326
  - # 11
    frequency:    6.7989633170
  - # 12
    frequency:    6.9551917550
  - # 13
    frequency:    8.1720685662
  - # 14
    frequency:   10.1774678060
  - # 15
    frequency:   12.1229226180
  - # 16
    frequency:   12.4735687078
  - # 17
    frequency:   13.2530044210
  - # 18
    frequency:   14.0078430179
  - # 19
    frequency:   14.1184138594
  - # 20
    frequency:   31.7676147224
  - # 21
    frequency:   67.7992337320

- q-position: [    0.1262626,    0.0000000,    0.0000000 ]
  distance:    0.0431629
  band:
  - # 1
    frequency:   -0.4177210649
  - # 2
    frequency:    0.7436266249
  - # 3
    frequency:    1.5305213957
  - # 4
    frequency:    1.6732851136
  - # 5
    frequency:    2.7085902101
  - # 6
    frequency:    3.4325512781
  - # 7
    frequency:    3.8857753184
  - # 8
    frequency:    4.4237798801
  - # 9
    frequency:    5.9497582418
  - # 10
    frequency:    6.0624356649
  - # 11
    frequency:    6.7948106887
  - # 12
    frequency:    6.9676629361
  - # 13
    frequency:    8.1607332606
  - # 14
    frequency:   10.0887030933
  - # 15
    frequency:   12.0683998415
  - # 16
    frequency:   12.4668415321
  - # 17
    frequency:   13.2091403783
  - # 18
    frequency:   14.0089864420
  - # 19
    frequency:   14.1227050301
  - # 20
    frequency:   31.7443762920
  - # 21
    frequency:   67.7881603211

- q-position: [    0.1313131,    0.0000000,    0.0000000 ]
  distance:    0.0448894
  band:
  - # 1
    frequency:   -0.3415788053
  - # 2
    frequency:    0.8181401091
  - # 3
    frequency:    1.6071533706
  - # 4
    frequency:    1.7336045972
  - # 5
    frequency:    2.7905234566
  - # 6
    frequency:    3.4574580087
  - # 7
    frequency:    3.9263163777
  - # 8
    frequency:    4.4195693223
  - # 9
    frequency:    5.9550049468
  - # 10
    frequency:    6.0615770841
  - # 11
    frequency:    6.7897219138
  - # 12
    frequency:    6.9802260129
  - # 13
    frequency:    8.1505252727
  - # 14
    frequency:    9.9991724112
  - # 15
    frequency:   12.0119274487
  - # 16
    frequency:   12.4600131240
  - # 17
    frequency:   13.1651981994
  - # 18
    frequency:   14.0101484236
  - # 19
    frequency:   14.1272394876
  - # 20
    frequency:   31.7209742516
  - # 21
    frequency:   67.7769132485

- q-position: [    0.1363636,    0.0000000,    0.0000000 ]
  distance:    0.0466160
  band:
  - # 1
    frequency:   -0.2398169564
  - # 2
    frequency:    0.8927746571
  - # 3
    frequency:    1.6819934656
  - # 4
    frequency:    1.7929369923
  - # 5
    frequency:    2.8695648116
  - # 6
    frequency:    3.4831670199
  - # 7
    frequency:    3.9649116979
  - # 8
    frequency:    4.4174440095
  - # 9
    frequency:    5.9606757174
  - # 10
    frequency:    6.0585157531
  - # 11
    frequency:    6.7837793143
  - # 12
    frequency:    6.9928594501
  - # 13
    frequency:    8.1415572169
  - # 14
    frequency:    9.9090780927
  - # 15
    frequency:   11.9538252015
  - # 16
    frequency:   12.4530851966
  - # 17
    frequency:   13.1212175957
  - # 18
    frequency:   14.0113281636
  - # 19
    frequency:   14.1320286104
  - # 20
    frequency:   31.6974765844
  - # 21
    frequency:   67.7655178747

- q-position: [    0.1414141,    0.0000000,    0.0000000 ]
  distance:    0.0483425
  band:
  - # 1
    frequency:    0.0542868225
  - # 2
    frequency:    0.9675854897
  - # 3
    frequency:    1.7551706516
  - # 4
    frequency:    1.8512501115
  - # 5
    frequency:    2.9455876435
  - # 6
    frequency:    3.5096462972
  - # 7
    frequency:    4.0010031092
  - # 8
    frequency:    4.4178712309
  - # 9
    frequency:    5.9667396105
  - # 10
    frequency:    6.0529170609
  - # 11
    frequency:    6.7771092045
  - # 12
    frequency:    7.0055431626
  - # 13
    frequency:    8.1339181339
  - # 14
    frequency:    9.8186317313
  - # 15
    frequency:   11.8944044615
  - # 16
    frequency:   12.4460572032
  - # 17
    frequency:   13.0772619856
  - # 18
    frequency:   14.0125252280
  - # 19
    frequency:   14.1370822607
  - # 20
    frequency:   31.6739496455
  - # 21
    frequency:   67.7539992322

- q-position: [    0.1464646,    0.0000000,    0.0000000 ]
  distance:    0.0500690
  band:
  - # 1
    frequency:    0.2542574773
  - # 2
    frequency:    1.0425849238
  - # 3
    frequency:    1.8267873113
  - # 4
    frequency:    1.9085160164
  - # 5
    frequency:    3.0184365001
  - # 6
    frequency:    3.5368608516
  - # 7
    frequency:    4.0340146284
  - # 8
    frequency:    4.4213309204
  - # 9
    frequency:    5.9731580224
  - # 10
    frequency:    6.0444318672
  - # 11
    frequency:    6.7698776874
  - # 12
    frequency:    7.0182584863
  - # 13
    frequency:    8.1276704395
  - # 14
    frequency:    9.7280573805
  - # 15
    frequency:   11.8339623845
  - # 16
    frequency:   12.4389261902
  - # 17
    frequency:   13.0334231063
  - # 18
    frequency:   14.0137395396
  - # 19
    frequency:   14.1424084434
  - # 20
    frequency:   31.6504578657
  - # 21
    frequency:   67.7423819332

- q-position: [    0.1515152,    0.0000000,    0.0000000 ]
  distance:    0.0517955
  band:
  - # 1
    frequency:    0.3571156242
  - # 2
    frequency:    1.1177561109
  - # 3
    frequency:    1.8969252064
  - # 4
    frequency:    1.9647108717
  - # 5
    frequency:    3.0879189469
  - # 6
    frequency:    3.5647728113
  - # 7
    frequency:    4.0634287351
  - # 8
    frequency:    4.4282369700
  - # 9
    frequency:    5.9798850422
  - # 10
    frequency:    6.0327114248
  - # 11
    frequency:    6.7622807990
  - # 12
    frequency:    7.0309881464
  - # 13
    frequency:    8.1228479666
  - # 14
    frequency:    9.6375952561
  - # 15
    frequency:   11.7727780372
  - # 16
    frequency:   12.4316866233
  - # 17
    frequency:   12.9898234424
  - # 18
    frequency:   14.0149713591
  - # 19
    frequency:   14.1480130661
  - # 20
    frequency:   31.6270634736
  - # 21