nqpoint: 300    
npath: 3      
segment_nqpoint:
- 100
- 100
- 100
labels:
- [ 'G', 'M' ]
- [ 'M', 'K' ]
- [ 'K', 'G' ]
reciprocal_lattice:
- [   0.32520732,   0.18775853,   0.00000000 ] # a*
- [   0.00000000,   0.37551706,   0.00000000 ] # b*
- [   0.00000000,   0.00000000,   0.03537176 ] # c*
natom: 7      
lattice:
- [     3.074961556817638,     0.000000000000000,     0.000000000000000 ] # a
- [    -1.537480778408819,     2.662994823866403,     0.000000000000000 ] # b
- [     0.000000000000000,     0.000000000000000,    28.271138566415690 ] # c
points:
- symbol: C # 1
  coordinates: [  0.000000000000000,  0.000000000000000,  0.438295296201119 ]
  mass: 12.010700
- symbol: Cl # 2
  coordinates: [  0.333332985432215,  0.666666983183674,  0.681654137173965 ]
  mass: 35.453000
- symbol: H # 3
  coordinates: [  0.666666984744048,  0.333332985985145,  0.318345862826035 ]
  mass: 1.007940
- symbol: O # 4
  coordinates: [  0.333332985432215,  0.666666983183674,  0.517372433382003 ]
  mass: 15.999400
- symbol: O # 5
  coordinates: [  0.666666984744048,  0.333332985985145,  0.353193308972521 ]
  mass: 15.999400
- symbol: Ti # 6
  coordinates: [  0.333332985432215,  0.666666983183674,  0.397717831231881 ]
  mass: 47.867000
- symbol: Ti # 7
  coordinates: [  0.666666984744048,  0.333332985985145,  0.485690413905067 ]
  mass: 47.867000

phonon:
- q-position: [    0.0000000,    0.0000000,    0.0000000 ]
  distance:    0.0000000
  band:
  - # 1
    frequency:   -0.3596921112
  - # 2
    frequency:   -0.0000017298
  - # 3
    frequency:    0.0000004780
  - # 4
    frequency:    0.0000017993
  - # 5
    frequency:    0.0982357388
  - # 6
    frequency:    0.0982357388
  - # 7
    frequency:    3.9887062725
  - # 8
    frequency:    3.9887062725
  - # 9
    frequency:    8.3223573662
  - # 10
    frequency:    8.3223573662
  - # 11
    frequency:    8.3416397504
  - # 12
    frequency:    8.8863975739
  - # 13
    frequency:    8.8863975739
  - # 14
    frequency:   11.4276940014
  - # 15
    frequency:   11.4276940014
  - # 16
    frequency:   15.0409285252
  - # 17
    frequency:   16.0541037512
  - # 18
    frequency:   16.0541037512
  - # 19
    frequency:   16.3307475058
  - # 20
    frequency:   20.1825582826
  - # 21
    frequency:  111.7907624027

- q-position: [    0.0050505,    0.0000000,    0.0000000 ]
  distance:    0.0018966
  band:
  - # 1
    frequency:   -0.4086459317
  - # 2
    frequency:   -0.2799151064
  - # 3
    frequency:   -0.1705342841
  - # 4
    frequency:   -0.0886402372
  - # 5
    frequency:    0.1048932346
  - # 6
    frequency:    0.3766185131
  - # 7
    frequency:    3.9888388626
  - # 8
    frequency:    3.9907224934
  - # 9
    frequency:    8.2955584599
  - # 10
    frequency:    8.3211267523
  - # 11
    frequency:    8.3676062176
  - # 12
    frequency:    8.8840633132
  - # 13
    frequency:    8.8861540261
  - # 14
    frequency:   11.4267001976
  - # 15
    frequency:   11.4275745705
  - # 16
    frequency:   15.0394619038
  - # 17
    frequency:   16.0512383779
  - # 18
    frequency:   16.0535915344
  - # 19
    frequency:   16.3321699184
  - # 20
    frequency:   20.1823736226
  - # 21
    frequency:  111.7886242263

- q-position: [    0.0101010,    0.0000000,    0.0000000 ]
  distance:    0.0037931
  band:
  - # 1
    frequency:   -0.5065943476
  - # 2
    frequency:   -0.3732284371
  - # 3
    frequency:   -0.2983742015
  - # 4
    frequency:   -0.2265282030
  - # 5
    frequency:    0.1869639409
  - # 6
    frequency:    0.5602407764
  - # 7
    frequency:    3.9892400083
  - # 8
    frequency:    3.9967414605
  - # 9
    frequency:    8.2604616247
  - # 10
    frequency:    8.3174354271
  - # 11
    frequency:    8.4001214299
  - # 12
    frequency:    8.8771665833
  - # 13
    frequency:    8.8854314479
  - # 14
    frequency:   11.4237308341
  - # 15
    frequency:   11.4272225081
  - # 16
    frequency:   15.0350681399
  - # 17
    frequency:   16.0428861022
  - # 18
    frequency:   16.0520589353
  - # 19
    frequency:   16.3362119550
  - # 20
    frequency:   20.1818148208
  - # 21
    frequency:  111.7822228070

- q-position: [    0.0151515,    0.0000000,    0.0000000 ]
  distance:    0.0056897
  band:
  - # 1
    frequency:   -0.5845732071
  - # 2
    frequency:   -0.5671072944
  - # 3
    frequency:   -0.3528214998
  - # 4
    frequency:   -0.2943406823
  - # 5
    frequency:    0.2750369691
  - # 6
    frequency:    0.7175471117
  - # 7
    frequency:    3.9899199219
  - # 8
    frequency:    4.0066760818
  - # 9
    frequency:    8.2244850403
  - # 10
    frequency:    8.3112856785
  - # 11
    frequency:    8.4314907685
  - # 12
    frequency:    8.8660497124
  - # 13
    frequency:    8.8842534386
  - # 14
    frequency:   11.4188219844
  - # 15
    frequency:   11.4266563421
  - # 16
    frequency:   15.0277656316
  - # 17
    frequency:   16.0296856935
  - # 18
    frequency:   16.0495180762
  - # 19
    frequency:   16.3422901519
  - # 20
    frequency:   20.1808675840
  - # 21
    frequency:  111.7715973883

- q-position: [    0.0202020,    0.0000000,    0.0000000 ]
  distance:    0.0075862
  band:
  - # 1
    frequency:   -0.7597279796
  - # 2
    frequency:   -0.6419638619
  - # 3
    frequency:   -0.4759027335
  - # 4
    frequency:   -0.2836148241
  - # 5
    frequency:    0.3636443158
  - # 6
    frequency:    0.8633428726
  - # 7
    frequency:    3.9908959088
  - # 8
    frequency:    4.0203877188
  - # 9
    frequency:    8.1880731185
  - # 10
    frequency:    8.3026837118
  - # 11
    frequency:    8.4607224457
  - # 12
    frequency:    8.8513720450
  - # 13
    frequency:    8.8826574029
  - # 14
    frequency:   11.4120335380
  - # 15
    frequency:   11.4259064198
  - # 16
    frequency:   15.0175853510
  - # 17
    frequency:   16.0124682721
  - # 18
    frequency:   16.0459890563
  - # 19
    frequency:   16.3496635276
  - # 20
    frequency:   20.1795086561
  - # 21
    frequency:  111.7568130880

- q-position: [    0.0252525,    0.0000000,    0.0000000 ]
  distance:    0.0094828
  band:
  - # 1
    frequency:   -0.9498227840
  - # 2
    frequency:   -0.6859186122
  - # 3
    frequency:   -0.5972702668
  - # 4
    frequency:   -0.2676308020
  - # 5
    frequency:    0.4518867164
  - # 6
    frequency:    1.0027638267
  - # 7
    frequency:    3.9921927890
  - # 8
    frequency:    4.0376955199
  - # 9
    frequency:    8.1513943968
  - # 10
    frequency:    8.2916430063
  - # 11
    frequency:    8.4866721083
  - # 12
    frequency:    8.8342706218
  - # 13
    frequency:    8.8806918592
  - # 14
    frequency:   11.4034488373
  - # 15
    frequency:   11.4250141293
  - # 16
    frequency:   15.0045712524
  - # 17
    frequency:   15.9920772407
  - # 18
    frequency:   16.0414997967
  - # 19
    frequency:   16.3576107221
  - # 20
    frequency:   20.1777066364
  - # 21
    frequency:  111.7379604681

- q-position: [    0.0303030,    0.0000000,    0.0000000 ]
  distance:    0.0113793
  band:
  - # 1
    frequency:   -1.1382695573
  - # 2
    frequency:   -0.7188250240
  - # 3
    frequency:   -0.7173094417
  - # 4
    frequency:   -0.2458326205
  - # 5
    frequency:    0.5393569432
  - # 6
    frequency:    1.1378551828
  - # 7
    frequency:    3.9938434755
  - # 8
    frequency:    4.0583886903
  - # 9
    frequency:    8.1145551343
  - # 10
    frequency:    8.2781885723
  - # 11
    frequency:    8.5075739623
  - # 12
    frequency:    8.8166197965
  - # 13
    frequency:    8.8784130496
  - # 14
    frequency:   11.3931741483
  - # 15
    frequency:   11.4240308525
  - # 16
    frequency:   14.9887807375
  - # 17
    frequency:   15.9692716553
  - # 18
    frequency:   16.0360858243
  - # 19
    frequency:   16.3655227734
  - # 20
    frequency:   20.1754230666
  - # 21
    frequency:  111.7151549369

- q-position: [    0.0353535,    0.0000000,    0.0000000 ]
  distance:    0.0132759
  band:
  - # 1
    frequency:   -1.3249230649
  - # 2
    frequency:   -0.8360952603
  - # 3
    frequency:   -0.7425635624
  - # 4
    frequency:   -0.2165165890
  - # 5
    frequency:    0.6257663067
  - # 6
    frequency:    1.2693031378
  - # 7
    frequency:    3.9958896948
  - # 8
    frequency:    4.0822410575
  - # 9
    frequency:    8.0776333875
  - # 10
    frequency:    8.2623617136
  - # 11
    frequency:    8.5207477218
  - # 12
    frequency:    8.8012955820
  - # 13
    frequency:    8.8758811863
  - # 14
    frequency:   11.3813379446
  - # 15
    frequency:   11.4230166885
  - # 16
    frequency:   14.9702850843
  - # 17
    frequency:   15.9446987717
  - # 18
    frequency:   16.0297900003
  - # 19
    frequency:   16.3729260222
  - # 20
    frequency:   20.1726137344
  - # 21
    frequency:  111.6885359862

- q-position: [    0.0404040,    0.0000000,    0.0000000 ]
  distance:    0.0151724
  band:
  - # 1
    frequency:   -1.5095901810
  - # 2
    frequency:   -0.9535887765
  - # 3
    frequency:   -0.7581367174
  - # 4
    frequency:   -0.1758185749
  - # 5
    frequency:    0.7108638631
  - # 6
    frequency:    1.3970810161
  - # 7
    frequency:    3.9983828253
  - # 8
    frequency:    4.1090272669
  - # 9
    frequency:    8.0406881528
  - # 10
    frequency:    8.2442248605
  - # 11
    frequency:    8.5228194484
  - # 12
    frequency:    8.7919518834
  - # 13
    frequency:    8.8731566923
  - # 14
    frequency:   11.3680899886
  - # 15
    frequency:   11.4220389951
  - # 16
    frequency:   14.9491697351
  - # 17
    frequency:   15.9189013360
  - # 18
    frequency:   16.0226621926
  - # 19
    frequency:   16.3794698430
  - # 20
    frequency:   20.1692301322
  - # 21
    frequency:  111.6582662698

- q-position: [    0.0454545,    0.0000000,    0.0000000 ]
  distance:    0.0170690
  band:
  - # 1
    frequency:   -1.6920522133
  - # 2
    frequency:   -1.0697019830
  - # 3
    frequency:   -0.7659633055
  - # 4
    frequency:   -0.1115667508
  - # 5
    frequency:    0.7944111688
  - # 6
    frequency:    1.5207373292
  - # 7
    frequency:    4.0013848196
  - # 8
    frequency:    4.1385399284
  - # 9
    frequency:    8.0037620745
  - # 10
    frequency:    8.2238660479
  - # 11
    frequency:    8.5112065192
  - # 12
    frequency:    8.7915396188
  - # 13
    frequency:    8.8702967787
  - # 14
    frequency:   11.3536001933
  - # 15
    frequency:   11.4211708017
  - # 16
    frequency:   14.9255343416
  - # 17
    frequency:   15.8923355452
  - # 18
    frequency:   16.0147588984
  - # 19
    frequency:   16.3849035521
  - # 20
    frequency:   20.1652210070
  - # 21
    frequency:  111.6245305284

- q-position: [    0.0505051,    0.0000000,    0.0000000 ]
  distance:    0.0189655
  band:
  - # 1
    frequency:   -1.8720791673
  - # 2
    frequency:   -1.1843237557
  - # 3
    frequency:   -0.7660355411
  - # 4
    frequency:    0.0928495489
  - # 5
    frequency:    0.8761726679
  - # 6
    frequency:    1.6395358856
  - # 7
    frequency:    4.0049691598
  - # 8
    frequency:    4.1706069696
  - # 9
    frequency:    7.9668818080
  - # 10
    frequency:    8.2014026663
  - # 11
    frequency:    8.4860014424
  - # 12
    frequency:    8.8004295513
  - # 13
    frequency:    8.8673526318
  - # 14
    frequency:   11.3380572562
  - # 15
    frequency:   11.4204891510
  - # 16
    frequency:   14.8994924898
  - # 17
    frequency:   15.8653887011
  - # 18
    frequency:   16.0061428195
  - # 19
    frequency:   16.3890537426
  - # 20
    frequency:   20.1605339374
  - # 21
    frequency:  111.5875343679

- q-position: [    0.0555556,    0.0000000,    0.0000000 ]
  distance:    0.0208621
  band:
  - # 1
    frequency:   -2.0494369629
  - # 2
    frequency:   -1.2973317436
  - # 3
    frequency:   -0.7579972089
  - # 4
    frequency:    0.1800373705
  - # 5
    frequency:    0.9559118251
  - # 6
    frequency:    1.7525257354
  - # 7
    frequency:    4.0092217770
  - # 8
    frequency:    4.2051082489
  - # 9
    frequency:    7.9300575310
  - # 10
    frequency:    8.1769842138
  - # 11
    frequency:    8.4497235949
  - # 12
    frequency:    8.8166677788
  - # 13
    frequency:    8.8643673883
  - # 14
    frequency:   11.3216670640
  - # 15
    frequency:   11.4200734241
  - # 16
    frequency:   14.8711710587
  - # 17
    frequency:   15.8383932190
  - # 18
    frequency:   15.9968823943
  - # 19
    frequency:   16.3918056163
  - # 20
    frequency:   20.1551168787
  - # 21
    frequency:  111.5475029005

- q-position: [    0.0606061,    0.0000000,    0.0000000 ]
  distance:    0.0227586
  band:
  - # 1
    frequency:   -2.2238913490
  - # 2
    frequency:   -1.4085984293
  - # 3
    frequency:   -0.7411599202
  - # 4
    frequency:    0.2430332639
  - # 5
    frequency:    1.0333899776
  - # 6
    frequency:    1.8585759711
  - # 7
    frequency:    4.0142418415
  - # 8
    frequency:    4.2419900692
  - # 9
    frequency:    7.8932826377
  - # 10
    frequency:    8.1507938804
  - # 11
    frequency:    8.4054992182
  - # 12
    frequency:    8.8378018711
  - # 13
    frequency:    8.8613749628
  - # 14
    frequency:   11.3046508748
  - # 15
    frequency:   11.4200037049
  - # 16
    frequency:   14.8407092171
  - # 17
    frequency:   15.8116368501
  - # 18
    frequency:   15.9870512914
  - # 19
    frequency:   16.3930886353
  - # 20
    frequency:   20.1489196218
  - # 21
    frequency:  111.5046792553

- q-position: [    0.0656566,    0.0000000,    0.0000000 ]
  distance:    0.0246552
  band:
  - # 1
    frequency:   -2.3952102260
  - # 2
    frequency:   -1.5179945032
  - # 3
    frequency:   -0.7144526816
  - # 4
    frequency:    0.2978679686
  - # 5
    frequency:    1.1083668863
  - # 6
    frequency:    1.9563943460
  - # 7
    frequency:    4.0201423063
  - # 8
    frequency:    4.2812756156
  - # 9
    frequency:    7.8565348751
  - # 10
    frequency:    8.1230489143
  - # 11
    frequency:    8.3560014366
  - # 12
    frequency:    8.8583996863
  - # 13
    frequency:    8.8619438291
  - # 14
    frequency:   11.2872432937
  - # 15
    frequency:   11.4203592320
  - # 16
    frequency:   14.8082571156
  - # 17
    frequency:   15.7853699324
  - # 18
    frequency:   15.9767278685
  - # 19
    frequency:   16.3928657860
  - # 20
    frequency:   20.1418951233
  - # 21
    frequency:  111.4593229712

- q-position: [    0.0707071,    0.0000000,    0.0000000 ]
  distance:    0.0265517
  band:
  - # 1
    frequency:   -2.5631651529
  - # 2
    frequency:   -1.6253908949
  - # 3
    frequency:   -0.6762720580
  - # 4
    frequency:    0.3486534389
  - # 5
    frequency:    1.1806026779
  - # 6
    frequency:    2.0445420812
  - # 7
    frequency:    4.0270500604
  - # 8
    frequency:    4.3230686116
  - # 9
    frequency:    7.8197807494
  - # 10
    frequency:    8.0939997979
  - # 11
    frequency:    8.3033486449
  - # 12
    frequency:    8.8554566397
  - # 13
    frequency:    8.8878687160
  - # 14
    frequency:   11.2696900648
  - # 15
    frequency:   11.4212169790
  - # 16
    frequency:   14.7739743758
  - # 17
    frequency:   15.7598105548
  - # 18
    frequency:   15.9659946025
  - # 19
    frequency:   16.3911256142
  - # 20
    frequency:   20.1340006729
  - # 21
    frequency:  111.4117082808

- q-position: [    0.0757576,    0.0000000,    0.0000000 ]
  distance:    0.0284483
  band:
  - # 1
    frequency:   -2.7275324064
  - # 2
    frequency:   -1.7306600855
  - # 3
    frequency:   -0.6241371301
  - # 4
    frequency:    0.3971818692
  - # 5
    frequency:    1.2498611408
  - # 6
    frequency:    2.1214542572
  - # 7
    frequency:    4.0351055272
  - # 8
    frequency:    4.3675469747
  - # 9
    frequency:    7.7829857490
  - # 10
    frequency:    8.0639283276
  - # 11
    frequency:    8.2492855934
  - # 12
    frequency:    8.8525525159
  - # 13
    frequency:    8.9148209697
  - # 14
    frequency:   11.2522457058
  - # 15
    frequency:   11.4226503980
  - # 16
    frequency:   14.7380285139
  - # 17
    frequency:   15.7351483245
  - # 18
    frequency:   15.9549374924
  - # 19
    frequency:   16.3878763163
  - # 20
    frequency:   20.1251988734
  - # 21
    frequency:  111.3621222983

- q-position: [    0.0808081,    0.0000000,    0.0000000 ]
  distance:    0.0303448
  band:
  - # 1
    frequency:   -2.8880937805
  - # 2
    frequency:   -1.8336770115
  - # 3
    frequency:   -0.5538582919
  - # 4
    frequency:    0.4444404839
  - # 5
    frequency:    1.3159144547
  - # 6
    frequency:    2.1854732474
  - # 7
    frequency:    4.0444615316
  - # 8
    frequency:    4.4149434804
  - # 9
    frequency:    7.7461333270
  - # 10
    frequency:    8.0331447167
  - # 11
    frequency:    8.1953349420
  - # 12
    frequency:    8.8496868373
  - # 13
    frequency:    8.9423364987
  - # 14
    frequency:   11.2351710140
  - # 15
    frequency:   11.4247283464
  - # 16
    frequency:   14.7005934463
  - # 17
    frequency:   15.7115472082
  - # 18
    frequency:   15.9436454430
  - # 19
    frequency:   16.3831413521
  - # 20
    frequency:   20.1154584214
  - # 21
    frequency:  111.3108631233

- q-position: [    0.0858586,    0.0000000,    0.0000000 ]
  distance:    0.0322414
  band:
  - # 1
    frequency:   -3.0446372256
  - # 2
    frequency:   -1.9343197251
  - # 3
    frequency:   -0.4571133117
  - # 4
    frequency:    0.4910794768
  - # 5
    frequency:    1.3785494490
  - # 6
    frequency:    2.2349002891
  - # 7
    frequency:    4.0552812713
  - # 8
    frequency:    4.4655120604
  - # 9
    frequency:    7.7092546905
  - # 10
    frequency:    8.0019838532
  - # 11
    frequency:    8.1428686829
  - # 12
    frequency:    8.8468533662
  - # 13
    frequency:    8.9701280055
  - # 14
    frequency:   11.2187304711
  - # 15
    frequency:   11.4275142131
  - # 16
    frequency:   14.6618482156
  - # 17
    frequency:   15.6891477415
  - # 18
    frequency:   15.9322096309
  - # 19
    frequency:   16.3769561934
  - # 20
    frequency:   20.1047546827
  - # 21
    frequency:  111.2582378743

- q-position: [    0.0909091,    0.0000000,    0.0000000 ]
  distance:    0.0341379
  band:
  - # 1
    frequency:   -3.1969573813
  - # 2
    frequency:   -2.0324699016
  - # 3
    frequency:   -0.3106535205
  - # 4
    frequency:    0.5376325484
  - # 5
    frequency:    1.4375754509
  - # 6
    frequency:    2.2680669552
  - # 7
    frequency:    4.0677352572
  - # 8
    frequency:    4.5194816892
  - # 9
    frequency:    7.6724679260
  - # 10
    frequency:    7.9708008386
  - # 11
    frequency:    8.0931164348
  - # 12
    frequency:    8.8440415782
  - # 13
    frequency:    8.9980172002
  - # 14
    frequency:   11.2031895683
  - # 15
    frequency:   11.4310652453
  - # 16
    frequency:   14.6219760436
  - # 17
    frequency:   15.6680687878
  - # 18
    frequency:   15.9207228579
  - # 19
    frequency:   16.3693659382
  - # 20
    frequency:   20.0930700665
  - # 21
    frequency:  111.2045606661

- q-position: [    0.0959596,    0.0000000,    0.0000000 ]
  distance:    0.0360345
  band:
  - # 1
    frequency:   -3.3448560351
  - # 2
    frequency:   -2.1280132455
  - # 3
    frequency:    0.1718044776
  - # 4
    frequency:    0.5847160382
  - # 5
    frequency:    1.4928336819
  - # 6
    frequency:    2.2834248693
  - # 7
    frequency:    4.0819971633
  - # 8
    frequency:    4.5770042930
  - # 9
    frequency:    7.6360182949
  - # 10
    frequency:    7.9399659318
  - # 11
    frequency:    8.0471373242
  - # 12
    frequency:    8.8412381047
  - # 13
    frequency:    9.0258951283
  - # 14
    frequency:   11.1888120679
  - # 15
    frequency:   11.4354320723
  - # 16
    frequency:   14.5811637777
  - # 17
    frequency:   15.6484089570
  - # 18
    frequency:   15.9092788966
  - # 19
    frequency:   16.3604235958
  - # 20
    frequency:   20.0803942077
  - # 21
    frequency:  111.1501505443

- q-position: [    0.1010101,    0.0000000,    0.0000000 ]
  distance:    0.0379310
  band:
  - # 1
    frequency:   -3.4881425253
  - # 2
    frequency:   -2.2208398284
  - # 3
    frequency:    0.4081922534
  - # 4
    frequency:    0.6334412916
  - # 5
    frequency:    1.5442080134
  - # 6
    frequency:    2.2796515213
  - # 7
    frequency:    4.0982386300
  - # 8
    frequency:    4.6381069861
  - # 9
    frequency:    7.6003040392
  - # 10
    frequency:    7.9098590206
  - # 11
    frequency:    8.0057838779
  - # 12
    frequency:    8.8384280857
  - # 13
    frequency:    9.0536985118
  - # 14
    frequency:   11.1758572107
  - # 15
    frequency:   11.4406584132
  - # 16
    frequency:   14.5396017469
  - # 17
    frequency:   15.6302477614
  - # 18
    frequency:   15.8979718322
  - # 19
    frequency:   16.3501889118
  - # 20
    frequency:   20.0667239717
  - # 21
    frequency:  111.0953293936

- q-position: [    0.1060606,    0.0000000,    0.0000000 ]
  distance:    0.0398276
  band:
  - # 1
    frequency:   -3.6266341003
  - # 2
    frequency:   -2.3108443753
  - # 3
    frequency:    0.5553434393
  - # 4
    frequency:    0.6867996583
  - # 5
    frequency:    1.5916366934
  - # 6
    frequency:    2.2557782774
  - # 7
    frequency:    4.1166232040
  - # 8
    frequency:    4.7026598732
  - # 9
    frequency:    7.5658697972
  - # 10
    frequency:    7.8808637490
  - # 11
    frequency:    7.9696844846
  - # 12
    frequency:    8.8355964026
  - # 13
    frequency:    9.0813951994
  - # 14
    frequency:   11.1645768701
  - # 15
    frequency:   11.4467809516
  - # 16
    frequency:   14.4974840062
  - # 17
    frequency:   15.6136465661
  - # 18
    frequency:   15.8868954037
  - # 19
    frequency:   16.3387276356
  - # 20
    frequency:   20.0520632999
  - # 21
    frequency:  111.0404198333

- q-position: [    0.1111111,    0.0000000,    0.0000000 ]
  distance:    0.0417241
  band:
  - # 1
    frequency:   -3.7601562387
  - # 2
    frequency:   -2.3979265132
  - # 3
    frequency:    0.6614500207
  - # 4
    frequency:    0.7531815165
  - # 5
    frequency:    1.6351244373
  - # 6
    frequency:    2.2113739275
  - # 7
    frequency:    4.1372997519
  - # 8
    frequency:    4.7703673698
  - # 9
    frequency:    7.5333582369
  - # 10
    frequency:    7.8533614390
  - # 11
    frequency:    7.9392605082
  - # 12
    frequency:    8.8327287855
  - # 13
    frequency:    9.1089748927
  - # 14
    frequency:   11.1552126492
  - # 15
    frequency:   11.4538293543
  - # 16
    frequency:   14.4550089106
  - # 17
    frequency:   15.5986493797
  - # 18
    frequency:   15.8761423504
  - # 19
    frequency:   16.3261111669
  - # 20
    frequency:   20.0364229165
  - # 21
    frequency:  110.9857431178

- q-position: [    0.1161616,    0.0000000,    0.0000000 ]
  distance:    0.0436207
  band:
  - # 1
    frequency:   -3.8885429375
  - # 2
    frequency:   -2.4819909893
  - # 3
    frequency:    0.7321573666
  - # 4
    frequency:    0.8365993476
  - # 5
    frequency:    1.6747540575
  - # 6
    frequency:    2.1468859074
  - # 7
    frequency:    4.1603958271
  - # 8
    frequency:    4.8407845236
  - # 9
    frequency:    7.5034274215
  - # 10
    frequency:    7.8277249636
  - # 11
    frequency:    7.9147763431
  - # 12
    frequency:    8.8298128033
  - # 13
    frequency:    9.1364430070
  - # 14
    frequency:   11.1479929153
  - # 15
    frequency:   11.4618264127
  - # 16
    frequency:   14.4123799475
  - # 17
    frequency:   15.5852835164
  - # 18
    frequency:   15.8658037670
  - # 19
    frequency:   16.3124165413
  - # 20
    frequency:   20.0198199180
  - # 21
    frequency:  110.9316170552

- q-position: [    0.1212121,    0.0000000,    0.0000000 ]
  distance:    0.0455172
  band:
  - # 1
    frequency:   -4.0116369687
  - # 2
    frequency:   -2.5629478637
  - # 3
    frequency:    0.7860593758
  - # 4
    frequency:    0.9188811073
  - # 5
    frequency:    1.7106966385
  - # 6
    frequency:    2.0644076864
  - # 7
    frequency:    4.1860115595
  - # 8
    frequency:    4.9133531711
  - # 9
    frequency:    7.4766560588
  - # 10
    frequency:    7.8043127350
  - # 11
    frequency:    7.8964053425
  - # 12
    frequency:    8.8268387552
  - # 13
    frequency:    9.1638164530
  - # 14
    frequency:   11.1431297622
  - # 15
    frequency:   11.4707882791
  - # 16
    frequency:   14.3698067435
  - # 17
    frequency:   15.5735601445
  - # 18
    frequency:   15.8559684725
  - # 19
    frequency:   16.2977267318
  - # 20
    frequency:   20.0022772674
  - # 21
    frequency:  110.8783539622

- q-position: [    0.1262626,    0.0000000,    0.0000000 ]
  distance:    0.0474138
  band:
  - # 1
    frequency:   -4.1292901063
  - # 2
    frequency:   -2.6407126790
  - # 3
    frequency:    0.8340570323
  - # 4
    frequency:    0.9826947279
  - # 5
    frequency:    1.7432191751
  - # 6
    frequency:    1.9695043964
  - # 7
    frequency:    4.2142146597
  - # 8
    frequency:    4.9874488174
  - # 9
    frequency:    7.4534620938
  - # 10
    frequency:    7.7834629835
  - # 11
    frequency:    7.8842901799
  - # 12
    frequency:    8.8238004882
  - # 13
    frequency:    9.1911206350
  - # 14
    frequency:   11.1408158988
  - # 15
    frequency:   11.4807247773
  - # 16
    frequency:   14.3275061740
  - # 17
    frequency:   15.5634747114
  - # 18
    frequency:   15.8467223972
  - # 19
    frequency:   16.2821312656
  - # 20
    frequency:   19.9838232164
  - # 21
    frequency:  110.8262586680

- q-position: [    0.1313131,    0.0000000,    0.0000000 ]
  distance:    0.0493103
  band:
  - # 1
    frequency:   -4.2413633257
  - # 2
    frequency:   -2.7152066112
  - # 3
    frequency:    0.8769125180
  - # 4
    frequency:    1.0102789724
  - # 5
    frequency:    1.7726886211
  - # 6
    frequency:    1.8750200592
  - # 7
    frequency:    4.2450370421
  - # 8
    frequency:    5.0624288645
  - # 9
    frequency:    7.4340526958
  - # 10
    frequency:    7.7654884939
  - # 11
    frequency:    7.8785820724
  - # 12
    frequency:    8.8206961702
  - # 13
    frequency:    9.2183872493
  - # 14
    frequency:   11.1412214649
  - # 15
    frequency:   11.4916397624
  - # 16
    frequency:   14.2857035090
  - # 17
    frequency:   15.5550072100
  - # 18
    frequency:   15.8381479928
  - # 19
    frequency:   16.2657271717
  - # 20
    frequency:   19.9644906738
  - # 21
    frequency:  110.7756265849

- q-position: [    0.1363636,    0.0000000,    0.0000000 ]
  distance:    0.0512069
  band:
  - # 1
    frequency:   -4.3477269741
  - # 2
    frequency:   -2.7863566014
  - # 3
    frequency:    0.8929000778
  - # 4
    frequency:    0.9896677591
  - # 5
    frequency:    1.7995714411
  - # 6
    frequency:    1.8045020575
  - # 7
    frequency:    4.2784734033
  - # 8
    frequency:    5.1376751826
  - # 9
    frequency:    7.4184125984
  - # 10
    frequency:    7.7506719514
  - # 11
    frequency:    7.8794526156
  - # 12
    frequency:    8.8175290453
  - # 13
    frequency:    9.2456526302
  - # 14
    frequency:   11.1444907880
  - # 15
    frequency:   11.5035315108
  - # 16
    frequency:   14.2446335468
  - # 17
    frequency:   15.5481222207
  - # 18
    frequency:   15.8303236713
  - # 19
    frequency:   16.2486202948
  - # 20
    frequency:   19.9443165433
  - # 21
    frequency:  110.7267418591

- q-position: [    0.1414141,    0.0000000,    0.0000000 ]
  distance:    0.0531034
  band:
  - # 1
    frequency:   -4.4482609129
  - # 2
    frequency:   -2.8540954701
  - # 3
    frequency:    0.7519687732
  - # 4
    frequency:    1.0005049505
  - # 5
    frequency:    1.7810329809
  - # 6
    frequency:    1.8244280177
  - # 7
    frequency:    4.3144818553
  - # 8
    frequency:    5.2126272235
  - # 9
    frequency:    7.4063284555
  - # 10
    frequency:    7.7392620142
  - # 11
    frequency:    7.8870796506
  - # 12
    frequency:    8.8143082083
  - # 13
    frequency:    9.2729564856
  - # 14
    frequency:   11.1507391071
  - # 15
    frequency:   11.5163931217
  - # 16
    frequency:   14.2045416998
  - # 17
    frequency:   15.5427686338
  - # 18
    frequency:   15.8233232769
  - # 19
    frequency:   16.2309270333
  - # 20
    frequency:   19.9233410461
  - # 21
    frequency:  110.6798756147

- q-position: [    0.1464646,    0.0000000,    0.0000000 ]
  distance:    0.0550000
  band:
  - # 1
    frequency:   -4.5428546330
  - # 2
    frequency:   -2.9183620152
  - # 3
    frequency:    0.3128086405
  - # 4
    frequency:    1.0416144780
  - # 5
    frequency:    1.8043910756
  - # 6
    frequency:    1.8479016019
  - # 7
    frequency:    4.3529864640
  - # 8
    frequency:    5.2868045574
  - # 9
    frequency:    7.3974405629
  - # 10
    frequency:    7.7314701878
  - # 11
    frequency:    7.9016137569
  - # 12
    frequency:    8.8110494301
  - # 13
    frequency:    9.3003409207
  - # 14
    frequency:   11.1600493043
  - # 15
    frequency:   11.5302129157
  - # 16
    frequency:   14.1656850058
  - # 17
    frequency:   15.5388789288
  - # 18
    frequency:   15.8172155963
  - # 19
    frequency:   16.2127765789
  - # 20
    frequency:   19.9016070467
  - # 21
    frequency:  110.6352843075

- q-position: [    0.1515152,    0.0000000,    0.0000000 ]
  distance:    0.0568965
  band:
  - # 1
    frequency:   -4.6314073405
  - # 2
    frequency:   -2.9791010931
  - # 3
    frequency:   -0.6964546459
  - # 4
    frequency:    1.0874698653
  - # 5
    frequency:    1.8581110267
  - # 6
    frequency:    1.8707018862
  - # 7
    frequency:    4.3938813328
  - # 8
    frequency:    5.3598193888
  - # 9
    frequency:    7.3913092828
  - # 10
    frequency:    7.7274685154
  - # 11
    frequency:    7.9231354913
  - # 12
    frequency:    8.8077760760
  - # 13
    frequency:    9.3278496812
  - # 14
    frequency:   11.1724687030
  - # 15
    frequency:   11.5449748177
  - # 16
    frequency:   14.1283330402
  - # 17
    frequency:   15.5363678614
  - # 18
    frequency:   15.8120639134
  - # 19
    frequency:   16.1943137592
  - # 20
    frequency:   19.8791593959
  - # 21
    frequency:  110.5932081970