nqpoint: 300    
npath: 3      
segment_nqpoint:
- 100
- 100
- 100
labels:
- [ 'G', 'M' ]
- [ 'M', 'K' ]
- [ 'K', 'G' ]
reciprocal_lattice:
- [   0.32520732,   0.18775853,   0.00000000 ] # a*
- [   0.00000000,   0.37551706,   0.00000000 ] # b*
- [   0.00000000,   0.00000000,   0.03537176 ] # c*
natom: 7      
lattice:
- [     3.074961556817638,     0.000000000000000,     0.000000000000000 ] # a
- [    -1.537480778408819,     2.662994823866403,     0.000000000000000 ] # b
- [     0.000000000000000,     0.000000000000000,    28.271138566415690 ] # c
points:
- symbol: C # 1
  coordinates: [  0.000000000000000,  0.000000000000000,  0.438295296201119 ]
  mass: 12.010700
- symbol: Cl # 2
  coordinates: [  0.333332985432215,  0.666666983183674,  0.681654137173965 ]
  mass: 35.453000
- symbol: H # 3
  coordinates: [  0.666666984744048,  0.333332985985145,  0.318345862826035 ]
  mass: 1.007940
- symbol: O # 4
  coordinates: [  0.333332985432215,  0.666666983183674,  0.517372433382003 ]
  mass: 15.999400
- symbol: O # 5
  coordinates: [  0.666666984744048,  0.333332985985145,  0.353193308972521 ]
  mass: 15.999400
- symbol: Ti # 6
  coordinates: [  0.333332985432215,  0.666666983183674,  0.397717831231881 ]
  mass: 47.867000
- symbol: Ti # 7
  coordinates: [  0.666666984744048,  0.333332985985145,  0.485690413905067 ]
  mass: 47.867000

phonon:
- q-position: [    0.0000000,    0.0000000,    0.0000000 ]
  distance:    0.0000000
  band:
  - # 1
    frequency:   -0.9421904251
  - # 2
    frequency:   -0.9421904251
  - # 3
    frequency:   -0.0000076824
  - # 4
    frequency:   -0.0000002646
  - # 5
    frequency:    0.0000111548
  - # 6
    frequency:    0.4013612988
  - # 7
    frequency:    3.8401167370
  - # 8
    frequency:    3.8401167370
  - # 9
    frequency:    8.0656501209
  - # 10
    frequency:    8.0656501209
  - # 11
    frequency:    8.4512510959
  - # 12
    frequency:    8.5670007021
  - # 13
    frequency:    8.5670007021
  - # 14
    frequency:   12.6658994039
  - # 15
    frequency:   12.6658994039
  - # 16
    frequency:   14.9188704533
  - # 17
    frequency:   16.2617254029
  - # 18
    frequency:   16.2617254029
  - # 19
    frequency:   16.3275322172
  - # 20
    frequency:   20.0778676656
  - # 21
    frequency:  111.2542828179

- q-position: [    0.0050505,    0.0000000,    0.0000000 ]
  distance:    0.0018966
  band:
  - # 1
    frequency:   -0.9528747855
  - # 2
    frequency:   -0.9473542752
  - # 3
    frequency:   -0.0074586815
  - # 4
    frequency:    0.0622089265
  - # 5
    frequency:    0.0801433362
  - # 6
    frequency:    0.4030577034
  - # 7
    frequency:    3.8408979892
  - # 8
    frequency:    3.8425125454
  - # 9
    frequency:    8.0635935315
  - # 10
    frequency:    8.0641505962
  - # 11
    frequency:    8.4464182972
  - # 12
    frequency:    8.5686315870
  - # 13
    frequency:    8.5718714336
  - # 14
    frequency:   12.6649661389
  - # 15
    frequency:   12.6651017312
  - # 16
    frequency:   14.9177487284
  - # 17
    frequency:   16.2565695858
  - # 18
    frequency:   16.2610192096
  - # 19
    frequency:   16.3313285698
  - # 20
    frequency:   20.0778935226
  - # 21
    frequency:  111.2534630599

- q-position: [    0.0101010,    0.0000000,    0.0000000 ]
  distance:    0.0037931
  band:
  - # 1
    frequency:   -0.9851037629
  - # 2
    frequency:   -0.9628057252
  - # 3
    frequency:   -0.0276343500
  - # 4
    frequency:    0.1254055529
  - # 5
    frequency:    0.1650304220
  - # 6
    frequency:    0.4089480848
  - # 7
    frequency:    3.8432455566
  - # 8
    frequency:    3.8496775288
  - # 9
    frequency:    8.0574087817
  - # 10
    frequency:    8.0597251818
  - # 11
    frequency:    8.4338022011
  - # 12
    frequency:    8.5734519107
  - # 13
    frequency:    8.5846426593
  - # 14
    frequency:   12.6621667912
  - # 15
    frequency:   12.6627136816
  - # 16
    frequency:   14.9143882504
  - # 17
    frequency:   16.2435550229
  - # 18
    frequency:   16.2589081698
  - # 19
    frequency:   16.3402727267
  - # 20
    frequency:   20.0779667876
  - # 21
    frequency:  111.2510076311

- q-position: [    0.0151515,    0.0000000,    0.0000000 ]
  distance:    0.0056897
  band:
  - # 1
    frequency:   -1.0386473339
  - # 2
    frequency:   -0.9883697721
  - # 3
    frequency:   -0.0558248542
  - # 4
    frequency:    0.1902377495
  - # 5
    frequency:    0.2530284049
  - # 6
    frequency:    0.4224342718
  - # 7
    frequency:    3.8471707399
  - # 8
    frequency:    3.8615455693
  - # 9
    frequency:    8.0470578155
  - # 10
    frequency:    8.0525807389
  - # 11
    frequency:    8.4166547009
  - # 12
    frequency:    8.5812572549
  - # 13
    frequency:    8.6021798908
  - # 14
    frequency:   12.6575028094
  - # 15
    frequency:   12.6587500050
  - # 16
    frequency:   14.9088030673
  - # 17
    frequency:   16.2260905216
  - # 18
    frequency:   16.2554148105
  - # 19
    frequency:   16.3509798341
  - # 20
    frequency:   20.0780746303
  - # 21
    frequency:  111.2469280526

- q-position: [    0.0202020,    0.0000000,    0.0000000 ]
  distance:    0.0075862
  band:
  - # 1
    frequency:   -1.1117803602
  - # 2
    frequency:   -1.0236267435
  - # 3
    frequency:   -0.0875445147
  - # 4
    frequency:    0.2568607435
  - # 5
    frequency:    0.3311406859
  - # 6
    frequency:    0.4545575420
  - # 7
    frequency:    3.8526919390
  - # 8
    frequency:    3.8780104133
  - # 9
    frequency:    8.0324993420
  - # 10
    frequency:    8.0430249828
  - # 11
    frequency:    8.3972277839
  - # 12
    frequency:    8.5917438273
  - # 13
    frequency:    8.6224056607
  - # 14
    frequency:   12.6509769614
  - # 15
    frequency:   12.6532347736
  - # 16
    frequency:   14.9010164562
  - # 17
    frequency:   16.2059421669
  - # 18
    frequency:   16.2505763697
  - # 19
    frequency:   16.3617236970
  - # 20
    frequency:   20.0781959554
  - # 21
    frequency:  111.2412434773

- q-position: [    0.0252525,    0.0000000,    0.0000000 ]
  distance:    0.0094828
  band:
  - # 1
    frequency:   -1.2013802765
  - # 2
    frequency:   -1.0678524004
  - # 3
    frequency:   -0.1194229634
  - # 4
    frequency:    0.3250086106
  - # 5
    frequency:    0.3793324957
  - # 6
    frequency:    0.5221598451
  - # 7
    frequency:    3.8598340113
  - # 8
    frequency:    3.8989312999
  - # 9
    frequency:    8.0137187325
  - # 10
    frequency:    8.0314251367
  - # 11
    frequency:    8.3767587904
  - # 12
    frequency:    8.6045495872
  - # 13
    frequency:    8.6442857611
  - # 14
    frequency:   12.6425938612
  - # 15
    frequency:   12.6462006492
  - # 16
    frequency:   14.8910607328
  - # 17
    frequency:   16.1839019501
  - # 18
    frequency:   16.2444443367
  - # 19
    frequency:   16.3717680877
  - # 20
    frequency:   20.0783018250
  - # 21
    frequency:  111.2339806174

- q-position: [    0.0303030,    0.0000000,    0.0000000 ]
  distance:    0.0113793
  band:
  - # 1
    frequency:   -1.3038742538
  - # 2
    frequency:   -1.1200606657
  - # 3
    frequency:   -0.1490476098
  - # 4
    frequency:    0.3941838609
  - # 5
    frequency:    0.4063254399
  - # 6
    frequency:    0.6136519123
  - # 7
    frequency:    3.8686273938
  - # 8
    frequency:    3.9241402830
  - # 9
    frequency:    7.9907623771
  - # 10
    frequency:    8.0181697207
  - # 11
    frequency:    8.3559190972
  - # 12
    frequency:    8.6192921527
  - # 13
    frequency:    8.6673479974
  - # 14
    frequency:   12.6323606990
  - # 15
    frequency:   12.6376879192
  - # 16
    frequency:   14.8789770116
  - # 17
    frequency:   16.1603746155
  - # 18
    frequency:   16.2370838123
  - # 19
    frequency:   16.3807797856
  - # 20
    frequency:   20.0783560295
  - # 21
    frequency:  111.2251736429

- q-position: [    0.0353535,    0.0000000,    0.0000000 ]
  distance:    0.0132759
  band:
  - # 1
    frequency:   -1.4160120170
  - # 2
    frequency:   -1.1791183619
  - # 3
    frequency:   -0.1746338633
  - # 4
    frequency:    0.4278899688
  - # 5
    frequency:    0.4638372409
  - # 6
    frequency:    0.7110568727
  - # 7
    frequency:    3.8791070086
  - # 8
    frequency:    3.9534507232
  - # 9
    frequency:    7.9637687631
  - # 10
    frequency:    8.0036402409
  - # 11
    frequency:    8.3350762815
  - # 12
    frequency:    8.6355967257
  - # 13
    frequency:    8.6913909777
  - # 14
    frequency:   12.6202881670
  - # 15
    frequency:   12.6277433623
  - # 16
    frequency:   14.8648149381
  - # 17
    frequency:   16.1356121893
  - # 18
    frequency:   16.2285726929
  - # 19
    frequency:   16.3885938593
  - # 20
    frequency:   20.0783157879
  - # 21
    frequency:  111.2148640505

- q-position: [    0.0404040,    0.0000000,    0.0000000 ]
  distance:    0.0151724
  band:
  - # 1
    frequency:   -1.5351529463
  - # 2
    frequency:   -1.2438685939
  - # 3
    frequency:   -0.1947406306
  - # 4
    frequency:    0.4491330302
  - # 5
    frequency:    0.5334765082
  - # 6
    frequency:    0.8075698463
  - # 7
    frequency:    3.8913109793
  - # 8
    frequency:    3.9866663302
  - # 9
    frequency:    7.9329889016
  - # 10
    frequency:    7.9881941313
  - # 11
    frequency:    8.3144170023
  - # 12
    frequency:    8.6531126908
  - # 13
    frequency:    8.7163428507
  - # 14
    frequency:   12.6063915673
  - # 15
    frequency:   12.6164190096
  - # 16
    frequency:   14.8486324193
  - # 17
    frequency:   16.1098041612
  - # 18
    frequency:   16.2190006853
  - # 19
    frequency:   16.3951231967
  - # 20
    frequency:   20.0781325546
  - # 21
    frequency:  111.2031005061

- q-position: [    0.0454545,    0.0000000,    0.0000000 ]
  distance:    0.0170690
  band:
  - # 1
    frequency:   -1.6592521564
  - # 2
    frequency:   -1.3132205984
  - # 3
    frequency:   -0.2080259806
  - # 4
    frequency:    0.4714044834
  - # 5
    frequency:    0.6027076348
  - # 6
    frequency:    0.9004466468
  - # 7
    frequency:    3.9052791888
  - # 8
    frequency:    4.0235900783
  - # 9
    frequency:    7.8987923576
  - # 10
    frequency:    7.9721569590
  - # 11
    frequency:    8.2940112481
  - # 12
    frequency:    8.6715208842
  - # 13
    frequency:    8.7421928011
  - # 14
    frequency:   12.5906920875
  - # 15
    frequency:   12.6037708766
  - # 16
    frequency:   14.8304953763
  - # 17
    frequency:   16.0831148580
  - # 18
    frequency:   16.2084681597
  - # 19
    frequency:   16.4003207179
  - # 20
    frequency:   20.0777529092
  - # 21
    frequency:  111.1899386579

- q-position: [    0.0505051,    0.0000000,    0.0000000 ]
  distance:    0.0189655
  band:
  - # 1
    frequency:   -1.7867452944
  - # 2
    frequency:   -1.3861969896
  - # 3
    frequency:   -0.2129913978
  - # 4
    frequency:    0.4950483468
  - # 5
    frequency:    0.6712360718
  - # 6
    frequency:    0.9881067511
  - # 7
    frequency:    3.9210517180
  - # 8
    frequency:    4.0640323013
  - # 9
    frequency:    7.8616602296
  - # 10
    frequency:    7.9558208476
  - # 11
    frequency:    8.2738553381
  - # 12
    frequency:    8.6905345888
  - # 13
    frequency:    8.7689562191
  - # 14
    frequency:   12.5732182203
  - # 15
    frequency:   12.5898577407
  - # 16
    frequency:   14.8104775400
  - # 17
    frequency:   16.0557001611
  - # 18
    frequency:   16.1970848554
  - # 19
    frequency:   16.4041620950
  - # 20
    frequency:   20.0771195014
  - # 21
    frequency:  111.1754409229

- q-position: [    0.0555556,    0.0000000,    0.0000000 ]
  distance:    0.0208621
  band:
  - # 1
    frequency:   -1.9164276776
  - # 2
    frequency:   -1.4619480705
  - # 3
    frequency:   -0.2075991945
  - # 4
    frequency:    0.5201036042
  - # 5
    frequency:    0.7388520989
  - # 6
    frequency:    1.0693441150
  - # 7
    frequency:    3.9386672074
  - # 8
    frequency:    4.1078172914
  - # 9
    frequency:    7.8221699568
  - # 10
    frequency:    7.9394463927
  - # 11
    frequency:    8.2539057514
  - # 12
    frequency:    8.7098969947
  - # 13
    frequency:    8.7966561643
  - # 14
    frequency:   12.5540073000
  - # 15
    frequency:   12.5747400359
  - # 16
    frequency:   14.7886603060
  - # 17
    frequency:   16.0277153214
  - # 18
    frequency:   16.1849684526
  - # 19
    frequency:   16.4066372082
  - # 20
    frequency:   20.0761720267
  - # 21
    frequency:  111.1596762468

- q-position: [    0.0606061,    0.0000000,    0.0000000 ]
  distance:    0.0227586
  band:
  - # 1
    frequency:   -2.0473566901
  - # 2
    frequency:   -1.5397467322
  - # 3
    frequency:   -0.1884078763
  - # 4
    frequency:    0.5465112455
  - # 5
    frequency:    0.8054136054
  - # 6
    frequency:    1.1430707203
  - # 7
    frequency:    3.9581611921
  - # 8
    frequency:    4.1547877803
  - # 9
    frequency:    7.7809772237
  - # 10
    frequency:    7.9232661312
  - # 11
    frequency:    8.2341059024
  - # 12
    frequency:    8.7293770809
  - # 13
    frequency:    8.8253132491
  - # 14
    frequency:   12.5331071188
  - # 15
    frequency:   12.5584789286
  - # 16
    frequency:   14.7651326581
  - # 17
    frequency:   15.9993185387
  - # 18
    frequency:   16.1722430322
  - # 19
    frequency:   16.4077456592
  - # 20
    frequency:   20.0748482084
  - # 21
    frequency:  111.1427198376

- q-position: [    0.0656566,    0.0000000,    0.0000000 ]
  distance:    0.0246552
  band:
  - # 1
    frequency:   -2.1787798615
  - # 2
    frequency:   -1.6189744462
  - # 3
    frequency:   -0.1474906363
  - # 4
    frequency:    0.5741845822
  - # 5
    frequency:    0.8708315823
  - # 6
    frequency:    1.2082226883
  - # 7
    frequency:    3.9795644626
  - # 8
    frequency:    4.2048067754
  - # 9
    frequency:    7.7387982786
  - # 10
    frequency:    7.9074883795
  - # 11
    frequency:    8.2144058097
  - # 12
    frequency:    8.7487651258
  - # 13
    frequency:    8.8549401468
  - # 14
    frequency:   12.5105775816
  - # 15
    frequency:   12.5411356272
  - # 16
    frequency:   14.7399911629
  - # 17
    frequency:   15.9706723252
  - # 18
    frequency:   16.1590374474
  - # 19
    frequency:   16.4074943193
  - # 20
    frequency:   20.0730847612
  - # 21
    frequency:  111.1246528742

- q-position: [    0.0707071,    0.0000000,    0.0000000 ]
  distance:    0.0265517
  band:
  - # 1
    frequency:   -2.3100836567
  - # 2
    frequency:   -1.6991047061
  - # 3
    frequency:   -0.0354798948
  - # 4
    frequency:    0.6030349770
  - # 5
    frequency:    0.9350594248
  - # 6
    frequency:    1.2637303838
  - # 7
    frequency:    4.0029015074
  - # 8
    frequency:    4.2577563800
  - # 9
    frequency:    7.6963935251
  - # 10
    frequency:    7.8923008097
  - # 11
    frequency:    8.1947752230
  - # 12
    frequency:    8.7678685027
  - # 13
    frequency:    8.8855387615
  - # 14
    frequency:   12.4864923437
  - # 15
    frequency:   12.5227709671
  - # 16
    frequency:   14.7133400275
  - # 17
    frequency:   15.9419436031
  - # 18
    frequency:   16.1454836350
  - # 19
    frequency:   16.4058959674
  - # 20
    frequency:   20.0708183201
  - # 21
    frequency:  111.1055621906

- q-position: [    0.0757576,    0.0000000,    0.0000000 ]
  distance:    0.0284483
  band:
  - # 1
    frequency:   -2.4407573478
  - # 2
    frequency:   -1.7796871375
  - # 3
    frequency:    0.1622471884
  - # 4
    frequency:    0.6329814965
  - # 5
    frequency:    0.9980855222
  - # 6
    frequency:    1.3085228694
  - # 7
    frequency:    4.0281890949
  - # 8
    frequency:    4.3135334649
  - # 9
    frequency:    7.6545515607
  - # 10
    frequency:    7.8778734810
  - # 11
    frequency:    8.1752116406
  - # 12
    frequency:    8.7865080764
  - # 13
    frequency:    8.9170989752
  - # 14
    frequency:   12.4609403752
  - # 15
    frequency:   12.5034452913
  - # 16
    frequency:   14.6852912082
  - # 17
    frequency:   15.9133030221
  - # 18
    frequency:   16.1317148984
  - # 19
    frequency:   16.4029685475
  - # 20
    frequency:   20.0679863140
  - # 21
    frequency:  111.0855399363

- q-position: [    0.0808081,    0.0000000,    0.0000000 ]
  distance:    0.0303448
  band:
  - # 1
    frequency:   -2.5703674512
  - # 2
    frequency:   -1.8603335946
  - # 3
    frequency:    0.2469073350
  - # 4
    frequency:    0.6639548411
  - # 5
    frequency:    1.0599282038
  - # 6
    frequency:    1.3415604290
  - # 7
    frequency:    4.0554350485
  - # 8
    frequency:    4.3720423901
  - # 9
    frequency:    7.6140721997
  - # 10
    frequency:    7.8643612395
  - # 11
    frequency:    8.1557449782
  - # 12
    frequency:    8.8045153254
  - # 13
    frequency:    8.9495983367
  - # 14
    frequency:   12.4340273789
  - # 15
    frequency:   12.4832186377
  - # 16
    frequency:   14.6559645514
  - # 17
    frequency:   15.8849237691
  - # 18
    frequency:   16.1178641983
  - # 19
    frequency:   16.3987347974
  - # 20
    frequency:   20.0645277734
  - # 21
    frequency:  111.0646832148

- q-position: [    0.0858586,    0.0000000,    0.0000000 ]
  distance:    0.0322414
  band:
  - # 1
    frequency:   -2.6985394778
  - # 2
    frequency:   -1.9407065688
  - # 3
    frequency:    0.3195024896
  - # 4
    frequency:    0.6959001601
  - # 5
    frequency:    1.1206321827
  - # 6
    frequency:    1.3619025155
  - # 7
    frequency:    4.0846372645
  - # 8
    frequency:    4.4331853886
  - # 9
    frequency:    7.5757471609
  - # 10
    frequency:    7.8519055001
  - # 11
    frequency:    8.1364405099
  - # 12
    frequency:    8.8217302191
  - # 13
    frequency:    8.9830023087
  - # 14
    frequency:   12.4058769903
  - # 15
    frequency:   12.4621512194
  - # 16
    frequency:   14.6254879412
  - # 17
    frequency:   15.8569800373
  - # 18
    frequency:   16.1040624851
  - # 19
    frequency:   16.3932221140
  - # 20
    frequency:   20.0603840612
  - # 21
    frequency:  111.0430937008

- q-position: [    0.0909091,    0.0000000,    0.0000000 ]
  distance:    0.0341379
  band:
  - # 1
    frequency:   -2.8249447496
  - # 2
    frequency:   -2.0205097817
  - # 3
    frequency:    0.3850221780
  - # 4
    frequency:    0.7287817105
  - # 5
    frequency:    1.1802658327
  - # 6
    frequency:    1.3688358040
  - # 7
    frequency:    4.1157830125
  - # 8
    frequency:    4.4968516525
  - # 9
    frequency:    7.5403376400
  - # 10
    frequency:    7.8406354680
  - # 11
    frequency:    8.1174013747
  - # 12
    frequency:    8.8379998448
  - # 13
    frequency:    9.0172648359
  - # 14
    frequency:   12.3766316751
  - # 15
    frequency:   12.4403041753
  - # 16
    frequency:   14.5939974328
  - # 17
    frequency:   15.8296452659
  - # 18
    frequency:   16.0904371117
  - # 19
    frequency:   16.3864625788
  - # 20
    frequency:   20.0554995189
  - # 21
    frequency:  111.0208772367

- q-position: [    0.0959596,    0.0000000,    0.0000000 ]
  distance:    0.0360345
  band:
  - # 1
    frequency:   -2.9492907549
  - # 2
    frequency:   -2.0994806592
  - # 3
    frequency:    0.4433390827
  - # 4
    frequency:    0.7625920077
  - # 5
    frequency:    1.2389188274
  - # 6
    frequency:    1.3621206453
  - # 7
    frequency:    4.1488485465
  - # 8
    frequency:    4.5629065130
  - # 9
    frequency:    7.5085486566
  - # 10
    frequency:    7.8306688682
  - # 11
    frequency:    8.0987716233
  - # 12
    frequency:    8.8531777675
  - # 13
    frequency:    9.0523290866
  - # 14
    frequency:   12.3464532422
  - # 15
    frequency:   12.4177405475
  - # 16
    frequency:   14.5616373450
  - # 17
    frequency:   15.8030902340
  - # 18
    frequency:   16.0771103606
  - # 19
    frequency:   16.3784931062
  - # 20
    frequency:   20.0498220261
  - # 21
    frequency:  110.9981434109

- q-position: [    0.1010101,    0.0000000,    0.0000000 ]
  distance:    0.0379310
  band:
  - # 1
    frequency:   -3.0713140025
  - # 2
    frequency:   -2.1773843582
  - # 3
    frequency:    0.4914539311
  - # 4
    frequency:    0.7973660658
  - # 5
    frequency:    1.2966998348
  - # 6
    frequency:    1.3424817342
  - # 7
    frequency:    4.1837990404
  - # 8
    frequency:    4.6311822491
  - # 9
    frequency:    7.4810006904
  - # 10
    frequency:    7.8221122492
  - # 11
    frequency:    8.0807405559
  - # 12
    frequency:    8.8671241157
  - # 13
    frequency:    9.0881282837
  - # 14
    frequency:   12.3155228865
  - # 15
    frequency:   12.3945264300
  - # 16
    frequency:   14.5285602952
  - # 17
    frequency:   15.7774810673
  - # 18
    frequency:   16.0641981175
  - # 19
    frequency:   16.3693556948
  - # 20
    frequency:   20.0433034705
  - # 21
    frequency:  110.9750051184

- q-position: [    0.1060606,    0.0000000,    0.0000000 ]
  distance:    0.0398276
  band:
  - # 1
    frequency:   -3.1907746656
  - # 2
    frequency:   -2.2540090379
  - # 3
    frequency:    0.5225867955
  - # 4
    frequency:    0.8331888978
  - # 5
    frequency:    1.3125687313
  - # 6
    frequency:    1.3537340789
  - # 7
    frequency:    4.2205888451
  - # 8
    frequency:    4.7014719300
  - # 9
    frequency:    7.4581996105
  - # 10
    frequency:    7.8150609181
  - # 11
    frequency:    8.0635489609
  - # 12
    frequency:    8.8797063924
  - # 13
    frequency:    9.1245865764
  - # 14
    frequency:   12.2840406834
  - # 15
    frequency:   12.3707322230
  - # 16
    frequency:   14.4949271627
  - # 17
    frequency:   15.7529772018
  - # 18
    frequency:   16.0518087181
  - # 19
    frequency:   16.3590977835
  - # 20
    frequency:   20.0359001308
  - # 21
    frequency:  110.9515781060

- q-position: [    0.1111111,    0.0000000,    0.0000000 ]
  distance:    0.0417241
  band:
  - # 1
    frequency:   -3.3074525231
  - # 2
    frequency:   -2.3291621170
  - # 3
    frequency:    0.5232209220
  - # 4
    frequency:    0.8701503815
  - # 5
    frequency:    1.2785353889
  - # 6
    frequency:    1.4101606755
  - # 7
    frequency:    4.2591620484
  - # 8
    frequency:    4.7735272748
  - # 9
    frequency:    7.4405061851
  - # 10
    frequency:    7.8095985489
  - # 11
    frequency:    8.0474977616
  - # 12
    frequency:    8.8908010227
  - # 13
    frequency:    9.1616199330
  - # 14
    frequency:   12.2522244636
  - # 15
    frequency:   12.3464339141
  - # 16
    frequency:   14.4609069767
  - # 17
    frequency:   15.7297293333
  - # 18
    frequency:   16.0400419894
  - # 19
    frequency:   16.3477727201
  - # 20
    frequency:   20.0275729744
  - # 21
    frequency:  110.9279805022

- q-position: [    0.1161616,    0.0000000,    0.0000000 ]
  distance:    0.0436207
  band:
  - # 1
    frequency:   -3.4211438566
  - # 2
    frequency:   -2.4026673059
  - # 3
    frequency:    0.4668085968
  - # 4
    frequency:    0.9081959758
  - # 5
    frequency:    1.2511556226
  - # 6
    frequency:    1.4661297174
  - # 7
    frequency:    4.2994533059
  - # 8
    frequency:    4.8470608896
  - # 9
    frequency:    7.4281065611
  - # 10
    frequency:    7.8057964965
  - # 11
    frequency:    8.0329594003
  - # 12
    frequency:    8.9002956507
  - # 13
    frequency:    9.1991370545
  - # 14
    frequency:   12.2203080143
  - # 15
    frequency:   12.3217143033
  - # 16
    frequency:   14.4266767319
  - # 17
    frequency:   15.7078773631
  - # 18
    frequency:   16.0289885000
  - # 19
    frequency:   16.3354403668
  - # 20
    frequency:   20.0182878752
  - # 21
    frequency:  110.9043323350

- q-position: [    0.1212121,    0.0000000,    0.0000000 ]
  distance:    0.0455172
  band:
  - # 1
    frequency:   -3.5316590588
  - # 2
    frequency:   -2.4743622461
  - # 3
    frequency:    0.2845900340
  - # 4
    frequency:    0.9470084656
  - # 5
    frequency:    1.2425844168
  - # 6
    frequency:    1.5217991340
  - # 7
    frequency:    4.3413888952
  - # 8
    frequency:    4.9217525676
  - # 9
    frequency:    7.4209851956
  - # 10
    frequency:    7.8037128311
  - # 11
    frequency:    8.0203918493
  - # 12
    frequency:    8.9080921948
  - # 13
    frequency:    9.2370403225
  - # 14
    frequency:   12.1885385764
  - # 15
    frequency:   12.2966640829
  - # 16
    frequency:   14.3924211440
  - # 17
    frequency:   15.6875483352
  - # 18
    frequency:   16.0187290245
  - # 19
    frequency:   16.3221678735
  - # 20
    frequency:   20.0080157567
  - # 21
    frequency:  110.8807550387

- q-position: [    0.1262626,    0.0000000,    0.0000000 ]
  distance:    0.0474138
  band:
  - # 1
    frequency:   -3.6388207775
  - # 2
    frequency:   -2.5440966255
  - # 3
    frequency:   -0.3789086791
  - # 4
    frequency:    0.9862046507
  - # 5
    frequency:    1.2583630802
  - # 6
    frequency:    1.5773313877
  - # 7
    frequency:    4.3848879432
  - # 8
    frequency:    4.9972587731
  - # 9
    frequency:    7.4189021571
  - # 10
    frequency:    7.8033910967
  - # 11
    frequency:    8.0103541180
  - # 12
    frequency:    8.9141106629
  - # 13
    frequency:    9.2752268038
  - # 14
    frequency:   12.1571736367
  - # 15
    frequency:   12.2713826824
  - # 16
    frequency:   14.3583323640
  - # 17
    frequency:   15.6688543388
  - # 18
    frequency:   16.0093342218
  - # 19
    frequency:   16.3080306656
  - # 20
    frequency:   19.9967326670
  - # 21
    frequency:  110.8573709512

- q-position: [    0.1313131,    0.0000000,    0.0000000 ]
  distance:    0.0493103
  band:
  - # 1
    frequency:   -3.7424624692
  - # 2
    frequency:   -2.6117306673
  - # 3
    frequency:   -0.6650001725
  - # 4
    frequency:    1.0256369406
  - # 5
    frequency:    1.2952945175
  - # 6
    frequency:    1.6328900936
  - # 7
    frequency:    4.4298637658
  - # 8
    frequency:    5.0732240737
  - # 9
    frequency:    7.4213781084
  - # 10
    frequency:    7.8048587867
  - # 11
    frequency:    8.0035200470
  - # 12
    frequency:    8.9182937030
  - # 13
    frequency:    9.3135893454
  - # 14
    frequency:   12.1264770536
  - # 15
    frequency:   12.2459787910
  - # 16
    frequency:   14.3246096724
  - # 17
    frequency:   15.6518903274
  - # 18
    frequency:   16.0008645176
  - # 19
    frequency:   16.2931137048
  - # 20
    frequency:   19.9844197929
  - # 21
    frequency:  110.8343028045

- q-position: [    0.1363636,    0.0000000,    0.0000000 ]
  distance:    0.0512069
  band:
  - # 1
    frequency:   -3.8424272651
  - # 2
    frequency:   -2.6771339121
  - # 3
    frequency:   -0.8912899370
  - # 4
    frequency:    1.0653767330
  - # 5
    frequency:    1.3471573569
  - # 6
    frequency:    1.6886366607
  - # 7
    frequency:    4.4762252640
  - # 8
    frequency:    5.1492931837
  - # 9
    frequency:    7.4276932188
  - # 10
    frequency:    7.8081255135
  - # 11
    frequency:    8.0006836008
  - # 12
    frequency:    8.9206118411
  - # 13
    frequency:    9.3520177975
  - # 14
    frequency:   12.0967145992
  - # 15
    frequency:   12.2205704748
  - # 16
    frequency:   14.2914591774
  - # 17
    frequency:   15.6367317857
  - # 18
    frequency:   15.9933701773
  - # 19
    frequency:   16.2775130980
  - # 20
    frequency:   19.9710634202
  - # 21
    frequency:  110.8116732088

- q-position: [    0.1414141,    0.0000000,    0.0000000 ]
  distance:    0.0531034
  band:
  - # 1
    frequency:   -3.9385670787
  - # 2
    frequency:   -2.7401842326
  - # 3
    frequency:   -1.0867437034
  - # 4
    frequency:    1.1055382374
  - # 5
    frequency:    1.4088621674
  - # 6
    frequency:    1.7447270584
  - # 7
    frequency:    4.5238783205
  - # 8
    frequency:    5.2251223888
  - # 9
    frequency:    7.4369106082
  - # 10
    frequency:    7.8131808445
  - # 11
    frequency:    8.0027440334
  - # 12
    frequency:    8.9210693195
  - # 13
    frequency:    9.3904004079
  - # 14
    frequency:   12.0681490494
  - # 15
    frequency:   12.1952848155
  - # 16
    frequency:   14.2590935325
  - # 17
    frequency:   15.6234321442
  - # 18
    frequency:   15.9868915485
  - # 19
    frequency:   16.2613381511
  - # 20
    frequency:   19.9566548477
  - # 21
    frequency:  110.7896041343

- q-position: [    0.1464646,    0.0000000,    0.0000000 ]
  distance:    0.0550000
  band:
  - # 1
    frequency:   -4.0307418996
  - # 2
    frequency:   -2.8007670323
  - # 3
    frequency:   -1.2592946356
  - # 4
    frequency:    1.1461931872
  - # 5
    frequency:    1.4771073473
  - # 6
    frequency:    1.8013088042
  - # 7
    frequency:    4.5727271494
  - # 8
    frequency:    5.3003893804
  - # 9
    frequency:    7.4479382916
  - # 10
    frequency:    7.8199917677
  - # 11
    frequency:    8.0106556972
  - # 12
    frequency:    8.9197104093
  - # 13
    frequency:    9.4286254328
  - # 14
    frequency:   12.0410350017
  - # 15
    frequency:   12.1702570122
  - # 16
    frequency:   14.2277316880
  - # 17
    frequency:   15.6120198181
  - # 18
    frequency:   15.9814594503
  - # 19
    frequency:   16.2447139827
  - # 20
    frequency:   19.9411902627
  - # 21
    frequency:  110.7682163914

- q-position: [    0.1515152,    0.0000000,    0.0000000 ]
  distance:    0.0568965
  band:
  - # 1
    frequency:   -4.1188192300
  - # 2
    frequency:   -2.8587745899
  - # 3
    frequency:   -1.4123301835
  - # 4
    frequency:    1.1873681605
  - # 5
    frequency:    1.5498857630
  - # 6
    frequency:    1.8585182625
  - # 7
    frequency:    4.6226755589
  - # 8
    frequency:    5.3748008581
  - # 9
    frequency:    7.4596398332
  - # 10
    frequency:    7.8284997527
  - # 11
    frequency:    8.0253309917
  - # 12
    frequency:    8.9166260279
  - # 13
    frequency:    9.4665830116
  - # 14
    frequency:   12.0156136434
  - # 15
    frequency:   12.1456289027
  - # 16
    frequency:   14.1975986727
  - # 17
    frequency:   15.6024947208
  - # 18
    frequency:   15.9770956813
  - # 19
    frequency:   16.2277848358
  - # 20
    frequency:   19.9246705844
  - # 21
    frequency:  110.7476291109