nqpoint: 300    
npath: 3      
segment_nqpoint:
- 100
- 100
- 100
labels:
- [ 'G', 'M' ]
- [ 'M', 'K' ]
- [ 'K', 'G' ]
reciprocal_lattice:
- [   0.29360479,   0.16951281,   0.00000000 ] # a*
- [   0.00000000,   0.33902561,   0.00000000 ] # b*
- [   0.00000000,   0.00000000,   0.04294335 ] # c*
natom: 5      
lattice:
- [     3.405938947568429,     0.000000000000000,     0.000000000000000 ] # a
- [    -1.702969473784215,     2.949629652329707,     0.000000000000000 ] # b
- [     0.000000000000000,     0.000000000000000,    23.286494253719113 ] # c
points:
- symbol: C # 1
  coordinates: [  0.000000000000000,  0.000000000000000,  0.512107977234261 ]
  mass: 12.010700
- symbol: Cl # 2
  coordinates: [  0.666666984744047,  0.333332985985145,  0.386490121782183 ]
  mass: 35.453000
- symbol: F # 3
  coordinates: [  0.333332985432215,  0.666666983183674,  0.613509878217817 ]
  mass: 18.998403
- symbol: Sc # 4
  coordinates: [  0.333332985432215,  0.666666983183674,  0.459167814926605 ]
  mass: 44.955912
- symbol: Sc # 5
  coordinates: [  0.666666984744047,  0.333332985985145,  0.566119421274115 ]
  mass: 44.955912

phonon:
- q-position: [    0.0000000,    0.0000000,    0.0000000 ]
  distance:    0.0000000
  band:
  - # 1
    frequency:   -0.0000015754
  - # 2
    frequency:    0.0000006172
  - # 3
    frequency:    0.0000014014
  - # 4
    frequency:    3.9700598715
  - # 5
    frequency:    3.9700598715
  - # 6
    frequency:    5.5747255882
  - # 7
    frequency:    5.5747255882
  - # 8
    frequency:    6.2420591380
  - # 9
    frequency:    6.2420591380
  - # 10
    frequency:    6.4834511032
  - # 11
    frequency:   10.3833047285
  - # 12
    frequency:   11.4113612034
  - # 13
    frequency:   11.4113612034
  - # 14
    frequency:   12.7835753423
  - # 15
    frequency:   18.8324023822

- q-position: [    0.0050505,    0.0000000,    0.0000000 ]
  distance:    0.0017123
  band:
  - # 1
    frequency:   -0.0301447550
  - # 2
    frequency:    0.0815411404
  - # 3
    frequency:    0.1289802070
  - # 4
    frequency:    3.9704608528
  - # 5
    frequency:    3.9723449093
  - # 6
    frequency:    5.5750568262
  - # 7
    frequency:    5.5799735169
  - # 8
    frequency:    6.2422264430
  - # 9
    frequency:    6.2426943508
  - # 10
    frequency:    6.4841744167
  - # 11
    frequency:   10.3827643532
  - # 12
    frequency:   11.4119400121
  - # 13
    frequency:   11.4180936379
  - # 14
    frequency:   12.7826485952
  - # 15
    frequency:   18.8309167647

- q-position: [    0.0101010,    0.0000000,    0.0000000 ]
  distance:    0.0034245
  band:
  - # 1
    frequency:   -0.0271972813
  - # 2
    frequency:    0.1630401866
  - # 3
    frequency:    0.2523593875
  - # 4
    frequency:    3.9716621178
  - # 5
    frequency:    3.9791422015
  - # 6
    frequency:    5.5760481722
  - # 7
    frequency:    5.5954421373
  - # 8
    frequency:    6.2427260531
  - # 9
    frequency:    6.2447134787
  - # 10
    frequency:    6.4863371903
  - # 11
    frequency:   10.3811479135
  - # 12
    frequency:   11.4136721118
  - # 13
    frequency:   11.4382566485
  - # 14
    frequency:   12.7799042982
  - # 15
    frequency:   18.8264635698

- q-position: [    0.0151515,    0.0000000,    0.0000000 ]
  distance:    0.0051368
  band:
  - # 1
    frequency:   -0.0149579229
  - # 2
    frequency:    0.2444552272
  - # 3
    frequency:    0.3768121655
  - # 4
    frequency:    3.9736586469
  - # 5
    frequency:    3.9902860053
  - # 6
    frequency:    5.5776925503
  - # 7
    frequency:    5.6203017127
  - # 8
    frequency:    6.2435510874
  - # 9
    frequency:    6.2484640820
  - # 10
    frequency:    6.4899223377
  - # 11
    frequency:   10.3784688800
  - # 12
    frequency:   11.4165445580
  - # 13
    frequency:   11.4717395185
  - # 14
    frequency:   12.7754558959
  - # 15
    frequency:   18.8190537610

- q-position: [    0.0202020,    0.0000000,    0.0000000 ]
  distance:    0.0068490
  band:
  - # 1
    frequency:    0.0293520736
  - # 2
    frequency:    0.3257447143
  - # 3
    frequency:    0.5014923645
  - # 4
    frequency:    3.9764421313
  - # 5
    frequency:    4.0055237627
  - # 6
    frequency:    5.5799782590
  - # 7
    frequency:    5.6531574289
  - # 8
    frequency:    6.2446901911
  - # 9
    frequency:    6.2545467215
  - # 10
    frequency:    6.4949164707
  - # 11
    frequency:   10.3747479529
  - # 12
    frequency:   11.4205358903
  - # 13
    frequency:   11.5183298678
  - # 14
    frequency:   12.7695128759
  - # 15
    frequency:   18.8087055781

- q-position: [    0.0252525,    0.0000000,    0.0000000 ]
  distance:    0.0085613
  band:
  - # 1
    frequency:    0.0534039201
  - # 2
    frequency:    0.4068676376
  - # 3
    frequency:    0.6261813312
  - # 4
    frequency:    3.9800010566
  - # 5
    frequency:    4.0245452653
  - # 6
    frequency:    5.5828891057
  - # 7
    frequency:    5.6920424792
  - # 8
    frequency:    6.2461277032
  - # 9
    frequency:    6.2638343066
  - # 10
    frequency:    6.5013345572
  - # 11
    frequency:   10.3700110528
  - # 12
    frequency:   11.4256163033
  - # 13
    frequency:   11.5776651787
  - # 14
    frequency:   12.7624181276
  - # 15
    frequency:   18.7954444901

- q-position: [    0.0303030,    0.0000000,    0.0000000 ]
  distance:    0.0102735
  band:
  - # 1
    frequency:    0.0785181636
  - # 2
    frequency:    0.4877836919
  - # 3
    frequency:    0.7507820634
  - # 4
    frequency:    3.9843208194
  - # 5
    frequency:    4.0470133021
  - # 6
    frequency:    5.5864045897
  - # 7
    frequency:    5.7344430952
  - # 8
    frequency:    6.2478438887
  - # 9
    frequency:    6.2774571881
  - # 10
    frequency:    6.5092612264
  - # 11
    frequency:   10.3642874150
  - # 12
    frequency:   11.4317478847
  - # 13
    frequency:   11.6491486831
  - # 14
    frequency:   12.7547169302
  - # 15
    frequency:   18.7793031317

- q-position: [    0.0353535,    0.0000000,    0.0000000 ]
  distance:    0.0119858
  band:
  - # 1
    frequency:    0.1062376018
  - # 2
    frequency:    0.5684534333
  - # 3
    frequency:    0.8752332402
  - # 4
    frequency:    3.9893838719
  - # 5
    frequency:    4.0725901720
  - # 6
    frequency:    5.5905001280
  - # 7
    frequency:    5.7774187396
  - # 8
    frequency:    6.2498152315
  - # 9
    frequency:    6.2966740200
  - # 10
    frequency:    6.5189228876
  - # 11
    frequency:   10.3576081716
  - # 12
    frequency:   11.4388849190
  - # 13
    frequency:   11.7318046703
  - # 14
    frequency:   12.7472834926
  - # 15
    frequency:   18.7603212271

- q-position: [    0.0404040,    0.0000000,    0.0000000 ]
  distance:    0.0136980
  band:
  - # 1
    frequency:    0.1369561488
  - # 2
    frequency:    0.6488384241
  - # 3
    frequency:    0.9994864582
  - # 4
    frequency:    3.9951698957
  - # 5
    frequency:    4.1009567714
  - # 6
    frequency:    5.5951473175
  - # 7
    frequency:    5.8179116318
  - # 8
    frequency:    6.2520147833
  - # 9
    frequency:    6.3224977592
  - # 10
    frequency:    6.5308224966
  - # 11
    frequency:   10.3500055451
  - # 12
    frequency:   11.4469742575
  - # 13
    frequency:   11.8240235558
  - # 14
    frequency:   12.7415563006
  - # 15
    frequency:   18.7385455043

- q-position: [    0.0454545,    0.0000000,    0.0000000 ]
  distance:    0.0154103
  band:
  - # 1
    frequency:    0.1707665779
  - # 2
    frequency:    0.7289013628
  - # 3
    frequency:    1.1234983498
  - # 4
    frequency:    4.0016559978
  - # 5
    frequency:    4.1318235317
  - # 6
    frequency:    5.6003142276
  - # 7
    frequency:    5.8532841077
  - # 8
    frequency:    6.2544125647
  - # 9
    frequency:    6.3549715831
  - # 10
    frequency:    6.5459977158
  - # 11
    frequency:   10.3415125762
  - # 12
    frequency:   11.4559557498
  - # 13
    frequency:   11.9231037423
  - # 14
    frequency:   12.7399772729
  - # 15
    frequency:   18.7140296066

- q-position: [    0.0505051,    0.0000000,    0.0000000 ]
  distance:    0.0171225
  band:
  - # 1
    frequency:    0.2076425956
  - # 2
    frequency:    0.8086061996
  - # 3
    frequency:    1.2472272904
  - # 4
    frequency:    4.0088169301
  - # 5
    frequency:    4.1649343671
  - # 6
    frequency:    5.6059657157
  - # 7
    frequency:    5.8819030148
  - # 8
    frequency:    6.2569760114
  - # 9
    frequency:    6.3922144328
  - # 10
    frequency:    6.5664574035
  - # 11
    frequency:   10.3321632133
  - # 12
    frequency:   11.4657627371
  - # 13
    frequency:   12.0244595865
  - # 14
    frequency:   12.7467675829
  - # 15
    frequency:   18.6868340078

- q-position: [    0.0555556,    0.0000000,    0.0000000 ]
  distance:    0.0188348
  band:
  - # 1
    frequency:    0.2475016101
  - # 2
    frequency:    0.8879182350
  - # 3
    frequency:    1.3706317989
  - # 4
    frequency:    4.0166253251
  - # 5
    frequency:    4.2000656996
  - # 6
    frequency:    5.6120637581
  - # 7
    frequency:    5.9033947578
  - # 8
    frequency:    6.2596704595
  - # 9
    frequency:    6.4298931290
  - # 10
    frequency:    6.5955106928
  - # 11
    frequency:   10.3219925836
  - # 12
    frequency:   11.4763226027
  - # 13
    frequency:   12.1205494685
  - # 14
    frequency:   12.7689881018
  - # 15
    frequency:   18.6570259411

- q-position: [    0.0606061,    0.0000000,    0.0000000 ]
  distance:    0.0205470
  band:
  - # 1
    frequency:    0.2902320740
  - # 2
    frequency:    0.9668042016
  - # 3
    frequency:    1.4936696493
  - # 4
    frequency:    4.0250519474
  - # 5
    frequency:    4.2370226862
  - # 6
    frequency:    5.6185677919
  - # 7
    frequency:    5.9183910703
  - # 8
    frequency:    6.2624596619
  - # 9
    frequency:    6.4626772736
  - # 10
    frequency:    6.6366089191
  - # 11
    frequency:   10.3110373098
  - # 12
    frequency:   11.4875573758
  - # 13
    frequency:   12.2007344668
  - # 14
    frequency:   12.8166753817
  - # 15
    frequency:   18.6246793540

- q-position: [    0.0656566,    0.0000000,    0.0000000 ]
  distance:    0.0222593
  band:
  - # 1
    frequency:    0.3357072328
  - # 2
    frequency:    1.0452323288
  - # 3
    frequency:    1.6162973107
  - # 4
    frequency:    4.0340659553
  - # 5
    frequency:    4.2756343458
  - # 6
    frequency:    5.6254350599
  - # 7
    frequency:    5.9280128234
  - # 8
    frequency:    6.2653063282
  - # 9
    frequency:    6.4879127731
  - # 10
    frequency:    6.6902158065
  - # 11
    frequency:   10.2993357890
  - # 12
    frequency:   11.4993843860
  - # 13
    frequency:   12.2551551905
  - # 14
    frequency:   12.8989662964
  - # 15
    frequency:   18.5898749069

- q-position: [    0.0707071,    0.0000000,    0.0000000 ]
  distance:    0.0239715
  band:
  - # 1
    frequency:    0.3837927545
  - # 2
    frequency:    1.1231723892
  - # 3
    frequency:    1.7384695523
  - # 4
    frequency:    4.0436351707
  - # 5
    frequency:    4.3157487072
  - # 6
    frequency:    5.6326209556
  - # 7
    frequency:    5.9334412980
  - # 8
    frequency:    6.2681726803
  - # 9
    frequency:    6.5066531255
  - # 10
    frequency:    6.7532177452
  - # 11
    frequency:   10.2869283926
  - # 12
    frequency:   11.5117169614
  - # 13
    frequency:   12.2814780645
  - # 14
    frequency:   13.0173598745
  - # 15
    frequency:   18.5527000359

- q-position: [    0.0757576,    0.0000000,    0.0000000 ]
  distance:    0.0256838
  band:
  - # 1
    frequency:    0.4343512782
  - # 2
    frequency:    1.2005957289
  - # 3
    frequency:    1.8601391362
  - # 4
    frequency:    4.0537263526
  - # 5
    frequency:    4.3572285762
  - # 6
    frequency:    5.6400793651
  - # 7
    frequency:    5.9357032445
  - # 8
    frequency:    6.2710210129
  - # 9
    frequency:    6.5210294464
  - # 10
    frequency:    6.8217686795
  - # 11
    frequency:   10.2738575781
  - # 12
    frequency:   11.5244651656
  - # 13
    frequency:   12.2850292031
  - # 14
    frequency:   13.1655972460
  - # 15
    frequency:   18.5132491122

- q-position: [    0.0808081,    0.0000000,    0.0000000 ]
  distance:    0.0273960
  band:
  - # 1
    frequency:    0.4872452723
  - # 2
    frequency:    1.2774752803
  - # 3
    frequency:    1.9812565596
  - # 4
    frequency:    4.0643054721
  - # 5
    frequency:    4.3999481454
  - # 6
    frequency:    5.6477630021
  - # 7
    frequency:    5.9356150784
  - # 8
    frequency:    6.2738142528
  - # 9
    frequency:    6.5326043407
  - # 10
    frequency:    6.8929818570
  - # 11
    frequency:   10.2601679182
  - # 12
    frequency:   11.5375365667
  - # 13
    frequency:   12.2727752288
  - # 14
    frequency:   13.3356988304
  - # 15
    frequency:   18.4716237383

- q-position: [    0.0858586,    0.0000000,    0.0000000 ]
  distance:    0.0291083
  band:
  - # 1
    frequency:    0.5423388959
  - # 2
    frequency:    1.3537855596
  - # 3
    frequency:    2.1017698284
  - # 4
    frequency:    4.0753379849
  - # 5
    frequency:    4.4437904398
  - # 6
    frequency:    5.6556237375
  - # 7
    frequency:    5.9338011047
  - # 8
    frequency:    6.2765165063
  - # 9
    frequency:    6.5422818207
  - # 10
    frequency:    6.9649843900
  - # 11
    frequency:   10.2459060601
  - # 12
    frequency:   11.5508370314
  - # 13
    frequency:   12.2498940753
  - # 14
    frequency:   13.5214139083
  - # 15
    frequency:   18.4279332392

- q-position: [    0.0909091,    0.0000000,    0.0000000 ]
  distance:    0.0308205
  band:
  - # 1
    frequency:    0.5994992332
  - # 2
    frequency:    1.4295026481
  - # 3
    frequency:    2.2216242504
  - # 4
    frequency:    4.0867890989
  - # 5
    frequency:    4.4886454800
  - # 6
    frequency:    5.6636129219
  - # 7
    frequency:    5.9307329840
  - # 8
    frequency:    6.2790935866
  - # 9
    frequency:    6.5505587305
  - # 10
    frequency:    7.0366049131
  - # 11
    frequency:   10.2311206296
  - # 12
    frequency:   11.5642715370
  - # 13
    frequency:   12.2196271608
  - # 14
    frequency:   13.7183893437
  - # 15
    frequency:   18.3822954304

- q-position: [    0.0959596,    0.0000000,    0.0000000 ]
  distance:    0.0325328
  band:
  - # 1
    frequency:    0.6585971121
  - # 2
    frequency:    1.5046041609
  - # 3
    frequency:    2.3407622441
  - # 4
    frequency:    4.0986240349
  - # 5
    frequency:    4.5344090049
  - # 6
    frequency:    5.6716817041
  - # 7
    frequency:    5.9267681020
  - # 8
    frequency:    6.2815135136
  - # 9
    frequency:    6.5577103260
  - # 10
    frequency:    7.1071265652
  - # 11
    frequency:   10.2158620960
  - # 12
    frequency:   11.5777449917
  - # 13
    frequency:   12.1839449192
  - # 14
    frequency:   13.9235238128
  - # 15
    frequency:   18.3348377820

- q-position: [    0.1010101,    0.0000000,    0.0000000 ]
  distance:    0.0342450
  band:
  - # 1
    frequency:    0.7195076332
  - # 2
    frequency:    1.5790692014
  - # 3
    frequency:    2.4591231603
  - # 4
    frequency:    4.1108082772
  - # 5
    frequency:    4.5809815988
  - # 6
    frequency:    5.6797813470
  - # 7
    frequency:    5.9221803780
  - # 8
    frequency:    6.2837469775
  - # 9
    frequency:    6.5638932796
  - # 10
    frequency:    7.1761304665
  - # 11
    frequency:   10.2001826101
  - # 12
    frequency:   11.5911630569
  - # 13
    frequency:   12.1440776822
  - # 14
    frequency:   14.1344542081
  - # 15
    frequency:   18.2856991520

- q-position: [    0.1060606,    0.0000000,    0.0000000 ]
  distance:    0.0359573
  band:
  - # 1
    frequency:    0.7821104888
  - # 2
    frequency:    1.6528783047
  - # 3
    frequency:    2.5766431155
  - # 4
    frequency:    4.1233078129
  - # 5
    frequency:    4.6282680925
  - # 6
    frequency:    5.6878635446
  - # 7
    frequency:    5.9171832345
  - # 8
    frequency:    6.2857677593
  - # 9
    frequency:    6.5692003252
  - # 10
    frequency:    7.2433971110
  - # 11
    frequency:   10.1841358269
  - # 12
    frequency:   11.6044329617
  - # 13
    frequency:   12.1008312534
  - # 14
    frequency:   14.3492538654
  - # 15
    frequency:   18.2350323501

- q-position: [    0.1111111,    0.0000000,    0.0000000 ]
  distance:    0.0376695
  band:
  - # 1
    frequency:    0.8462901277
  - # 2
    frequency:    1.7260133702
  - # 3
    frequency:    2.6932548379
  - # 4
    frequency:    4.1360893579
  - # 5
    frequency:    4.6761771318
  - # 6
    frequency:    5.6958807435
  - # 7
    frequency:    5.9119462241
  - # 8
    frequency:    6.2875531018
  - # 9
    frequency:    6.5736897760
  - # 10
    frequency:    7.3088417461
  - # 11
    frequency:   10.1677767246
  - # 12
    frequency:   11.6174643007
  - # 13
    frequency:   12.0547630366
  - # 14
    frequency:   14.5662660010
  - # 15
    frequency:   18.1830079335

- q-position: [    0.1161616,    0.0000000,    0.0000000 ]
  distance:    0.0393818
  band:
  - # 1
    frequency:    0.9119358033
  - # 2
    frequency:    1.7984575863
  - # 3
    frequency:    2.8088875265
  - # 4
    frequency:    4.1491205688
  - # 5
    frequency:    4.7246208373
  - # 6
    frequency:    5.7037864735
  - # 7
    frequency:    5.9066069681
  - # 8
    frequency:    6.2890840244
  - # 9
    frequency:    6.5774020732
  - # 10
    frequency:    7.3724702720
  - # 11
    frequency:   10.1511614282
  - # 12
    frequency:   11.6301698085
  - # 13
    frequency:   12.0062805929
  - # 14
    frequency:   14.7840098236
  - # 15
    frequency:   18.1298198611

- q-position: [    0.1212121,    0.0000000,    0.0000000 ]
  distance:    0.0410940
  band:
  - # 1
    frequency:    0.9789415343
  - # 2
    frequency:    1.8701953464
  - # 3
    frequency:    2.9234667252
  - # 4
    frequency:    4.1623702396
  - # 5
    frequency:    4.7735144958
  - # 6
    frequency:    5.7115356900
  - # 7
    frequency:    5.9012797586
  - # 8
    frequency:    6.2903455769
  - # 9
    frequency:    6.5803694595
  - # 10
    frequency:    7.4343482269
  - # 11
    frequency:   10.1343470493
  - # 12
    frequency:   11.6424661007
  - # 13
    frequency:   11.9556981482
  - # 14
    frequency:   15.0011229905
  - # 15
    frequency:   18.0756940159

- q-position: [    0.1262626,    0.0000000,    0.0000000 ]
  distance:    0.0428063
  band:
  - # 1
    frequency:    1.0472059994
  - # 2
    frequency:    1.9412121598
  - # 3
    frequency:    3.0369142129
  - # 4
    frequency:    4.1758084823
  - # 5
    frequency:    4.8227762439
  - # 6
    frequency:    5.7190851338
  - # 7
    frequency:    5.8960618251
  - # 8
    frequency:    6.2913270280
  - # 9
    frequency:    6.5826218716
  - # 10
    frequency:    7.4945785599
  - # 11
    frequency:   10.1173915479
  - # 12
    frequency:   11.6542743749
  - # 13
    frequency:   11.9032700001
  - # 14
    frequency:   15.2163201365
  - # 15
    frequency:   18.0209012542

- q-position: [    0.1313131,    0.0000000,    0.0000000 ]
  distance:    0.0445185
  band:
  - # 1
    frequency:    1.1166323841
  - # 2
    frequency:    2.0114945577
  - # 3
    frequency:    3.1491479121
  - # 4
    frequency:    4.1894068917
  - # 5
    frequency:    4.8723267121
  - # 6
    frequency:    5.7263937094
  - # 7
    frequency:    5.8910379728
  - # 8
    frequency:    6.2920219833
  - # 9
    frequency:    6.5841906684
  - # 10
    frequency:    7.5532855425
  - # 11
    frequency:   10.1003536285
  - # 12
    frequency:   11.6655210637
  - # 13
    frequency:   11.8492108906
  - # 14
    frequency:   15.4283550078
  - # 15
    frequency:   17.9657777890

- q-position: [    0.1363636,    0.0000000,    0.0000000 ]
  distance:    0.0462308
  band:
  - # 1
    frequency:    1.1871281933
  - # 2
    frequency:    2.0810299974
  - # 3
    frequency:    3.2600818180
  - # 4
    frequency:    4.2031386940
  - # 5
    frequency:    4.9220886065
  - # 6
    frequency:    5.7334228853
  - # 7
    frequency:    5.8862840903
  - # 8
    frequency:    6.2924284319
  - # 9
    frequency:    6.5851110718
  - # 10
    frequency:    7.6106030747
  - # 11
    frequency:   10.0832926767
  - # 12
    frequency:   11.6761384347
  - # 13
    frequency:   11.7937087990
  - # 14
    frequency:   15.6359762963
  - # 15
    frequency:   17.9107577682

- q-position: [    0.1414141,    0.0000000,    0.0000000 ]
  distance:    0.0479430
  band:
  - # 1
    frequency:    1.2586050398
  - # 2
    frequency:    2.1498067648
  - # 3
    frequency:    3.3696259499
  - # 4
    frequency:    4.2169788801
  - # 5
    frequency:    4.9719862061
  - # 6
    frequency:    5.7401371174
  - # 7
    frequency:    5.8818698743
  - # 8
    frequency:    6.2925487182
  - # 9
    frequency:    6.5854238112
  - # 10
    frequency:    7.6666661778
  - # 11
    frequency:   10.0662687457
  - # 12
    frequency:   11.6860651293
  - # 13
    frequency:   11.7369331972
  - # 14
    frequency:   15.8378658944
  - # 15
    frequency:   17.8564266785

- q-position: [    0.1464646,    0.0000000,    0.0000000 ]
  distance:    0.0496553
  band:
  - # 1
    frequency:    1.3309784188
  - # 2
    frequency:    2.2178138775
  - # 3
    frequency:    3.4776863264
  - # 4
    frequency:    4.2309043234
  - # 5
    frequency:    5.0219447569
  - # 6
    frequency:    5.7465042930
  - # 7
    frequency:    5.8778610185
  - # 8
    frequency:    6.2923894397
  - # 9
    frequency:    6.5851762602
  - # 10
    frequency:    7.7216048014
  - # 11
    frequency:   10.0493426007
  - # 12
    frequency:   11.6790405131
  - # 13
    frequency:   11.6952466369
  - # 14
    frequency:   16.0325426234
  - # 15
    frequency:   17.8036111137

- q-position: [    0.1515152,    0.0000000,    0.0000000 ]
  distance:    0.0513675
  band:
  - # 1
    frequency:    1.4041674746
  - # 2
    frequency:    2.2850409906
  - # 3
    frequency:    3.5841649672
  - # 4
    frequency:    4.2448938839
  - # 5
    frequency:    5.0718897377
  - # 6
    frequency:    5.7524961943
  - # 7
    frequency:    5.8743210466
  - # 8
    frequency:    6.2919612710
  - # 9
    frequency:    6.5844232387
  - # 10
    frequency:    7.7755393026
  - # 11
    frequency:   10.0325758267
  - # 12
    frequency:   11.6201778395
  - # 13
    frequency:   11.7036357003
  - # 14
    frequency:   16.2182028284
  - # 15
    frequency:   17.7535327732

- q-position: [    0.1565657,    0.0000000,    0.0000000 ]
  distance:    0.0530798
  band:
  - # 1
    frequency:    1.4780947650
  - # 2
    frequency:    2.3514783066
  - # 3
    frequency:    3.6889599214
  - # 4
    frequency:    4.2589284984
  - # 5
    frequency:    5.1217459737
  - # 6
    frequency:    5.7580889755
  - # 7
    frequency:    5.8713129259
  - # 8
    frequency:    6.2912787185
  - # 9
    frequency:    6.5832275942
  - # 10
    frequency:    7.8285771159
  - # 11
    frequency:   10.0160310047
  - # 12
    frequency:   11.5604855210
  - # 13
    frequency:   11.7111926478
  - # 14
    frequency:   16.3924503575
  - # 15
    frequency:   17.7080737733

- q-position: [    0.1616162,    0.0000000,    0.0000000 ]
  distance:    0.0547920
  band:
  - # 1
    frequency:    1.5526860280
  - # 2
    frequency:    2.4171164904
  - # 3
    frequency:    3.7919653244
  - # 4
    frequency:    4.2729912591
  - # 5
    frequency:    5.1714365622
  - # 6
    frequency:    5.7632636446
  - # 7
    frequency:    5.8689005701
  - # 8
    frequency:    6.2903598096
  - # 9
    frequency:    6.5816606340
  - # 10
    frequency:    7.8808102504
  - # 11
    frequency:    9.9997719588
  - # 12
    frequency:   11.5000990211
  - # 13
    frequency:   11.7178856514
  - # 14
    frequency:   16.5518533215
  - # 15
    frequency:   17.6702156683

- q-position: [    0.1666667,    0.0000000,    0.0000000 ]
  distance:    0.0565043
  band:
  - # 1
    frequency:    1.6278699537
  - # 2
    frequency:    2.4819465925
  - # 3
    frequency:    3.8930714840
  - # 4
    frequency:    4.2870674806
  - # 5
    frequency:    5.2208815710
  - # 6
    frequency:    5.7680065392
  - # 7
    frequency:    5.8671503229
  - # 8
    frequency:    6.2892257256
  - # 9
    frequency:    6.5798024664
  - # 10
    frequency:    7.9323133436
  - # 11
    frequency:    9.9838640688
  - # 12
    frequency:   11.4391503306
  - # 13
    frequency:   11.7236909075
  - # 14
    frequency:   16.6913295714
  - # 15
    frequency:   17.6446501265

- q-position: [    0.1717172,    0.0000000,    0.0000000 ]
  distance:    0.0582165
  band:
  - # 1
    frequency:    1.7035779636
  - # 2
    frequency:    2.5459599794
  - # 3
    frequency:    3.9921649960
  - # 4
    frequency:    4.3011447571
  - # 5
    frequency:    5.2699964589
  - # 6
    frequency:    5.7723097829
  - # 7
    frequency:    5.8661325091
  - # 8
    frequency:    6.2879003874
  - # 9
    frequency:    6.5777422872
  - # 10
    frequency:    7.9831420685
  - # 11
    frequency:    9.9683746407
  - # 12
    frequency:   11.3777691000
  - # 13
    frequency:   11.7285927413
  - # 14
    frequency:   16.8037878380
  - # 15
    frequency:   17.6381342585

- q-position: [    0.1767677,    0.0000000,    0.0000000 ]
  distance:    0.0599288
  band:
  - # 1
    frequency:    1.7797439992
  - # 2
    frequency:    2.6091482756
  - # 3
    frequency:    4.0891288916
  - # 4
    frequency:    4.3152130104
  - # 5
    frequency:    5.3186901571
  - # 6
    frequency:    5.7761717031
  - # 7
    frequency:    5.8659231355
  - # 8
    frequency:    6.2864100079
  - # 9
    frequency:    6.5755786458
  - # 10
    frequency:    8.0333317480
  - # 11
    frequency:    9.9533733121
  - # 12
    frequency:   11.3160836269
  - # 13
    frequency:   11.7325836348
  - # 14
    frequency:   16.8815601140
  - # 15
    frequency:   17.6580549762

- q-position: [    0.1818182,    0.0000000,    0.0000000 ]
  distance:    0.0616410
  band:
  - # 1
    frequency:    1.8563043215
  - # 2
    frequency:    2.6715033159
  - # 3
    frequency:    4.1838428185
  - # 4
    frequency:    4.3292645296
  - # 5
    frequency:    5.3668627425
  - # 6
    frequency:    5.7795971929
  - # 7
    frequency:    5.8666058274
  - # 8
    frequency:    6.2847826249
  - # 9
    frequency:    6.5734197123
  - # 10
    frequency:    8.0828960761
  - # 11
    frequency:    9.9389324601
  - # 12
    frequency:   11.2542218049
  - # 13
    frequency:   11.7356641792
  - # 14
    frequency:   16.9210377031
  - # 15
    frequency:   17.7077899339

- q-position: [    0.1868687,    0.0000000,    0.0000000 ]
  distance:    0.0633533
  band:
  - # 1
    frequency:    1.9331973207
  - # 2
    frequency:    2.7330171097
  - # 3
    frequency:    4.2761832630
  - # 4
    frequency:    4.3432940026
  - # 5
    frequency:    5.4144026330
  - # 6
    frequency:    5.7825979949
  - # 7
    frequency:    5.8682740822
  - # 8
    frequency:    6.2830476313
  - # 9
    frequency:    6.5713835579
  - # 10
    frequency:    8.1318258856
  - # 11
    frequency:    9.9251275512
  - # 12
    frequency:   11.1923121274
  - # 13
    frequency:   11.7378429535
  - # 14
    frequency:   16.9264318695
  - # 15
    frequency:   17.7829440973

- q-position: [    0.1919192,    0.0000000,    0.0000000 ]
  distance:    0.0650655
  band:
  - # 1
    frequency:    2.0103633379
  - # 2
    frequency:    2.7936818188
  - # 3
    frequency:    4.3572985398
  - # 4
    frequency:    4.3660238255
  - # 5
    frequency:    5.4611832543
  - # 6
    frequency:    5.7851928857
  - # 7
    frequency:    5.8710339019
  - # 8
    frequency:    6.2812353195
  - # 9
    frequency:    6.5695984482
  - # 10
    frequency:    8.1800879421
  - # 11
    frequency:    9.9120373481
  - # 12
    frequency:   11.1304848421
  - # 13
    frequency:   11.7391363334
  - # 14
    frequency:   16.9068149031
  - # 15
    frequency:   17.8743061051

- q-position: [    0.1969697,    0.0000000,    0.0000000 ]
  distance:    0.0667778
  band:
  - # 1
    frequency:    2.0877444978
  - # 2
    frequency:    2.8534897476
  - # 3
    frequency:    4.3712776897
  - # 4
    frequency:    4.4532355735
  - # 5
    frequency:    5.5070592017
  - # 6
    frequency:    5.7874077412
  - # 7
    frequency:    5.8750067984
  - # 8
    frequency:    6.2793764549
  - # 9
    frequency:    6.5682031262
  - # 10
    frequency:    8.2276237809
  - # 11
    frequency:    9.8997438389
  - # 12
    frequency:   11.0688733611
  - # 13
    frequency:   11.7395682322
  - # 14
    frequency:   16.8707520606
  - # 15
    frequency:   17.9732139474

- q-position: [    0.2020202,    0.0000000,    0.0000000 ]
  distance:    0.0684900
  band:
  - # 1
    frequency:    2.1652845528
  - # 2
    frequency:    2.9124333475
  - # 3
    frequency:    4.3852334450
  - # 4
    frequency:    4.5376875115
  - # 5
    frequency:    5.5518621205
  - # 6
    frequency:    5.7892754644
  - # 7
    frequency:    5.8803329754
  - # 8
    frequency:    6.2775018949
  - # 9
    frequency:    6.5673470279
  - # 10
    frequency:    8.2743486503
  - # 11
    frequency:    9.8883316945
  - # 12
    frequency:   11.0076160594
  - # 13
    frequency:   11.7391697800
  - # 14
    frequency:   16.8242195624
  - # 15
    frequency:   18.0736347597

- q-position: [    0.2070707,    0.0000000,    0.0000000 ]
  distance:    0.0702023
  band:
  - # 1
    frequency:    2.2429287376
  - # 2
    frequency:    2.9705052331
  - # 3
    frequency:    4.3991702384
  - # 4
    frequency:    4.6192472362
  - # 5
    frequency:    5.5953969881
  - # 6
    frequency:    5.7908357624
  - # 7
    frequency:    5.8871740486
  - # 8
    frequency:    6.2756422624
  - # 9
    frequency:    6.5671903305
  - # 10
    frequency:    8.3201506737
  - # 11
    frequency:    9.8778869754
  - # 12
    frequency:   10.9468586303
  - # 13
    frequency:   11.7379789434
  - # 14
    frequency:   16.7709556416
  - # 15
    frequency:   18.1718117221

- q-position: [    0.2121212,    0.0000000,    0.0000000 ]
  distance:    0.0719145
  band:
  - # 1
    frequency:    2.3206236343