nqpoint: 300    
npath: 3      
segment_nqpoint:
- 100
- 100
- 100
labels:
- [ 'G', 'M' ]
- [ 'M', 'K' ]
- [ 'K', 'G' ]
reciprocal_lattice:
- [   0.29360479,   0.16951281,   0.00000000 ] # a*
- [   0.00000000,   0.33902561,   0.00000000 ] # b*
- [   0.00000000,   0.00000000,   0.04294335 ] # c*
natom: 5      
lattice:
- [     3.405938947568429,     0.000000000000000,     0.000000000000000 ] # a
- [    -1.702969473784215,     2.949629652329707,     0.000000000000000 ] # b
- [     0.000000000000000,     0.000000000000000,    23.286494253719113 ] # c
points:
- symbol: C # 1
  coordinates: [  0.000000000000000,  0.000000000000000,  0.512107977234261 ]
  mass: 12.010700
- symbol: Cl # 2
  coordinates: [  0.666666984744047,  0.333332985985145,  0.386490121782183 ]
  mass: 35.453000
- symbol: F # 3
  coordinates: [  0.333332985432215,  0.666666983183674,  0.613509878217817 ]
  mass: 18.998403
- symbol: Sc # 4
  coordinates: [  0.333332985432215,  0.666666983183674,  0.459167814926605 ]
  mass: 44.955912
- symbol: Sc # 5
  coordinates: [  0.666666984744047,  0.333332985985145,  0.566119421274115 ]
  mass: 44.955912

phonon:
- q-position: [    0.0000000,    0.0000000,    0.0000000 ]
  distance:    0.0000000
  band:
  - # 1
    frequency:   -0.0000137632
  - # 2
    frequency:    0.0000001411
  - # 3
    frequency:    0.0000092836
  - # 4
    frequency:    4.2196317160
  - # 5
    frequency:    4.2196317161
  - # 6
    frequency:    5.9988932128
  - # 7
    frequency:    5.9988932128
  - # 8
    frequency:    6.3684505335
  - # 9
    frequency:    6.3684505335
  - # 10
    frequency:    6.4765679577
  - # 11
    frequency:   10.3241988009
  - # 12
    frequency:   12.0610271850
  - # 13
    frequency:   12.0610271851
  - # 14
    frequency:   12.6995541406
  - # 15
    frequency:   18.7511690260

- q-position: [    0.0050505,    0.0000000,    0.0000000 ]
  distance:    0.0017123
  band:
  - # 1
    frequency:    0.0019491532
  - # 2
    frequency:    0.0766020038
  - # 3
    frequency:    0.1298656548
  - # 4
    frequency:    4.2196374258
  - # 5
    frequency:    4.2212000603
  - # 6
    frequency:    5.9986174551
  - # 7
    frequency:    5.9996568672
  - # 8
    frequency:    6.3684410532
  - # 9
    frequency:    6.3701276652
  - # 10
    frequency:    6.4775907647
  - # 11
    frequency:   10.3238068049
  - # 12
    frequency:   12.0606956769
  - # 13
    frequency:   12.0654113747
  - # 14
    frequency:   12.6993699664
  - # 15
    frequency:   18.7498782980

- q-position: [    0.0101010,    0.0000000,    0.0000000 ]
  distance:    0.0034245
  band:
  - # 1
    frequency:    0.0077876326
  - # 2
    frequency:    0.1531697387
  - # 3
    frequency:    0.2596918600
  - # 4
    frequency:    4.2196552254
  - # 5
    frequency:    4.2258919325
  - # 6
    frequency:    5.9977917921
  - # 7
    frequency:    6.0018064654
  - # 8
    frequency:    6.3684121143
  - # 9
    frequency:    6.3751863474
  - # 10
    frequency:    6.4807047977
  - # 11
    frequency:   10.3226324375
  - # 12
    frequency:   12.0597022321
  - # 13
    frequency:   12.0784482166
  - # 14
    frequency:   12.6989262951
  - # 15
    frequency:   18.7460084163

- q-position: [    0.0151515,    0.0000000,    0.0000000 ]
  distance:    0.0051368
  band:
  - # 1
    frequency:    0.0174886892
  - # 2
    frequency:    0.2296690091
  - # 3
    frequency:    0.3894387995
  - # 4
    frequency:    4.2196871236
  - # 5
    frequency:    4.2336684224
  - # 6
    frequency:    5.9964210303
  - # 7
    frequency:    6.0049449363
  - # 8
    frequency:    6.3683622408
  - # 9
    frequency:    6.3836584295
  - # 10
    frequency:    6.4860729889
  - # 11
    frequency:   10.3206804832
  - # 12
    frequency:   12.0580500858
  - # 13
    frequency:   12.0997664928
  - # 14
    frequency:   12.6985728899
  - # 15
    frequency:   18.7395662867

- q-position: [    0.0202020,    0.0000000,    0.0000000 ]
  distance:    0.0068490
  band:
  - # 1
    frequency:    0.0310084269
  - # 2
    frequency:    0.3060657646
  - # 3
    frequency:    0.5190659344
  - # 4
    frequency:    4.2197364576
  - # 5
    frequency:    4.2444665142
  - # 6
    frequency:    5.9945131067
  - # 7
    frequency:    6.0084969885
  - # 8
    frequency:    6.3682890313
  - # 9
    frequency:    6.3954300746
  - # 10
    frequency:    6.4940574696
  - # 11
    frequency:   10.3179586707
  - # 12
    frequency:   12.0557446179
  - # 13
    frequency:   12.1286612809
  - # 14
    frequency:   12.6989762119
  - # 15
    frequency:   18.7305634159

- q-position: [    0.0252525,    0.0000000,    0.0000000 ]
  distance:    0.0085613
  band:
  - # 1
    frequency:    0.0482867845
  - # 2
    frequency:    0.3823261727
  - # 3
    frequency:    0.6485316542
  - # 4
    frequency:    4.2198078777
  - # 5
    frequency:    4.2582016207
  - # 6
    frequency:    5.9920789809
  - # 7
    frequency:    6.0118230822
  - # 8
    frequency:    6.3681892425
  - # 9
    frequency:    6.4100068402
  - # 10
    frequency:    6.5053550325
  - # 11
    frequency:   10.3144773472
  - # 12
    frequency:   12.0527933346
  - # 13
    frequency:   12.1639442541
  - # 14
    frequency:   12.7012652573
  - # 15
    frequency:   18.7190159079

- q-position: [    0.0303030,    0.0000000,    0.0000000 ]
  distance:    0.0102735
  band:
  - # 1
    frequency:    0.0692488390
  - # 2
    frequency:    0.4584166910
  - # 3
    frequency:    0.7777929464
  - # 4
    frequency:    4.2199073260
  - # 5
    frequency:    4.2747707382
  - # 6
    frequency:    5.9891324915
  - # 7
    frequency:    6.0143415959
  - # 8
    frequency:    6.3680589004
  - # 9
    frequency:    6.4262949520
  - # 10
    frequency:    6.5211126405
  - # 11
    frequency:   10.3102490955
  - # 12
    frequency:   12.0492058422
  - # 13
    frequency:   12.2037040235
  - # 14
    frequency:   12.7072661906
  - # 15
    frequency:   18.7049444612

- q-position: [    0.0353535,    0.0000000,    0.0000000 ]
  distance:    0.0119858
  band:
  - # 1
    frequency:    0.0938063616
  - # 2
    frequency:    0.5343041386
  - # 3
    frequency:    0.9068050855
  - # 4
    frequency:    4.2200420076
  - # 5
    frequency:    4.2940559274
  - # 6
    frequency:    5.9856901842
  - # 7
    frequency:    6.0156230748
  - # 8
    frequency:    6.3678934317
  - # 9
    frequency:    6.4426967399
  - # 10
    frequency:    6.5427598939
  - # 11
    frequency:   10.3052883451
  - # 12
    frequency:   12.0449938135
  - # 13
    frequency:   12.2450058958
  - # 14
    frequency:   12.7197967782
  - # 15
    frequency:   18.6883743667

- q-position: [    0.0404040,    0.0000000,    0.0000000 ]
  distance:    0.0136980
  band:
  - # 1
    frequency:    0.1218595503
  - # 2
    frequency:    0.6099557663
  - # 3
    frequency:    1.0355213459
  - # 4
    frequency:    4.2202203576
  - # 5
    frequency:    4.3159278396
  - # 6
    frequency:    5.9817711168
  - # 7
    frequency:    6.0154310102
  - # 8
    frequency:    6.3676878098
  - # 9
    frequency:    6.4577856785
  - # 10
    frequency:    6.5713171622
  - # 11
    frequency:   10.2996110223
  - # 12
    frequency:   12.0401709464
  - # 13
    frequency:   12.2837502516
  - # 14
    frequency:   12.7428018790
  - # 15
    frequency:   18.6693355118

- q-position: [    0.0454545,    0.0000000,    0.0000000 ]
  distance:    0.0154103
  band:
  - # 1
    frequency:    0.1532988638
  - # 2
    frequency:    0.6853393273
  - # 3
    frequency:    1.1638927392
  - # 4
    frequency:    4.2204520003
  - # 5
    frequency:    4.3402490638
  - # 6
    frequency:    5.9773966506
  - # 7
    frequency:    6.0137088592
  - # 8
    frequency:    6.3674367077
  - # 9
    frequency:    6.4709977329
  - # 10
    frequency:    6.6067415227
  - # 11
    frequency:   10.2932342688
  - # 12
    frequency:   12.0347529134
  - # 13
    frequency:   12.3152400573
  - # 14
    frequency:   12.7807799941
  - # 15
    frequency:   18.6478623904

- q-position: [    0.0505051,    0.0000000,    0.0000000 ]
  distance:    0.0171225
  band:
  - # 1
    frequency:    0.1880068803
  - # 2
    frequency:    0.7604231448
  - # 3
    frequency:    1.2918677798
  - # 4
    frequency:    4.2207477033
  - # 5
    frequency:    4.3668771379
  - # 6
    frequency:    5.9725902336
  - # 7
    frequency:    6.0105343171
  - # 8
    frequency:    6.3671346532
  - # 9
    frequency:    6.4825149631
  - # 10
    frequency:    6.6481121609
  - # 11
    frequency:   10.2861762424
  - # 12
    frequency:   12.0287573034
  - # 13
    frequency:   12.3358086367
  - # 14
    frequency:   12.8371502783
  - # 15
    frequency:   18.6239941265

- q-position: [    0.0555556,    0.0000000,    0.0000000 ]
  distance:    0.0188348
  band:
  - # 1
    frequency:    0.2258601164
  - # 2
    frequency:    0.8351761800
  - # 3
    frequency:    1.4193922777
  - # 4
    frequency:    4.2211193255
  - # 5
    frequency:    4.3956671392
  - # 6
    frequency:    5.9673771835
  - # 7
    frequency:    6.0060661782
  - # 8
    frequency:    6.3667761792
  - # 9
    frequency:    6.4927393279
  - # 10
    frequency:    6.6942307641
  - # 11
    frequency:   10.2784560013
  - # 12
    frequency:   12.0222035547
  - # 13
    frequency:   12.3443545093
  - # 14
    frequency:   12.9127136907
  - # 15
    frequency:   18.5977745144

- q-position: [    0.0606061,    0.0000000,    0.0000000 ]
  distance:    0.0205470
  band:
  - # 1
    frequency:    0.2667307489
  - # 2
    frequency:    0.9095680977
  - # 3
    frequency:    1.5464091621
  - # 4
    frequency:    4.2215797592
  - # 5
    frequency:    4.4264738271
  - # 6
    frequency:    5.9617844735
  - # 7
    frequency:    6.0005002373
  - # 8
    frequency:    6.3663559659
  - # 9
    frequency:    6.5020011149
  - # 10
    frequency:    6.7439750983
  - # 11
    frequency:   10.2700934614
  - # 12
    frequency:   12.0151128781
  - # 13
    frequency:   12.3420982400
  - # 14
    frequency:   13.0058937295
  - # 15
    frequency:   18.5692520841

- q-position: [    0.0656566,    0.0000000,    0.0000000 ]
  distance:    0.0222593
  band:
  - # 1
    frequency:    0.3104881973
  - # 2
    frequency:    0.9835693298
  - # 3
    frequency:    1.6728583361
  - # 4
    frequency:    4.2221428666
  - # 5
    frequency:    4.4591533527
  - # 6
    frequency:    5.9558405269
  - # 7
    frequency:    5.9940395805
  - # 8
    frequency:    6.3658689722
  - # 9
    frequency:    6.5105095015
  - # 10
    frequency:    6.7963923063
  - # 11
    frequency:   10.2611094127
  - # 12
    frequency:   12.0075081715
  - # 13
    frequency:   12.3311409294
  - # 14
    frequency:   13.1141773768
  - # 15
    frequency:   18.5384802013

- q-position: [    0.0707071,    0.0000000,    0.0000000 ]
  distance:    0.0239715
  band:
  - # 1
    frequency:    0.3570005372
  - # 2
    frequency:    1.0571511373
  - # 3
    frequency:    1.7986765661
  - # 4
    frequency:    4.2228234106
  - # 5
    frequency:    4.4935645750
  - # 6
    frequency:    5.9495750219
  - # 7
    frequency:    5.9868777432
  - # 8
    frequency:    6.3653105535
  - # 9
    frequency:    6.5183817794
  - # 10
    frequency:    6.8506966370
  - # 11
    frequency:   10.2515255778
  - # 12
    frequency:   11.9994139247
  - # 13
    frequency:   12.3134153407
  - # 14
    frequency:   13.2351653453
  - # 15
    frequency:   18.5055172149

- q-position: [    0.0757576,    0.0000000,    0.0000000 ]
  distance:    0.0256838
  band:
  - # 1
    frequency:    0.4061357262
  - # 2
    frequency:    1.1302856694
  - # 3
    frequency:    1.9237974069
  - # 4
    frequency:    4.2236369808
  - # 5
    frequency:    4.5295700348
  - # 6
    frequency:    5.9430187093
  - # 7
    frequency:    5.9791909067
  - # 8
    frequency:    6.3646765660
  - # 9
    frequency:    6.5256776603
  - # 10
    frequency:    6.9062490508
  - # 11
    frequency:   10.2413646985
  - # 12
    frequency:   11.9908561148
  - # 13
    frequency:   12.2903743282
  - # 14
    frequency:   13.3668868780
  - # 15
    frequency:   18.4704266681

- q-position: [    0.0808081,    0.0000000,    0.0000000 ]
  distance:    0.0273960
  band:
  - # 1
    frequency:    0.4577626381
  - # 2
    frequency:    1.2029460199
  - # 3
    frequency:    2.0481511671
  - # 4
    frequency:    4.2245999139
  - # 5
    frequency:    4.5670366358
  - # 6
    frequency:    5.9362032416
  - # 7
    frequency:    5.9711355386
  - # 8
    frequency:    6.3639634572
  - # 9
    frequency:    6.5324234672
  - # 10
    frequency:    6.9625377876
  - # 11
    frequency:   10.2306506373
  - # 12
    frequency:   11.9818620912
  - # 13
    frequency:   12.2630366493
  - # 14
    frequency:   13.5077587818
  - # 15
    frequency:   18.4332775969

- q-position: [    0.0858586,    0.0000000,    0.0000000 ]
  distance:    0.0291083
  band:
  - # 1
    frequency:    0.5117519064
  - # 2
    frequency:    1.2751062810
  - # 3
    frequency:    2.1716649169
  - # 4
    frequency:    4.2257292101
  - # 5
    frequency:    4.6058360826
  - # 6
    frequency:    5.9291610165
  - # 7
    frequency:    5.9628489108
  - # 8
    frequency:    6.3631683442
  - # 9
    frequency:    6.5386272567
  - # 10
    frequency:    7.0191619096
  - # 11
    frequency:   10.2194084854
  - # 12
    frequency:   11.9724604523
  - # 13
    frequency:   12.2321092570
  - # 14
    frequency:   13.6564692328
  - # 15
    frequency:   18.3941449456

- q-position: [    0.0909091,    0.0000000,    0.0000000 ]
  distance:    0.0308205
  band:
  - # 1
    frequency:    0.5679765885
  - # 2
    frequency:    1.3467415926
  - # 3
    frequency:    2.2942625423
  - # 4
    frequency:    4.2270424441
  - # 5
    frequency:    4.6458451135
  - # 6
    frequency:    5.9219250303
  - # 7
    frequency:    5.9544509186
  - # 8
    frequency:    6.3622890804
  - # 9
    frequency:    6.5442880137
  - # 10
    frequency:    7.0758168663
  - # 11
    frequency:   10.2076646727
  - # 12
    frequency:   11.9626809116
  - # 13
    frequency:   12.1980915732
  - # 14
    frequency:   13.8118804061
  - # 15
    frequency:   18.3531101430

- q-position: [    0.0959596,    0.0000000,    0.0000000 ]
  distance:    0.0325328
  band:
  - # 1
    frequency:    0.6263126656
  - # 2
    frequency:    1.4178281890
  - # 3
    frequency:    2.4158648486
  - # 4
    frequency:    4.2285576734
  - # 5
    frequency:    4.6869455614
  - # 6
    frequency:    5.9145287424
  - # 7
    frequency:    5.9460463273
  - # 8
    frequency:    6.3613243130
  - # 9
    frequency:    6.5494012824
  - # 10
    frequency:    7.1322812441
  - # 11
    frequency:   10.1954470746
  - # 12
    frequency:   11.9525541554
  - # 13
    frequency:   12.1613477880
  - # 14
    frequency:   13.9729633960
  - # 15
    frequency:   18.3102618973

- q-position: [    0.1010101,    0.0000000,    0.0000000 ]
  distance:    0.0342450
  band:
  - # 1
    frequency:    0.6866393957
  - # 2
    frequency:    1.4883434409
  - # 3
    frequency:    2.5363897172
  - # 4
    frequency:    4.2302933417
  - # 5
    frequency:    4.7290242682
  - # 6
    frequency:    5.9070059493
  - # 7
    frequency:    5.9377270123
  - # 8
    frequency:    6.3602735321
  - # 9
    frequency:    6.5539626965
  - # 10
    frequency:    7.1884043158
  - # 11
    frequency:   10.1827851184
  - # 12
    frequency:   11.9421116917
  - # 13
    frequency:   12.1221538690
  - # 14
    frequency:   14.1387582517
  - # 15
    frequency:   18.2656972938

- q-position: [    0.1060606,    0.0000000,    0.0000000 ]
  distance:    0.0359573
  band:
  - # 1
    frequency:    0.7488395405
  - # 2
    frequency:    1.5582658928
  - # 3
    frequency:    2.6557523170
  - # 4
    frequency:    4.2322681808
  - # 5
    frequency:    4.7719728709
  - # 6
    frequency:    5.8993906642
  - # 7
    frequency:    5.9295740050
  - # 8
    frequency:    6.3591371144
  - # 9
    frequency:    6.5579702624
  - # 10
    frequency:    7.2440942967
  - # 11
    frequency:   10.1697098868
  - # 12
    frequency:   11.9313856914
  - # 13
    frequency:   12.0807276576
  - # 14
    frequency:   14.3083502704
  - # 15
    frequency:   18.2195233147

- q-position: [    0.1111111,    0.0000000,    0.0000000 ]
  distance:    0.0376695
  band:
  - # 1
    frequency:    0.8127994866
  - # 2
    frequency:    1.6275752957
  - # 3
    frequency:    2.7738653727
  - # 4
    frequency:    4.2345011086
  - # 5
    frequency:    4.8156874751
  - # 6
    frequency:    5.8917170038
  - # 7
    frequency:    5.9216592854
  - # 8
    frequency:    6.3579163610
  - # 9
    frequency:    6.5614258907
  - # 10
    frequency:    7.2993073589
  - # 11
    frequency:   10.1562542242
  - # 12
    frequency:   11.9204088222
  - # 13
    frequency:   12.0372482285
  - # 14
    frequency:   14.4808559141
  - # 15
    frequency:   18.1718589556

- q-position: [    0.1161616,    0.0000000,    0.0000000 ]
  distance:    0.0393818
  band:
  - # 1
    frequency:    0.8784092785
  - # 2
    frequency:    1.6962526354
  - # 3
    frequency:    2.8906394910
  - # 4
    frequency:    4.2370111256
  - # 5
    frequency:    4.8600682249
  - # 6
    frequency:    5.8840190779
  - # 7
    frequency:    5.9140473290
  - # 8
    frequency:    6.3566135320
  - # 9
    frequency:    6.5643364600
  - # 10
    frequency:    7.3540374904
  - # 11
    frequency:   10.1424528474
  - # 12
    frequency:   11.9092140768
  - # 13
    frequency:   11.9918685114
  - # 14
    frequency:   14.6554138883
  - # 15
    frequency:   18.1228381978

- q-position: [    0.1212121,    0.0000000,    0.0000000 ]
  distance:    0.0410940
  band:
  - # 1
    frequency:    0.9455625845
  - # 2
    frequency:    1.7642801542
  - # 3
    frequency:    3.0059835429
  - # 4
    frequency:    4.2398172108
  - # 5
    frequency:    4.9050187766
  - # 6
    frequency:    5.8763308827
  - # 7
    frequency:    5.9067964381
  - # 8
    frequency:    6.3552318775
  - # 9
    frequency:    6.5667145840
  - # 10
    frequency:    7.4083072753
  - # 11
    frequency:   10.1283424649
  - # 12
    frequency:   11.8978345955
  - # 13
    frequency:   11.9447236593
  - # 14
    frequency:   14.8311783836
  - # 15
    frequency:   18.0726142249

- q-position: [    0.1262626,    0.0000000,    0.0000000 ]
  distance:    0.0428063
  band:
  - # 1
    frequency:    1.0141566094
  - # 2
    frequency:    1.8316413680
  - # 3
    frequency:    3.1198050996
  - # 4
    frequency:    4.2429382158
  - # 5
    frequency:    4.9504456800
  - # 6
    frequency:    5.8686861950
  - # 7
    frequency:    5.8999599026
  - # 8
    frequency:    6.3537756657
  - # 9
    frequency:    6.5685791797
  - # 10
    frequency:    7.4621596333
  - # 11
    frequency:   10.1139619093
  - # 12
    frequency:   11.8863034859
  - # 13
    frequency:   11.8959367001
  - # 14
    frequency:   15.0073122935
  - # 15
    frequency:   18.0213654842

- q-position: [    0.1313131,    0.0000000,    0.0000000 ]
  distance:    0.0445185
  band:
  - # 1
    frequency:    1.0840919693
  - # 2
    frequency:    1.8983210770
  - # 3
    frequency:    3.2320109176
  - # 4
    frequency:    4.2463927592
  - # 5
    frequency:    4.9962576690
  - # 6
    frequency:    5.8611184674
  - # 7
    frequency:    5.8935870326
  - # 8
    frequency:    6.3522502082
  - # 9
    frequency:    6.5699559029
  - # 10
    frequency:    7.5156505177
  - # 11
    frequency:   10.0993522885
  - # 12
    frequency:   11.8456224228
  - # 13
    frequency:   11.8746536407
  - # 14
    frequency:   15.1829785202
  - # 15
    frequency:   17.9693045299

- q-position: [    0.1363636,    0.0000000,    0.0000000 ]
  distance:    0.0462308
  band:
  - # 1
    frequency:    1.1552725424
  - # 2
    frequency:    1.9643053707
  - # 3
    frequency:    3.3425074631
  - # 4
    frequency:    4.2501991219
  - # 5
    frequency:    5.0423648600
  - # 6
    frequency:    5.8536607225
  - # 7
    frequency:    5.8877241031
  - # 8
    frequency:    6.3506618810
  - # 9
    frequency:    6.5708774896
  - # 10
    frequency:    7.5688425331
  - # 11
    frequency:   10.0845571588
  - # 12
    frequency:   11.7938901027
  - # 13
    frequency:   11.8629175547
  - # 14
    frequency:   15.3573273174
  - # 15
    frequency:   17.9166911471

- q-position: [    0.1414141,    0.0000000,    0.0000000 ]
  distance:    0.0479430
  band:
  - # 1
    frequency:    1.2276053031
  - # 2
    frequency:    2.0295816263
  - # 3
    frequency:    3.4512014674
  - # 4
    frequency:    4.2543751434
  - # 5
    frequency:    5.0886778549
  - # 6
    frequency:    5.8463454476
  - # 7
    frequency:    5.8824152516
  - # 8
    frequency:    6.3490181417
  - # 9
    frequency:    6.5713840335
  - # 10
    frequency:    7.6217994067
  - # 11
    frequency:   10.0696227267
  - # 12
    frequency:   11.7408454499
  - # 13
    frequency:   11.8511271431
  - # 14
    frequency:   15.5294769239
  - # 15
    frequency:   17.8638521922

- q-position: [    0.1464646,    0.0000000,    0.0000000 ]
  distance:    0.0496553
  band:
  - # 1
    frequency:    1.3010001508
  - # 2
    frequency:    2.0941385010
  - # 3
    frequency:    3.5580004956
  - # 4
    frequency:    4.2589381195
  - # 5
    frequency:    5.1351067430
  - # 6
    frequency:    5.8392044875
  - # 7
    frequency:    5.8777033635
  - # 8
    frequency:    6.3473275403
  - # 9
    frequency:    6.5715232207
  - # 10
    frequency:    7.6745812301
  - # 11
    frequency:   10.0545980829
  - # 12
    frequency:   11.6865920364
  - # 13
    frequency:   11.8393135644
  - # 14
    frequency:   15.6984833034
  - # 15
    frequency:   17.8112121770

- q-position: [    0.1515152,    0.0000000,    0.0000000 ]
  distance:    0.0513675
  band:
  - # 1
    frequency:    1.3753697390
  - # 2
    frequency:    2.1579659186
  - # 3
    frequency:    3.6628135133
  - # 4
    frequency:    4.2639047031
  - # 5
    frequency:    5.1815599918
  - # 6
    frequency:    5.8322689361
  - # 7
    frequency:    5.8736309821
  - # 8
    frequency:    6.3455997232
  - # 9
    frequency:    6.5713505402
  - # 10
    frequency:    7.7272403769
  - # 11
    frequency:   10.0395354729
  - # 12
    frequency:   11.6312323705
  - # 13
    frequency:   11.8275070470
  - # 14
    frequency:   15.8632922071
  - # 15
    frequency:   17.7593413119

- q-position: [    0.1565657,    0.0000000,    0.0000000 ]
  distance:    0.0530798
  band:
  - # 1
    frequency:    1.4506293089
  - # 2
    frequency:    2.2210550486
  - # 3
    frequency:    3.7655514265
  - # 4
    frequency:    4.2692908079
  - # 5
    frequency:    5.2279432136
  - # 6
    frequency:    5.8255690270
  - # 7
    frequency:    5.8702412823
  - # 8
    frequency:    6.3438454290
  - # 9
    frequency:    6.5709294829
  - # 10
    frequency:    7.7798180029
  - # 11
    frequency:   10.0244906065
  - # 12
    frequency:   11.5748687386
  - # 13
    frequency:   11.8157367242
  - # 14
    frequency:   16.0226623970
  - # 15
    frequency:   17.7090321551

- q-position: [    0.1616162,    0.0000000,    0.0000000 ]
  distance:    0.0547920
  band:
  - # 1
    frequency:    1.5266965335
  - # 2
    frequency:    2.2833982801
  - # 3
    frequency:    3.8661275707
  - # 4
    frequency:    4.2751115150
  - # 5
    frequency:    5.2741577918
  - # 6
    frequency:    5.8191340235
  - # 7
    frequency:    5.8675791490
  - # 8
    frequency:    6.3420764729
  - # 9
    frequency:    6.5703317417
  - # 10
    frequency:    7.8323410361
  - # 11
    frequency:   10.0095230078
  - # 12
    frequency:   11.5176038984
  - # 13
    frequency:   11.8040304784
  - # 14
    frequency:   16.1750422658
  - # 15
    frequency:   17.6614226495

- q-position: [    0.1666667,    0.0000000,    0.0000000 ]
  distance:    0.0565043
  band:
  - # 1
    frequency:    1.6034913721
  - # 2
    frequency:    2.3449891887
  - # 3
    frequency:    3.9644581203
  - # 4
    frequency:    4.2813809843
  - # 5
    frequency:    5.3200993416
  - # 6
    frequency:    5.8129921071
  - # 7
    frequency:    5.8656924108
  - # 8
    frequency:    6.3403057200
  - # 9
    frequency:    6.5696374195
  - # 10
    frequency:    7.8848195752
  - # 11
    frequency:    9.9946963996
  - # 12
    frequency:   11.4595416901
  - # 13
    frequency:   11.7924147966
  - # 14
    frequency:   16.3183750299
  - # 15
    frequency:   17.6181903983

- q-position: [    0.1717172,    0.0000000,    0.0000000 ]
  distance:    0.0582165
  band:
  - # 1
    frequency:    1.6809359387
  - # 2
    frequency:    2.4058224983
  - # 3
    frequency:    4.0604623873
  - # 4
    frequency:    4.2881123704
  - # 5
    frequency:    5.3656559776
  - # 6
    frequency:    5.8071702667
  - # 7
    frequency:    5.8646332871
  - # 8
    frequency:    6.3385470443
  - # 9
    frequency:    6.5689352439
  - # 10
    frequency:    7.9372446244
  - # 11
    frequency:    9.9800791159
  - # 12
    frequency:   11.4007876180
  - # 13
    frequency:   11.7809146387
  - # 14
    frequency:   16.4498125899
  - # 15
    frequency:   17.5818381235

- q-position: [    0.1767677,    0.0000000,    0.0000000 ]
  distance:    0.0599288
  band:
  - # 1
    frequency:    1.7589543837
  - # 2
    frequency:    2.4658940360
  - # 3
    frequency:    4.1540629780
  - # 4
    frequency:    4.2953177420
  - # 5
    frequency:    5.4107063546
  - # 6
    frequency:    5.8016941875
  - # 7
    frequency:    5.8644601193
  - # 8
    frequency:    6.3368152732
  - # 9
    frequency:    6.5683227823
  - # 10
    frequency:    7.9895861069
  - # 11
    frequency:    9.9657445208
  - # 12
    frequency:   11.3414494529
  - # 13
    frequency:   11.7695533213
  - # 14
    frequency:   16.5653833028
  - # 15
    frequency:   17.5560250968

- q-position: [    0.1818182,    0.0000000,    0.0000000 ]
  distance:    0.0616410
  band:
  - # 1
    frequency:    1.8374727899
  - # 2
    frequency:    2.5252006821
  - # 3
    frequency:    4.2451857796
  - # 4
    frequency:    4.3030080085
  - # 5
    frequency:    5.4551174444
  - # 6
    frequency:    5.7965881419
  - # 7
    frequency:    5.8652394671
  - # 8
    frequency:    6.3351261152
  - # 9
    frequency:    6.5679066334
  - # 10
    frequency:    8.0417911147
  - # 11
    frequency:    9.9517714022
  - # 12
    frequency:   11.2816379034
  - # 13
    frequency:   11.7583524176
  - # 14
    frequency:   16.6599033584
  - # 15
    frequency:   17.5456548842

- q-position: [    0.1868687,    0.0000000,    0.0000000 ]
  distance:    0.0633533
  band:
  - # 1
    frequency:    1.9164190806
  - # 2
    frequency:    2.5837403144
  - # 3
    frequency:    4.3111928499
  - # 4
    frequency:    4.3337597524
  - # 5
    frequency:    5.4987420323
  - # 6
    frequency:    5.7918748813
  - # 7
    frequency:    5.8670486453
  - # 8
    frequency:    6.3334960702
  - # 9
    frequency:    6.5678025545
  - # 10
    frequency:    8.0937823716
  - # 11
    frequency:    9.9382442851
  - # 12
    frequency:   11.2214674107
  - # 13
    frequency:   11.7473316752
  - # 14
    frequency:   16.7278847718
  - # 15
    frequency:   17.5559664214

- q-position: [    0.1919192,    0.0000000,    0.0000000 ]
  distance:    0.0650655
  band:
  - # 1
    frequency:    1.9957229401
  - # 2
    frequency:    2.6415117477
  - # 3
    frequency:    4.3198806535
  - # 4
    frequency:    4.4197165131
  - # 5
    frequency:    5.5414159707
  - # 6
    frequency:    5.7875755315
  - # 7
    frequency:    5.8699787394
  - # 8
    frequency:    6.3319423218
  - # 9
    frequency:    6.5681354558
  - # 10
    frequency:    8.1454569100
  - # 11
    frequency:    9.9252535789
  - # 12
    frequency:   11.1610571346
  - # 13
    frequency:   11.7365089532
  - # 14
    frequency:   16.7660372306
  - # 15
    frequency:   17.5900312061

- q-position: [    0.1969697,    0.0000000,    0.0000000 ]
  distance:    0.0667778
  band:
  - # 1
    frequency:    2.0753157445
  - # 2
    frequency:    2.6985146674
  - # 3
    frequency:    4.3290784558
  - # 4
    frequency:    4.5029897097
  - # 5
    frequency:    5.5829553922
  - # 6
    frequency:    5.7837094921
  - # 7
    frequency:    5.8741379924
  - # 8
    frequency:    6.3304826120
  - # 9
    frequency:    6.5690391612
  - # 10
    frequency:    8.1966849896
  - # 11
    frequency:    9.9128954282
  - # 12
    frequency:   11.1005322132
  - # 13
    frequency:   11.7259001783
  - # 14
    frequency:   16.7757161288
  - # 15
    frequency:   17.6463042933

- q-position: [    0.2020202,    0.0000000,    0.0000000 ]
  distance:    0.0684900
  band:
  - # 1
    frequency:    2.1551305018
  - # 2
    frequency:    2.7547495600
  - # 3
    frequency:    4.3387918900
  - # 4
    frequency:    4.5835142121
  - # 5
    frequency:    5.6231544835
  - # 6
    frequency:    5.7802943398
  - # 7
    frequency:    5.8796550784
  - # 8
    frequency:    6.3291350968
  - # 9
    frequency:    6.5706557906
  - # 10
    frequency:    8.2473093226
  - # 11
    frequency:    9.9012710719
  - # 12
    frequency:   11.0400254109
  - # 13
    frequency:   11.7155193217
  - # 14
    frequency:   16.7622751253
  - # 15
    frequency:   17.7192707718

- q-position: [    0.2070707,    0.0000000,    0.0000000 ]
  distance:    0.0702023
  band:
  - # 1
    frequency:    2.2351017977
  - # 2
    frequency:    2.8102176381
  - # 3
    frequency:    4.3490251396
  - # 4
    frequency:    4.6612251716
  - # 5
    frequency:    5.6617853288
  - # 6
    frequency:    5.7773457384
  - # 7
    frequency:    5.8866808920
  - # 8
    frequency:    6.3279181847
  - # 9
    frequency:    6.5731345732
  - # 10
    frequency:    8.2971447212
  - # 11
    frequency:    9.8904854289
  - # 12
    frequency:   10.9796793068
  - # 13
    frequency:   11.7053783965
  - # 14
    frequency:   16.7320732937
  - # 15
    frequency:   17.8024376661

- q-position: [    0.2121212,    0.0000000,    0.0000000 ]
  distance:    0.0719145
  band:
  - # 1
    frequency:    2.3151657484