nqpoint: 300    
npath: 3      
segment_nqpoint:
- 100
- 100
- 100
labels:
- [ 'G', 'M' ]
- [ 'M', 'K' ]
- [ 'K', 'G' ]
reciprocal_lattice:
- [   0.29147539,   0.16828340,   0.00000000 ] # a*
- [   0.00000000,   0.33656679,   0.00000000 ] # b*
- [   0.00000000,   0.00000000,   0.04000264 ] # c*
natom: 6      
lattice:
- [     3.430821374999869,     0.000000000000000,     0.000000000000000 ] # a
- [    -1.715410687499934,     2.971178466565299,     0.000000000000000 ] # b
- [     0.000000000000000,     0.000000000000000,    24.998350953053869 ] # c
points:
- symbol: C # 1
  coordinates: [  0.000000000000000,  0.000000000000000,  0.475918288155292 ]
  mass: 12.010700
- symbol: Cl # 2
  coordinates: [  0.333332985432215,  0.666666983183674,  0.639976252157523 ]
  mass: 35.453000
- symbol: Cl # 3
  coordinates: [  0.666666984744047,  0.333332985985145,  0.360023747842477 ]
  mass: 35.453000
- symbol: O # 4
  coordinates: [  0.333332985432215,  0.666666983183674,  0.569946742366979 ]
  mass: 15.999400
- symbol: Sc # 5
  coordinates: [  0.333332985432215,  0.666666983183674,  0.427367566022730 ]
  mass: 44.955912
- symbol: Sc # 6
  coordinates: [  0.666666984744047,  0.333332985985145,  0.526883834398200 ]
  mass: 44.955912

phonon:
- q-position: [    0.0000000,    0.0000000,    0.0000000 ]
  distance:    0.0000000
  band:
  - # 1
    frequency:   -1.3469877612
  - # 2
    frequency:   -1.3469877608
  - # 3
    frequency:   -0.0000371716
  - # 4
    frequency:    0.0000001165
  - # 5
    frequency:    0.0000286624
  - # 6
    frequency:    3.8273002869
  - # 7
    frequency:    3.8273002870
  - # 8
    frequency:    5.1135733820
  - # 9
    frequency:    5.9261362706
  - # 10
    frequency:    5.9261362707
  - # 11
    frequency:    8.2999089977
  - # 12
    frequency:    8.2999089978
  - # 13
    frequency:    8.3493112921
  - # 14
    frequency:   11.4718080578
  - # 15
    frequency:   11.4718080579
  - # 16
    frequency:   11.5804874037
  - # 17
    frequency:   15.8403968867
  - # 18
    frequency:   18.8442880614

- q-position: [    0.0050505,    0.0000000,    0.0000000 ]
  distance:    0.0016998
  band:
  - # 1
    frequency:   -1.3460250495
  - # 2
    frequency:   -1.3428924870
  - # 3
    frequency:    0.0023567304
  - # 4
    frequency:    0.0689408063
  - # 5
    frequency:    0.1250306272
  - # 6
    frequency:    3.8274552484
  - # 7
    frequency:    3.8287820867
  - # 8
    frequency:    5.1135940440
  - # 9
    frequency:    5.9261254304
  - # 10
    frequency:    5.9267076616
  - # 11
    frequency:    8.2998900718
  - # 12
    frequency:    8.3000875762
  - # 13
    frequency:    8.3507820983
  - # 14
    frequency:   11.4715310819
  - # 15
    frequency:   11.4734943831
  - # 16
    frequency:   11.5832934955
  - # 17
    frequency:   15.8401705926
  - # 18
    frequency:   18.8430492468

- q-position: [    0.0101010,    0.0000000,    0.0000000 ]
  distance:    0.0033997
  band:
  - # 1
    frequency:   -1.3431365885
  - # 2
    frequency:   -1.3305960773
  - # 3
    frequency:    0.0094372137
  - # 4
    frequency:    0.1378723203
  - # 5
    frequency:    0.2502720363
  - # 6
    frequency:    3.8279204638
  - # 7
    frequency:    3.8332073441
  - # 8
    frequency:    5.1136599135
  - # 9
    frequency:    5.9260932332
  - # 10
    frequency:    5.9284145203
  - # 11
    frequency:    8.2998327417
  - # 12
    frequency:    8.3005350937
  - # 13
    frequency:    8.3552440001
  - # 14
    frequency:   11.4707011426
  - # 15
    frequency:   11.4775355835
  - # 16
    frequency:   11.5927251300
  - # 17
    frequency:   15.8394922139
  - # 18
    frequency:   18.8393351557

- q-position: [    0.0151515,    0.0000000,    0.0000000 ]
  distance:    0.0050995
  band:
  - # 1
    frequency:   -1.3383212636
  - # 2
    frequency:   -1.3100625699
  - # 3
    frequency:    0.0212744936
  - # 4
    frequency:    0.2067846056
  - # 5
    frequency:    0.3759192273
  - # 6
    frequency:    3.8286969236
  - # 7
    frequency:    3.8405162689
  - # 8
    frequency:    5.1137826419
  - # 9
    frequency:    5.9260406467
  - # 10
    frequency:    5.9312355357
  - # 11
    frequency:    8.2997353479
  - # 12
    frequency:    8.3010497276
  - # 13
    frequency:    8.3627846438
  - # 14
    frequency:   11.4693212052
  - # 15
    frequency:   11.4813812284
  - # 16
    frequency:   11.6113179726
  - # 17
    frequency:   15.8383632571
  - # 18
    frequency:   18.8331528446

- q-position: [    0.0202020,    0.0000000,    0.0000000 ]
  distance:    0.0067993
  band:
  - # 1
    frequency:   -1.3315767710
  - # 2
    frequency:   -1.2812177269
  - # 3
    frequency:    0.0379350651
  - # 4
    frequency:    0.2756664598
  - # 5
    frequency:    0.5021361996
  - # 6
    frequency:    3.8297862660
  - # 7
    frequency:    3.8506112769
  - # 8
    frequency:    5.1139816498
  - # 9
    frequency:    5.9259692730
  - # 10
    frequency:    5.9351372221
  - # 11
    frequency:    8.2995951159
  - # 12
    frequency:    8.3014391623
  - # 13
    frequency:    8.3734126664
  - # 14
    frequency:   11.4673962120
  - # 15
    frequency:   11.4825368310
  - # 16
    frequency:   11.6415370093
  - # 17
    frequency:   15.8367862193
  - # 18
    frequency:   18.8245140682

- q-position: [    0.0252525,    0.0000000,    0.0000000 ]
  distance:    0.0084992
  band:
  - # 1
    frequency:   -1.3228989584
  - # 2
    frequency:   -1.2439267646
  - # 3
    frequency:    0.0595381142
  - # 4
    frequency:    0.3445048875
  - # 5
    frequency:    0.6290421559
  - # 6
    frequency:    3.8311907588
  - # 7
    frequency:    3.8633599075
  - # 8
    frequency:    5.1142841286
  - # 9
    frequency:    5.9258813339
  - # 10
    frequency:    5.9400767194
  - # 11
    frequency:    8.2994081438
  - # 12
    frequency:    8.3015938972
  - # 13
    frequency:    8.3869938335
  - # 14
    frequency:   11.4649330812
  - # 15
    frequency:   11.4799779794
  - # 16
    frequency:   11.6843556109
  - # 17
    frequency:   15.8347645670
  - # 18
    frequency:   18.8134352712

- q-position: [    0.0303030,    0.0000000,    0.0000000 ]
  distance:    0.0101990
  band:
  - # 1
    frequency:   -1.3122809224
  - # 2
    frequency:   -1.1979624334
  - # 3
    frequency:    0.0862884870
  - # 4
    frequency:    0.4132846774
  - # 5
    frequency:    0.7567006018
  - # 6
    frequency:    3.8329132740
  - # 7
    frequency:    3.8785985731
  - # 8
    frequency:    5.1147250375
  - # 9
    frequency:    5.9257796496
  - # 10
    frequency:    5.9460052585
  - # 11
    frequency:    8.2991693854
  - # 12
    frequency:    8.3014837693
  - # 13
    frequency:    8.4032668022
  - # 14
    frequency:   11.4619407053
  - # 15
    frequency:   11.4738852463
  - # 16
    frequency:   11.7395121174
  - # 17
    frequency:   15.8323027102
  - # 18
    frequency:   18.7999375772

- q-position: [    0.0353535,    0.0000000,    0.0000000 ]
  distance:    0.0118988
  band:
  - # 1
    frequency:   -1.2997118773
  - # 2
    frequency:   -1.1429650563
  - # 3
    frequency:    0.1185318299
  - # 4
    frequency:    0.4819881138
  - # 5
    frequency:    0.8851130374
  - # 6
    frequency:    3.8349572553
  - # 7
    frequency:    3.8961368683
  - # 8
    frequency:    5.1153470888
  - # 9
    frequency:    5.9256676121
  - # 10
    frequency:    5.9528719323
  - # 11
    frequency:    8.2988726311
  - # 12
    frequency:    8.3011233782
  - # 13
    frequency:    8.4218919390
  - # 14
    frequency:   11.4584299471
  - # 15
    frequency:   11.4647668611
  - # 16
    frequency:   11.8063778705
  - # 17
    frequency:   15.8294059705
  - # 18
    frequency:   18.7840467741

- q-position: [    0.0404040,    0.0000000,    0.0000000 ]
  distance:    0.0135987
  band:
  - # 1
    frequency:   -1.2851758065
  - # 2
    frequency:   -1.0784013849
  - # 3
    frequency:    0.1568477690
  - # 4
    frequency:    0.5505948371
  - # 5
    frequency:    1.0142185952
  - # 6
    frequency:    3.8373266793
  - # 7
    frequency:    3.9157621636
  - # 8
    frequency:    5.1162007063
  - # 9
    frequency:    5.9255491539
  - # 10
    frequency:    5.9606274156
  - # 11
    frequency:    8.2985104876
  - # 12
    frequency:    8.3005441312
  - # 13
    frequency:    8.4424944415
  - # 14
    frequency:   11.4530517728
  - # 15
    frequency:   11.4544136330
  - # 16
    frequency:   11.8843550665
  - # 17
    frequency:   15.8260805487
  - # 18
    frequency:   18.7657932996

- q-position: [    0.0454545,    0.0000000,    0.0000000 ]
  distance:    0.0152985
  band:
  - # 1
    frequency:   -1.2686499021
  - # 2
    frequency:   -1.0035436642
  - # 3
    frequency:    0.2022093648
  - # 4
    frequency:    0.6190818544
  - # 5
    frequency:    1.1438999143
  - # 6
    frequency:    3.8400260097
  - # 7
    frequency:    3.9372442362
  - # 8
    frequency:    5.1173439324
  - # 9
    frequency:    5.9254287119
  - # 10
    frequency:    5.9692273296
  - # 11
    frequency:    8.2980743568
  - # 12
    frequency:    8.2997803975
  - # 13
    frequency:    8.4646931864
  - # 14
    frequency:   11.4390333317
  - # 15
    frequency:   11.4499065420
  - # 16
    frequency:   11.9729251929
  - # 17
    frequency:   15.8223334938
  - # 18
    frequency:   18.7452122236

- q-position: [    0.0505051,    0.0000000,    0.0000000 ]
  distance:    0.0169983
  band:
  - # 1
    frequency:   -1.2501027820
  - # 2
    frequency:   -0.9175322790
  - # 3
    frequency:    0.2562517285
  - # 4
    frequency:    0.6874236958
  - # 5
    frequency:    1.2739941212
  - # 6
    frequency:    3.8430601466
  - # 7
    frequency:    3.9603397532
  - # 8
    frequency:    5.1188422515
  - # 9
    frequency:    5.9253111875
  - # 10
    frequency:    5.9786350277
  - # 11
    frequency:    8.2975544178
  - # 12
    frequency:    8.2988647714
  - # 13
    frequency:    8.4881192783
  - # 14
    frequency:   11.4229045972
  - # 15
    frequency:   11.4449253886
  - # 16
    frequency:   12.0716078840
  - # 17
    frequency:   15.8181726787
  - # 18
    frequency:   18.7223432330

- q-position: [    0.0555556,    0.0000000,    0.0000000 ]
  distance:    0.0186982
  band:
  - # 1
    frequency:   -1.2294924509
  - # 2
    frequency:   -0.8197006987
  - # 3
    frequency:    0.3216721997
  - # 4
    frequency:    0.7555926975
  - # 5
    frequency:    1.4043066367
  - # 6
    frequency:    3.8464343691
  - # 7
    frequency:    3.9847964915
  - # 8
    frequency:    5.1207682816
  - # 9
    frequency:    5.9252019034
  - # 10
    frequency:    5.9888236735
  - # 11
    frequency:    8.2969396125
  - # 12
    frequency:    8.2978273934
  - # 13
    frequency:    8.5124284995
  - # 14
    frequency:   11.4047957554
  - # 15
    frequency:   11.4394887991
  - # 16
    frequency:   12.1799203184
  - # 17
    frequency:   15.8136067903
  - # 18
    frequency:   18.6972306157

- q-position: [    0.0606061,    0.0000000,    0.0000000 ]
  distance:    0.0203980
  band:
  - # 1
    frequency:   -1.2067639411
  - # 2
    frequency:   -0.7105680929
  - # 3
    frequency:    0.4025266295
  - # 4
    frequency:    0.8235593899
  - # 5
    frequency:    1.5346251446
  - # 6
    frequency:    3.8501542739
  - # 7
    frequency:    4.0103572609
  - # 8
    frequency:    5.1232012765
  - # 9
    frequency:    5.9251065574
  - # 10
    frequency:    5.9997775730
  - # 11
    frequency:    8.2962176377
  - # 12
    frequency:    8.2966966405
  - # 13
    frequency:    8.5373097672
  - # 14
    frequency:   11.3847993267
  - # 15
    frequency:   11.4336172779
  - # 16
    frequency:   12.2973517669
  - # 17
    frequency:   15.8086453425
  - # 18
    frequency:   18.6699232492

- q-position: [    0.0656566,    0.0000000,    0.0000000 ]
  distance:    0.0220978
  band:
  - # 1
    frequency:   -1.1818465216
  - # 2
    frequency:   -0.5937272454
  - # 3
    frequency:    0.5031418891
  - # 4
    frequency:    0.8912929607
  - # 5
    frequency:    1.6647315281
  - # 6
    frequency:    3.8542257088
  - # 7
    frequency:    4.0367635688
  - # 8
    frequency:    5.1262263701
  - # 9
    frequency:    5.9250311745
  - # 10
    frequency:    6.0114927917
  - # 11
    frequency:    8.2953749464
  - # 12
    frequency:    8.2955000804
  - # 13
    frequency:    8.5624904328
  - # 14
    frequency:   11.3629855351
  - # 15
    frequency:   11.4273331644
  - # 16
    frequency:   12.4233508800
  - # 17
    frequency:   15.8032987252
  - # 18
    frequency:   18.6404745933

- q-position: [    0.0707071,    0.0000000,    0.0000000 ]
  distance:    0.0237977
  band:
  - # 1
    frequency:   -1.1546503024
  - # 2
    frequency:   -0.4758618878
  - # 3
    frequency:    0.6235619223
  - # 4
    frequency:    0.9587617627
  - # 5
    frequency:    1.7944105406
  - # 6
    frequency:    3.8586547030
  - # 7
    frequency:    4.0637591263
  - # 8
    frequency:    5.1299334858
  - # 9
    frequency:    5.9249820576
  - # 10
    frequency:    6.0239771418
  - # 11
    frequency:    8.2942653181
  - # 12
    frequency:    8.2943967594
  - # 13
    frequency:    8.5877388273
  - # 14
    frequency:   11.3394115194
  - # 15
    frequency:   11.4206605763
  - # 16
    frequency:   12.5573216989
  - # 17
    frequency:   15.7975783076
  - # 18
    frequency:   18.6089426902

- q-position: [    0.0757576,    0.0000000,    0.0000000 ]
  distance:    0.0254975
  band:
  - # 1
    frequency:   -1.1250619661
  - # 2
    frequency:   -0.3587441419
  - # 3
    frequency:    0.7558938539
  - # 4
    frequency:    1.0259338371
  - # 5
    frequency:    1.9234549644
  - # 6
    frequency:    3.8634473935
  - # 7
    frequency:    4.0910933391
  - # 8
    frequency:    5.1344158336
  - # 9
    frequency:    5.9249657376
  - # 10
    frequency:    6.0372496494
  - # 11
    frequency:    8.2930206496
  - # 12
    frequency:    8.2932670915
  - # 13
    frequency:    8.6128644282
  - # 14
    frequency:   11.3141269198
  - # 15
    frequency:   11.4136253387
  - # 16
    frequency:   12.6986252926
  - # 17
    frequency:   15.7914966228
  - # 18
    frequency:   18.5753901744

- q-position: [    0.0808081,    0.0000000,    0.0000000 ]
  distance:    0.0271973
  band:
  - # 1
    frequency:   -1.0929392271
  - # 2
    frequency:   -0.2247047490
  - # 3
    frequency:    0.8901451882
  - # 4
    frequency:    1.0927774264
  - # 5
    frequency:    2.0516676972
  - # 6
    frequency:    3.8686099500
  - # 7
    frequency:    4.1185249500
  - # 8
    frequency:    5.1397679273
  - # 9
    frequency:    5.9249889231
  - # 10
    frequency:    6.0513396167
  - # 11
    frequency:    8.2917955282
  - # 12
    frequency:    8.2919687930
  - # 13
    frequency:    8.6377160985
  - # 14
    frequency:   11.2871773452
  - # 15
    frequency:   11.4062548978
  - # 16
    frequency:   12.8465848202
  - # 17
    frequency:   15.7850676718
  - # 18
    frequency:   18.5398842961

- q-position: [    0.0858586,    0.0000000,    0.0000000 ]
  distance:    0.0288971
  band:
  - # 1
    frequency:   -1.0581034016
  - # 2
    frequency:    0.1359217607
  - # 3
    frequency:    1.0206955977
  - # 4
    frequency:    1.1592614535
  - # 5
    frequency:    2.1788615110
  - # 6
    frequency:    3.8741484973
  - # 7
    frequency:    4.1458259947
  - # 8
    frequency:    5.1460830808
  - # 9
    frequency:    5.9250584517
  - # 10
    frequency:    6.0662853897
  - # 11
    frequency:    8.2904836099
  - # 12
    frequency:    8.2906208758
  - # 13
    frequency:    8.6621789092
  - # 14
    frequency:   11.2586065885
  - # 15
    frequency:   11.3985782160
  - # 16
    frequency:   13.0004924137
  - # 17
    frequency:   15.7783074051
  - # 18
    frequency:   18.5024969626

- q-position: [    0.0909091,    0.0000000,    0.0000000 ]
  distance:    0.0305970
  band:
  - # 1
    frequency:   -1.0203291300
  - # 2
    frequency:    0.2920625579
  - # 3
    frequency:    1.1458554051
  - # 4
    frequency:    1.2253559534
  - # 5
    frequency:    2.3048572326
  - # 6
    frequency:    3.8800690376
  - # 7
    frequency:    4.1727862060
  - # 8
    frequency:    5.1534503848
  - # 9
    frequency:    5.9251812414
  - # 10
    frequency:    6.0821329194
  - # 11
    frequency:    8.2887922639
  - # 12
    frequency:    8.2895292685
  - # 13
    frequency:    8.6861700563
  - # 14
    frequency:   11.2284580852
  - # 15
    frequency:   11.3906256485
  - # 16
    frequency:   13.1596166658
  - # 17
    frequency:   15.7712344737
  - # 18
    frequency:   18.4633048033

- q-position: [    0.0959596,    0.0000000,    0.0000000 ]
  distance:    0.0322968
  band:
  - # 1
    frequency:   -0.9793296983
  - # 2
    frequency:    0.3927335202
  - # 3
    frequency:    1.2656562807
  - # 4
    frequency:    1.2910324437
  - # 5
    frequency:    2.4294809363
  - # 6
    frequency:    3.8863773720
  - # 7
    frequency:    4.1992179510
  - # 8
    frequency:    5.1619512346
  - # 9
    frequency:    5.9253642449
  - # 10
    frequency:    6.0989341893
  - # 11
    frequency:    8.2868745552
  - # 12
    frequency:    8.2885550198
  - # 13
    frequency:    8.7096343341
  - # 14
    frequency:   11.1967759080
  - # 15
    frequency:   11.3824287997
  - # 16
    frequency:   13.3232097740
  - # 17
    frequency:   15.7638713891
  - # 18
    frequency:   18.4223892637

- q-position: [    0.1010101,    0.0000000,    0.0000000 ]
  distance:    0.0339966
  band:
  - # 1
    frequency:   -0.9347353538
  - # 2
    frequency:    0.4773585649
  - # 3
    frequency:    1.3562642326
  - # 4
    frequency:    1.3806462649
  - # 5
    frequency:    2.5525605255
  - # 6
    frequency:    3.8930790238
  - # 7
    frequency:    4.2249617171
  - # 8
    frequency:    5.1716555626
  - # 9
    frequency:    5.9256144052
  - # 10
    frequency:    6.1167455540
  - # 11
    frequency:    8.2847094876
  - # 12
    frequency:    8.2877341806
  - # 13
    frequency:    8.7325395387
  - # 14
    frequency:   11.1636054684
  - # 15
    frequency:   11.3740203576
  - # 16
    frequency:   13.4905135496
  - # 17
    frequency:   15.7562463256
  - # 18
    frequency:   18.3798367401

- q-position: [    0.1060606,    0.0000000,    0.0000000 ]
  distance:    0.0356965
  band:
  - # 1
    frequency:   -0.8860600053
  - # 2
    frequency:    0.5548503544
  - # 3
    frequency:    1.4210266591
  - # 4
    frequency:    1.4914435144
  - # 5
    frequency:    2.6739218706
  - # 6
    frequency:    3.9001791625
  - # 7
    frequency:    4.2498920922
  - # 8
    frequency:    5.1826180251
  - # 9
    frequency:    5.9259386151
  - # 10
    frequency:    6.1356260226
  - # 11
    frequency:    8.2822754195
  - # 12
    frequency:    8.2871044672
  - # 13
    frequency:    8.7548720754
  - # 14
    frequency:   11.1289940329
  - # 15
    frequency:   11.3654339078
  - # 16
    frequency:   13.6607635454
  - # 17
    frequency:   15.7483959534
  - # 18
    frequency:   18.3357387647

- q-position: [    0.1111111,    0.0000000,    0.0000000 ]
  distance:    0.0373963
  band:
  - # 1
    frequency:   -0.8326476788
  - # 2
    frequency:    0.6287721578
  - # 3
    frequency:    1.4852972707
  - # 4
    frequency:    1.5986010579
  - # 5
    frequency:    2.7933844951
  - # 6
    frequency:    3.9076825308
  - # 7
    frequency:    4.2739241374
  - # 8
    frequency:    5.1948744734
  - # 9
    frequency:    5.9263436788
  - # 10
    frequency:    6.1556355022
  - # 11
    frequency:    8.2795502379
  - # 12
    frequency:    8.2867051256
  - # 13
    frequency:    8.7766329511
  - # 14
    frequency:   11.0929911201
  - # 15
    frequency:   11.3567037251
  - # 16
    frequency:   13.8331904255
  - # 17
    frequency:   15.7403699763
  - # 18
    frequency:   18.2901922573

- q-position: [    0.1161616,    0.0000000,    0.0000000 ]
  distance:    0.0390961
  band:
  - # 1
    frequency:   -0.7735813429
  - # 2
    frequency:    0.7008612788
  - # 3
    frequency:    1.5490559415
  - # 4
    frequency:    1.7025789501
  - # 5
    frequency:    2.9107566421
  - # 6
    frequency:    3.9155933743
  - # 7
    frequency:    4.2970200482
  - # 8
    frequency:    5.2084390950
  - # 9
    frequency:    5.9268362774
  - # 10
    frequency:    6.1768330116
  - # 11
    frequency:    8.2765115587
  - # 12
    frequency:    8.2865767390
  - # 13
    frequency:    8.7978342451
  - # 14
    frequency:   11.0556488226
  - # 15
    frequency:   11.3478645443
  - # 16
    frequency:   14.0070172684
  - # 17
    frequency:   15.7322385991
  - # 18
    frequency:   18.2432998655

- q-position: [    0.1212121,    0.0000000,    0.0000000 ]
  distance:    0.0407960
  band:
  - # 1
    frequency:   -0.7075157414
  - # 2
    frequency:    0.7720571638
  - # 3
    frequency:    1.6122849369
  - # 4
    frequency:    1.8037498247
  - # 5
    frequency:    3.0258294175
  - # 6
    frequency:    3.9239153758
  - # 7
    frequency:    4.3191960773
  - # 8
    frequency:    5.2233026040
  - # 9
    frequency:    5.9274229380
  - # 10
    frequency:    6.1992748723
  - # 11
    frequency:    8.2731369494
  - # 12
    frequency:    8.2867609800
  - # 13
    frequency:    8.8184960920
  - # 14
    frequency:   11.0170220832
  - # 15
    frequency:   11.3389513113
  - # 16
    frequency:   14.1814504787
  - # 17
    frequency:   15.7241052378
  - # 18
    frequency:   18.1951704230

- q-position: [    0.1262626,    0.0000000,    0.0000000 ]
  distance:    0.0424958
  band:
  - # 1
    frequency:   -0.6323387225
  - # 2
    frequency:    0.8428987399
  - # 3
    frequency:    1.6749689316
  - # 4
    frequency:    1.9024127241
  - # 5
    frequency:    3.1383695617
  - # 6
    frequency:    3.9326515938
  - # 7
    frequency:    4.3405298607
  - # 8
    frequency:    5.2394317861
  - # 9
    frequency:    5.9281100064
  - # 10
    frequency:    6.2230128888
  - # 11
    frequency:    8.2694041744
  - # 12
    frequency:    8.2873003113
  - # 13
    frequency:    8.8386441607
  - # 14
    frequency:   10.9771689486
  - # 15
    frequency:   11.3299989153
  - # 16
    frequency:   14.3556597252
  - # 17
    frequency:   15.7161290907
  - # 18
    frequency:   18.1459195666

- q-position: [    0.1313131,    0.0000000,    0.0000000 ]
  distance:    0.0441956
  band:
  - # 1
    frequency:   -0.5443794394
  - # 2
    frequency:    0.9137047091
  - # 3
    frequency:    1.7370949871
  - # 4
    frequency:    1.9988071386
  - # 5
    frequency:    3.2481102622
  - # 6
    frequency:    3.9418044057
  - # 7
    frequency:    4.3611685366
  - # 8
    frequency:    5.2567705672
  - # 9
    frequency:    5.9289036236
  - # 10
    frequency:    6.2480925339
  - # 11
    frequency:    8.2652914602
  - # 12
    frequency:    8.2882376334
  - # 13
    frequency:    8.8583075846
  - # 14
    frequency:   10.9361508166
  - # 15
    frequency:   11.3210419061
  - # 16
    frequency:   14.5287371818
  - # 17
    frequency:   15.7085673387
  - # 18
    frequency:   18.0956705737

- q-position: [    0.1363636,    0.0000000,    0.0000000 ]
  distance:    0.0458955
  band:
  - # 1
    frequency:   -0.4360843517
  - # 2
    frequency:    0.9846645601
  - # 3
    frequency:    1.7986524951
  - # 4
    frequency:    2.0931250201
  - # 5
    frequency:    3.3547393077
  - # 6
    frequency:    3.9513754574
  - # 7
    frequency:    4.3813383214
  - # 8
    frequency:    5.2752425902
  - # 9
    frequency:    5.9298097067
  - # 10
    frequency:    6.2745511692
  - # 11
    frequency:    8.2607777768
  - # 12
    frequency:    8.2896158814
  - # 13
    frequency:    8.8775172811
  - # 14
    frequency:   10.8940326938
  - # 15
    frequency:   11.3121141982
  - # 16
    frequency:   14.6996140079
  - # 17
    frequency:   15.7018590721
  - # 18
    frequency:   18.0445555054

- q-position: [    0.1414141,    0.0000000,    0.0000000 ]
  distance:    0.0475953
  band:
  - # 1
    frequency:   -0.2853356504
  - # 2
    frequency:    1.0558881882
  - # 3
    frequency:    1.8596330926
  - # 4
    frequency:    2.1855204609
  - # 5
    frequency:    3.4578839034
  - # 6
    frequency:    3.9613656188
  - # 7
    frequency:    4.4013563561
  - # 8
    frequency:    5.2947551013
  - # 9
    frequency:    5.9308339325
  - # 10
    frequency:    6.3024163394
  - # 11
    frequency:    8.2558431315
  - # 12
    frequency:    8.2914775669
  - # 13
    frequency:    8.8963045897
  - # 14
    frequency:   10.8508834774
  - # 15
    frequency:   11.3032487659
  - # 16
    frequency:   14.8668803299
  - # 17
    frequency:   15.6968046709
  - # 18
    frequency:   17.9927167880

- q-position: [    0.1464646,    0.0000000,    0.0000000 ]
  distance:    0.0492951
  band:
  - # 1
    frequency:    0.1726448880
  - # 2
    frequency:    1.1274345861
  - # 3
    frequency:    1.9200305539
  - # 4
    frequency:    2.2761173104
  - # 5
    frequency:    3.5570918672
  - # 6
    frequency:    3.9717749444
  - # 7
    frequency:    4.4216453766
  - # 8
    frequency:    5.3152037973
  - # 9
    frequency:    5.9319817257
  - # 10
    frequency:    6.3317041904
  - # 11
    frequency:    8.2504688715
  - # 12
    frequency:    8.2938642671
  - # 13
    frequency:    8.9147001548
  - # 14
    frequency:   10.8067762773
  - # 15
    frequency:   11.2944773337
  - # 16
    frequency:   15.0283690770
  - # 17
    frequency:   15.6949801998
  - # 18
    frequency:   17.9403094307

- q-position: [    0.1515152,    0.0000000,    0.0000000 ]
  distance:    0.0509950
  band:
  - # 1
    frequency:    0.3786719508
  - # 2
    frequency:    1.1993292179
  - # 3
    frequency:    1.9798406641
  - # 4
    frequency:    2.3650151166
  - # 5
    frequency:    3.6518102821
  - # 6
    frequency:    3.9826026418
  - # 7
    frequency:    4.4427504875
  - # 8
    frequency:    5.3364781980
  - # 9
    frequency:    5.9332582501
  - # 10
    frequency:    6.3624180700
  - # 11
    frequency:    8.2446379885
  - # 12
    frequency:    8.2968160561
  - # 13
    frequency:    8.9327329810
  - # 14
    frequency:   10.7617887974
  - # 15
    frequency:   11.2858300672
  - # 16
    frequency:   15.1801362480
  - # 17
    frequency:   15.6997540343
  - # 18
    frequency:   17.8875041907

- q-position: [    0.1565657,    0.0000000,    0.0000000 ]
  distance:    0.0526948
  band:
  - # 1
    frequency:    0.5091503181
  - # 2
    frequency:    1.2715749409
  - # 3
    frequency:    2.0390610773
  - # 4
    frequency:    2.4522937524
  - # 5
    frequency:    3.7413660211
  - # 6
    frequency:    3.9938470454
  - # 7
    frequency:    4.4653539827
  - # 8
    frequency:    5.3584671027
  - # 9
    frequency:    5.9346684027
  - # 10
    frequency:    6.3945473724
  - # 11
    frequency:    8.2383354204
  - # 12
    frequency:    8.3003708801
  - # 13
    frequency:    8.9504295900
  - # 14
    frequency:   10.7160037959
  - # 15
    frequency:   11.2773352694
  - # 16
    frequency:   15.3141103234
  - # 17
    frequency:   15.7186325958
  - # 18
    frequency:   17.8344921801

- q-position: [    0.1616162,    0.0000000,    0.0000000 ]
  distance:    0.0543946
  band:
  - # 1
    frequency:    0.6141831025
  - # 2
    frequency:    1.3441590840
  - # 3
    frequency:    2.0976911644
  - # 4
    frequency:    2.5380170205
  - # 5
    frequency:    3.8249593112
  - # 6
    frequency:    4.0055055965
  - # 7
    frequency:    4.4902773614
  - # 8
    frequency:    5.3810637425
  - # 9
    frequency:    5.9362168116
  - # 10
    frequency:    6.4280666860
  - # 11
    frequency:    8.2315483436
  - # 12
    frequency:    8.3045638749
  - # 13
    frequency:    8.9678132090
  - # 14
    frequency:   10.6695096510
  - # 15
    frequency:   11.2690190883
  - # 16
    frequency:   15.4156386652
  - # 17
    frequency:   15.7657066209
  - # 18
    frequency:   17.7814917242

- q-position: [    0.1666667,    0.0000000,    0.0000000 ]
  distance:    0.0560945
  band:
  - # 1
    frequency:    0.7051529442
  - # 2
    frequency:    1.4170581518
  - # 3
    frequency:    2.1557318518
  - # 4
    frequency:    2.6222354625
  - # 5
    frequency:    3.9016918774
  - # 6
    frequency:    4.0175748293
  - # 7
    frequency:    4.5184492190
  - # 8
    frequency:    5.4041703420
  - # 9
    frequency:    5.9379078352
  - # 10
    frequency:    6.4629352973
  - # 11
    frequency:    8.2242664494
  - # 12
    frequency:    8.3094266259
  - # 13
    frequency:    8.9849029218
  - # 14
    frequency:   10.6224010639
  - # 15
    frequency:   11.2609052416
  - # 16
    frequency:   15.4732577175
  - # 17
    frequency:   15.8518698574
  - # 18
    frequency:   17.7287588272

- q-position: [    0.1717172,    0.0000000,    0.0000000 ]
  distance:    0.0577943
  band:
  - # 1
    frequency:    0.7868793072
  - # 2
    frequency:    1.4902410146
  - # 3
    frequency:    2.2131854550
  - # 4
    frequency:    2.7049885471
  - # 5
    frequency:    3.9706595148
  - # 6
    frequency:    4.0300503624
  - # 7
    frequency:    4.5508092879
  - # 8
    frequency:    5.4277019194
  - # 9
    frequency:    5.9397455648
  - # 10
    frequency:    6.4990970880
  - # 11
    frequency:    8.2164821988
  - # 12
    frequency:    8.3149863746
  - # 13
    frequency:    9.0017127100
  - # 14
    frequency:   10.5747799401
  - # 15
    frequency:   11.2530147643
  - # 16
    frequency:   15.4961523954
  - # 17
    frequency:   15.9673425165
  - # 18
    frequency:   17.6766035780

- q-position: [    0.1767677,    0.0000000,    0.0000000 ]
  distance:    0.0594941
  band:
  - # 1
    frequency:    0.8619278199
  - # 2
    frequency:    1.5636711076
  - # 3
    frequency:    2.2700555083
  - # 4
    frequency:    2.7863063622
  - # 5
    frequency:    4.0311272773
  - # 6
    frequency:    4.0429268951
  - # 7
    frequency:    4.5881304768
  - # 8
    frequency:    5.4515892604
  - # 9
    frequency:    5.9417338280
  - # 10
    frequency:    6.5364808500
  - # 11
    frequency:    8.2081910475
  - # 12
    frequency:    8.3212651750
  - # 13
    frequency:    9.0182503078
  - # 14