nqpoint: 300    
npath: 3      
segment_nqpoint:
- 100
- 100
- 100
labels:
- [ 'G', 'M' ]
- [ 'M', 'K' ]
- [ 'K', 'G' ]
reciprocal_lattice:
- [   0.29147539,   0.16828340,   0.00000000 ] # a*
- [   0.00000000,   0.33656679,   0.00000000 ] # b*
- [   0.00000000,   0.00000000,   0.04000264 ] # c*
natom: 6      
lattice:
- [     3.430821374999869,     0.000000000000000,     0.000000000000000 ] # a
- [    -1.715410687499934,     2.971178466565299,     0.000000000000000 ] # b
- [     0.000000000000000,     0.000000000000000,    24.998350953053869 ] # c
points:
- symbol: C # 1
  coordinates: [  0.000000000000000,  0.000000000000000,  0.475918288155292 ]
  mass: 12.010700
- symbol: Cl # 2
  coordinates: [  0.333332985432215,  0.666666983183674,  0.639976252157523 ]
  mass: 35.453000
- symbol: Cl # 3
  coordinates: [  0.666666984744047,  0.333332985985145,  0.360023747842477 ]
  mass: 35.453000
- symbol: O # 4
  coordinates: [  0.333332985432215,  0.666666983183674,  0.569946742366979 ]
  mass: 15.999400
- symbol: Sc # 5
  coordinates: [  0.333332985432215,  0.666666983183674,  0.427367566022730 ]
  mass: 44.955912
- symbol: Sc # 6
  coordinates: [  0.666666984744047,  0.333332985985145,  0.526883834398200 ]
  mass: 44.955912

phonon:
- q-position: [    0.0000000,    0.0000000,    0.0000000 ]
  distance:    0.0000000
  band:
  - # 1
    frequency:   -1.4332364694
  - # 2
    frequency:   -1.4332364694
  - # 3
    frequency:   -0.0000035996
  - # 4
    frequency:   -0.0000007339
  - # 5
    frequency:    0.0000036627
  - # 6
    frequency:    3.6836412878
  - # 7
    frequency:    3.6836412878
  - # 8
    frequency:    5.1428008673
  - # 9
    frequency:    5.8029335282
  - # 10
    frequency:    5.8029335282
  - # 11
    frequency:    8.1195422126
  - # 12
    frequency:    8.1195422126
  - # 13
    frequency:    8.3841918933
  - # 14
    frequency:   10.7584887378
  - # 15
    frequency:   10.7584887378
  - # 16
    frequency:   11.6238591740
  - # 17
    frequency:   15.8409394353
  - # 18
    frequency:   18.9223999944

- q-position: [    0.0050505,    0.0000000,    0.0000000 ]
  distance:    0.0016998
  band:
  - # 1
    frequency:   -1.4322628302
  - # 2
    frequency:   -1.4294700633
  - # 3
    frequency:   -0.0526845567
  - # 4
    frequency:    0.0730548490
  - # 5
    frequency:    0.1246584847
  - # 6
    frequency:    3.6840986351
  - # 7
    frequency:    3.6859587795
  - # 8
    frequency:    5.1427778546
  - # 9
    frequency:    5.8031583512
  - # 10
    frequency:    5.8041172638
  - # 11
    frequency:    8.1197711798
  - # 12
    frequency:    8.1223595287
  - # 13
    frequency:    8.3843684002
  - # 14
    frequency:   10.7590475338
  - # 15
    frequency:   10.7648315717
  - # 16
    frequency:   11.6232844324
  - # 17
    frequency:   15.8406902078
  - # 18
    frequency:   18.9209824324

- q-position: [    0.0101010,    0.0000000,    0.0000000 ]
  distance:    0.0033997
  band:
  - # 1
    frequency:   -1.4293420868
  - # 2
    frequency:   -1.4181481259
  - # 3
    frequency:   -0.0638271876
  - # 4
    frequency:    0.1461080816
  - # 5
    frequency:    0.2350836996
  - # 6
    frequency:    3.6854688580
  - # 7
    frequency:    3.6928552937
  - # 8
    frequency:    5.1427127791
  - # 9
    frequency:    5.8038315604
  - # 10
    frequency:    5.8076359852
  - # 11
    frequency:    8.1204544557
  - # 12
    frequency:    8.1306702495
  - # 13
    frequency:    8.3849400116
  - # 14
    frequency:   10.7607204852
  - # 15
    frequency:   10.7838429007
  - # 16
    frequency:   11.6216084615
  - # 17
    frequency:   15.8399432586
  - # 18
    frequency:   18.9167333369

- q-position: [    0.0151515,    0.0000000,    0.0000000 ]
  distance:    0.0050995
  band:
  - # 1
    frequency:   -1.4244746351
  - # 2
    frequency:   -1.3992005078
  - # 3
    frequency:   -0.0744374585
  - # 4
    frequency:    0.2191573737
  - # 5
    frequency:    0.3481658797
  - # 6
    frequency:    3.6877465194
  - # 7
    frequency:    3.7041671564
  - # 8
    frequency:    5.1426175340
  - # 9
    frequency:    5.8049493886
  - # 10
    frequency:    5.8133951085
  - # 11
    frequency:    8.1215812208
  - # 12
    frequency:    8.1440478869
  - # 13
    frequency:    8.3860413932
  - # 14
    frequency:   10.7634972958
  - # 15
    frequency:   10.8154529322
  - # 16
    frequency:   11.6189882441
  - # 17
    frequency:   15.8387007788
  - # 18
    frequency:   18.9096634685

- q-position: [    0.0202020,    0.0000000,    0.0000000 ]
  distance:    0.0067993
  band:
  - # 1
    frequency:   -1.4176607151
  - # 2
    frequency:   -1.3725035342
  - # 3
    frequency:   -0.0833202825
  - # 4
    frequency:    0.2921990245
  - # 5
    frequency:    0.4624149149
  - # 6
    frequency:    3.6909226221
  - # 7
    frequency:    3.7196349447
  - # 8
    frequency:    5.1425119597
  - # 9
    frequency:    5.8065055949
  - # 10
    frequency:    5.8212461418
  - # 11
    frequency:    8.1231336297
  - # 12
    frequency:    8.1617704132
  - # 13
    frequency:    8.3879267653
  - # 14
    frequency:   10.7673608529
  - # 15
    frequency:   10.8594791231
  - # 16
    frequency:   11.6157319117
  - # 17
    frequency:   15.8369663944
  - # 18
    frequency:   18.8997907273

- q-position: [    0.0252525,    0.0000000,    0.0000000 ]
  distance:    0.0084992
  band:
  - # 1
    frequency:   -1.4088997932
  - # 2
    frequency:   -1.3378695312
  - # 3
    frequency:   -0.0879144392
  - # 4
    frequency:    0.3652273655
  - # 5
    frequency:    0.5774461094
  - # 6
    frequency:    3.6949847060
  - # 7
    frequency:    3.7389213875
  - # 8
    frequency:    5.1424238684
  - # 9
    frequency:    5.8084915211
  - # 10
    frequency:    5.8309990040
  - # 11
    frequency:    8.1250870876
  - # 12
    frequency:    8.1827979644
  - # 13
    frequency:    8.3910196353
  - # 14
    frequency:   10.7722873000
  - # 15
    frequency:   10.9155042360
  - # 16
    frequency:   11.6123927361
  - # 17
    frequency:   15.8347451268
  - # 18
    frequency:   18.8871401004

- q-position: [    0.0303030,    0.0000000,    0.0000000 ]
  distance:    0.0101990
  band:
  - # 1
    frequency:   -1.3981897205
  - # 2
    frequency:   -1.2950318250
  - # 3
    frequency:   -0.0845592888
  - # 4
    frequency:    0.4382342773
  - # 5
    frequency:    0.6931551633
  - # 6
    frequency:    3.6999169798
  - # 7
    frequency:    3.7616326558
  - # 8
    frequency:    5.1423890714
  - # 9
    frequency:    5.8108961695
  - # 10
    frequency:    5.8424367717
  - # 11
    frequency:    8.1274106262
  - # 12
    frequency:    8.2057382317
  - # 13
    frequency:    8.3959844365
  - # 14
    frequency:   10.7782461426
  - # 15
    frequency:   10.9826423292
  - # 16
    frequency:   11.6099674657
  - # 17
    frequency:   15.8320433421
  - # 18
    frequency:   18.8717435910

- q-position: [    0.0353535,    0.0000000,    0.0000000 ]
  distance:    0.0118988
  band:
  - # 1
    frequency:   -1.3855256847
  - # 2
    frequency:   -1.2436260121
  - # 3
    frequency:   -0.0650981743
  - # 4
    frequency:    0.5112088397
  - # 5
    frequency:    0.8095156113
  - # 6
    frequency:    3.7057004868
  - # 7
    frequency:    3.7873403264
  - # 8
    frequency:    5.1424514029
  - # 9
    frequency:    5.8137062991
  - # 10
    frequency:    5.8553309802
  - # 11
    frequency:    8.1300673696
  - # 12
    frequency:    8.2288298822
  - # 13
    frequency:    8.4037873625
  - # 14
    frequency:   10.7852003899
  - # 15
    frequency:   11.0590732367
  - # 16
    frequency:   11.6103221448
  - # 17
    frequency:   15.8288686898
  - # 18
    frequency:   18.8536401281

- q-position: [    0.0404040,    0.0000000,    0.0000000 ]
  distance:    0.0135987
  band:
  - # 1
    frequency:   -1.3708989750
  - # 2
    frequency:   -1.1831714624
  - # 3
    frequency:    0.0475909643
  - # 4
    frequency:    0.5841371298
  - # 5
    frequency:    0.9265162697
  - # 6
    frequency:    3.7123133008
  - # 7
    frequency:    3.8156016518
  - # 8
    frequency:    5.1426627272
  - # 9
    frequency:    5.8169065414
  - # 10
    frequency:    5.8694557776
  - # 11
    frequency:    8.1330150795
  - # 12
    frequency:    8.2500613593
  - # 13
    frequency:    8.4156253070
  - # 14
    frequency:   10.7931067363
  - # 15
    frequency:   11.1410912038
  - # 16
    frequency:   11.6171043857
  - # 17
    frequency:   15.8252300348
  - # 18
    frequency:   18.8328754588

- q-position: [    0.0454545,    0.0000000,    0.0000000 ]
  distance:    0.0152985
  band:
  - # 1
    frequency:   -1.3542955721
  - # 2
    frequency:   -1.1130662172
  - # 3
    frequency:    0.1185457522
  - # 4
    frequency:    0.6570021720
  - # 5
    frequency:    1.0441370335
  - # 6
    frequency:    3.7197307487
  - # 7
    frequency:    3.8459764665
  - # 8
    frequency:    5.1430829124
  - # 9
    frequency:    5.8204795301
  - # 10
    frequency:    5.8845996668
  - # 11
    frequency:    8.1362067634
  - # 12
    frequency:    8.2676173079
  - # 13
    frequency:    8.4325259142
  - # 14
    frequency:   10.8019157863
  - # 15
    frequency:   11.2213954077
  - # 16
    frequency:   11.6374193512
  - # 17
    frequency:   15.8211373890
  - # 18
    frequency:   18.8095020245

- q-position: [    0.0505051,    0.0000000,    0.0000000 ]
  distance:    0.0169983
  band:
  - # 1
    frequency:   -1.3356945685
  - # 2
    frequency:   -1.0326340845
  - # 3
    frequency:    0.1832088276
  - # 4
    frequency:    0.7297840356
  - # 5
    frequency:    1.1623383741
  - # 6
    frequency:    3.7279256560
  - # 7
    frequency:    3.8780398835
  - # 8
    frequency:    5.1437797437
  - # 9
    frequency:    5.8244060469
  - # 10
    frequency:    5.9005741387
  - # 11
    frequency:    8.1395913342
  - # 12
    frequency:    8.2805664873
  - # 13
    frequency:    8.4546999926
  - # 14
    frequency:   10.8115723279
  - # 15
    frequency:   11.2879808578
  - # 16
    frequency:   11.6829153795
  - # 17
    frequency:   15.8166018486
  - # 18
    frequency:   18.7835788240

- q-position: [    0.0555556,    0.0000000,    0.0000000 ]
  distance:    0.0186982
  band:
  - # 1
    frequency:   -1.3150664052
  - # 2
    frequency:   -0.9413304203
  - # 3
    frequency:    0.2541234544
  - # 4
    frequency:    0.8024600644
  - # 5
    frequency:    1.2810573122
  - # 6
    frequency:    3.7368686116
  - # 7
    frequency:    3.9113907010
  - # 8
    frequency:    5.1448287426
  - # 9
    frequency:    5.8286651774
  - # 10
    frequency:    5.9172190565
  - # 11
    frequency:    8.1431143027
  - # 12
    frequency:    8.2891339356
  - # 13
    frequency:    8.4812995816
  - # 14
    frequency:   10.8220156553
  - # 15
    frequency:   11.3296995131
  - # 16
    frequency:   11.7642123348
  - # 17
    frequency:   15.8116355469
  - # 18
    frequency:   18.7551712640

- q-position: [    0.0606061,    0.0000000,    0.0000000 ]
  distance:    0.0203980
  band:
  - # 1
    frequency:   -1.2923708884
  - # 2
    frequency:   -0.8393609292
  - # 3
    frequency:    0.3365569451
  - # 4
    frequency:    0.8750052139
  - # 5
    frequency:    1.4002072589
  - # 6
    frequency:    3.7465282460
  - # 7
    frequency:    3.9456560083
  - # 8
    frequency:    5.1463128397
  - # 9
    frequency:    5.8332344777
  - # 10
    frequency:    5.9344050940
  - # 11
    frequency:    8.1467184907
  - # 12
    frequency:    8.2942325377
  - # 13
    frequency:    8.5109043791
  - # 14
    frequency:   10.8331799471
  - # 15
    frequency:   11.3464075224
  - # 16
    frequency:   11.8807575666
  - # 17
    frequency:   15.8062516354
  - # 18
    frequency:   18.7243510020

- q-position: [    0.0656566,    0.0000000,    0.0000000 ]
  distance:    0.0220978
  band:
  - # 1
    frequency:   -1.2675549182
  - # 2
    frequency:   -0.7290695516
  - # 3
    frequency:    0.4353420340
  - # 4
    frequency:    0.9473924707
  - # 5
    frequency:    1.5196803722
  - # 6
    frequency:    3.7568715220
  - # 7
    frequency:    3.9804928260
  - # 8
    frequency:    5.1483218422
  - # 9
    frequency:    5.8380901482
  - # 10
    frequency:    5.9520338070
  - # 11
    frequency:    8.1503447475
  - # 12
    frequency:    8.2968523823
  - # 13
    frequency:    8.5421381352
  - # 14
    frequency:   10.8449946979
  - # 15
    frequency:   11.3457526106
  - # 16
    frequency:   12.0240540542
  - # 17
    frequency:   15.8004643104
  - # 18
    frequency:   18.6911957830

- q-position: [    0.0707071,    0.0000000,    0.0000000 ]
  distance:    0.0237977
  band:
  - # 1
    frequency:   -1.2405498168
  - # 2
    frequency:   -0.6163779282
  - # 3
    frequency:    0.5532801825
  - # 4
    frequency:    1.0195933218
  - # 5
    frequency:    1.6393513898
  - # 6
    frequency:    3.7678640302
  - # 7
    frequency:    4.0155877470
  - # 8
    frequency:    5.1509516144
  - # 9
    frequency:    5.8432072139
  - # 10
    frequency:    5.9700360199
  - # 11
    frequency:    8.1539326572
  - # 12
    frequency:    8.2977798412
  - # 13
    frequency:    8.5739449015
  - # 14
    frequency:   10.8573852066
  - # 15
    frequency:   11.3344319922
  - # 16
    frequency:   12.1864272704
  - # 17
    frequency:   15.7942889132
  - # 18
    frequency:   18.6557892760

- q-position: [    0.0757576,    0.0000000,    0.0000000 ]
  distance:    0.0254975
  band:
  - # 1
    frequency:   -1.2112680815
  - # 2
    frequency:   -0.5081055973
  - # 3
    frequency:    0.6867603563
  - # 4
    frequency:    1.0915782436
  - # 5
    frequency:    1.7590820019
  - # 6
    frequency:    3.7794702886
  - # 7
    frequency:    4.0506555187
  - # 8
    frequency:    5.1543028834
  - # 9
    frequency:    5.8485597080
  - # 10
    frequency:    5.9883691845
  - # 11
    frequency:    8.1574212250
  - # 12
    frequency:    8.2975733249
  - # 13
    frequency:    8.6056011111
  - # 14
    frequency:   10.8702731174
  - # 15
    frequency:   11.3163274218
  - # 16
    frequency:   12.3629202536
  - # 17
    frequency:   15.7877421382
  - # 18
    frequency:   18.6182209140

- q-position: [    0.0808081,    0.0000000,    0.0000000 ]
  distance:    0.0271973
  band:
  - # 1
    frequency:   -1.1795993052
  - # 2
    frequency:   -0.4038251011
  - # 3
    frequency:    0.8264334973
  - # 4
    frequency:    1.1633171850
  - # 5
    frequency:    1.8787249712
  - # 6
    frequency:    3.7916540409
  - # 7
    frequency:    4.0854373883
  - # 8
    frequency:    5.1584795734
  - # 9
    frequency:    5.8541208592
  - # 10
    frequency:    6.0070142599
  - # 11
    frequency:    8.1607495307
  - # 12
    frequency:    8.2966197426
  - # 13
    frequency:    8.6366426721
  - # 14
    frequency:   10.8835770134
  - # 15
    frequency:   11.2935237512
  - # 16
    frequency:   12.5503066652
  - # 17
    frequency:   15.7808424096
  - # 18
    frequency:   18.5785857433

- q-position: [    0.0858586,    0.0000000,    0.0000000 ]
  distance:    0.0288971
  band:
  - # 1
    frequency:   -1.1454048773
  - # 2
    frequency:   -0.2902604822
  - # 3
    frequency:    0.9643407323
  - # 4
    frequency:    1.2347800207
  - # 5
    frequency:    1.9981274324
  - # 6
    frequency:    3.8043785509
  - # 7
    frequency:    4.1196998659
  - # 8
    frequency:    5.1635865753
  - # 9
    frequency:    5.8598632799
  - # 10
    frequency:    6.0259725180
  - # 11
    frequency:    8.1638573418
  - # 12
    frequency:    8.2951917795
  - # 13
    frequency:    8.6667897947
  - # 14
    frequency:   10.8972130564
  - # 15
    frequency:   11.2671787546
  - # 16
    frequency:   12.7462508845
  - # 17
    frequency:   15.7736105112
  - # 18
    frequency:   18.5369842914

- q-position: [    0.0909091,    0.0000000,    0.0000000 ]
  distance:    0.0305970
  band:
  - # 1
    frequency:   -1.1085108809
  - # 2
    frequency:   -0.1109722078
  - # 3
    frequency:    1.0969549843
  - # 4
    frequency:    1.3059369574
  - # 5
    frequency:    2.1171330535
  - # 6
    frequency:    3.8176068900
  - # 7
    frequency:    4.1532343792
  - # 8
    frequency:    5.1697268870
  - # 9
    frequency:    5.8657591550
  - # 10
    frequency:    6.0452625357
  - # 11
    frequency:    8.1666856798
  - # 12
    frequency:    8.2934886606
  - # 13
    frequency:    8.6958889834
  - # 14
    frequency:   10.9110956669
  - # 15
    frequency:   11.2379785031
  - # 16
    frequency:   12.9488786261
  - # 17
    frequency:   15.7660706135
  - # 18
    frequency:   18.4935224602

- q-position: [    0.0959596,    0.0000000,    0.0000000 ]
  distance:    0.0322968
  band:
  - # 1
    frequency:   -1.0686982852
  - # 2
    frequency:    0.2426342136
  - # 3
    frequency:    1.2235608247
  - # 4
    frequency:    1.3767588838
  - # 5
    frequency:    2.2355829647
  - # 6
    frequency:    3.8313022151
  - # 7
    frequency:    4.1858581166
  - # 8
    frequency:    5.1769981057
  - # 9
    frequency:    5.8717804303
  - # 10
    frequency:    6.0649175134
  - # 11
    frequency:    8.1691773361
  - # 12
    frequency:    8.2916623146
  - # 13
    frequency:    8.7238715726
  - # 14
    frequency:   10.9251382378
  - # 15
    frequency:   11.2063599536
  - # 16
    frequency:   13.1565750782
  - # 17
    frequency:   15.7582519282
  - # 18
    frequency:   18.4483114583

- q-position: [    0.1010101,    0.0000000,    0.0000000 ]
  distance:    0.0339966
  band:
  - # 1
    frequency:   -1.0256889854
  - # 2
    frequency:    0.3647381506
  - # 3
    frequency:    1.3445293275
  - # 4
    frequency:    1.4472176552
  - # 5
    frequency:    2.3533155122
  - # 6
    frequency:    3.8454280348
  - # 7
    frequency:    4.2174161827
  - # 8
    frequency:    5.1854883332
  - # 9
    frequency:    5.8778989997
  - # 10
    frequency:    6.0849829637
  - # 11
    frequency:    8.1712773337
  - # 12
    frequency:    8.2898336635
  - # 13
    frequency:    8.7507246783
  - # 14
    frequency:   10.9392538727
  - # 15
    frequency:   11.1726222689
  - # 16
    frequency:   13.3678883493
  - # 17
    frequency:   15.7501913895
  - # 18
    frequency:   18.4014677867

- q-position: [    0.1060606,    0.0000000,    0.0000000 ]
  distance:    0.0356965
  band:
  - # 1
    frequency:   -0.9791252821
  - # 2
    frequency:    0.4609687581
  - # 3
    frequency:    1.4605131031
  - # 4
    frequency:    1.5172863152
  - # 5
    frequency:    2.4701649612
  - # 6
    frequency:    3.8599484617
  - # 7
    frequency:    4.2477850255
  - # 8
    frequency:    5.1952716664
  - # 9
    frequency:    5.8840868909
  - # 10
    frequency:    6.1055147478
  - # 11
    frequency:    8.1729333366
  - # 12
    frequency:    8.2881027343
  - # 13
    frequency:    8.7764709633
  - # 14
    frequency:   10.9533561383
  - # 15
    frequency:   11.1369851048
  - # 16
    frequency:   13.5814795319
  - # 17
    frequency:   15.7419380706
  - # 18
    frequency:   18.3531132988

- q-position: [    0.1111111,    0.0000000,    0.0000000 ]
  distance:    0.0373963
  band:
  - # 1
    frequency:   -0.9285385835
  - # 2
    frequency:    0.5466025473
  - # 3
    frequency:    1.5721605950
  - # 4
    frequency:    1.5869392540
  - # 5
    frequency:    2.5859592771
  - # 6
    frequency:    3.8748284492
  - # 7
    frequency:    4.2768769471
  - # 8
    frequency:    5.2064035663
  - # 9
    frequency:    5.8903164491
  - # 10
    frequency:    6.1265773965
  - # 11
    frequency:    8.1740960075
  - # 12
    frequency:    8.2865549786
  - # 13
    frequency:    8.8011546188
  - # 14
    frequency:   10.9673598212
  - # 15
    frequency:   11.0996206604
  - # 16
    frequency:   13.7960918220
  - # 17
    frequency:   15.7335606547
  - # 18
    frequency:   18.3033753615

- q-position: [    0.1161616,    0.0000000,    0.0000000 ]
  distance:    0.0390961
  band:
  - # 1
    frequency:   -0.8732995278
  - # 2
    frequency:    0.6268574949
  - # 3
    frequency:    1.6561523099
  - # 4
    frequency:    1.6800343522
  - # 5
    frequency:    2.7005170645
  - # 6
    frequency:    3.8900340114
  - # 7
    frequency:    4.3046453912
  - # 8
    frequency:    5.2189165213
  - # 9
    frequency:    5.8965605177
  - # 10
    frequency:    6.1482426284
  - # 11
    frequency:    8.1747193159
  - # 12
    frequency:    8.2852652552
  - # 13
    frequency:    8.8248317436
  - # 14
    frequency:   10.9811816778
  - # 15
    frequency:   11.0606721355
  - # 16
    frequency:   14.0105241380
  - # 17
    frequency:   15.7251605499
  - # 18
    frequency:   18.2523871566

- q-position: [    0.1212121,    0.0000000,    0.0000000 ]
  distance:    0.0407960
  band:
  - # 1
    frequency:   -0.8125340347
  - # 2
    frequency:    0.7041378203
  - # 3
    frequency:    1.7249028208
  - # 4
    frequency:    1.7845995581
  - # 5
    frequency:    2.8136436740
  - # 6
    frequency:    3.9055324249
  - # 7
    frequency:    4.3310906437
  - # 8
    frequency:    5.2328165006
  - # 9
    frequency:    5.9027926171
  - # 10
    frequency:    6.1705879697
  - # 11
    frequency:    8.1747608020
  - # 12
    frequency:    8.2843003511
  - # 13
    frequency:    8.8475638396
  - # 14
    frequency:   10.9947411668
  - # 15
    frequency:   11.0202648158
  - # 16
    frequency:   14.2235982806
  - # 17
    frequency:   15.7168960417
  - # 18
    frequency:   18.2002881752

- q-position: [    0.1262626,    0.0000000,    0.0000000 ]
  distance:    0.0424958
  band:
  - # 1
    frequency:   -0.7449717491
  - # 2
    frequency:    0.7797187898
  - # 3
    frequency:    1.7931696317
  - # 4
    frequency:    1.8862339913
  - # 5
    frequency:    2.9251264007
  - # 6
    frequency:    3.9212924118
  - # 7
    frequency:    4.3562656115
  - # 8
    frequency:    5.2480807039
  - # 9
    frequency:    5.9089871193
  - # 10
    frequency:    6.1936953811
  - # 11
    frequency:    8.1741818001
  - # 12
    frequency:    8.2837205723
  - # 13
    frequency:    8.8694135035
  - # 14
    frequency:   10.9785129931
  - # 15
    frequency:   11.0079611526
  - # 16
    frequency:   14.4341049308
  - # 17
    frequency:   15.7090295525
  - # 18
    frequency:   18.1472249853

- q-position: [    0.1313131,    0.0000000,    0.0000000 ]
  distance:    0.0441956
  band:
  - # 1
    frequency:   -0.6686455083
  - # 2
    frequency:    0.8543334590
  - # 3
    frequency:    1.8609330677
  - # 4
    frequency:    1.9852426084
  - # 5
    frequency:    3.0347286215
  - # 6
    frequency:    3.9372843034
  - # 7
    frequency:    4.3802814643
  - # 8
    frequency:    5.2646570291
  - # 9
    frequency:    5.9151194197
  - # 10
    frequency:    6.2176498059
  - # 11
    frequency:    8.1729476259
  - # 12
    frequency:    8.2835807319
  - # 13
    frequency:    8.8904416555
  - # 14
    frequency:   10.9355244454
  - # 15
    frequency:   11.0207685711
  - # 16
    frequency:   14.6406978369
  - # 17
    frequency:   15.7020273604
  - # 18
    frequency:   18.0933523887

- q-position: [    0.1363636,    0.0000000,    0.0000000 ]
  distance:    0.0458955
  band:
  - # 1
    frequency:   -0.5802107196
  - # 2
    frequency:    0.9284238499
  - # 3
    frequency:    1.9281748782
  - # 4
    frequency:    2.0818713540
  - # 5
    frequency:    3.1421826541
  - # 6
    frequency:    3.9534801834
  - # 7
    frequency:    4.4033131331
  - # 8
    frequency:    5.2824655038
  - # 9
    frequency:    5.9211661045
  - # 10
    frequency:    6.2425375709
  - # 11
    frequency:    8.1710277341
  - # 12
    frequency:    8.2839307379
  - # 13
    frequency:    8.9107058200
  - # 14
    frequency:   10.8914034467
  - # 15
    frequency:   11.0330950458
  - # 16
    frequency:   14.8416567940
  - # 17
    frequency:   15.6967904748
  - # 18
    frequency:   18.0388351455

- q-position: [    0.1414141,    0.0000000,    0.0000000 ]
  distance:    0.0475953
  band:
  - # 1
    frequency:   -0.4730516149
  - # 2
    frequency:    1.0022633494
  - # 3
    frequency:    1.9948781597
  - # 4
    frequency:    2.1763187884
  - # 5
    frequency:    3.2471811155
  - # 6
    frequency:    3.9698540114
  - # 7
    frequency:    4.4256048717
  - # 8
    frequency:    5.3014016912
  - # 9
    frequency:    5.9271051138
  - # 10
    frequency:    6.2684445903
  - # 11
    frequency:    8.1683958502
  - # 12
    frequency:    8.2848159133
  - # 13
    frequency:    8.9302591119
  - # 14
    frequency:   10.8462528759
  - # 15
    frequency:   11.0448774488
  - # 16
    frequency:   15.0342847562
  - # 17
    frequency:   15.6952508317
  - # 18
    frequency:   17.9838505448

- q-position: [    0.1464646,    0.0000000,    0.0000000 ]
  distance:    0.0492951
  band:
  - # 1
    frequency:   -0.3295598849
  - # 2
    frequency:    1.0760219819
  - # 3
    frequency:    2.0610272631
  - # 4
    frequency:    2.2687454497
  - # 5
    frequency:    3.3493666661
  - # 6
    frequency:    3.9863817261
  - # 7
    frequency:    4.4474761970
  - # 8
    frequency:    5.3213418334
  - # 9
    frequency:    5.9329158991
  - # 10
    frequency:    6.2954543522
  - # 11
    frequency:    8.1650300802
  - # 12
    frequency:    8.2862771326
  - # 13
    frequency:    8.9491496704
  - # 14
    frequency:   10.8001757691
  - # 15
    frequency:   11.0560583964
  - # 16
    frequency:   15.2131927982
  - # 17
    frequency:   15.7020785676
  - # 18
    frequency:   17.9285922683

- q-position: [    0.1515152,    0.0000000,    0.0000000 ]
  distance:    0.0509950
  band:
  - # 1
    frequency:    0.0934664903
  - # 2
    frequency:    1.1498036306
  - # 3
    frequency:    2.1266076911
  - # 4
    frequency:    2.3592812572
  - # 5
    frequency:    3.4483203893
  - # 6
    frequency:    4.0030413281
  - # 7
    frequency:    4.4693283348
  - # 8
    frequency:    5.3421492965
  - # 9
    frequency:    5.9385795752
  - # 10
    frequency:    6.3236456980
  - # 11
    frequency:    8.1609130032
  - # 12
    frequency:    8.2883508306
  - # 13
    frequency:    8.9674203551
  - # 14
    frequency:   10.7532765397
  - # 15
    frequency:   11.0665866760
  - # 16
    frequency:   15.3656045333
  - # 17
    frequency:   15.7293680092
  - # 18
    frequency:   17.8732762814

- q-position: [    0.1565657,    0.0000000,    0.0000000 ]
  distance:    0.0526948
  band:
  - # 1
    frequency:    0.3579585524
  - # 2
    frequency:    1.2236683936
  - # 3
    frequency:    2.1916059887
  - # 4
    frequency:    2.4480313286
  - # 5
    frequency:    3.5435499065
  - # 6
    frequency:    4.0198129435
  - # 7
    frequency:    4.4916505383
  - # 8
    frequency:    5.3636817677
  - # 9
    frequency:    5.9440790655
  - # 10
    frequency:    6.3530904346
  - # 11
    frequency:    8.1560317487
  - # 12
    frequency:    8.2910689219
  - # 13
    frequency:    8.9851085615
  - # 14
    frequency:   10.7056620155
  - # 15
    frequency:   11.0764175965
  - # 16
    frequency:   15.4677149232
  - # 17
    frequency:   15.8002662023
  - # 18
    frequency:   17.8181499999

- q-position: [    0.1616162,    0.0000000,    0.0000000 ]
  distance:    0.0543946
  band:
  - # 1
    frequency:    0.4994589798
  - # 2
    frequency:    1.2976465782
  - # 3
    frequency:    2.2560096314
  - # 4
    frequency:    2.5350805426
  - # 5
    frequency:    3.6344800270
  - # 6
    frequency:    4.0366788677
  - # 7
    frequency:    4.5150239427
  - # 8
    frequency:    5.3857986332
  - # 9
    frequency:    5.9493992391
  - # 10
    frequency:    6.3838508557
  - # 11
    frequency:    8.1503780602
  - # 12
    frequency:    8.2944586547
  - # 13
    frequency:    9.0022460482
  - # 14
    frequency:   10.6574424045
  - # 15
    frequency:   11.0855132622
  - # 16
    frequency:   15.5126182681
  - # 17
    frequency:   15.9210270125
  - # 18
    frequency:   17.7635069135

- q-position: [    0.1666667,    0.0000000,    0.0000000 ]
  distance:    0.0560945
  band:
  - # 1
    frequency:    0.6103963953
  - # 2
    frequency:    1.3717477615
  - # 3
    frequency:    2.3198069145
  - # 4
    frequency:    2.6204971173
  - # 5
    frequency:    3.7204516305
  - # 6
    frequency:    4.0536235905
  - # 7
    frequency:    4.5401176378
  - # 8
    frequency:    5.4083680331
  - # 9
    frequency:    5.9545270397
  - # 10
    frequency:    6.4159772713
  - # 11
    frequency:    8.1439483477
  - # 12
    frequency:    8.2985424150
  - # 13
    frequency:    9.0188586854
  - # 14
    frequency:   10.6087322759
  - # 15
    frequency:   11.0938427655
  - # 16
    frequency:   15.5248949726
  - # 17
    frequency:   16.0663972674
  - # 18
    frequency:   17.7097106057

- q-position: [    0.1717172,    0.0000000,    0.0000000 ]
  distance:    0.0577943
  band:
  - # 1
    frequency:    0.7052515606
  - # 2
    frequency:    1.4459668188
  - # 3
    frequency:    2.3829868443
  - # 4
    frequency:    2.7043354145
  - # 5
    frequency:    3.8007384316
  - # 6
    frequency:    4.0706338030
  - # 7
    frequency:    4.5676675691
  - # 8
    frequency:    5.4312732020
  - # 9
    frequency:    5.9594516042
  - # 10
    frequency:    6.4495056647
  - # 11
    frequency:    8.1367437264
  - # 12
    frequency:    8.3033374932
  - # 13
    frequency:    9.0349660458
  - # 14
    frequency:   10.5596516363
  - # 15
    frequency:   11.1013822991
  - # 16
    frequency:   15.5231646169
  - # 17
    frequency:   16.2170200643
  - # 18
    frequency:   17.6572355165

- q-position: [    0.1767677,    0.0000000,    0.0000000 ]
  distance:    0.0594941
  band:
  - # 1
    frequency:    0.7897584558
  - # 2
    frequency:    1.5202880274
  - # 3
    frequency:    2.4455390339
  - # 4
    frequency:    2.7866381282
  - # 5
    frequency:    3.8745944028
  - # 6
    frequency:    4.0876983871
  - # 7
    frequency:    4.5984256175
  - # 8
    frequency:    5.4544178394
  - # 9
    frequency:    5.9641643709
  - # 10
    frequency:    6.4844555997
  - # 11
    frequency:    8.1287700431
  - # 12
    frequency:    8.3088558152
  - # 13
    frequency:    9.0505807610
  - # 14