nqpoint: 300    
npath: 3      
segment_nqpoint:
- 100
- 100
- 100
labels:
- [ 'G', 'M' ]
- [ 'M', 'K' ]
- [ 'K', 'G' ]
reciprocal_lattice:
- [   0.27487930,   0.15870164,   0.00000000 ] # a*
- [   0.00000000,   0.31740328,   0.00000000 ] # b*
- [   0.00000000,   0.00000000,   0.03711621 ] # c*
natom: 7      
lattice:
- [     3.637960319096689,     0.000000000000000,     0.000000000000000 ] # a
- [    -1.818980159548344,     3.150566054342562,     0.000000000000000 ] # b
- [     0.000000000000000,     0.000000000000000,    26.942402928204260 ] # c
points:
- symbol: C # 1
  coordinates: [  0.000000000000000,  0.000000000000000,  0.517584004439948 ]
  mass: 12.010700
- symbol: N # 2
  coordinates: [  0.333332985432215,  0.666666983183674,  0.617710033872859 ]
  mass: 14.006700
- symbol: O # 3
  coordinates: [  0.333332985432215,  0.666666983183674,  0.665954071580658 ]
  mass: 15.999400
- symbol: O # 4
  coordinates: [  0.666666984744047,  0.333332985985145,  0.334045928419342 ]
  mass: 15.999400
- symbol: P # 5
  coordinates: [  0.666666984744047,  0.333332985985145,  0.389570822887482 ]
  mass: 30.973762
- symbol: Y # 6
  coordinates: [  0.333332985432215,  0.666666983183674,  0.471062024040033 ]
  mass: 88.905850
- symbol: Y # 7
  coordinates: [  0.666666984744047,  0.333332985985145,  0.572362311615282 ]
  mass: 88.905850

phonon:
- q-position: [    0.0000000,    0.0000000,    0.0000000 ]
  distance:    0.0000000
  band:
  - # 1
    frequency:   -0.0000233792
  - # 2
    frequency:   -0.0000003098
  - # 3
    frequency:    0.0000294492
  - # 4
    frequency:    1.3271664581
  - # 5
    frequency:    1.3271664584
  - # 6
    frequency:    2.8595083410
  - # 7
    frequency:    2.8595083411
  - # 8
    frequency:    3.6340552482
  - # 9
    frequency:    3.6340552484
  - # 10
    frequency:    4.0693665934
  - # 11
    frequency:    4.2600580796
  - # 12
    frequency:    4.2600580796
  - # 13
    frequency:    5.5701097626
  - # 14
    frequency:    6.4613937218
  - # 15
    frequency:    6.4613937219
  - # 16
    frequency:    6.8313252793
  - # 17
    frequency:   11.1538476840
  - # 18
    frequency:   11.1538476842
  - # 19
    frequency:   12.8540454184
  - # 20
    frequency:   33.9540027999
  - # 21
    frequency:   42.6612947759

- q-position: [    0.0050505,    0.0000000,    0.0000000 ]
  distance:    0.0016030
  band:
  - # 1
    frequency:   -0.0008861560
  - # 2
    frequency:    0.0435091987
  - # 3
    frequency:    0.0671764988
  - # 4
    frequency:    1.3257751031
  - # 5
    frequency:    1.3277298969
  - # 6
    frequency:    2.8595954691
  - # 7
    frequency:    2.8599346667
  - # 8
    frequency:    3.6341633731
  - # 9
    frequency:    3.6347108217
  - # 10
    frequency:    4.0668447771
  - # 11
    frequency:    4.2598808685
  - # 12
    frequency:    4.2619187179
  - # 13
    frequency:    5.5701483093
  - # 14
    frequency:    6.4613304255
  - # 15
    frequency:    6.4623632411
  - # 16
    frequency:    6.8308667970
  - # 17
    frequency:   11.1537365797
  - # 18
    frequency:   11.1544900074
  - # 19
    frequency:   12.8542444652
  - # 20
    frequency:   33.9537659883
  - # 21
    frequency:   42.6606015846

- q-position: [    0.0101010,    0.0000000,    0.0000000 ]
  distance:    0.0032061
  band:
  - # 1
    frequency:   -0.0035888354
  - # 2
    frequency:    0.0869832004
  - # 3
    frequency:    0.1339993785
  - # 4
    frequency:    1.3216262165
  - # 5
    frequency:    1.3294114077
  - # 6
    frequency:    2.8598569361
  - # 7
    frequency:    2.8612121127
  - # 8
    frequency:    3.6344870904
  - # 9
    frequency:    3.6366718939
  - # 10
    frequency:    4.0595528760
  - # 11
    frequency:    4.2593493473
  - # 12
    frequency:    4.2672314314
  - # 13
    frequency:    5.5702647046
  - # 14
    frequency:    6.4611407362
  - # 15
    frequency:    6.4652660450
  - # 16
    frequency:    6.8294976811
  - # 17
    frequency:   11.1534034216
  - # 18
    frequency:   11.1564150840
  - # 19
    frequency:   12.8548410663
  - # 20
    frequency:   33.9530559182
  - # 21
    frequency:   42.6585229131

- q-position: [    0.0151515,    0.0000000,    0.0000000 ]
  distance:    0.0048091
  band:
  - # 1
    frequency:   -0.0082463695
  - # 2
    frequency:    0.1303864220
  - # 3
    frequency:    0.2000763310
  - # 4
    frequency:    1.3148024456
  - # 5
    frequency:    1.3321847740
  - # 6
    frequency:    2.8602929889
  - # 7
    frequency:    2.8633360002
  - # 8
    frequency:    3.6350244262
  - # 9
    frequency:    3.6399216035
  - # 10
    frequency:    4.0481646320
  - # 11
    frequency:    4.2584638547
  - # 12
    frequency:    4.2753356452
  - # 13
    frequency:    5.5704611983
  - # 14
    frequency:    6.4608252498
  - # 15
    frequency:    6.4700843904
  - # 16
    frequency:    6.8272373679
  - # 17
    frequency:   11.1528486751
  - # 18
    frequency:   11.1596172511
  - # 19
    frequency:   12.8558336095
  - # 20
    frequency:   33.9518736830
  - # 21
    frequency:   42.6550614668

- q-position: [    0.0202020,    0.0000000,    0.0000000 ]
  distance:    0.0064122
  band:
  - # 1
    frequency:   -0.0150982721
  - # 2
    frequency:    0.1736825067
  - # 3
    frequency:    0.2649310185
  - # 4
    frequency:    1.3054668805
  - # 5
    frequency:    1.3360069563
  - # 6
    frequency:    2.8609040331
  - # 7
    frequency:    2.8662982489
  - # 8
    frequency:    3.6357720859
  - # 9
    frequency:    3.6444320979
  - # 10
    frequency:    4.0334666024
  - # 11
    frequency:    4.2572249625
  - # 12
    frequency:    4.2854671907
  - # 13
    frequency:    5.5707414825
  - # 14
    frequency:    6.4603849506
  - # 15
    frequency:    6.4767870055
  - # 16
    frequency:    6.8241198221
  - # 17
    frequency:   11.1520731171
  - # 18
    frequency:   11.1640871245
  - # 19
    frequency:   12.8572194274
  - # 20
    frequency:   33.9502211023
  - # 21
    frequency:   42.6502217492

- q-position: [    0.0252525,    0.0000000,    0.0000000 ]
  distance:    0.0080152
  band:
  - # 1
    frequency:   -0.0245016723
  - # 2
    frequency:    0.2168338765
  - # 3
    frequency:    0.3279434454
  - # 4
    frequency:    1.2939070316
  - # 5
    frequency:    1.3408190525
  - # 6
    frequency:    2.8616906244
  - # 7
    frequency:    2.8700869806
  - # 8
    frequency:    3.6367254469
  - # 9
    frequency:    3.6501648084
  - # 10
    frequency:    4.0161569967
  - # 11
    frequency:    4.2556334877
  - # 12
    frequency:    4.2969601956
  - # 13
    frequency:    5.5711106083
  - # 14
    frequency:    6.4598211964
  - # 15
    frequency:    6.4853261928
  - # 16
    frequency:    6.8201962458
  - # 17
    frequency:   11.1510778386
  - # 18
    frequency:   11.1698116765
  - # 19
    frequency:   12.8589948263
  - # 20
    frequency:   33.9481007180
  - # 21
    frequency:   42.6440100542

- q-position: [    0.0303030,    0.0000000,    0.0000000 ]
  distance:    0.0096183
  band:
  - # 1
    frequency:   -0.0369581218
  - # 2
    frequency:    0.2598012243
  - # 3
    frequency:    0.3882667026
  - # 4
    frequency:    1.2806088075
  - # 5
    frequency:    1.3465475962
  - # 6
    frequency:    2.8626534565
  - # 7
    frequency:    2.8746860122
  - # 8
    frequency:    3.6378785480
  - # 9
    frequency:    3.6570706092
  - # 10
    frequency:    3.9967823379
  - # 11
    frequency:    4.2536905099
  - # 12
    frequency:    4.3093115986
  - # 13
    frequency:    5.5715748720
  - # 14
    frequency:    6.4591357000
  - # 15
    frequency:    6.4956329727
  - # 16
    frequency:    6.8155396823
  - # 17
    frequency:   11.1498642476
  - # 18
    frequency:   11.1767743417
  - # 19
    frequency:   12.8611551282
  - # 20
    frequency:   33.9455157883
  - # 21
    frequency:   42.6364344545

- q-position: [    0.0353535,    0.0000000,    0.0000000 ]
  distance:    0.0112213
  band:
  - # 1
    frequency:   -0.0531561307
  - # 2
    frequency:    0.3025429135
  - # 3
    frequency:    0.4447111053
  - # 4
    frequency:    1.2663722185
  - # 5
    frequency:    1.3531061606
  - # 6
    frequency:    2.8637933452
  - # 7
    frequency:    2.8800742819
  - # 8
    frequency:    3.6392240761
  - # 9
    frequency:    3.6650895370
  - # 10
    frequency:    3.9757525693
  - # 11
    frequency:    4.2513973964
  - # 12
    frequency:    4.3221679238
  - # 13
    frequency:    5.5721416745
  - # 14
    frequency:    6.4583305048
  - # 15
    frequency:    6.5076091760
  - # 16
    frequency:    6.8102526161
  - # 17
    frequency:   11.1484340725
  - # 18
    frequency:   11.1849551462
  - # 19
    frequency:   12.8636947251
  - # 20
    frequency:   33.9424702804
  - # 21
    frequency:   42.6275047873

- q-position: [    0.0404040,    0.0000000,    0.0000000 ]
  distance:    0.0128244
  band:
  - # 1
    frequency:   -0.0740368389
  - # 2
    frequency:    0.3450142534
  - # 3
    frequency:    0.4955973853
  - # 4
    frequency:    1.2524754239
  - # 5
    frequency:    1.3603972246
  - # 6
    frequency:    2.8651112093
  - # 7
    frequency:    2.8862252564
  - # 8
    frequency:    3.6407533490
  - # 9
    frequency:    3.6741494407
  - # 10
    frequency:    3.9533797351
  - # 11
    frequency:    4.2487558349
  - # 12
    frequency:    4.3352897443
  - # 13
    frequency:    5.5728193575
  - # 14
    frequency:    6.4574079559
  - # 15
    frequency:    6.5211145648
  - # 16
    frequency:    6.8044795022
  - # 17
    frequency:   11.1467893666
  - # 18
    frequency:   11.1943308539
  - # 19
    frequency:   12.8666071472
  - # 20
    frequency:   33.9389688619
  - # 21
    frequency:   42.6172326367

- q-position: [    0.0454545,    0.0000000,    0.0000000 ]
  distance:    0.0144274
  band:
  - # 1
    frequency:   -0.1008916937
  - # 2
    frequency:    0.3871666154
  - # 3
    frequency:    0.5386244443
  - # 4
    frequency:    1.2408613505
  - # 5
    frequency:    1.3683142717
  - # 6
    frequency:    2.8666080475
  - # 7
    frequency:    2.8931063669
  - # 8
    frequency:    3.6424562959
  - # 9
    frequency:    3.6841622004
  - # 10
    frequency:    3.9299170257
  - # 11
    frequency:    4.2457678774
  - # 12
    frequency:    4.3485183261
  - # 13
    frequency:    5.5736170222
  - # 14
    frequency:    6.4563706679
  - # 15
    frequency:    6.5359456404
  - # 16
    frequency:    6.7984275780
  - # 17
    frequency:   11.1449325132
  - # 18
    frequency:   11.2048751276
  - # 19
    frequency:   12.8698851459
  - # 20
    frequency:   33.9350168901
  - # 21
    frequency:   42.6056313134

- q-position: [    0.0505051,    0.0000000,    0.0000000 ]
  distance:    0.0160305
  band:
  - # 1
    frequency:   -0.1354952863
  - # 2
    frequency:    0.4289463436
  - # 3
    frequency:    0.5709149226
  - # 4
    frequency:    1.2342269468
  - # 5
    frequency:    1.3767440921
  - # 6
    frequency:    2.8682849121
  - # 7
    frequency:    2.9006785174
  - # 8
    frequency:    3.6443214326
  - # 9
    frequency:    3.6950142352
  - # 10
    frequency:    3.9055953131
  - # 11
    frequency:    4.2424359954
  - # 12
    frequency:    4.3617505225
  - # 13
    frequency:    5.5745443333
  - # 14
    frequency:    6.4552214879
  - # 15
    frequency:    6.5518005532
  - # 16
    frequency:    6.7924015587
  - # 17
    frequency:   11.1428662299
  - # 18
    frequency:   11.2165586957
  - # 19
    frequency:   12.8735207916
  - # 20
    frequency:   33.9306203997
  - # 21
    frequency:   42.5927158307

- q-position: [    0.0555556,    0.0000000,    0.0000000 ]
  distance:    0.0176335
  band:
  - # 1
    frequency:   -0.1802411428
  - # 2
    frequency:    0.4702934025
  - # 3
    frequency:    0.5895909956
  - # 4
    frequency:    1.2357477493
  - # 5
    frequency:    1.3855692828
  - # 6
    frequency:    2.8701428790
  - # 7
    frequency:    2.9088957012
  - # 8
    frequency:    3.6463358351
  - # 9
    frequency:    3.7065423180
  - # 10
    frequency:    3.8806666478
  - # 11
    frequency:    4.2387631504
  - # 12
    frequency:    4.3749213537
  - # 13
    frequency:    5.5756113159
  - # 14
    frequency:    6.4539634574
  - # 15
    frequency:    6.5682218187
  - # 16
    frequency:    6.7868605267
  - # 17
    frequency:   11.1405935744
  - # 18
    frequency:   11.2293495203
  - # 19
    frequency:   12.8775055888
  - # 20
    frequency:   33.9257860899
  - # 21
    frequency:   42.5785028779

- q-position: [    0.0606061,    0.0000000,    0.0000000 ]
  distance:    0.0192366
  band:
  - # 1
    frequency:   -0.2381228797
  - # 2
    frequency:    0.5111396889
  - # 3
    frequency:    0.5932350811
  - # 4
    frequency:    1.2482032396
  - # 5
    frequency:    1.3946709545
  - # 6
    frequency:    2.8721830145
  - # 7
    frequency:    2.9177047498
  - # 8
    frequency:    3.6484851075
  - # 9
    frequency:    3.7184660074
  - # 10
    frequency:    3.8554853260
  - # 11
    frequency:    4.2347528802
  - # 12
    frequency:    4.3879922829
  - # 13
    frequency:    5.5768281482
  - # 14
    frequency:    6.4525997703
  - # 15
    frequency:    6.5845091375
  - # 16
    frequency:    6.7825047282
  - # 17
    frequency:   11.1381179491
  - # 18
    frequency:   11.2432129592
  - # 19
    frequency:   12.8818306082
  - # 20
    frequency:   33.9205213087
  - # 21
    frequency:   42.5630107909

- q-position: [    0.0656566,    0.0000000,    0.0000000 ]
  distance:    0.0208396
  band:
  - # 1
    frequency:   -0.3121236456
  - # 2
    frequency:    0.5514069169
  - # 3
    frequency:    0.5838545463
  - # 4
    frequency:    1.2728538294
  - # 5
    frequency:    1.4039316842
  - # 6
    frequency:    2.8744063386
  - # 7
    frequency:    2.9270452251
  - # 8
    frequency:    3.6507533474
  - # 9
    frequency:    3.7301666338
  - # 10
    frequency:    3.8307383241
  - # 11
    frequency:    4.2304094053
  - # 12
    frequency:    4.4009433897
  - # 13
    frequency:    5.5782049566
  - # 14
    frequency:    6.4511337311
  - # 15
    frequency:    6.5996143274
  - # 16
    frequency:    6.7803802868
  - # 17
    frequency:   11.1354431064
  - # 18
    frequency:   11.2581119168
  - # 19
    frequency:   12.8864866372
  - # 20
    frequency:   33.9148340363
  - # 21
    frequency:   42.5462595199

- q-position: [    0.0707071,    0.0000000,    0.0000000 ]
  distance:    0.0224427
  band:
  - # 1
    frequency:   -0.4034955602
  - # 2
    frequency:    0.5676071288
  - # 3
    frequency:    0.5910039546
  - # 4
    frequency:    1.3090356300
  - # 5
    frequency:    1.4132387805
  - # 6
    frequency:    2.8768137863
  - # 7
    frequency:    2.9368494509
  - # 8
    frequency:    3.6531231063
  - # 9
    frequency:    3.7398135951
  - # 10
    frequency:    3.8083256058
  - # 11
    frequency:    4.2257377564
  - # 12
    frequency:    4.4137681395
  - # 13
    frequency:    5.5797516174
  - # 14
    frequency:    6.4495687116
  - # 15
    frequency:    6.6121074190
  - # 16
    frequency:    6.7819127897
  - # 17
    frequency:   11.1325731527
  - # 18
    frequency:   11.2740069760
  - # 19
    frequency:   12.8914643509
  - # 20
    frequency:   33.9087328679
  - # 21
    frequency:   42.5282705940

- q-position: [    0.0757576,    0.0000000,    0.0000000 ]
  distance:    0.0240457
  band:
  - # 1
    frequency:   -0.5098219695
  - # 2
    frequency:    0.5523936036
  - # 3
    frequency:    0.6298234667
  - # 4
    frequency:    1.3548179854
  - # 5
    frequency:    1.4224879661
  - # 6
    frequency:    2.8794061656
  - # 7
    frequency:    2.9470426696
  - # 8
    frequency:    3.6555753473
  - # 9
    frequency:    3.7413625093
  - # 10
    frequency:    3.7943665981
  - # 11
    frequency:    4.2207439263
  - # 12
    frequency:    4.4264698725
  - # 13
    frequency:    5.5814775690
  - # 14
    frequency:    6.4479081082
  - # 15
    frequency:    6.6204345711
  - # 16
    frequency:    6.7886491031
  - # 17
    frequency:   11.1295125527
  - # 18
    frequency:   11.2908565083
  - # 19
    frequency:   12.8967545024
  - # 20
    frequency:   33.9022269935
  - # 21
    frequency:   42.5090670837

- q-position: [    0.0808081,    0.0000000,    0.0000000 ]
  distance:    0.0256487
  band:
  - # 1
    frequency:   -0.6256510099
  - # 2
    frequency:    0.5437173548
  - # 3
    frequency:    0.6677376776
  - # 4
    frequency:    1.4079686268
  - # 5
    frequency:    1.4315876130
  - # 6
    frequency:    2.8821841151
  - # 7
    frequency:    2.9575432947
  - # 8
    frequency:    3.6580893983
  - # 9
    frequency:    3.7276100318
  - # 10
    frequency:    3.7961485942
  - # 11
    frequency:    4.2154350470
  - # 12
    frequency:    4.4390594369
  - # 13
    frequency:    5.5833916405
  - # 14
    frequency:    6.4461553005
  - # 15
    frequency:    6.6235791410
  - # 16
    frequency:    6.8015960868
  - # 17
    frequency:   11.1262661314
  - # 18
    frequency:   11.3086167545
  - # 19
    frequency:   12.9023481353
  - # 20
    frequency:   33.8953261776
  - # 21
    frequency:   42.4886735604

- q-position: [    0.0858586,    0.0000000,    0.0000000 ]
  distance:    0.0272518
  band:
  - # 1
    frequency:   -0.7455704927
  - # 2
    frequency:    0.5431531080
  - # 3
    frequency:    0.7045930390
  - # 4
    frequency:    1.4404637008
  - # 5
    frequency:    1.4665363820
  - # 6
    frequency:    2.8851480599
  - # 7
    frequency:    2.9682632251
  - # 8
    frequency:    3.6606429038
  - # 9
    frequency:    3.7048589608
  - # 10
    frequency:    3.8074638454
  - # 11
    frequency:    4.2098195956
  - # 12
    frequency:    4.4515535932
  - # 13
    frequency:    5.5855018971
  - # 14
    frequency:    6.4443136116
  - # 15
    frequency:    6.6215905376
  - # 16
    frequency:    6.8206915883
  - # 17
    frequency:   11.1228390769
  - # 18
    frequency:   11.3272418737
  - # 19
    frequency:   12.9082368177
  - # 20
    frequency:   33.8880407371
  - # 21
    frequency:   42.4671160531

- q-position: [    0.0909091,    0.0000000,    0.0000000 ]
  distance:    0.0288548
  band:
  - # 1
    frequency:   -0.8661115127
  - # 2
    frequency:    0.5499038056
  - # 3
    frequency:    0.7402035658
  - # 4
    frequency:    1.4490656784
  - # 5
    frequency:    1.5290114012
  - # 6
    frequency:    2.8882981678
  - # 7
    frequency:    2.9791081835
  - # 8
    frequency:    3.6632117737
  - # 9
    frequency:    3.6793548192
  - # 10
    frequency:    3.8221744319
  - # 11
    frequency:    4.2039076270
  - # 12
    frequency:    4.4639739428
  - # 13
    frequency:    5.5878155084
  - # 14
    frequency:    6.4423862720
  - # 15
    frequency:    6.6153385509
  - # 16
    frequency:    6.8450500215
  - # 17
    frequency:   11.1192369402
  - # 18
    frequency:   11.3466839570
  - # 19
    frequency:   12.9144128984
  - # 20
    frequency:   33.8803815180
  - # 21
    frequency:   42.4444220041

- q-position: [    0.0959596,    0.0000000,    0.0000000 ]
  distance:    0.0304579
  band:
  - # 1
    frequency:   -0.9856096616
  - # 2
    frequency:    0.5625409134
  - # 3
    frequency:    0.7743426175
  - # 4
    frequency:    1.4573733820
  - # 5
    frequency:    1.5942788347
  - # 6
    frequency:    2.8916343075
  - # 7
    frequency:    2.9899780510
  - # 8
    frequency:    3.6531127484
  - # 9
    frequency:    3.6657701335
  - # 10
    frequency:    3.8383862928
  - # 11
    frequency:    4.1977110348
  - # 12
    frequency:    4.4763462155
  - # 13
    frequency:    5.5903386395
  - # 14
    frequency:    6.4403763861
  - # 15
    frequency:    6.6058801388
  - # 16
    frequency:    6.8735955542
  - # 17
    frequency:   11.1154656352
  - # 18
    frequency:   11.3668930027
  - # 19
    frequency:   12.9208697852
  - # 20
    frequency:   33.8723598714
  - # 21
    frequency:   42.4206202204

- q-position: [    0.1010101,    0.0000000,    0.0000000 ]
  distance:    0.0320609
  band:
  - # 1
    frequency:   -1.1034582593
  - # 2
    frequency:    0.5797693900
  - # 3
    frequency:    0.8067330002
  - # 4
    frequency:    1.4654050458
  - # 5
    frequency:    1.6615202899
  - # 6
    frequency:    2.8951560085
  - # 7
    frequency:    3.0007671860
  - # 8
    frequency:    3.6268908778
  - # 9
    frequency:    3.6682902766
  - # 10
    frequency:    3.8554764211
  - # 11
    frequency:    4.1912438386
  - # 12
    frequency:    4.4886998044
  - # 13
    frequency:    5.5930763676
  - # 14
    frequency:    6.4382869045
  - # 15
    frequency:    6.5940879122
  - # 16
    frequency:    6.9054336579
  - # 17
    frequency:   11.1115314353
  - # 18
    frequency:   11.3878168527
  - # 19
    frequency:   12.9276022446
  - # 20
    frequency:   33.8639876273
  - # 21
    frequency:   42.3957408247

- q-position: [    0.1060606,    0.0000000,    0.0000000 ]
  distance:    0.0336640
  band:
  - # 1
    frequency:   -1.2195518386
  - # 2
    frequency:    0.6005903725
  - # 3
    frequency:    0.8370354995
  - # 4
    frequency:    1.4732261667
  - # 5
    frequency:    1.7301238774
  - # 6
    frequency:    2.8988624255
  - # 7
    frequency:    3.0113647605
  - # 8
    frequency:    3.6011064439
  - # 9
    frequency:    3.6707426234
  - # 10
    frequency:    3.8731770845
  - # 11
    frequency:    4.1845224929
  - # 12
    frequency:    4.5010674680
  - # 13
    frequency:    5.5960326244
  - # 14
    frequency:    6.4361206008
  - # 15
    frequency:    6.5805863017
  - # 16
    frequency:    6.9399150359
  - # 17
    frequency:   11.1074409702
  - # 18
    frequency:   11.4094010893
  - # 19
    frequency:   12.9346067230
  - # 20
    frequency:   33.8552770686
  - # 21
    frequency:   42.3698152032

- q-position: [    0.1111111,    0.0000000,    0.0000000 ]
  distance:    0.0352670
  band:
  - # 1
    frequency:   -1.3339880456
  - # 2
    frequency:    0.6242661774
  - # 3
    frequency:    0.8648364429
  - # 4
    frequency:    1.4809584543
  - # 5
    frequency:    1.7996163165
  - # 6
    frequency:    2.9027523082
  - # 7
    frequency:    3.0216552173
  - # 8
    frequency:    3.5760686005
  - # 9
    frequency:    3.6730956931
  - # 10
    frequency:    3.8913432029
  - # 11
    frequency:    4.1775662114
  - # 12
    frequency:    4.5134851425
  - # 13
    frequency:    5.5992101653
  - # 14
    frequency:    6.4338800541
  - # 15
    frequency:    6.5658046796
  - # 16
    frequency:    6.9765826498
  - # 17
    frequency:   11.1032012193
  - # 18
    frequency:   11.4315888937
  - # 19
    frequency:   12.9418816855
  - # 20
    frequency:   33.8462409035
  - # 21
    frequency:   42.3428759522

- q-position: [    0.1161616,    0.0000000,    0.0000000 ]
  distance:    0.0368701
  band:
  - # 1
    frequency:   -1.4469271156
  - # 2
    frequency:    0.6502519573
  - # 3
    frequency:    0.8896356868
  - # 4
    frequency:    1.4887872144
  - # 5
    frequency:    1.8696147791
  - # 6
    frequency:    2.9068239770
  - # 7
    frequency:    3.0315190692
  - # 8
    frequency:    3.5520503320
  - # 9
    frequency:    3.6753160947
  - # 10
    frequency:    3.9098804555
  - # 11
    frequency:    4.1703972979
  - # 12
    frequency:    4.5259918169
  - # 13
    frequency:    5.6026105649
  - # 14
    frequency:    6.4315676387
  - # 15
    frequency:    6.5500407922
  - # 16
    frequency:    7.0151084830
  - # 17
    frequency:   11.0988195039
  - # 18
    frequency:   11.4543208689
  - # 19
    frequency:   12.9494279718
  - # 20
    frequency:   33.8368922368
  - # 21
    frequency:   42.3149568222

- q-position: [    0.1212121,    0.0000000,    0.0000000 ]
  distance:    0.0384731
  band:
  - # 1
    frequency:   -1.5585303747
  - # 2
    frequency:    0.6781380493
  - # 3
    frequency:    0.9108375220
  - # 4
    frequency:    1.4969643087
  - # 5
    frequency:    1.9397930315
  - # 6
    frequency:    2.9110753071
  - # 7
    frequency:    3.0408344401
  - # 8
    frequency:    3.5293148974
  - # 9
    frequency:    3.6773685482
  - # 10
    frequency:    3.9287185242
  - # 11
    frequency:    4.1630414701
  - # 12
    frequency:    4.5386294362
  - # 13
    frequency:    5.6062342375
  - # 14
    frequency:    6.4291855200
  - # 15
    frequency:    6.5335074141
  - # 16
    frequency:    7.0552471235
  - # 17
    frequency:   11.0943034773
  - # 18
    frequency:   11.4775348302
  - # 19
    frequency:   12.9572491642
  - # 20
    frequency:   33.8272445411
  - # 21
    frequency:   42.2860926608

- q-position: [    0.1262626,    0.0000000,    0.0000000 ]
  distance:    0.0400762
  band:
  - # 1
    frequency:   -1.6689357989
  - # 2
    frequency:    0.7076087394
  - # 3
    frequency:    0.9277480045
  - # 4
    frequency:    1.5058026315
  - # 5
    frequency:    2.0098570558
  - # 6
    frequency:    2.9155037206
  - # 7
    frequency:    3.0494799900
  - # 8
    frequency:    3.5081263379
  - # 9
    frequency:    3.6792159488
  - # 10
    frequency:    3.9477995707
  - # 11
    frequency:    4.1555281576
  - # 12
    frequency:    4.5514427984
  - # 13
    frequency:    5.6100804820
  - # 14
    frequency:    6.4267356576
  - # 15
    frequency:    6.5163625265
  - # 16
    frequency:    7.0968058568
  - # 17
    frequency:   11.0896611124
  - # 18
    frequency:   11.5011655701
  - # 19
    frequency:   12.9653519634
  - # 20
    frequency:   33.8173116263
  - # 21
    frequency:   42.2563193539

- q-position: [    0.1313131,    0.0000000,    0.0000000 ]
  distance:    0.0416792
  band:
  - # 1
    frequency:   -1.7782504665
  - # 2
    frequency:    0.7384142192
  - # 3
    frequency:    0.9395822047
  - # 4
    frequency:    1.5156577678
  - # 5
    frequency:    2.0795265786
  - # 6
    frequency:    2.9201061879
  - # 7
    frequency:    3.0573401517
  - # 8
    frequency:    3.4887526763
  - # 9
    frequency:    3.6808194909
  - # 10
    frequency:    3.9670727057
  - # 11
    frequency:    4.1478907531
  - # 12
    frequency:    4.5644794169
  - # 13
    frequency:    5.6141475487
  - # 14
    frequency:    6.4242198161
  - # 15
    frequency:    6.4987281384
  - # 16
    frequency:    7.1396261409
  - # 17
    frequency:   11.0849006875
  - # 18
    frequency:   11.5251446038
  - # 19
    frequency:   12.9737465644
  - # 20
    frequency:   33.8071076098
  - # 21
    frequency:   42.2256737651

- q-position: [    0.1363636,    0.0000000,    0.0000000 ]
  distance:    0.0432823
  band:
  - # 1
    frequency:   -1.8865505066
  - # 2
    frequency:    0.7703517345
  - # 3
    frequency:    0.9454823491
  - # 4
    frequency:    1.5268945355
  - # 5
    frequency:    2.1485199764
  - # 6
    frequency:    2.9248792379
  - # 7
    frequency:    3.0643138367
  - # 8
    frequency:    3.4714642985
  - # 9
    frequency:    3.6821388730
  - # 10
    frequency:    3.9864911527
  - # 11
    frequency:    4.1401667874
  - # 12
    frequency:    4.5777893195
  - # 13
    frequency:    5.6184327268
  - # 14
    frequency:    6.4216395821
  - # 15
    frequency:    6.4807020073
  - # 16
    frequency:    7.1835722005
  - # 17
    frequency:   11.0800307698
  - # 18
    frequency:   11.5493999071
  - # 19
    frequency:   12.9824470252
  - # 20
    frequency:   33.7966468849
  - # 21
    frequency:   42.1941936747

- q-position: [    0.1414141,    0.0000000,    0.0000000 ]
  distance:    0.0448853
  band:
  - # 1
    frequency:   -1.9938841890
  - # 2
    frequency:    0.8032528515
  - # 3
    frequency:    0.9445417216
  - # 4
    frequency:    1.5398413877
  - # 5
    frequency:    2.2165407519
  - # 6
    frequency:    2.9298189765
  - # 7
    frequency:    3.0703277473
  - # 8
    frequency:    3.4565280754
  - # 9
    frequency:    3.6831326060
  - # 10
    frequency:    4.0060108040
  - # 11
    frequency:    4.1323979962
  - # 12
    frequency:    4.5914247585
  - # 13
    frequency:    5.6229324490
  - # 14
    frequency:    6.4189963896
  - # 15
    frequency:    6.4623650343
  - # 16
    frequency:    7.2285239597
  - # 17
    frequency:   11.0750601967
  - # 18
    frequency:   11.5738556572
  - # 19
    frequency:   12.9914716158
  - # 20
    frequency:   33.7859440896
  - # 21
    frequency:   42.1619177160

- q-position: [    0.1464646,    0.0000000,    0.0000000 ]
  distance:    0.0464884
  band:
  - # 1
    frequency:   -2.1002761281
  - # 2
    frequency:    0.8369747501
  - # 3
    frequency:    0.9358206273
  - # 4
    frequency:    1.5547427228
  - # 5
    frequency:    2.2832642575
  - # 6
    frequency:    2.9349211129
  - # 7
    frequency:    3.0753548589
  - # 8
    frequency:    3.4441976236
  - # 9
    frequency:    3.6837584525
  - # 10
    frequency:    4.0255896025
  - # 11
    frequency:    4.1246302416
  - # 12
    frequency:    4.6054398069
  - # 13
    frequency:    5.6276424111
  - # 14
    frequency:    6.4162915507
  - # 15
    frequency:    6.4437860215
  - # 16
    frequency:    7.2743726157
  - # 17
    frequency:   11.0699980551
  - # 18
    frequency:   11.5984319928
  - # 19
    frequency:   13.0008431361
  - # 20
    frequency:   33.7750140744
  - # 21
    frequency:   42.1288853124

- q-position: [    0.1515152,    0.0000000,    0.0000000 ]
  distance:    0.0480914
  band:
  - # 1
    frequency:   -2.2057316627
  - # 2
    frequency:    0.8713941692
  - # 3
    frequency:    0.9183335429
  - # 4
    frequency:    1.5717235080
  - # 5
    frequency:    2.3483237296
  - # 6
    frequency:    2.9401809909
  - # 7
    frequency:    3.0794372599
  - # 8
    frequency:    3.4347011012
  - # 9
    frequency:    3.6839740227
  - # 10
    frequency:    4.0451874924
  - # 11
    frequency:    4.1169132507
  - # 12
    frequency:    4.6198898230
  - # 13
    frequency:    5.6325577040
  - # 14
    frequency:    6.4135262930
  - # 15
    frequency:    6.4250248042
  - # 16
    frequency:    7.3210178387
  - # 17
    frequency:   11.0648536583
  - # 18
    frequency:   11.6230448110
  - # 19
    frequency:   13.0105891833
  - # 20
    frequency:   33.7638718708
  - # 21
    frequency:   42.0951366118
