nqpoint: 300    
npath: 3      
segment_nqpoint:
- 100
- 100
- 100
labels:
- [ 'G', 'M' ]
- [ 'M', 'K' ]
- [ 'K', 'G' ]
reciprocal_lattice:
- [   0.29644849,   0.17115462,   0.00000000 ] # a*
- [   0.00000000,   0.34230924,   0.00000000 ] # b*
- [   0.00000000,   0.00000000,   0.03680442 ] # c*
natom: 8      
lattice:
- [     3.373267269083970,     0.000000000000000,     0.000000000000000 ] # a
- [    -1.686633634541985,     2.921335148773375,     0.000000000000000 ] # b
- [     0.000000000000000,     0.000000000000000,    27.170648583760403 ] # c
points:
- symbol: C # 1
  coordinates: [  0.666666984744047,  0.333332985985145,  0.388358665936059 ]
  mass: 12.010700
- symbol: N # 2
  coordinates: [  0.000000000000000,  0.000000000000000,  0.529565358379238 ]
  mass: 14.006700
- symbol: N # 3
  coordinates: [  0.333332985432215,  0.666666983183674,  0.620234188155905 ]
  mass: 14.006700
- symbol: N # 4
  coordinates: [  0.666666984744047,  0.333332985985145,  0.434579811246047 ]
  mass: 14.006700
- symbol: O # 5
  coordinates: [  0.333332985432215,  0.666666983183674,  0.668760207462283 ]
  mass: 15.999400
- symbol: S # 6
  coordinates: [  0.666666984744047,  0.333332985985145,  0.331239792537717 ]
  mass: 32.065000
- symbol: Zr # 7
  coordinates: [  0.333332985432215,  0.666666983183674,  0.486082321682276 ]
  mass: 91.224000
- symbol: Zr # 8
  coordinates: [  0.666666984744047,  0.333332985985145,  0.578345566674952 ]
  mass: 91.224000

phonon:
- q-position: [    0.0000000,    0.0000000,    0.0000000 ]
  distance:    0.0000000
  band:
  - # 1
    frequency:   -7.2366086738
  - # 2
    frequency:   -7.2366086738
  - # 3
    frequency:   -0.0000142145
  - # 4
    frequency:    0.0000002483
  - # 5
    frequency:    0.0000121502
  - # 6
    frequency:    1.0689668649
  - # 7
    frequency:    1.0689668650
  - # 8
    frequency:    3.3449240727
  - # 9
    frequency:    3.3449240727
  - # 10
    frequency:    4.7735426539
  - # 11
    frequency:    6.0814667541
  - # 12
    frequency:    6.0814667541
  - # 13
    frequency:    6.6310781777
  - # 14
    frequency:    6.6310781778
  - # 15
    frequency:    6.9158595396
  - # 16
    frequency:    7.7660760361
  - # 17
    frequency:   12.8787720761
  - # 18
    frequency:   12.8787720762
  - # 19
    frequency:   13.1015246257
  - # 20
    frequency:   13.6085387576
  - # 21
    frequency:   13.6085387577
  - # 22
    frequency:   26.9520663131
  - # 23
    frequency:   39.5506083415
  - # 24
    frequency:   56.9585797759

- q-position: [    0.0050505,    0.0000000,    0.0000000 ]
  distance:    0.0017288
  band:
  - # 1
    frequency:   -7.2353936328
  - # 2
    frequency:   -7.2349911542
  - # 3
    frequency:    0.0023335944
  - # 4
    frequency:    0.0602046402
  - # 5
    frequency:    0.1002260999
  - # 6
    frequency:    1.0699300618
  - # 7
    frequency:    1.0722800415
  - # 8
    frequency:    3.3457086539
  - # 9
    frequency:    3.3460485742
  - # 10
    frequency:    4.7729477259
  - # 11
    frequency:    6.0814266511
  - # 12
    frequency:    6.0818467020
  - # 13
    frequency:    6.6314092593
  - # 14
    frequency:    6.6318232447
  - # 15
    frequency:    6.9158278695
  - # 16
    frequency:    7.7656877002
  - # 17
    frequency:   12.8783314594
  - # 18
    frequency:   12.8788015665
  - # 19
    frequency:   13.1016294714
  - # 20
    frequency:   13.6085021266
  - # 21
    frequency:   13.6086476930
  - # 22
    frequency:   26.9519909317
  - # 23
    frequency:   39.5500276400
  - # 24
    frequency:   56.9578201465

- q-position: [    0.0101010,    0.0000000,    0.0000000 ]
  distance:    0.0034577
  band:
  - # 1
    frequency:   -7.2317468879
  - # 2
    frequency:   -7.2301452971
  - # 3
    frequency:    0.0092812407
  - # 4
    frequency:    0.1203624073
  - # 5
    frequency:    0.2004367484
  - # 6
    frequency:    1.0728142814
  - # 7
    frequency:    1.0821447240
  - # 8
    frequency:    3.3480591397
  - # 9
    frequency:    3.3494118990
  - # 10
    frequency:    4.7711691475
  - # 11
    frequency:    6.0813145304
  - # 12
    frequency:    6.0829840331
  - # 13
    frequency:    6.6324044340
  - # 14
    frequency:    6.6340430720
  - # 15
    frequency:    6.9157345607
  - # 16
    frequency:    7.7645239668
  - # 17
    frequency:   12.8770112902
  - # 18
    frequency:   12.8788913622
  - # 19
    frequency:   13.1019413487
  - # 20
    frequency:   13.6083927512
  - # 21
    frequency:   13.6089745268
  - # 22
    frequency:   26.9517649465
  - # 23
    frequency:   39.5482862750
  - # 24
    frequency:   56.9555424664

- q-position: [    0.0151515,    0.0000000,    0.0000000 ]
  distance:    0.0051865
  band:
  - # 1
    frequency:   -7.2256636312
  - # 2
    frequency:   -7.2220911901
  - # 3
    frequency:    0.0206982961
  - # 4
    frequency:    0.1804265205
  - # 5
    frequency:    0.3006149385
  - # 6
    frequency:    1.0776036238
  - # 7
    frequency:    1.0983457933
  - # 8
    frequency:    3.3519657444
  - # 9
    frequency:    3.3549838251
  - # 10
    frequency:    4.7682253735
  - # 11
    frequency:    6.0811543563
  - # 12
    frequency:    6.0848712257
  - # 13
    frequency:    6.6340694653
  - # 14
    frequency:    6.6376920764
  - # 15
    frequency:    6.9155849490
  - # 16
    frequency:    7.7625886701
  - # 17
    frequency:   12.8748165068
  - # 18
    frequency:   12.8790454310
  - # 19
    frequency:   13.1024523926
  - # 20
    frequency:   13.6082121788
  - # 21
    frequency:   13.6095193516
  - # 22
    frequency:   26.9513888344
  - # 23
    frequency:   39.5453864638
  - # 24
    frequency:   56.9517503561

- q-position: [    0.0202020,    0.0000000,    0.0000000 ]
  distance:    0.0069153
  band:
  - # 1
    frequency:   -7.2171360414
  - # 2
    frequency:   -7.2108622498
  - # 3
    frequency:    0.0363644087
  - # 4
    frequency:    0.2403503490
  - # 5
    frequency:    0.4007404723
  - # 6
    frequency:    1.0842722866
  - # 7
    frequency:    1.1205534489
  - # 8
    frequency:    3.3574121195
  - # 9
    frequency:    3.3627150193
  - # 10
    frequency:    4.7641466296
  - # 11
    frequency:    6.0809841528
  - # 12
    frequency:    6.0874957976
  - # 13
    frequency:    6.6364138693
  - # 14
    frequency:    6.6426959745
  - # 15
    frequency:    6.9153887073
  - # 16
    frequency:    7.7598882382
  - # 17
    frequency:   12.8717550074
  - # 18
    frequency:   12.8792703632
  - # 19
    frequency:   13.1031498622
  - # 20
    frequency:   13.6079629680
  - # 21
    frequency:   13.6102823520
  - # 22
    frequency:   26.9508633879
  - # 23
    frequency:   39.5413318982
  - # 24
    frequency:   56.9464498404

- q-position: [    0.0252525,    0.0000000,    0.0000000 ]
  distance:    0.0086442
  band:
  - # 1
    frequency:   -7.2061535681
  - # 2
    frequency:   -7.1965051273
  - # 3
    frequency:    0.0560101085
  - # 4
    frequency:    0.3000874127
  - # 5
    frequency:    0.5007881339
  - # 6
    frequency:    1.0927855834
  - # 7
    frequency:    1.1483582975
  - # 8
    frequency:    3.3643752998
  - # 9
    frequency:    3.3725385206
  - # 10
    frequency:    4.7589741384
  - # 11
    frequency:    6.0808534119
  - # 12
    frequency:    6.0908403916
  - # 13
    frequency:    6.6394507754
  - # 14
    frequency:    6.6489539690
  - # 15
    frequency:    6.9151610589
  - # 16
    frequency:    7.7564317487
  - # 17
    frequency:   12.8678372005
  - # 18
    frequency:   12.8795753373
  - # 19
    frequency:   13.1040166429
  - # 20
    frequency:   13.6076486591
  - # 21
    frequency:   13.6112638495
  - # 22
    frequency:   26.9501897121
  - # 23
    frequency:   39.5361277396
  - # 24
    frequency:   56.9396493333

- q-position: [    0.0303030,    0.0000000,    0.0000000 ]
  distance:    0.0103730
  band:
  - # 1
    frequency:   -7.1927033237
  - # 2
    frequency:   -7.1790795703
  - # 3
    frequency:    0.0793424141
  - # 4
    frequency:    0.3595912889
  - # 5
    frequency:    0.6007255321
  - # 6
    frequency:    1.1031013172
  - # 7
    frequency:    1.1813083401
  - # 8
    frequency:    3.3728256351
  - # 9
    frequency:    3.3843716850
  - # 10
    frequency:    4.7527590798
  - # 11
    frequency:    6.0808199606
  - # 12
    frequency:    6.0948829051
  - # 13
    frequency:    6.6431967214
  - # 14
    frequency:    6.6563411891
  - # 15
    frequency:    6.9149245574
  - # 16
    frequency:    7.7522310041
  - # 17
    frequency:   12.8630754605
  - # 18
    frequency:   12.8799720705
  - # 19
    frequency:   13.1050318648
  - # 20
    frequency:   13.6072737328
  - # 21
    frequency:   13.6124643639
  - # 22
    frequency:   26.9493692201
  - # 23
    frequency:   39.5297806115
  - # 24
    frequency:   56.9313596181

- q-position: [    0.0353535,    0.0000000,    0.0000000 ]
  distance:    0.0121018
  band:
  - # 1
    frequency:   -7.1767705765
  - # 2
    frequency:   -7.1586582395
  - # 3
    frequency:    0.1060654974
  - # 4
    frequency:    0.4188153890
  - # 5
    frequency:    0.7005103931
  - # 6
    frequency:    1.1151714653
  - # 7
    frequency:    1.2189421179
  - # 8
    frequency:    3.3827267177
  - # 9
    frequency:    3.3981184744
  - # 10
    frequency:    4.7455613302
  - # 11
    frequency:    6.0809466463
  - # 12
    frequency:    6.0995966717
  - # 13
    frequency:    6.6476713749
  - # 14
    frequency:    6.6647109094
  - # 15
    frequency:    6.9147115106
  - # 16
    frequency:    7.7473006244
  - # 17
    frequency:   12.8574835506
  - # 18
    frequency:   12.8804747525
  - # 19
    frequency:   13.1061715763
  - # 20
    frequency:   13.6068435597
  - # 21
    frequency:   13.6138846884
  - # 22
    frequency:   26.9484036277
  - # 23
    frequency:   39.5222985896
  - # 24
    frequency:   56.9215938211

- q-position: [    0.0404040,    0.0000000,    0.0000000 ]
  distance:    0.0138307
  band:
  - # 1
    frequency:   -7.1583393380
  - # 2
    frequency:   -7.1353264743
  - # 3
    frequency:    0.1358944851
  - # 4
    frequency:    0.4777125681
  - # 5
    frequency:    0.8000869486
  - # 6
    frequency:    1.1289441353
  - # 7
    frequency:    1.2608153483
  - # 8
    frequency:    3.3940353137
  - # 9
    frequency:    3.4136719622
  - # 10
    frequency:    4.7374480288
  - # 11
    frequency:    6.0812981628
  - # 12
    frequency:    6.1049507056
  - # 13
    frequency:    6.6528971700
  - # 14
    frequency:    6.6738961015
  - # 15
    frequency:    6.9145671286
  - # 16
    frequency:    7.7416581535
  - # 17
    frequency:   12.8510760649
  - # 18
    frequency:   12.8810999611
  - # 19
    frequency:   13.1074094213
  - # 20
    frequency:   13.6063643394
  - # 21
    frequency:   13.6155259773
  - # 22
    frequency:   26.9472949466
  - # 23
    frequency:   39.5136911907
  - # 24
    frequency:   56.9103673798

- q-position: [    0.0454545,    0.0000000,    0.0000000 ]
  distance:    0.0155595
  band:
  - # 1
    frequency:   -7.1373930340
  - # 2
    frequency:   -7.1091820014
  - # 3
    frequency:    0.1685627722
  - # 4
    frequency:    0.5362345227
  - # 5
    frequency:    0.8993808347
  - # 6
    frequency:    1.1443657526
  - # 7
    frequency:    1.3065212116
  - # 8
    frequency:    3.4067013103
  - # 9
    frequency:    3.4309169297
  - # 10
    frequency:    4.7284920254
  - # 11
    frequency:    6.0819382515
  - # 12
    frequency:    6.1109100192
  - # 13
    frequency:    6.6588988487
  - # 14
    frequency:    6.6837099853
  - # 15
    frequency:    6.9145534410
  - # 16
    frequency:    7.7353241760
  - # 17
    frequency:   12.8438679310
  - # 18
    frequency:   12.8818665582
  - # 19
    frequency:   13.1087172821
  - # 20
    frequency:   13.6058430324
  - # 21
    frequency:   13.6173898407
  - # 22
    frequency:   26.9460454765
  - # 23
    frequency:   39.5039693589
  - # 24
    frequency:   56.8976980058

- q-position: [    0.0505051,    0.0000000,    0.0000000 ]
  distance:    0.0172883
  band:
  - # 1
    frequency:   -7.1139152519
  - # 2
    frequency:   -7.0803345808
  - # 3
    frequency:    0.2038244220
  - # 4
    frequency:    0.5943309290
  - # 5
    frequency:    0.9982915091
  - # 6
    frequency:    1.1613834570
  - # 7
    frequency:    1.3557064079
  - # 8
    frequency:    3.4206676936
  - # 9
    frequency:    3.4497324331
  - # 10
    frequency:    4.7187702661
  - # 11
    frequency:    6.0829274212
  - # 12
    frequency:    6.1174360248
  - # 13
    frequency:    6.6657028968
  - # 14
    frequency:    6.6939454597
  - # 15
    frequency:    6.9147539120
  - # 16
    frequency:    7.7283224392
  - # 17
    frequency:   12.8358739926
  - # 18
    frequency:   12.8827955631
  - # 19
    frequency:   13.1100658695
  - # 20
    frequency:   13.6052872851
  - # 21
    frequency:   13.6194784435
  - # 22
    frequency:   26.9446577968
  - # 23
    frequency:   39.4931454489
  - # 24
    frequency:   56.8836056423

- q-position: [    0.0555556,    0.0000000,    0.0000000 ]
  distance:    0.0190172
  band:
  - # 1
    frequency:   -7.0878905497
  - # 2
    frequency:   -7.0489055817
  - # 3
    frequency:    0.2414534796
  - # 4
    frequency:    0.6519482709
  - # 5
    frequency:    1.0966804931
  - # 6
    frequency:    1.1799476965
  - # 7
    frequency:    1.4080863790
  - # 8
    frequency:    3.4358705681
  - # 9
    frequency:    3.4699942407
  - # 10
    frequency:    4.7083621704
  - # 11
    frequency:    6.0843212318
  - # 12
    frequency:    6.1244870268
  - # 13
    frequency:    6.6733368667
  - # 14
    frequency:    6.7043736605
  - # 15
    frequency:    6.9152784107
  - # 16
    frequency:    7.7206799752
  - # 17
    frequency:   12.8271086794
  - # 18
    frequency:   12.8839100024
  - # 19
    frequency:   13.1114252555
  - # 20
    frequency:   13.6047053495
  - # 21
    frequency:   13.6217946014
  - # 22
    frequency:   26.9431347569
  - # 23
    frequency:   39.4812332087
  - # 24
    frequency:   56.8681124158

- q-position: [    0.0606061,    0.0000000,    0.0000000 ]
  distance:    0.0207460
  band:
  - # 1
    frequency:   -7.0593053190
  - # 2
    frequency:   -7.0150274824
  - # 3
    frequency:    0.2812417243
  - # 4
    frequency:    0.7090283063
  - # 5
    frequency:    1.1943525928
  - # 6
    frequency:    1.2000150196
  - # 7
    frequency:    1.4634641869
  - # 8
    frequency:    3.4522392354
  - # 9
    frequency:    3.4915770578
  - # 10
    frequency:    4.6973480541
  - # 11
    frequency:    6.0861691172
  - # 12
    frequency:    6.1320188114
  - # 13
    frequency:    6.6818285825
  - # 14
    frequency:    6.7147425125
  - # 15
    frequency:    6.9162676455
  - # 16
    frequency:    7.7124272178
  - # 17
    frequency:   12.8175857605
  - # 18
    frequency:   12.8852347337
  - # 19
    frequency:   13.1127653583
  - # 20
    frequency:   13.6041059992
  - # 21
    frequency:   13.6243418696
  - # 22
    frequency:   26.9414794656
  - # 23
    frequency:   39.4682477585
  - # 24
    frequency:   56.8512425832

- q-position: [    0.0656566,    0.0000000,    0.0000000 ]
  distance:    0.0224748
  band:
  - # 1
    frequency:   -7.0281486855
  - # 2
    frequency:   -6.9788432874
  - # 3
    frequency:    0.3229959087
  - # 4
    frequency:    0.7655061323
  - # 5
    frequency:    1.2215510732
  - # 6
    frequency:    1.2910256670
  - # 7
    frequency:    1.5217588027
  - # 8
    frequency:    3.4696963436
  - # 9
    frequency:    3.5143564803
  - # 10
    frequency:    4.6858076412
  - # 11
    frequency:    6.0885136782
  - # 12
    frequency:    6.1399853298
  - # 13
    frequency:    6.6912052298
  - # 14
    frequency:    6.7247771002
  - # 15
    frequency:    6.9178952703
  - # 16
    frequency:    7.7035981071
  - # 17
    frequency:   12.8073181690
  - # 18
    frequency:   12.8867962410
  - # 19
    frequency:   13.1140563935
  - # 20
    frequency:   13.6034984430
  - # 21
    frequency:   13.6271246143
  - # 22
    frequency:   26.9396952810
  - # 23
    frequency:   39.4542055683
  - # 24
    frequency:   56.8330224737

- q-position: [    0.0707071,    0.0000000,    0.0000000 ]
  distance:    0.0242037
  band:
  - # 1
    frequency:   -6.9944134378
  - # 2
    frequency:   -6.9405058555
  - # 3
    frequency:    0.3665350874
  - # 4
    frequency:    0.8213078373
  - # 5
    frequency:    1.2445337951
  - # 6
    frequency:    1.3862836924
  - # 7
    frequency:    1.5830490047
  - # 8
    frequency:    3.4881581227
  - # 9
    frequency:    3.5382106364
  - # 10
    frequency:    4.6738187106
  - # 11
    frequency:    6.0913903433
  - # 12
    frequency:    6.1483394681
  - # 13
    frequency:    6.7014923403
  - # 14
    frequency:    6.7341848716
  - # 15
    frequency:    6.9203647095
  - # 16
    frequency:    7.6942301767
  - # 17
    frequency:   12.7963178874
  - # 18
    frequency:   12.8886224019
  - # 19
    frequency:   13.1152693084
  - # 20
    frequency:   13.6028922384
  - # 21
    frequency:   13.6301480621
  - # 22
    frequency:   26.9377857981
  - # 23
    frequency:   39.4391244331
  - # 24
    frequency:   56.8134804260

- q-position: [    0.0757576,    0.0000000,    0.0000000 ]
  distance:    0.0259325
  band:
  - # 1
    frequency:   -6.9580969689
  - # 2
    frequency:   -6.9001771339
  - # 3
    frequency:    0.4116883172
  - # 4
    frequency:    0.8763477982
  - # 5
    frequency:    1.2689567369
  - # 6
    frequency:    1.4795141251
  - # 7
    frequency:    1.6476325170
  - # 8
    frequency:    3.5075347172
  - # 9
    frequency:    3.5630214935
  - # 10
    frequency:    4.6614559096
  - # 11
    frequency:    6.0948272950
  - # 12
    frequency:    6.1570338870
  - # 13
    frequency:    6.7127126888
  - # 14
    frequency:    6.7426694421
  - # 15
    frequency:    6.9238970105
  - # 16
    frequency:    7.6843646170
  - # 17
    frequency:   12.7845958799
  - # 18
    frequency:   12.8907422232
  - # 19
    frequency:   13.1163762142
  - # 20
    frequency:   13.6022972050
  - # 21
    frequency:   13.6334183198
  - # 22
    frequency:   26.9357548378
  - # 23
    frequency:   39.4230234453
  - # 24
    frequency:   56.7926467206

- q-position: [    0.0808081,    0.0000000,    0.0000000 ]
  distance:    0.0276614
  band:
  - # 1
    frequency:   -6.9192022183
  - # 2
    frequency:   -6.8580272963
  - # 3
    frequency:    0.4582927991
  - # 4
    frequency:    0.9305258172
  - # 5
    frequency:    1.2948323276
  - # 6
    frequency:    1.5698644559
  - # 7
    frequency:    1.7160658834
  - # 8
    frequency:    3.5277306266
  - # 9
    frequency:    3.5886758215
  - # 10
    frequency:    4.6487897691
  - # 11
    frequency:    6.0988455540
  - # 12
    frequency:    6.1660219036
  - # 13
    frequency:    6.7248851328
  - # 14
    frequency:    6.7499555684
  - # 15
    frequency:    6.9287072300
  - # 16
    frequency:    7.6740463094
  - # 17
    frequency:   12.7721620652
  - # 18
    frequency:   12.8931855469
  - # 19
    frequency:   13.1173508270
  - # 20
    frequency:   13.6017233406
  - # 21
    frequency:   13.6369423575
  - # 22
    frequency:   26.9336064337
  - # 23
    frequency:   39.4059229657
  - # 24
    frequency:   56.7705535079

- q-position: [    0.0858586,    0.0000000,    0.0000000 ]
  distance:    0.0293902
  band:
  - # 1
    frequency:   -6.8777386020
  - # 2
    frequency:   -6.8142337813
  - # 3
    frequency:    0.5061924312
  - # 4
    frequency:    0.9837245378
  - # 5
    frequency:    1.3221946506
  - # 6
    frequency:    1.6563425470
  - # 7
    frequency:    1.7890607269
  - # 8
    frequency:    3.5486452605
  - # 9
    frequency:    3.6150658101
  - # 10
    frequency:    4.6358859485
  - # 11
    frequency:    6.1034591298
  - # 12
    frequency:    6.1752583837
  - # 13
    frequency:    6.7380234315
  - # 14
    frequency:    6.7558231125
  - # 15
    frequency:    6.9349716063
  - # 16
    frequency:    7.6633238272
  - # 17
    frequency:   12.7590253254
  - # 18
    frequency:   12.8959827244
  - # 19
    frequency:   13.1181689229
  - # 20
    frequency:   13.6011807405
  - # 21
    frequency:   13.6407279509
  - # 22
    frequency:   26.9313448204
  - # 23
    frequency:   39.3878445910
  - # 24
    frequency:   56.7472347323

- q-position: [    0.0909091,    0.0000000,    0.0000000 ]
  distance:    0.0311190
  band:
  - # 1
    frequency:   -6.8337229156
  - # 2
    frequency:   -6.7689802346
  - # 3
    frequency:    0.5552366895
  - # 4
    frequency:    1.0358079713
  - # 5
    frequency:    1.3511009244
  - # 6
    frequency:    1.7382319135
  - # 7
    frequency:    1.8670653594
  - # 8
    frequency:    3.5701736126
  - # 9
    frequency:    3.6420893407
  - # 10
    frequency:    4.6228047379
  - # 11
    frequency:    6.1086751488
  - # 12
    frequency:    6.1847006013
  - # 13
    frequency:    6.7521350893
  - # 14
    frequency:    6.7601405001
  - # 15
    frequency:    6.9427950737
  - # 16
    frequency:    7.6522494003
  - # 17
    frequency:   12.7451935491
  - # 18
    frequency:   12.8991642621
  - # 19
    frequency:   13.1188088060
  - # 20
    frequency:   13.6006795207
  - # 21
    frequency:   13.6447835806
  - # 22
    frequency:   26.9289744206
  - # 23
    frequency:   39.3688111206
  - # 24
    frequency:   56.7227260520

- q-position: [    0.0959596,    0.0000000,    0.0000000 ]
  distance:    0.0328479
  band:
  - # 1
    frequency:   -6.7871801997
  - # 2
    frequency:   -6.7224553563
  - # 3
    frequency:    0.6052797458
  - # 4
    frequency:    1.0866224963
  - # 5
    frequency:    1.3816303516
  - # 6
    frequency:    1.8156290943
  - # 7
    frequency:    1.9497246717
  - # 8
    frequency:    3.5922070553
  - # 9
    frequency:    3.6696499134
  - # 10
    frequency:    4.6096008522
  - # 11
    frequency:    6.1144938888
  - # 12
    frequency:    6.1943090227
  - # 13
    frequency:    6.7628839799
  - # 14
    frequency:    6.7672202756
  - # 15
    frequency:    6.9521928643
  - # 16
    frequency:    7.6408788423
  - # 17
    frequency:   12.7306737140
  - # 18
    frequency:   12.9027604378
  - # 19
    frequency:   13.1192517825
  - # 20
    frequency:   13.6002297477
  - # 21
    frequency:   13.6491182884
  - # 22
    frequency:   26.9264998322
  - # 23
    frequency:   39.3488465192
  - # 24
    frequency:   56.6970647554

- q-position: [    0.1010101,    0.0000000,    0.0000000 ]
  distance:    0.0345767
  band:
  - # 1
    frequency:   -6.7381445516
  - # 2
    frequency:   -6.6748516626
  - # 3
    frequency:    0.6561797406
  - # 4
    frequency:    1.1360022002
  - # 5
    frequency:    1.4138784985
  - # 6
    frequency:    1.8894365926
  - # 7
    frequency:    2.0358848566
  - # 8
    frequency:    3.6146342498
  - # 9
    frequency:    3.6976562193
  - # 10
    frequency:    4.5963235535
  - # 11
    frequency:    6.1209086519
  - # 12
    frequency:    6.2040479719
  - # 13
    frequency:    6.7641340030
  - # 14
    frequency:    6.7832708687
  - # 15
    frequency:    6.9630949136
  - # 16
    frequency:    7.6292714428
  - # 17
    frequency:   12.7154720125
  - # 18
    frequency:   12.9068008930
  - # 19
    frequency:   13.1194826279
  - # 20
    frequency:   13.5998413725
  - # 21
    frequency:   13.6537414920
  - # 22
    frequency:   26.9239258158
  - # 23
    frequency:   39.3279758791
  - # 24
    frequency:   56.6702896737

- q-position: [    0.1060606,    0.0000000,    0.0000000 ]
  distance:    0.0363055
  band:
  - # 1
    frequency:   -6.6866598742
  - # 2
    frequency:   -6.6263641705
  - # 3
    frequency:    0.7077981435
  - # 4
    frequency:    1.1837804677
  - # 5
    frequency:    1.4479453292
  - # 6
    frequency:    1.9607838464
  - # 7
    frequency:    2.1241705252
  - # 8
    frequency:    3.6373421657
  - # 9
    frequency:    3.7260213373
  - # 10
    frequency:    4.5830171534
  - # 11
    frequency:    6.1279054202
  - # 12
    frequency:    6.2138861391
  - # 13
    frequency:    6.7640520088
  - # 14
    frequency:    6.8002696719
  - # 15
    frequency:    6.9753698103
  - # 16
    frequency:    7.6174898268
  - # 17
    frequency:   12.6995940290
  - # 18
    frequency:   12.9113142032
  - # 19
    frequency:   13.1194900306
  - # 20
    frequency:   13.5995241727
  - # 21
    frequency:   13.6586627666
  - # 22
    frequency:   26.9212572822
  - # 23
    frequency:   39.3062253786
  - # 24
    frequency:   56.6424410909

- q-position: [    0.1111111,    0.0000000,    0.0000000 ]
  distance:    0.0380344
  band:
  - # 1
    frequency:   -6.6327805464
  - # 2
    frequency:   -6.5771890207
  - # 3
    frequency:    0.7599991497
  - # 4
    frequency:    1.2298085496
  - # 5
    frequency:    1.4839161975
  - # 6
    frequency:    2.0305745423
  - # 7
    frequency:    2.2134359132
  - # 8
    frequency:    3.6602171978
  - # 9
    frequency:    3.7546615151
  - # 10
    frequency:    4.5697219641
  - # 11
    frequency:    6.1354622473
  - # 12
    frequency:    6.2237969048
  - # 13
    frequency:    6.7628496799
  - # 14
    frequency:    6.8181898377
  - # 15
    frequency:    6.9888562368
  - # 16
    frequency:    7.6055997912
  - # 17
    frequency:   12.6830449758
  - # 18
    frequency:   12.9163274316
  - # 19
    frequency:   13.1192669904
  - # 20
    frequency:   13.5992877003
  - # 21
    frequency:   13.6638915996
  - # 22
    frequency:   26.9184992794
  - # 23
    frequency:   39.2836222392
  - # 24
    frequency:   56.6135606502

- q-position: [    0.1161616,    0.0000000,    0.0000000 ]
  distance:    0.0397632
  band:
  - # 1
    frequency:   -6.5765720051
  - # 2
    frequency:   -6.5275220548
  - # 3
    frequency:    0.8126490759
  - # 4
    frequency:    1.2739789111
  - # 5
    frequency:    1.5218380261
  - # 6
    frequency:    2.0993962488
  - # 7
    frequency:    2.3028542112
  - # 8
    frequency:    3.6831463641
  - # 9
    frequency:    3.7834944654
  - # 10
    frequency:    4.5564757909
  - # 11
    frequency:    6.1435483485
  - # 12
    frequency:    6.2337584643
  - # 13
    frequency:    6.7607622223
  - # 14
    frequency:    6.8369945280
  - # 15
    frequency:    7.0033903341
  - # 16
    frequency:    7.5936701268
  - # 17
    frequency:   12.6658299959
  - # 18
    frequency:   12.9218656718
  - # 19
    frequency:   13.1188111499
  - # 20
    frequency:   13.5991412372
  - # 21
    frequency:   13.6694371309
  - # 22
    frequency:   26.9156569809
  - # 23
    frequency:   39.2601946803
  - # 24
    frequency:   56.5836912588

- q-position: [    0.1212121,    0.0000000,    0.0000000 ]
  distance:    0.0414920
  band:
  - # 1
    frequency:   -6.5181112268
  - # 2
    frequency:   -6.4775573697
  - # 3
    frequency:    0.8656157316
  - # 4
    frequency:    1.3162472235
  - # 5
    frequency:    1.5616968379
  - # 6
    frequency:    2.1675940517
  - # 7
    frequency:    2.3918433441
  - # 8
    frequency:    3.7060185667
  - # 9
    frequency:    3.8124370756
  - # 10
    frequency:    4.5433160970
  - # 11
    frequency:    6.1521228766
  - # 12
    frequency:    6.2437537516
  - # 13
    frequency:    6.7580309740
  - # 14
    frequency:    6.8566368191
  - # 15
    frequency:    7.0188236575
  - # 16
    frequency:    7.5817724423
  - # 17
    frequency:   12.6479545377
  - # 18
    frequency:   12.9279515863
  - # 19
    frequency:   13.1181250354
  - # 20
    frequency:   13.5990937568
  - # 21
    frequency:   13.6753078901
  - # 22
    frequency:   26.9127356728
  - # 23
    frequency:   39.2359718722
  - # 24
    frequency:   56.5528769891

- q-position: [    0.1262626,    0.0000000,    0.0000000 ]
  distance:    0.0432209
  band:
  - # 1
    frequency:   -6.4574870971
  - # 2
    frequency:   -6.4274858695
  - # 3
    frequency:    0.9187677475
  - # 4
    frequency:    1.3566446771
  - # 5
    frequency:    1.6034049895
  - # 6
    frequency:    2.2353577285
  - # 7
    frequency:    2.4799786718
  - # 8
    frequency:    3.7287258911
  - # 9
    frequency:    3.8414023754
  - # 10
    frequency:    4.5302830194
  - # 11
    frequency:    6.1611333953
  - # 12
    frequency:    6.2537701771
  - # 13
    frequency:    6.7548949544
  - # 14
    frequency:    6.8770598519
  - # 15
    frequency:    7.0350320369
  - # 16
    frequency:    7.5699810102
  - # 17
    frequency:   12.6294248065
  - # 18
    frequency:   12.9346049487
  - # 19
    frequency:   13.1172161870
  - # 20
    frequency:   13.5991538920
  - # 21
    frequency:   13.6815115443
  - # 22
    frequency:   26.9097407425
  - # 23
    frequency:   39.2109838860
  - # 24
    frequency:   56.5211629794

- q-position: [    0.1313131,    0.0000000,    0.0000000 ]
  distance:    0.0449497
  band:
  - # 1
    frequency:   -6.3948006600
  - # 2
    frequency:   -6.3774938434
  - # 3
    frequency:    0.9719738530
  - # 4
    frequency:    1.3952748144
  - # 5
    frequency:    1.6468039268
  - # 6
    frequency:    2.3027831292
  - # 7
    frequency:    2.5669319510
  - # 8
    frequency:    3.7511649202
  - # 9
    frequency:    3.8702955459
  - # 10
    frequency:    4.5174234792
  - # 11
    frequency:    6.1705141135
  - # 12
    frequency:    6.2637992049
  - # 13
    frequency:    6.7515884754
  - # 14
    frequency:    6.8981972112
  - # 15
    frequency:    7.0519181067
  - # 16
    frequency:    7.5583726602
  - # 17
    frequency:   12.6102482922
  - # 18
    frequency:   12.9418421969
  - # 19
    frequency:   13.1160971597
  - # 20
    frequency:   13.5993299098
  - # 21
    frequency:   13.6880546677
  - # 22
    frequency:   26.9066776664
  - # 23
    frequency:   39.1852616433
  - # 24
    frequency:   56.4885953316

- q-position: [    0.1363636,    0.0000000,    0.0000000 ]
  distance:    0.0466785
  band:
  - # 1
    frequency:   -6.3301652370
  - # 2
    frequency:   -6.3277615947
  - # 3
    frequency:    1.0251020949
  - # 4
    frequency:    1.4322957860
  - # 5
    frequency:    1.6916815776
  - # 6
    frequency:    2.3699097585
  - # 7