nqpoint: 300    
npath: 3      
segment_nqpoint:
- 100
- 100
- 100
labels:
- [ 'G', 'M' ]
- [ 'M', 'K' ]
- [ 'K', 'G' ]
reciprocal_lattice:
- [   0.26671024,   0.15398523,   0.00000000 ] # a*
- [   0.00000000,   0.30797046,   0.00000000 ] # b*
- [   0.00000000,   0.00000000,   0.04103262 ] # c*
natom: 5      
lattice:
- [     3.749387318897206,     0.000000000000000,     0.000000000000000 ] # a
- [    -1.874693659448603,     3.247064666839563,     0.000000000000000 ] # b
- [     0.000000000000000,     0.000000000000000,    24.370852229803674 ] # c
points:
- symbol: Br # 1
  coordinates: [  0.666666984744047,  0.333332985985145,  0.369293610052491 ]
  mass: 79.904000
- symbol: C # 2
  coordinates: [  0.000000000000000,  0.000000000000000,  0.504180982510318 ]
  mass: 12.010700
- symbol: Cl # 3
  coordinates: [  0.333332985432215,  0.666666983183674,  0.630706389947509 ]
  mass: 35.453000
- symbol: Y # 4
  coordinates: [  0.333332985432215,  0.666666983183674,  0.449178710766918 ]
  mass: 88.905850
- symbol: Y # 5
  coordinates: [  0.666666984744047,  0.333332985985145,  0.559385209975300 ]
  mass: 88.905850

phonon:
- q-position: [    0.0000000,    0.0000000,    0.0000000 ]
  distance:    0.0000000
  band:
  - # 1
    frequency:   -0.0000257798
  - # 2
    frequency:    0.0000000957
  - # 3
    frequency:    0.0000276817
  - # 4
    frequency:    2.5467411255
  - # 5
    frequency:    2.5467411256
  - # 6
    frequency:    3.6776303570
  - # 7
    frequency:    3.6776303571
  - # 8
    frequency:    4.0266442378
  - # 9
    frequency:    4.4949294943
  - # 10
    frequency:    4.4949294944
  - # 11
    frequency:    6.6854637033
  - # 12
    frequency:    8.4723386949
  - # 13
    frequency:    8.5278558764
  - # 14
    frequency:    8.5278558768
  - # 15
    frequency:   15.5759944399

- q-position: [    0.0050505,    0.0000000,    0.0000000 ]
  distance:    0.0015554
  band:
  - # 1
    frequency:    0.0013418878
  - # 2
    frequency:    0.0474997655
  - # 3
    frequency:    0.0831268767
  - # 4
    frequency:    2.5467944495
  - # 5
    frequency:    2.5480247008
  - # 6
    frequency:    3.6776181282
  - # 7
    frequency:    3.6780464892
  - # 8
    frequency:    4.0276115831
  - # 9
    frequency:    4.4949310580
  - # 10
    frequency:    4.4959610411
  - # 11
    frequency:    6.6852507767
  - # 12
    frequency:    8.4611331681
  - # 13
    frequency:    8.5276502752
  - # 14
    frequency:    8.5447526283
  - # 15
    frequency:   15.5746687447

- q-position: [    0.0101010,    0.0000000,    0.0000000 ]
  distance:    0.0031108
  band:
  - # 1
    frequency:    0.0053598449
  - # 2
    frequency:    0.0949777929
  - # 3
    frequency:    0.1662263965
  - # 4
    frequency:    2.5469545814
  - # 5
    frequency:    2.5518611347
  - # 6
    frequency:    3.6775816610
  - # 7
    frequency:    3.6792358500
  - # 8
    frequency:    4.0305166947
  - # 9
    frequency:    4.4949356147
  - # 10
    frequency:    4.4990560387
  - # 11
    frequency:    6.6846124312
  - # 12
    frequency:    8.4419949094
  - # 13
    frequency:    8.5270344575
  - # 14
    frequency:    8.5809365870
  - # 15
    frequency:   15.5706937015

- q-position: [    0.0151515,    0.0000000,    0.0000000 ]
  distance:    0.0046662
  band:
  - # 1
    frequency:    0.0120312052
  - # 2
    frequency:    0.1424123928
  - # 3
    frequency:    0.2492708236
  - # 4
    frequency:    2.5472219999
  - # 5
    frequency:    2.5582084648
  - # 6
    frequency:    3.6775216113
  - # 7
    frequency:    3.6810304215
  - # 8
    frequency:    4.0353636848
  - # 9
    frequency:    4.4949427618
  - # 10
    frequency:    4.5042150303
  - # 11
    frequency:    6.6835499748
  - # 12
    frequency:    8.4234547113
  - # 13
    frequency:    8.5260113790
  - # 14
    frequency:    8.6277924669
  - # 15
    frequency:   15.5640754354

- q-position: [    0.0202020,    0.0000000,    0.0000000 ]
  distance:    0.0062216
  band:
  - # 1
    frequency:    0.0213187891
  - # 2
    frequency:    0.1897820012
  - # 3
    frequency:    0.3322316500
  - # 4
    frequency:    2.5475975006
  - # 5
    frequency:    2.5669996566
  - # 6
    frequency:    3.6774390646
  - # 7
    frequency:    3.6831788323
  - # 8
    frequency:    4.0421436656
  - # 9
    frequency:    4.4949518319
  - # 10
    frequency:    4.5114371429
  - # 11
    frequency:    6.6820656038
  - # 12
    frequency:    8.4064337366
  - # 13
    frequency:    8.5245859522
  - # 14
    frequency:    8.6842565131
  - # 15
    frequency:   15.5548241493

- q-position: [    0.0252525,    0.0000000,    0.0000000 ]
  distance:    0.0077770
  band:
  - # 1
    frequency:    0.0331718535
  - # 2
    frequency:    0.2370652313
  - # 3
    frequency:    0.4150792312
  - # 4
    frequency:    2.5480821927
  - # 5
    frequency:    2.5781465136
  - # 6
    frequency:    3.6773355242
  - # 7
    frequency:    3.6853837322
  - # 8
    frequency:    4.0508156295
  - # 9
    frequency:    4.4949618978
  - # 10
    frequency:    4.5207173829
  - # 11
    frequency:    6.6801624249
  - # 12
    frequency:    8.3906050024
  - # 13
    frequency:    8.5227650271
  - # 14
    frequency:    8.7504527875
  - # 15
    frequency:   15.5429541154

- q-position: [    0.0303030,    0.0000000,    0.0000000 ]
  distance:    0.0093324
  band:
  - # 1
    frequency:    0.0475273139
  - # 2
    frequency:    0.2842409316
  - # 3
    frequency:    0.4977824328
  - # 4
    frequency:    2.5486774949
  - # 5
    frequency:    2.5915443741
  - # 6
    frequency:    3.6772128963
  - # 7
    frequency:    3.6873435374
  - # 8
    frequency:    4.0612880854
  - # 9
    frequency:    4.4949717799
  - # 10
    frequency:    4.5320428698
  - # 11
    frequency:    6.6778444825
  - # 12
    frequency:    8.3754814911
  - # 13
    frequency:    8.5205573634
  - # 14
    frequency:    8.8266027156
  - # 15
    frequency:   15.5284836647

- q-position: [    0.0353535,    0.0000000,    0.0000000 ]
  distance:    0.0108878
  band:
  - # 1
    frequency:    0.0643112012
  - # 2
    frequency:    0.3312882429
  - # 3
    frequency:    0.5803082967
  - # 4
    frequency:    2.5493851294
  - # 5
    frequency:    2.6070770417
  - # 6
    frequency:    3.6770734696
  - # 7
    frequency:    3.6887901574
  - # 8
    frequency:    4.0734078198
  - # 9
    frequency:    4.4949800568
  - # 10
    frequency:    4.5453882160
  - # 11
    frequency:    6.6751167886
  - # 12
    frequency:    8.3606235604
  - # 13
    frequency:    8.5179735940
  - # 14
    frequency:    8.9128158428
  - # 15
    frequency:   15.5114351738

- q-position: [    0.0404040,    0.0000000,    0.0000000 ]
  distance:    0.0124433
  band:
  - # 1
    frequency:    0.0834402795
  - # 2
    frequency:    0.3781866547
  - # 3
    frequency:    0.6626217284
  - # 4
    frequency:    2.5502071154
  - # 5
    frequency:    2.6246214706
  - # 6
    frequency:    3.6769198923
  - # 7
    frequency:    3.6895157092
  - # 8
    frequency:    4.0869604201
  - # 9
    frequency:    4.4949850783
  - # 10
    frequency:    4.5607105178
  - # 11
    frequency:    6.6719853524
  - # 12
    frequency:    8.3456781947
  - # 13
    frequency:    8.5150261803
  - # 14
    frequency:    9.0090498646
  - # 15
    frequency:   15.4918350519

- q-position: [    0.0454545,    0.0000000,    0.0000000 ]
  distance:    0.0139987
  band:
  - # 1
    frequency:    0.1048237481
  - # 2
    frequency:    0.4249160583
  - # 3
    frequency:    0.7446852094
  - # 4
    frequency:    2.5511457616
  - # 5
    frequency:    2.6440518647
  - # 6
    frequency:    3.6767551456
  - # 7
    frequency:    3.6893848469
  - # 8
    frequency:    4.1016834497
  - # 9
    frequency:    4.4949849821
  - # 10
    frequency:    4.5779447008
  - # 11
    frequency:    6.6684572092
  - # 12
    frequency:    8.3303759085
  - # 13
    frequency:    8.5117293584
  - # 14
    frequency:    9.1151146112
  - # 15
    frequency:   15.4697137278

- q-position: [    0.0505051,    0.0000000,    0.0000000 ]
  distance:    0.0155541
  band:
  - # 1
    frequency:    0.1283649538
  - # 2
    frequency:    0.4714567993
  - # 3
    frequency:    0.8264585343
  - # 4
    frequency:    2.5522036580
  - # 5
    frequency:    2.6652430078
  - # 6
    frequency:    3.6765825147
  - # 7
    frequency:    3.6883336544
  - # 8
    frequency:    4.1172890008
  - # 9
    frequency:    4.4949777148
  - # 10
    frequency:    4.5970001514
  - # 11
    frequency:    6.6645404478
  - # 12
    frequency:    8.3145169742
  - # 13
    frequency:    8.5080990766
  - # 14
    frequency:    9.2306886158
  - # 15
    frequency:   15.4451056395

- q-position: [    0.0555556,    0.0000000,    0.0000000 ]
  distance:    0.0171095
  band:
  - # 1
    frequency:    0.1539630484
  - # 2
    frequency:    0.5177897270
  - # 3
    frequency:    0.9078985758
  - # 4
    frequency:    2.5533836670
  - # 5
    frequency:    2.6880727818
  - # 6
    frequency:    3.6764055573
  - # 7
    frequency:    3.6863591676
  - # 8
    frequency:    4.1334897287
  - # 9
    frequency:    4.4949610567
  - # 10
    frequency:    4.6177595366
  - # 11
    frequency:    6.6602442360
  - # 12
    frequency:    8.2979567036
  - # 13
    frequency:    8.5041529220
  - # 14
    frequency:    9.3553386109
  - # 15
    frequency:   15.4180492288

- q-position: [    0.0606061,    0.0000000,    0.0000000 ]
  distance:    0.0186649
  band:
  - # 1
    frequency:    0.1815145373
  - # 2
    frequency:    0.5638962414
  - # 3
    frequency:    0.9889590803
  - # 4
    frequency:    2.5546889139
  - # 5
    frequency:    2.7124239284
  - # 6
    frequency:    3.6762280706
  - # 7
    frequency:    3.6835045302
  - # 8
    frequency:    4.1500223393
  - # 9
    frequency:    4.4949326516
  - # 10
    frequency:    4.6400804044
  - # 11
    frequency:    6.6555788443
  - # 12
    frequency:    8.2805927556
  - # 13
    frequency:    8.4999100391
  - # 14
    frequency:    9.4885388209
  - # 15
    frequency:   15.3885869443

- q-position: [    0.0656566,    0.0000000,    0.0000000 ]
  distance:    0.0202203
  band:
  - # 1
    frequency:    0.2109146795
  - # 2
    frequency:    0.6097583369
  - # 3
    frequency:    1.0695904971
  - # 4
    frequency:    2.5561227780
  - # 5
    frequency:    2.7381851639
  - # 6
    frequency:    3.6760540580
  - # 7
    frequency:    3.6798439049
  - # 8
    frequency:    4.1666643987
  - # 9
    frequency:    4.4948900419
  - # 10
    frequency:    4.6637996147
  - # 11
    frequency:    6.6505556698
  - # 12
    frequency:    8.2623550657
  - # 13
    frequency:    8.4953910369
  - # 14
    frequency:    9.6296891091
  - # 15
    frequency:   15.3567652554

- q-position: [    0.0707071,    0.0000000,    0.0000000 ]
  distance:    0.0217757
  band:
  - # 1
    frequency:    0.2420587137
  - # 2
    frequency:    0.6553586421
  - # 3
    frequency:    1.1497398469
  - # 4
    frequency:    2.5576888824
  - # 5
    frequency:    2.7652517789
  - # 6
    frequency:    3.6754695900
  - # 7
    frequency:    3.6758876944
  - # 8
    frequency:    4.1832429608
  - # 9
    frequency:    4.4948307090
  - # 10
    frequency:    4.6887400450
  - # 11
    frequency:    6.6451872590
  - # 12
    frequency:    8.2431981692
  - # 13
    frequency:    8.4906178867
  - # 14
    frequency:    9.7781317281
  - # 15
    frequency:   15.3226346861

- q-position: [    0.0757576,    0.0000000,    0.0000000 ]
  distance:    0.0233311
  band:
  - # 1
    frequency:    0.2748428976
  - # 2
    frequency:    0.7006804558
  - # 3
    frequency:    1.2293506347
  - # 4
    frequency:    2.5593910852
  - # 5
    frequency:    2.7935258427
  - # 6
    frequency:    3.6704822625
  - # 7
    frequency:    3.6757332933
  - # 8
    frequency:    4.1996357480
  - # 9
    frequency:    4.4947521195
  - # 10
    frequency:    4.7147185515
  - # 11
    frequency:    6.6394873315
  - # 12
    frequency:    8.2230954639
  - # 13
    frequency:    8.4856138084
  - # 14
    frequency:    9.9331665957
  - # 15
    frequency:   15.2862498712

- q-position: [    0.0808081,    0.0000000,    0.0000000 ]
  distance:    0.0248865
  band:
  - # 1
    frequency:    0.3091653609
  - # 2
    frequency:    0.7457077786
  - # 3
    frequency:    1.3083628129
  - # 4
    frequency:    2.5612334702
  - # 5
    frequency:    2.8229161138
  - # 6
    frequency:    3.6649842696
  - # 7
    frequency:    3.6755952739
  - # 8
    frequency:    4.2157668875
  - # 9
    frequency:    4.4946517773
  - # 10
    frequency:    4.7415540019
  - # 11
    frequency:    6.6334708035
  - # 12
    frequency:    8.2020349621
  - # 13
    frequency:    8.4804031478
  - # 14
    frequency:   10.0940650254
  - # 15
    frequency:   15.2476696498

- q-position: [    0.0858586,    0.0000000,    0.0000000 ]
  distance:    0.0264419
  band:
  - # 1
    frequency:    0.3449267776
  - # 2
    frequency:    0.7904253390
  - # 3
    frequency:    1.3867128044
  - # 4
    frequency:    2.5632203390
  - # 5
    frequency:    2.8533377344
  - # 6
    frequency:    3.6590754247
  - # 7
    frequency:    3.6754781307
  - # 8
    frequency:    4.2315995330
  - # 9
    frequency:    4.4945272816
  - # 10
    frequency:    4.7690743421
  - # 11
    frequency:    6.6271538130
  - # 12
    frequency:    8.1800161527
  - # 13
    frequency:    8.4750112428
  - # 14
    frequency:   10.2600818361
  - # 15
    frequency:   15.2069572044

- q-position: [    0.0909091,    0.0000000,    0.0000000 ]
  distance:    0.0279973
  band:
  - # 1
    frequency:    0.3820308732
  - # 2
    frequency:    0.8348186146
  - # 3
    frequency:    1.4643335918
  - # 4
    frequency:    2.5653562032
  - # 5
    frequency:    2.8847117551
  - # 6
    frequency:    3.6528506605
  - # 7
    frequency:    3.6753864050
  - # 8
    frequency:    4.2471273797
  - # 9
    frequency:    4.4943763894
  - # 10
    frequency:    4.7971220092
  - # 11
    frequency:    6.6205537444
  - # 12
    frequency:    8.1570476806
  - # 13
    frequency:    8.4694642796
  - # 14
    frequency:   10.4304657763
  - # 15
    frequency:   15.1641802682

- q-position: [    0.0959596,    0.0000000,    0.0000000 ]
  distance:    0.0295527
  band:
  - # 1
    frequency:    0.4203847842
  - # 2
    frequency:    0.8788738474
  - # 3
    frequency:    1.5411548831
  - # 4
    frequency:    2.5676457777
  - # 5
    frequency:    2.9169645206
  - # 6
    frequency:    3.6463989661
  - # 7
    frequency:    3.6753246604
  - # 8
    frequency:    4.2623664756
  - # 9
    frequency:    4.4941970844
  - # 10
    frequency:    4.8255574207
  - # 11
    frequency:    6.6136892542
  - # 12
    frequency:    8.1331456230
  - # 13
    frequency:    8.4637891399
  - # 14
    frequency:   10.6044682300
  - # 15
    frequency:   15.1194114224

- q-position: [    0.1010101,    0.0000000,    0.0000000 ]
  distance:    0.0311081
  band:
  - # 1
    frequency:    0.4598992889
  - # 2
    frequency:    0.9225780519
  - # 3
    frequency:    1.6171033619
  - # 4
    frequency:    2.5700939756
  - # 5
    frequency:    2.9500269248
  - # 6
    frequency:    3.6398031713
  - # 7
    frequency:    3.6752974610
  - # 8
    frequency:    4.2773481197
  - # 9
    frequency:    4.4939876493
  - # 10
    frequency:    4.8542606137
  - # 11
    frequency:    6.6065802974
  - # 12
    frequency:    8.1083322019
  - # 13
    frequency:    8.4580132391
  - # 14
    frequency:   10.7813502133
  - # 15
    frequency:   15.0727285218

- q-position: [    0.1060606,    0.0000000,    0.0000000 ]
  distance:    0.0326635
  band:
  - # 1
    frequency:    0.5004889309
  - # 2
    frequency:    0.9659190184
  - # 3
    frequency:    1.6921030314
  - # 4
    frequency:    2.5727059035
  - # 5
    frequency:    2.9838335260
  - # 6
    frequency:    3.6331402803
  - # 7
    frequency:    3.6753093550
  - # 8
    frequency:    4.2921131511
  - # 9
    frequency:    4.4937467417
  - # 10
    frequency:    4.8831313355
  - # 11
    frequency:    6.5992481538
  - # 12
    frequency:    8.0826348173
  - # 13
    frequency:    8.4521643561
  - # 14
    frequency:   10.9603877020
  - # 15
    frequency:   15.0242152984

- q-position: [    0.1111111,    0.0000000,    0.0000000 ]
  distance:    0.0342189
  band:
  - # 1
    frequency:    0.5420720534
  - # 2
    frequency:    1.0088853073
  - # 3
    frequency:    1.7660756582
  - # 4
    frequency:    2.5754868587
  - # 5
    frequency:    3.0183215004
  - # 6
    frequency:    3.6264821741
  - # 7
    frequency:    3.6753648619
  - # 8
    frequency:    4.3067076213
  - # 9
    frequency:    4.4934734723
  - # 10
    frequency:    4.9120879771
  - # 11
    frequency:    6.5917154540
  - # 12
    frequency:    8.0560853161
  - # 13
    frequency:    8.4462704571
  - # 14
    frequency:   11.1408753475
  - # 15
    frequency:   14.9739622197

- q-position: [    0.1161616,    0.0000000,    0.0000000 ]
  distance:    0.0357743
  band:
  - # 1
    frequency:    0.5845707630
  - # 2
    frequency:    1.0514662383
  - # 3
    frequency:    1.8389413236
  - # 4
    frequency:    2.5784423276
  - # 5
    frequency:    3.0534293881
  - # 6
    frequency:    3.6198965933
  - # 7
    frequency:    3.6754684661
  - # 8
    frequency:    4.3211796746
  - # 9
    frequency:    4.4931674837
  - # 10
    frequency:    4.9410657455
  - # 11
    frequency:    6.5840062053
  - # 12
    frequency:    8.0287194366
  - # 13
    frequency:    8.4403595125
  - # 14
    frequency:   11.3221286258
  - # 15
    frequency:   14.9220677119

- q-position: [    0.1212121,    0.0000000,    0.0000000 ]
  distance:    0.0373298
  band:
  - # 1
    frequency:    0.6279108391
  - # 2
    frequency:    1.0936518705
  - # 3
    frequency:    1.9106190808
  - # 4
    frequency:    2.5815779850
  - # 5
    frequency:    3.0890955595
  - # 6
    frequency:    3.6134484007
  - # 7
    frequency:    3.6756246151
  - # 8
    frequency:    4.3355774024
  - # 9
    frequency:    4.4928290290
  - # 10
    frequency:    4.9700144065
  - # 11
    frequency:    6.5761458170
  - # 12
    frequency:    8.0005763858
  - # 13
    frequency:    8.4344593112
  - # 14
    frequency:   11.5034844194
  - # 15
    frequency:   14.8686399188

- q-position: [    0.1262626,    0.0000000,    0.0000000 ]
  distance:    0.0388852
  band:
  - # 1
    frequency:    0.6720216033
  - # 2
    frequency:    1.1354329768
  - # 3
    frequency:    1.9810277176
  - # 4
    frequency:    2.5848996947
  - # 5
    frequency:    3.1252562784
  - # 6
    frequency:    3.6072012075
  - # 7
    frequency:    3.6758377243
  - # 8
    frequency:    4.3499474357
  - # 9
    frequency:    4.4924590465
  - # 10
    frequency:    4.9988958540
  - # 11
    frequency:    6.5681611234
  - # 12
    frequency:    7.9716985176
  - # 13
    frequency:    8.4285972710
  - # 14
    frequency:   11.6842999375
  - # 15
    frequency:   14.8137992589

- q-position: [    0.1313131,    0.0000000,    0.0000000 ]
  distance:    0.0404406
  band:
  - # 1
    frequency:    0.7168357588
  - # 2
    frequency:    1.1768010095
  - # 3
    frequency:    2.0500866132
  - # 4
    frequency:    2.5884135116
  - # 5
    frequency:    3.1618431491
  - # 6
    frequency:    3.6012195643
  - # 7
    frequency:    3.6761121863
  - # 8
    frequency:    4.3643340720
  - # 9
    frequency:    4.4920592314
  - # 10
    frequency:    5.0276816801
  - # 11
    frequency:    6.5600804050
  - # 12
    frequency:    7.9421310904
  - # 13
    frequency:    8.4228002496
  - # 14
    frequency:   11.8639497168
  - # 15
    frequency:   14.7576822001

- q-position: [    0.1363636,    0.0000000,    0.0000000 ]
  distance:    0.0419960
  band:
  - # 1
    frequency:    0.7622892137
  - # 2
    frequency:    1.2177480598
  - # 3
    frequency:    2.1177166724
  - # 4
    frequency:    2.5921256841
  - # 5
    frequency:    3.1987795586
  - # 6
    frequency:    3.5955721171
  - # 7
    frequency:    3.6764523875
  - # 8
    frequency:    4.3787787724
  - # 9
    frequency:    4.4916320992
  - # 10
    frequency:    5.0563508531
  - # 11
    frequency:    6.5519334055
  - # 12
    frequency:    7.9119220875
  - # 13
    frequency:    8.4170943561
  - # 14
    frequency:   12.0418201627
  - # 15
    frequency:   14.7004469342

- q-position: [    0.1414141,    0.0000000,    0.0000000 ]
  distance:    0.0435514
  band:
  - # 1
    frequency:    0.8083208917
  - # 2
    frequency:    1.2582668099
  - # 3
    frequency:    2.1838413094
  - # 4
    frequency:    2.5960426569
  - # 5
    frequency:    3.2359753753
  - # 6
    frequency:    3.5903364920
  - # 7
    frequency:    3.6768627294
  - # 8
    frequency:    4.3933199030
  - # 9
    frequency:    4.4911810410
  - # 10
    frequency:    5.0848875601
  - # 11
    frequency:    6.5437513425
  - # 12
    frequency:    7.8811220908
  - # 13
    frequency:    8.4115047671
  - # 14
    frequency:   12.2173006130
  - # 15
    frequency:   14.6422821001

- q-position: [    0.1464646,    0.0000000,    0.0000000 ]
  distance:    0.0451068
  band:
  - # 1
    frequency:    0.8548725417
  - # 2
    frequency:    1.2983504784
  - # 3
    frequency:    2.2483874449
  - # 4
    frequency:    2.6001710743
  - # 5
    frequency:    3.2733184243
  - # 6
    frequency:    3.5856074283
  - # 7
    frequency:    3.6773476547
  - # 8
    frequency:    4.4079926293
  - # 9
    frequency:    4.4907103678
  - # 10
    frequency:    5.1132792346
  - # 11
    frequency:    6.5355669094
  - # 12
    frequency:    7.8497841990
  - # 13
    frequency:    8.4060555481
  - # 14
    frequency:   12.3897690413
  - # 15
    frequency:   14.5834205443

- q-position: [    0.1515152,    0.0000000,    0.0000000 ]
  distance:    0.0466622
  band:
  - # 1
    frequency:    0.9018885467
  - # 2
    frequency:    1.3379927594
  - # 3
    frequency:    2.3112864703
  - # 4
    frequency:    2.6045177830
  - # 5
    frequency:    3.3106596378
  - # 6
    frequency:    3.5815113123
  - # 7
    frequency:    3.6779116788
  - # 8
    frequency:    4.4228288973
  - # 9
    frequency:    4.4902253407
  - # 10
    frequency:    5.1415147686
  - # 11
    frequency:    6.5274142642
  - # 12
    frequency:    7.8179639875
  - # 13
    frequency:    8.4007694833
  - # 14
    frequency:   12.5585689204
  - # 15
    frequency:   14.5241616907

- q-position: [    0.1565657,    0.0000000,    0.0000000 ]
  distance:    0.0482176
  band:
  - # 1
    frequency:    0.9493157401
  - # 2
    frequency:    1.3771877565
  - # 3
    frequency:    2.3724751245
  - # 4
    frequency:    2.6090898342
  - # 5
    frequency:    3.3477850256
  - # 6
    frequency:    3.5782340234
  - # 7
    frequency:    3.6785594246
  - # 8
    frequency:    4.4378574552
  - # 9
    frequency:    4.4897321871
  - # 10
    frequency:    5.1695828971
  - # 11
    frequency:    6.5193289984
  - # 12
    frequency:    7.7857195065
  - # 13
    frequency:    8.3956679160
  - # 14
    frequency:   12.7229706808
  - # 15
    frequency:   14.4649091553

- q-position: [    0.1616162,    0.0000000,    0.0000000 ]
  distance:    0.0497730
  band:
  - # 1
    frequency:    0.9971032291
  - # 2
    frequency:    1.4159299108
  - # 3
    frequency:    2.4318962274
  - # 4
    frequency:    2.6138944838
  - # 5
    frequency:    3.3843586660
  - # 6
    frequency:    3.5760779535
  - # 7
    frequency:    3.6792956599
  - # 8
    frequency:    4.4531038830
  - # 9
    frequency:    4.4892380993
  - # 10
    frequency:    5.1974707384
  - # 11
    frequency:    6.5113480790
  - # 12
    frequency:    7.7531113175
  - # 13
    frequency:    8.3907706017
  - # 14
    frequency:   12.8821050241
  - # 15
    frequency:   14.4062364070

- q-position: [    0.1666667,    0.0000000,    0.0000000 ]
  distance:    0.0513284
  band:
  - # 1
    frequency:    1.0452022300
  - # 2
    frequency:    1.4542139257
  - # 3
    frequency:    2.4894992094
  - # 4
    frequency:    2.6189391914
  - # 5
    frequency:    3.4197999937
  - # 6
    frequency:    3.5755849795
  - # 7
    frequency:    3.6801253373
  - # 8
    frequency:    4.4685906093
  - # 9
    frequency:    4.4887512155
  - # 10
    frequency:    5.2251624779
  - # 11
    frequency:    6.5035097524
  - # 12
    frequency:    7.7202025701
  - # 13
    frequency:    8.3860955760
  - # 14
    frequency:   13.0348426797
  - # 15
    frequency:   14.3490059292

- q-position: [    0.1717172,    0.0000000,    0.0000000 ]
  distance:    0.0528838
  band:
  - # 1
    frequency:    1.0935659135
  - # 2
    frequency:    1.4920346876
  - # 3
    frequency:    2.5452403891
  - # 4
    frequency:    2.6242316159
  - # 5
    frequency:    3.4530217110
  - # 6
    frequency:    3.5777991106
  - # 7
    frequency:    3.6810536332
  - # 8
    frequency:    4.4843369008
  - # 9
    frequency:    4.4882805809
  - # 10
    frequency:    5.2526381841
  - # 11
    frequency:    6.4958533949
  - # 12
    frequency:    7.6870591212
  - # 13
    frequency:    8.3816590396
  - # 14
    frequency:   13.1795693210
  - # 15
    frequency:   14.2945932016

- q-position: [    0.1767677,    0.0000000,    0.0000000 ]
  distance:    0.0544392
  band:
  - # 1
    frequency:    1.1421492642
  - # 2
    frequency:    1.5293871840
  - # 3
    frequency:    2.5990829596
  - # 4
    frequency:    2.6297796076
  - # 5
    frequency:    3.4820018645
  - # 6
    frequency:    3.5846952988
  - # 7
    frequency:    3.6820859861
  - # 8
    frequency:    4.4878360906
  - # 9
    frequency:    4.5003588159
  - # 10
    frequency:    5.2798727585
  - # 11
    frequency:    6.4884192924
  - # 12
    frequency:    7.6537497008
  - # 13
    frequency:    8.3774752615
  - # 14
    frequency:   13.3137565906
  - # 15
    frequency:   14.2453145776

- q-position: [    0.1818182,    0.0000000,    0.0000000 ]
  distance:    0.0559946
  band:
  - # 1
    frequency:    1.1909089511
  - # 2
    frequency:    1.5662664208
  - # 3
    frequency:    2.6355911966
  - # 4
    frequency:    2.6509966665
  - # 5
    frequency:    3.5039173383
  - # 6
    frequency:    3.5990471679
  - # 7
    frequency:    3.6832281322
  - # 8
    frequency:    4.4874284113
  - # 9
    frequency:    4.5166691197
  - # 10
    frequency:    5.3068350260
  - # 11
    frequency:    6.4812483244
  - # 12
    frequency:    7.6203461297
  - # 13
    frequency:    8.3735565028
  - # 14
    frequency:   13.4331815132
  - # 15
    frequency:   14.2052067979

- q-position: [    0.1868687,    0.0000000,    0.0000000 ]
  distance:    0.0575500
  band:
  - # 1
    frequency:    1.2398032120
  - # 2
    frequency:    1.6026673391
  - # 3
    frequency:    2.6416745757
  - # 4
    frequency:    2.7009571836
  - # 5
    frequency:    3.5175990172
  - # 6
    frequency:    3.6219733848
  - # 7
    frequency:    3.6844861354
  - # 8
    frequency:    4.4870688855
  - # 9
    frequency:    4.5332771593
  - # 10
    frequency:    5.3334869856
  - # 11
    frequency:    6.4743815225
  - # 12
    frequency:    7.5869235953
  - # 13
    frequency:    8.3699129609
  - # 14
    frequency:   13.5308491690
  - # 15
    frequency:   14.1811032792

- q-position: [    0.1919192,    0.0000000,    0.0000000 ]
  distance:    0.0591054
  band:
  - # 1
    frequency:    1.2887917486
  - # 2
    frequency:    1.6385847325
  - # 3
    frequency:    2.6480380772
  - # 4
    frequency:    2.7489452240
  - # 5
    frequency:    3.5252776680
  - # 6
    frequency:    3.6511935677
  - # 7
    frequency:    3.6858664111
  - # 8
    frequency:    4.4867694170
  - # 9
    frequency:    4.5501887058
  - # 10
    frequency:    5.3597832504
  - # 11
    frequency:    6.4678594679
  - # 12
    frequency:    7.5535609933
  - # 13
    frequency:    8.3665527363
  - # 14
    frequency:   13.5971356376
  - # 15
    frequency:   14.1824901777

- q-position: [    0.1969697,    0.0000000,    0.0000000 ]
  distance:    0.0606608
  band:
  - # 1
    frequency:    1.3378356329
  - # 2
    frequency:    1.6740131673
  - # 3
    frequency:    2.6546901433
  - # 4
    frequency:    2.7949454538
  - # 5
    frequency:    3.5298791286
  - # 6
    frequency:    3.6837350488
  - # 7
    frequency:    3.6873757403
  - # 8
    frequency:    4.4865423409
  - # 9
    frequency:    4.5674057695
  - # 10
    frequency:    5.3856707170
  - # 11
    frequency:    6.4617214851
  - # 12
    frequency:    7.5203413409
  - # 13
    frequency:    8.3634818214
  - # 14
    frequency:   13.6250618526
  - # 15
    frequency:   14.2162315901

- q-position: [    0.2020202,    0.0000000,    0.0000000 ]
  distance:    0.0622163
  band:
  - # 1
    frequency:    1.3868972243
  - # 2
    frequency:    1.7089469061
  - # 3
    frequency:    2.6616392890
  - # 4
    frequency:    2.8389453088
  - # 5
    frequency:    3.5332165957
  - # 6
    frequency:    3.6890212744
  - # 7
    frequency:    3.7177425709
  - # 8
    frequency:    4.4864002797
  - # 9
    frequency:    4.5849264006
  - # 10
    frequency:    5.4110885106
  - # 11
    frequency:    6.4560045845
  - # 12
    frequency:    7.4873522707
  - # 13
    frequency:    8.3607041123
  - # 14
    frequency:   13.6178733629
  - # 15
    frequency:   14.2789889011

- q-position: [    0.2070707,    0.0000000,    0.0000000 ]
  distance:    0.0637717
  band:
  - # 1
    frequency:    1.4359400952
  - # 2
    frequency:    1.7433798374
  - # 3
    frequency:    2.6688940561
  - # 4
    frequency:    2.8809338475
  - # 5
    frequency:    3.5362263854
  - # 6
    frequency:    3.6908105258
  - # 7
    frequency:    3.7522443804
  - # 8
    frequency:    4.4863559882
  - # 9
    frequency:    4.6027444902
  - # 10
    frequency:    5.4359682612
  - # 11
    frequency:    6.4507421048
  - # 12
    frequency:    7.4546866081
  - # 13
    frequency:    8.3582214415
  - # 14
    frequency:   13.5861886344
  - # 15
    frequency:   14.3600716419

- q-position: [    0.2121212,    0.0000000,    0.0000000 ]
  distance:    0.0653271
  band:
  - # 1
    frequency:    1.4849289645
  - # 2