nqpoint: 300    
npath: 3      
segment_nqpoint:
- 100
- 100
- 100
labels:
- [ 'G', 'M' ]
- [ 'M', 'K' ]
- [ 'K', 'G' ]
reciprocal_lattice:
- [   0.28202395,   0.16282660,   0.00000000 ] # a*
- [   0.00000000,   0.32565321,   0.00000000 ] # b*
- [   0.00000000,   0.00000000,   0.03894649 ] # c*
natom: 7      
lattice:
- [     3.545798162640341,     0.000000000000000,     0.000000000000000 ] # a
- [    -1.772899081320171,     3.070751285538136,     0.000000000000000 ] # b
- [     0.000000000000000,     0.000000000000000,    25.676252987931399 ] # c
points:
- symbol: C # 1
  coordinates: [  0.333332985432215,  0.666666983183674,  0.602726866570759 ]
  mass: 12.010700
- symbol: H # 2
  coordinates: [  0.666666984744047,  0.333332985985145,  0.350518434454991 ]
  mass: 1.007940
- symbol: N # 3
  coordinates: [  0.000000000000000,  0.000000000000000,  0.489826134465415 ]
  mass: 14.006700
- symbol: N # 4
  coordinates: [  0.333332985432215,  0.666666983183674,  0.649481565545009 ]
  mass: 14.006700
- symbol: O # 5
  coordinates: [  0.666666984744047,  0.333332985985145,  0.388919692811420 ]
  mass: 15.999400
- symbol: Y # 6
  coordinates: [  0.333332985432215,  0.666666983183674,  0.439557964732384 ]
  mass: 88.905850
- symbol: Y # 7
  coordinates: [  0.666666984744047,  0.333332985985145,  0.543750585343350 ]
  mass: 88.905850

phonon:
- q-position: [    0.0000000,    0.0000000,    0.0000000 ]
  distance:    0.0000000
  band:
  - # 1
    frequency:   -2.4321406269
  - # 2
    frequency:   -2.4321406269
  - # 3
    frequency:   -0.0000037176
  - # 4
    frequency:    0.0000000524
  - # 5
    frequency:    0.0000036008
  - # 6
    frequency:    3.6828898444
  - # 7
    frequency:    3.6828898444
  - # 8
    frequency:    5.5279383830
  - # 9
    frequency:    6.8976816778
  - # 10
    frequency:    6.8976816778
  - # 11
    frequency:    7.7811691400
  - # 12
    frequency:    7.7811691400
  - # 13
    frequency:    8.0756621629
  - # 14
    frequency:   10.2768670137
  - # 15
    frequency:   11.9219027803
  - # 16
    frequency:   11.9219027803
  - # 17
    frequency:   11.9846021381
  - # 18
    frequency:   12.6040897941
  - # 19
    frequency:   12.6040897941
  - # 20
    frequency:   61.7272346877
  - # 21
    frequency:  113.1478841608

- q-position: [    0.0050505,    0.0000000,    0.0000000 ]
  distance:    0.0016447
  band:
  - # 1
    frequency:   -2.4320248345
  - # 2
    frequency:   -2.4318877952
  - # 3
    frequency:    0.0011086667
  - # 4
    frequency:    0.0677089992
  - # 5
    frequency:    0.0856197211
  - # 6
    frequency:    3.6827315287
  - # 7
    frequency:    3.6832056646
  - # 8
    frequency:    5.5279460783
  - # 9
    frequency:    6.8979027038
  - # 10
    frequency:    6.8981304661
  - # 11
    frequency:    7.7808585054
  - # 12
    frequency:    7.7810241718
  - # 13
    frequency:    8.0755549878
  - # 14
    frequency:   10.2764905960
  - # 15
    frequency:   11.9182555853
  - # 16
    frequency:   11.9214609063
  - # 17
    frequency:   11.9877178036
  - # 18
    frequency:   12.6041807497
  - # 19
    frequency:   12.6049455516
  - # 20
    frequency:   61.7271294450
  - # 21
    frequency:  113.1470535539

- q-position: [    0.0101010,    0.0000000,    0.0000000 ]
  distance:    0.0032894
  band:
  - # 1
    frequency:   -2.4316780173
  - # 2
    frequency:   -2.4311347237
  - # 3
    frequency:    0.0044737634
  - # 4
    frequency:    0.1353927209
  - # 5
    frequency:    0.1712899552
  - # 6
    frequency:    3.6822596154
  - # 7
    frequency:    3.6841551916
  - # 8
    frequency:    5.5279687659
  - # 9
    frequency:    6.8985643750
  - # 10
    frequency:    6.8994752654
  - # 11
    frequency:    7.7799309511
  - # 12
    frequency:    7.7805895618
  - # 13
    frequency:    8.0752318760
  - # 14
    frequency:   10.2753634583
  - # 15
    frequency:   11.9088867344
  - # 16
    frequency:   11.9201379537
  - # 17
    frequency:   11.9954929925
  - # 18
    frequency:   12.6044554311
  - # 19
    frequency:   12.6075077870
  - # 20
    frequency:   61.7268139670
  - # 21
    frequency:  113.1445651736

- q-position: [    0.0151515,    0.0000000,    0.0000000 ]
  distance:    0.0049341
  band:
  - # 1
    frequency:   -2.4311018574
  - # 2
    frequency:   -2.4298974868
  - # 3
    frequency:    0.0100788074
  - # 4
    frequency:    0.2030259793
  - # 5
    frequency:    0.2570590188
  - # 6
    frequency:    3.6814831745
  - # 7
    frequency:    3.6857445866
  - # 8
    frequency:    5.5280052504
  - # 9
    frequency:    6.8996624784
  - # 10
    frequency:    6.9017113798
  - # 11
    frequency:    7.7783994073
  - # 12
    frequency:    7.7798661969
  - # 13
    frequency:    8.0746881710
  - # 14
    frequency:   10.2734918915
  - # 15
    frequency:   11.8962259777
  - # 16
    frequency:   11.9179417713
  - # 17
    frequency:   12.0055007519
  - # 18
    frequency:   12.6049193073
  - # 19
    frequency:   12.6117615649
  - # 20
    frequency:   61.7262890034
  - # 21
    frequency:  113.1404293283

- q-position: [    0.0202020,    0.0000000,    0.0000000 ]
  distance:    0.0065789
  band:
  - # 1
    frequency:   -2.4302991683
  - # 2
    frequency:   -2.4282022274
  - # 3
    frequency:    0.0179193263
  - # 4
    frequency:    0.2705837683
  - # 5
    frequency:    0.3429708790
  - # 6
    frequency:    3.6804172195
  - # 7
    frequency:    3.6879839888
  - # 8
    frequency:    5.5280535368
  - # 9
    frequency:    6.9011900158
  - # 10
    frequency:    6.9048309846
  - # 11
    frequency:    7.7762850371
  - # 12
    frequency:    7.7788555660
  - # 13
    frequency:    8.0739164451
  - # 14
    frequency:   10.2708861990
  - # 15
    frequency:   11.8817090384
  - # 16
    frequency:   11.9148849260
  - # 17
    frequency:   12.0163100738
  - # 18
    frequency:   12.6055815780
  - # 19
    frequency:   12.6176825611
  - # 20
    frequency:   61.7255558007
  - # 21
    frequency:  113.1346631553

- q-position: [    0.0252525,    0.0000000,    0.0000000 ]
  distance:    0.0082236
  band:
  - # 1
    frequency:   -2.4292739083
  - # 2
    frequency:   -2.4260842123
  - # 3
    frequency:    0.0279886231
  - # 4
    frequency:    0.3380413451
  - # 5
    frequency:    0.4290631804
  - # 6
    frequency:    3.6790825517
  - # 7
    frequency:    3.6908873270
  - # 8
    frequency:    5.5281108277
  - # 9
    frequency:    6.9031372397
  - # 10
    frequency:    6.9088231284
  - # 11
    frequency:    7.7736166860
  - # 12
    frequency:    7.7775597755
  - # 13
    frequency:    8.0729069699
  - # 14
    frequency:   10.2675604314
  - # 15
    frequency:   11.8660244592
  - # 16
    frequency:   11.9109839963
  - # 17
    frequency:   12.0272391244
  - # 18
    frequency:   12.6064552996
  - # 19
    frequency:   12.6252378493
  - # 20
    frequency:   61.7246160984
  - # 21
    frequency:  113.1272905555

- q-position: [    0.0303030,    0.0000000,    0.0000000 ]
  distance:    0.0098683
  band:
  - # 1
    frequency:   -2.4280311977
  - # 2
    frequency:   -2.4235865613
  - # 3
    frequency:    0.0402777411
  - # 4
    frequency:    0.4053743049
  - # 5
    frequency:    0.5153654814
  - # 6
    frequency:    3.6775055460
  - # 7
    frequency:    3.6944720597
  - # 8
    frequency:    5.5281735182
  - # 9
    frequency:    6.9054917019
  - # 10
    frequency:    6.9136737340
  - # 11
    frequency:    7.7704301688
  - # 12
    frequency:    7.7759815714
  - # 13
    frequency:    8.0716483221
  - # 14
    frequency:   10.2635320254
  - # 15
    frequency:   11.8495164514
  - # 16
    frequency:   11.9062586986
  - # 17
    frequency:   12.0379524886
  - # 18
    frequency:   12.6075575596
  - # 19
    frequency:   12.6343868858
  - # 20
    frequency:   61.7234721230
  - # 21
    frequency:  113.1183421033

- q-position: [    0.0353535,    0.0000000,    0.0000000 ]
  distance:    0.0115130
  band:
  - # 1
    frequency:   -2.4265773389
  - # 2
    frequency:   -2.4207587035
  - # 3
    frequency:    0.0547752477
  - # 4
    frequency:    0.4725586457
  - # 5
    frequency:    0.6018977716
  - # 6
    frequency:    3.6757178768
  - # 7
    frequency:    3.6987588555
  - # 8
    frequency:    5.5282371924
  - # 9
    frequency:    6.9082383163
  - # 10
    frequency:    6.9193655979
  - # 11
    frequency:    7.7667674404
  - # 12
    frequency:    7.7741243675
  - # 13
    frequency:    8.0701280795
  - # 14
    frequency:   10.2588213627
  - # 15
    frequency:   11.8323770458
  - # 16
    frequency:   11.9007309354
  - # 17
    frequency:   12.0482691210
  - # 18
    frequency:   12.6089096967
  - # 19
    frequency:   12.6450826014
  - # 20
    frequency:   61.7221265811
  - # 21
    frequency:  113.1078549301

- q-position: [    0.0404040,    0.0000000,    0.0000000 ]
  distance:    0.0131577
  band:
  - # 1
    frequency:   -2.4249198371
  - # 2
    frequency:   -2.4176546252
  - # 3
    frequency:    0.0714669707
  - # 4
    frequency:    0.5395708212
  - # 5
    frequency:    0.6886693183
  - # 6
    frequency:    3.6737561873
  - # 7
    frequency:    3.7037712175
  - # 8
    frequency:    5.5282966186
  - # 9
    frequency:    6.9113594338
  - # 10
    frequency:    6.9258783845
  - # 11
    frequency:    7.7626756990
  - # 12
    frequency:    7.7719922790
  - # 13
    frequency:    8.0683335642
  - # 14
    frequency:   10.2534512590
  - # 15
    frequency:   11.8147271034
  - # 16
    frequency:   11.8944238532
  - # 17
    frequency:   12.0580814347
  - # 18
    frequency:   12.6105375615
  - # 19
    frequency:   12.6572725117
  - # 20
    frequency:   61.7205826501
  - # 21
    frequency:  113.0958725831

- q-position: [    0.0454545,    0.0000000,    0.0000000 ]
  distance:    0.0148024
  band:
  - # 1
    frequency:   -2.4230674189
  - # 2
    frequency:   -2.4143309876
  - # 3
    frequency:    0.0903357019
  - # 4
    frequency:    0.6063877801
  - # 5
    frequency:    0.7756778739
  - # 6
    frequency:    3.6716617058
  - # 7
    frequency:    3.7095350649
  - # 8
    frequency:    5.5283457463
  - # 9
    frequency:    6.9148349297
  - # 10
    frequency:    6.9331886149
  - # 11
    frequency:    7.7582064684
  - # 12
    frequency:    7.7695901620
  - # 13
    frequency:    8.0662525907
  - # 14
    frequency:   10.2474464040
  - # 15
    frequency:   11.7966517869
  - # 16
    frequency:   11.8873609797
  - # 17
    frequency:   12.0673199152
  - # 18
    frequency:   12.6124718112
  - # 19
    frequency:   12.6708997744
  - # 20
    frequency:   61.7188439679
  - # 21
    frequency:  113.0824448598

- q-position: [    0.0505051,    0.0000000,    0.0000000 ]
  distance:    0.0164471
  band:
  - # 1
    frequency:   -2.4210300490
  - # 2
    frequency:   -2.4108451962
  - # 3
    frequency:    0.1113608835
  - # 4
    frequency:    0.6729869920
  - # 5
    frequency:    0.8629092606
  - # 6
    frequency:    3.6694798101
  - # 7
    frequency:    3.7160782823
  - # 8
    frequency:    5.5283777051
  - # 9
    frequency:    6.9186423033
  - # 10
    frequency:    6.9412696461
  - # 11
    frequency:    7.7534146970
  - # 12
    frequency:    7.7669236571
  - # 13
    frequency:    8.0638741865
  - # 14
    frequency:   10.2408327692
  - # 15
    frequency:   11.7782171468
  - # 16
    frequency:   11.8795654931
  - # 17
    frequency:   12.0759365935
  - # 18
    frequency:   12.6147482286
  - # 19
    frequency:   12.6859041385
  - # 20
    frequency:   61.7169146214
  - # 21
    frequency:  113.0676276173

- q-position: [    0.0555556,    0.0000000,    0.0000000 ]
  distance:    0.0180918
  band:
  - # 1
    frequency:   -2.4188189413
  - # 2
    frequency:   -2.4072535094
  - # 3
    frequency:    0.1345182854
  - # 4
    frequency:    0.7393464577
  - # 5
    frequency:    0.9503373224
  - # 6
    frequency:    3.6672595460
  - # 7
    frequency:    3.7234302471
  - # 8
    frequency:    5.5283848061
  - # 9
    frequency:    6.9227567882
  - # 10
    frequency:    6.9500916403
  - # 11
    frequency:    7.7483579033
  - # 12
    frequency:    7.7639992370
  - # 13
    frequency:    8.0611892625
  - # 14
    frequency:   10.2336370046
  - # 15
    frequency:   11.7594783434
  - # 16
    frequency:   11.8710596502
  - # 17
    frequency:   12.0838968503
  - # 18
    frequency:   12.6174080514
  - # 19
    frequency:   12.7022227568
  - # 20
    frequency:   61.7147991323
  - # 21
    frequency:  113.0514825593

- q-position: [    0.0606061,    0.0000000,    0.0000000 ]
  distance:    0.0197366
  band:
  - # 1
    frequency:   -2.4164465633
  - # 2
    frequency:   -2.4036092667
  - # 3
    frequency:    0.1597796903
  - # 4
    frequency:    0.8054447067
  - # 5
    frequency:    1.0379242210
  - # 6
    frequency:    3.6650531026
  - # 7
    frequency:    3.7316213511
  - # 8
    frequency:    5.5283585469
  - # 9
    frequency:    6.9271514743
  - # 10
    frequency:    6.9596215197
  - # 11
    frequency:    7.7430953863
  - # 12
    frequency:    7.7608242564
  - # 13
    frequency:    8.0581912187
  - # 14
    frequency:   10.2258858473
  - # 15
    frequency:   11.7404838685
  - # 16
    frequency:   11.8618643815
  - # 17
    frequency:   12.0911751758
  - # 18
    frequency:   12.6204982978
  - # 19
    frequency:   12.7197908502
  - # 20
    frequency:   61.7125024431
  - # 21
    frequency:  113.0340769993

- q-position: [    0.0656566,    0.0000000,    0.0000000 ]
  distance:    0.0213813
  band:
  - # 1
    frequency:   -2.4139266322
  - # 2
    frequency:   -2.3999613091
  - # 3
    frequency:    0.1871125981
  - # 4
    frequency:    0.8712607790
  - # 5
    frequency:    1.1256210253
  - # 6
    frequency:    3.6629152504
  - # 7
    frequency:    3.7406825261
  - # 8
    frequency:    5.5282896212
  - # 9
    frequency:    6.9317974412
  - # 10
    frequency:    6.9698229073
  - # 11
    frequency:    7.7376875113
  - # 12
    frequency:    7.7574070025
  - # 13
    frequency:    8.0548764832
  - # 14
    frequency:   10.2176055617
  - # 15
    frequency:   11.7212777042
  - # 16
    frequency:   11.8519990469
  - # 17
    frequency:   12.0977529474
  - # 18
    frequency:   12.6240720683
  - # 19
    frequency:   12.7385422301
  - # 20
    frequency:   61.7100299007
  - # 21
    frequency:  113.0154836018

- q-position: [    0.0707071,    0.0000000,    0.0000000 ]
  distance:    0.0230260
  band:
  - # 1
    frequency:   -2.4112741017
  - # 2
    frequency:   -2.3963526492
  - # 3
    frequency:    0.2164799658
  - # 4
    frequency:    0.9367741955
  - # 5
    frequency:    1.2133685371
  - # 6
    frequency:    3.6609027479
  - # 7
    frequency:    3.7506447890
  - # 8
    frequency:    5.5281679338
  - # 9
    frequency:    6.9366639023
  - # 10
    frequency:    6.9806560507
  - # 11
    frequency:    7.7321950707
  - # 12
    frequency:    7.7537567436
  - # 13
    frequency:    8.0512449873
  - # 14
    frequency:   10.2088214364
  - # 15
    frequency:   11.7019003286
  - # 16
    frequency:   11.8414813321
  - # 17
    frequency:   12.1036173061
  - # 18
    frequency:   12.6281888060
  - # 19
    frequency:   12.7584096939
  - # 20
    frequency:   61.7073872389
  - # 21
    frequency:  112.9957801025

- q-position: [    0.0757576,    0.0000000,    0.0000000 ]
  distance:    0.0246707
  band:
  - # 1
    frequency:   -2.4085051389
  - # 2
    frequency:   -2.3928194287
  - # 3
    frequency:    0.2478399985
  - # 4
    frequency:    1.0019649153
  - # 5
    frequency:    1.3010982821
  - # 6
    frequency:    3.6590737226
  - # 7
    frequency:    3.7615388169
  - # 8
    frequency:    5.5279826214
  - # 9
    frequency:    6.9417183619
  - # 10
    frequency:    6.9920777298
  - # 11
    frequency:    7.7266787130
  - # 12
    frequency:    7.7498837732
  - # 13
    frequency:    8.0473005898
  - # 14
    frequency:   10.1995573557
  - # 15
    frequency:   11.6823890316
  - # 16
    frequency:   11.8303272630
  - # 17
    frequency:   12.1087606704
  - # 18
    frequency:   12.6329144948
  - # 19
    frequency:   12.7793253161
  - # 20
    frequency:   61.7045805600
  - # 21
    frequency:  112.9750490075

- q-position: [    0.0808081,    0.0000000,    0.0000000 ]
  distance:    0.0263154
  band:
  - # 1
    frequency:   -2.4056370897
  - # 2
    frequency:   -2.3893901848
  - # 3
    frequency:    0.2811460039
  - # 4
    frequency:    1.0668132824
  - # 5
    frequency:    1.3887335963
  - # 6
    frequency:    3.6574870338
  - # 7
    frequency:    3.7733945638
  - # 8
    frequency:    5.5277220803
  - # 9
    frequency:    6.9469267845
  - # 10
    frequency:    7.0040411501
  - # 11
    frequency:    7.7211984246
  - # 12
    frequency:    7.7457994471
  - # 13
    frequency:    8.0430514661
  - # 14
    frequency:   10.1898354683
  - # 15
    frequency:   11.6627777867
  - # 16
    frequency:   11.8185513110
  - # 17
    frequency:   12.1131806377
  - # 18
    frequency:   12.6383217777
  - # 19
    frequency:   12.8012206578
  - # 20
    frequency:   61.7016163148
  - # 21
    frequency:  112.9533772734

- q-position: [    0.0858586,    0.0000000,    0.0000000 ]
  distance:    0.0279601
  band:
  - # 1
    frequency:   -2.4026884330
  - # 2
    frequency:   -2.3860854256
  - # 3
    frequency:    0.3163463244
  - # 4
    frequency:    1.1312999632
  - # 5
    frequency:    1.4761907400
  - # 6
    frequency:    3.6562016245
  - # 7
    frequency:    3.7862409278
  - # 8
    frequency:    5.5273740017
  - # 9
    frequency:    6.9522537791
  - # 10
    frequency:    7.0164958258
  - # 11
    frequency:    7.7158130443
  - # 12
    frequency:    7.7415162077
  - # 13
    frequency:    8.0385104845
  - # 14
    frequency:   10.1796759675
  - # 15
    frequency:   11.6430968267
  - # 16
    frequency:   11.8061665671
  - # 17
    frequency:   12.1168801222
  - # 18
    frequency:   12.6444899807
  - # 19
    frequency:   12.8240269170
  - # 20
    frequency:   61.6985012820
  - # 21
    frequency:  112.9308559690

- q-position: [    0.0909091,    0.0000000,    0.0000000 ]
  distance:    0.0296048
  band:
  - # 1
    frequency:   -2.3996787246
  - # 2
    frequency:   -2.3829175026
  - # 3
    frequency:    0.3533843571
  - # 4
    frequency:    1.1954058766
  - # 5
    frequency:    1.5633799838
  - # 6
    frequency:    3.6552758712
  - # 7
    frequency:    3.8001054751
  - # 8
    frequency:    5.5269254145
  - # 9
    frequency:    6.9576627991
  - # 10
    frequency:    7.0293874598
  - # 11
    frequency:    7.7105797783
  - # 12
    frequency:    7.7370475932
  - # 13
    frequency:    8.0336955932
  - # 14
    frequency:   10.1690969981
  - # 15
    frequency:   11.6233720227
  - # 16
    frequency:   11.7931849598
  - # 17
    frequency:   12.1198676303
  - # 18
    frequency:   12.6515050317
  - # 19
    frequency:   12.8476750394
  - # 20
    frequency:   61.6952425460
  - # 21
    frequency:  112.9075799193

- q-position: [    0.0959596,    0.0000000,    0.0000000 ]
  distance:    0.0312496
  band:
  - # 1
    frequency:   -2.3966285293
  - # 2
    frequency:   -2.3798907531
  - # 3
    frequency:    0.3921986676
  - # 4
    frequency:    1.2591121162
  - # 5
    frequency:    1.6502066225
  - # 6
    frequency:    3.6547669389
  - # 7
    frequency:    3.8150142247
  - # 8
    frequency:    5.5263627363
  - # 9
    frequency:    6.9631163612
  - # 10
    frequency:    7.0426578339
  - # 11
    frequency:    7.7055536810
  - # 12
    frequency:    7.7324082259
  - # 13
    frequency:    8.0286302486
  - # 14
    frequency:   10.1581146979
  - # 15
    frequency:   11.6036241432
  - # 16
    frequency:   11.7796175023
  - # 17
    frequency:   12.1221575926
  - # 18
    frequency:   12.6594592674
  - # 19
    frequency:   12.8720958062
  - # 20
    frequency:   61.6918474746
  - # 21
    frequency:  112.8836473338

- q-position: [    0.1010101,    0.0000000,    0.0000000 ]
  distance:    0.0328943
  band:
  - # 1
    frequency:   -2.3935593432
  - # 2
    frequency:   -2.3770018822
  - # 3
    frequency:    0.4327232025
  - # 4
    frequency:    1.3223998690
  - # 5
    frequency:    1.7365718905
  - # 6
    frequency:    3.6547301514
  - # 7
    frequency:    3.8309914936
  - # 8
    frequency:    5.5256718329
  - # 9
    frequency:    6.9685762840
  - # 10
    frequency:    7.0562447260
  - # 11
    frequency:    7.7007870493
  - # 12
    frequency:    7.7276137741
  - # 13
    frequency:    8.0233439169
  - # 14
    frequency:   10.1467433760
  - # 15
    frequency:   11.5838680663
  - # 16
    frequency:   11.7654745505
  - # 17
    frequency:   12.1237706822
  - # 18
    frequency:   12.6684511282
  - # 19
    frequency:   12.8972199111
  - # 20
    frequency:   61.6883236950
  - # 21
    frequency:  112.8591594201

- q-position: [    0.1060606,    0.0000000,    0.0000000 ]
  distance:    0.0345390
  band:
  - # 1
    frequency:   -2.3904935066
  - # 2
    frequency:   -2.3742405483
  - # 3
    frequency:    0.4748875987
  - # 4
    frequency:    1.3852503298
  - # 5
    frequency:    1.8223737653
  - # 6
    frequency:    3.6552183853
  - # 7
    frequency:    3.8480597987
  - # 8
    frequency:    5.5248380860
  - # 9
    frequency:    6.9740039510
  - # 10
    frequency:    7.0700818807
  - # 11
    frequency:    7.6963286740
  - # 12
    frequency:    7.7226808835
  - # 13
    frequency:    8.0178726855
  - # 14
    frequency:   10.1349958267
  - # 15
    frequency:   11.5641120136
  - # 16
    frequency:   11.7507660649
  - # 17
    frequency:   12.1247340541
  - # 18
    frequency:   12.6785847390
  - # 19
    frequency:   12.9229780361
  - # 20
    frequency:   61.6846790696
  - # 21
    frequency:  112.8342199832

- q-position: [    0.1111111,    0.0000000,    0.0000000 ]
  distance:    0.0361837
  band:
  - # 1
    frequency:   -2.3874541073
  - # 2
    frequency:   -2.3715901163
  - # 3
    frequency:    0.5186175843
  - # 4
    frequency:    1.4476446129
  - # 5
    frequency:    1.9075076630
  - # 6
    frequency:    3.6562814968
  - # 7
    frequency:    3.8662398070
  - # 8
    frequency:    5.5238464690
  - # 9
    frequency:    6.9793605993
  - # 10
    frequency:    7.0840990670
  - # 11
    frequency:    7.6922228725
  - # 12
    frequency:    7.7176270713
  - # 13
    frequency:    8.0122600251
  - # 14
    frequency:   10.1228837657
  - # 15
    frequency:   11.5443568816
  - # 16
    frequency:   11.7355018646
  - # 17
    frequency:   12.1250814435
  - # 18
    frequency:   12.6899693802
  - # 19
    frequency:   12.9493009319
  - # 20
    frequency:   61.6809216708
  - # 21
    frequency:  112.8089350141

- q-position: [    0.1161616,    0.0000000,    0.0000000 ]
  distance:    0.0378284
  band:
  - # 1
    frequency:   -2.3844648768
  - # 2
    frequency:   -2.3690285452
  - # 3
    frequency:    0.5638354613
  - # 4
    frequency:    1.5095636634
  - # 5
    frequency:    1.9918670420
  - # 6
    frequency:    3.6579657903
  - # 7
    frequency:    3.8855503203
  - # 8
    frequency:    5.5226816312
  - # 9
    frequency:    6.9846076361
  - # 10
    frequency:    7.0982222661
  - # 11
    frequency:    7.6885082198
  - # 12
    frequency:    7.7124705793
  - # 13
    frequency:    8.0065577455
  - # 14
    frequency:   10.1104183716
  - # 15
    frequency:   11.5245957460
  - # 16
    frequency:   11.7196918713
  - # 17
    frequency:   12.1248530702
  - # 18
    frequency:   12.7027188447
  - # 19
    frequency:   12.9761195076
  - # 20
    frequency:   61.6770597559
  - # 21
    frequency:  112.7834122664

- q-position: [    0.1212121,    0.0000000,    0.0000000 ]
  distance:    0.0394731
  band:
  - # 1
    frequency:   -2.3815500783
  - # 2
    frequency:   -2.3665293808
  - # 3
    frequency:    0.6104606571
  - # 4
    frequency:    1.5709881673
  - # 5
    frequency:    2.0753439384
  - # 6
    frequency:    3.6603135371
  - # 7
    frequency:    3.9060082786
  - # 8
    frequency:    5.5213279886
  - # 9
    frequency:    6.9897069862
  - # 10
    frequency:    7.1123740406
  - # 11
    frequency:    7.6852158830
  - # 12
    frequency:    7.7072301811
  - # 13
    frequency:    8.0008271863
  - # 14
    frequency:   10.0976109070
  - # 15
    frequency:   11.5048136147
  - # 16
    frequency:   11.7033463366
  - # 17
    frequency:   12.1240953068
  - # 18
    frequency:   12.7169506780
  - # 19
    frequency:   13.0033649309
  - # 20
    frequency:   61.6731017406
  - # 21
    frequency:  112.7577608253

- q-position: [    0.1262626,    0.0000000,    0.0000000 ]
  distance:    0.0411178
  band:
  - # 1
    frequency:   -2.3787343890
  - # 2
    frequency:   -2.3640628234
  - # 3
    frequency:    0.6584103271
  - # 4
    frequency:    1.6318984638
  - # 5
    frequency:    2.1578294692
  - # 6
    frequency:    3.6633625521
  - # 7
    frequency:    3.9276287563
  - # 8
    frequency:    5.5197698231
  - # 9
    frequency:    6.9946214705
  - # 10
    frequency:    7.1264741448
  - # 11
    frequency:    7.6823674674
  - # 12
    frequency:    7.7019249405
  - # 13
    frequency:    7.9951406782
  - # 14
    frequency:   10.0844733872
  - # 15
    frequency:   11.4849875000
  - # 16
    frequency:   11.6864760535
  - # 17
    frequency:   12.1228600866
  - # 18
    frequency:   12.7327852914
  - # 19
    frequency:   13.0309687402
  - # 20
    frequency:   61.6690561725
  - # 21
    frequency:  112.7320906683

- q-position: [    0.1313131,    0.0000000,    0.0000000 ]
  distance:    0.0427625
  band:
  - # 1
    frequency:   -2.3760427769
  - # 2
    frequency:   -2.3615968492
  - # 3
    frequency:    0.7075999902
  - # 4
    frequency:    1.6922744582
  - # 5
    frequency:    2.2392143398
  - # 6
    frequency:    3.6671458356
  - # 7
    frequency:    3.9504249277
  - # 8
    frequency:    5.5179913868
  - # 9
    frequency:    6.9993152145
  - # 10
    frequency:    7.1404404356
  - # 11
    frequency:    7.6799722998
  - # 12
    frequency:    7.6965739197
  - # 13
    frequency:    7.9895832886
  - # 14
    frequency:   10.0710192592
  - # 15
    frequency:   11.4650868666
  - # 16
    frequency:   11.6690925482
  - # 17
    frequency:   12.1212040472
  - # 18
    frequency:   12.7503449349
  - # 19
    frequency:   13.0588629676
  - # 20
    frequency:   61.6649317049
  - # 21
    frequency:  112.7065122203

- q-position: [    0.1363636,    0.0000000,    0.0000000 ]
  distance:    0.0444073
  band:
  - # 1
    frequency:   -2.3735003715
  - # 2
    frequency:   -2.3590983605
  - # 3
    frequency:    0.7579441766
  - # 4
    frequency:    1.7520955386
  - # 5
    frequency:    2.3193893975
  - # 6
    frequency:    3.6716912854
  - # 7
    frequency:    3.9744079698
  - # 8
    frequency:    5.5159770128
  - # 9
    frequency:    7.0037540860
  - # 10
    frequency:    7.1541901354
  - # 11
    frequency:    7.6780241259
  - # 12
    frequency:    7.6911958380
  - # 13
    frequency:    7.9842548215
  - # 14
    frequency:   10.0572640512
  - # 15
    frequency:   11.4450744944
  - # 16
    frequency:   11.6512082537
  - # 17
    frequency:   12.1191874292
  - # 18
    frequency:   12.7697525170
  - # 19
    frequency:   13.0869802727
  - # 20
    frequency:   61.6607370693
  - # 21
    frequency:  112.6811359052

- q-position: [    0.1414141,    0.0000000,    0.0000000 ]
  distance:    0.0460520
  band:
  - # 1
    frequency:   -2.3711323312
  - # 2
    frequency:   -2.3565343437
  - # 3
    frequency:    0.8093570688
  - # 4
    frequency:    1.8113404957
  - # 5
    frequency:    2.3982462719
  - # 6
    frequency:    3.6770214855
  - # 7
    frequency:    3.9995868695
  - # 8
    frequency:    5.5137112311
  - # 9
    frequency:    7.0079061556
  - # 10
    frequency:    7.1676414805
  - # 11
    frequency:    7.6764972962
  - # 12
    frequency:    7.6858086840
  - # 13
    frequency:    7.9792719659
  - # 14
    frequency:   10.0432259538
  - # 15
    frequency:   11.4249077652
  - # 16
    frequency:   11.6328366647
  - # 17
    frequency:   12.1168727734
  - # 18
    frequency:   12.7911302602
  - # 19
    frequency:   13.1152540851
  - # 20
    frequency:   61.6564810487
  - # 21
    frequency:  112.6560716947

- q-position: [    0.1464646,    0.0000000,    0.0000000 ]
  distance:    0.0476967
  band:
  - # 1
    frequency:   -2.3689637058
  - # 2
    frequency:   -2.3538730157
  - # 3
    frequency:    0.8617531157
  - # 4
    frequency:    1.8699874480
  - # 5
    frequency:    2.4756781410
  - # 6
    frequency:    3.6831535724
  - # 7
    frequency:    4.0259681051
  - # 8
    frequency:    5.5111788889
  - # 9
    frequency:    7.0117421735
  - # 10
    frequency:    7.1807157512
  - # 11
    frequency:    7.6753426801
  - # 12
    frequency:    7.6804292884
  - # 13
    frequency:    7.9747703559
  - # 14
    frequency:   10.0289262943
  - # 15
    frequency:   11.4045403517
  - # 16
    frequency:   11.6139924730
  - # 17
    frequency:   12.1143234816
  - # 18
    frequency:   12.8145981926
  - # 19
    frequency:   13.1436187534
  - # 20
    frequency:   61.6521724509
  - # 21
    frequency:  112.6314286573

- q-position: [    0.1515152,    0.0000000,    0.0000000 ]
  distance:    0.0493414
  band:
  - # 1
    frequency:   -2.3670192956
  - # 2
    frequency:   -2.3510849365
  - # 3
    frequency:    0.9150476036
  - # 4
    frequency:    1.9280137730
  - # 5
    frequency:    2.5515806545
  - # 6
    frequency:    3.6900991820
  - # 7
    frequency:    4.0535551709
  - # 8
    frequency:    5.5083652745
  - # 9
    frequency:    7.0152360518
  - # 10
    frequency:    7.1933396269
  - # 11
    frequency:    7.6744837925
  - # 12
    frequency:    7.6750728668
  - # 13
    frequency:    7.9709061143
  - # 14
    frequency:   10.0143898722
  - # 15
    frequency:   11.3839242499
  - # 16
    frequency:   11.5946916852
  - # 17
    frequency:   12.1116023201
  - # 18
    frequency:   12.8402724868
  - # 19
    frequency:   13.1720097013
  - # 20
    frequency:   61.6478200810
  - # 21
    frequency:  112.6073145082
