nqpoint: 300    
npath: 3      
segment_nqpoint:
- 100
- 100
- 100
labels:
- [ 'G', 'M' ]
- [ 'M', 'K' ]
- [ 'K', 'G' ]
reciprocal_lattice:
- [   0.29972551,   0.17304660,   0.00000000 ] # a*
- [   0.00000000,   0.34609321,   0.00000000 ] # b*
- [   0.00000000,   0.00000000,   0.03902878 ] # c*
natom: 7      
lattice:
- [     3.336386010574254,     0.000000000000000,     0.000000000000000 ] # a
- [    -1.668193005287126,     2.889395041973459,     0.000000000000000 ] # b
- [     0.000000000000000,     0.000000000000000,    25.622119193114163 ] # c
points:
- symbol: C # 1
  coordinates: [  0.333332985432215,  0.666666983183674,  0.588170771071460 ]
  mass: 12.010700
- symbol: F # 2
  coordinates: [  0.666666984744047,  0.333332985985145,  0.351259001340479 ]
  mass: 18.998403
- symbol: N # 3
  coordinates: [  0.000000000000000,  0.000000000000000,  0.440624739256823 ]
  mass: 14.006700
- symbol: N # 4
  coordinates: [  0.333332985432215,  0.666666983183674,  0.539194659853257 ]
  mass: 14.006700
- symbol: S # 5
  coordinates: [  0.333332985432215,  0.666666983183674,  0.648740998659521 ]
  mass: 32.065000
- symbol: Sc # 6
  coordinates: [  0.333332985432215,  0.666666983183674,  0.395695549499130 ]
  mass: 44.955912
- symbol: Sc # 7
  coordinates: [  0.666666984744047,  0.333332985985145,  0.490508640382744 ]
  mass: 44.955912

phonon:
- q-position: [    0.0000000,    0.0000000,    0.0000000 ]
  distance:    0.0000000
  band:
  - # 1
    frequency:   -0.0000028779
  - # 2
    frequency:   -0.0000011401
  - # 3
    frequency:    0.0000027510
  - # 4
    frequency:    0.7970661512
  - # 5
    frequency:    0.7970661512
  - # 6
    frequency:    4.5364252841
  - # 7
    frequency:    4.5364252841
  - # 8
    frequency:    5.6813510535
  - # 9
    frequency:    7.1583339399
  - # 10
    frequency:    7.1583339399
  - # 11
    frequency:    8.2350107060
  - # 12
    frequency:    8.2350107060
  - # 13
    frequency:    9.2207957206
  - # 14
    frequency:   12.2350310450
  - # 15
    frequency:   12.6948255802
  - # 16
    frequency:   12.6948255802
  - # 17
    frequency:   13.7781633678
  - # 18
    frequency:   13.7781633678
  - # 19
    frequency:   14.7417099194
  - # 20
    frequency:   26.9460271993
  - # 21
    frequency:   56.9932056109

- q-position: [    0.0050505,    0.0000000,    0.0000000 ]
  distance:    0.0017479
  band:
  - # 1
    frequency:    0.0162325644
  - # 2
    frequency:    0.0821604285
  - # 3
    frequency:    0.1354902354
  - # 4
    frequency:    0.7990926535
  - # 5
    frequency:    0.8040641245
  - # 6
    frequency:    4.5366883903
  - # 7
    frequency:    4.5378822107
  - # 8
    frequency:    5.6813047983
  - # 9
    frequency:    7.1586912817
  - # 10
    frequency:    7.1588749091
  - # 11
    frequency:    8.2351653843
  - # 12
    frequency:    8.2354194289
  - # 13
    frequency:    9.2200994481
  - # 14
    frequency:   12.2338355776
  - # 15
    frequency:   12.6948497218
  - # 16
    frequency:   12.6956057830
  - # 17
    frequency:   13.7781063447
  - # 18
    frequency:   13.7783117741
  - # 19
    frequency:   14.7408495313
  - # 20
    frequency:   26.9457753964
  - # 21
    frequency:   56.9924932212

- q-position: [    0.0101010,    0.0000000,    0.0000000 ]
  distance:    0.0034959
  band:
  - # 1
    frequency:    0.0411567534
  - # 2
    frequency:    0.1640146028
  - # 3
    frequency:    0.2689059735
  - # 4
    frequency:    0.8051931706
  - # 5
    frequency:    0.8249669696
  - # 6
    frequency:    4.5374792805
  - # 7
    frequency:    4.5422337048
  - # 8
    frequency:    5.6811714253
  - # 9
    frequency:    7.1597598505
  - # 10
    frequency:    7.1604931921
  - # 11
    frequency:    8.2356279136
  - # 12
    frequency:    8.2366427034
  - # 13
    frequency:    9.2180146408
  - # 14
    frequency:   12.2302560393
  - # 15
    frequency:   12.6949203969
  - # 16
    frequency:   12.6979334487
  - # 17
    frequency:   13.7779361824
  - # 18
    frequency:   13.7787568626
  - # 19
    frequency:   14.7382743379
  - # 20
    frequency:   26.9450213227
  - # 21
    frequency:   56.9903570942

- q-position: [    0.0151515,    0.0000000,    0.0000000 ]
  distance:    0.0052438
  band:
  - # 1
    frequency:    0.0663290822
  - # 2
    frequency:    0.2452261857
  - # 3
    frequency:    0.4001438649
  - # 4
    frequency:    0.8154376746
  - # 5
    frequency:    0.8596362634
  - # 6
    frequency:    4.5388026458
  - # 7
    frequency:    4.5494222225
  - # 8
    frequency:    5.6809671799
  - # 9
    frequency:    7.1615293096
  - # 10
    frequency:    7.1631749291
  - # 11
    frequency:    8.2363937943
  - # 12
    frequency:    8.2386719129
  - # 13
    frequency:    9.2145532950
  - # 14
    frequency:   12.2243124635
  - # 15
    frequency:   12.6950323734
  - # 16
    frequency:   12.7017704025
  - # 17
    frequency:   13.7776555935
  - # 18
    frequency:   13.7794982337
  - # 19
    frequency:   14.7340022098
  - # 20
    frequency:   26.9437689723
  - # 21
    frequency:   56.9868003544

- q-position: [    0.0202020,    0.0000000,    0.0000000 ]
  distance:    0.0069918
  band:
  - # 1
    frequency:    0.0937081736
  - # 2
    frequency:    0.3253944953
  - # 3
    frequency:    0.5272633590
  - # 4
    frequency:    0.8299662306
  - # 5
    frequency:    0.9082276456
  - # 6
    frequency:    4.5406662263
  - # 7
    frequency:    4.5593528810
  - # 8
    frequency:    5.6807193640
  - # 9
    frequency:    7.1639825458
  - # 10
    frequency:    7.1668970666
  - # 11
    frequency:    8.2374555838
  - # 12
    frequency:    8.2414929158
  - # 13
    frequency:    9.2097352881
  - # 14
    frequency:   12.2160365189
  - # 15
    frequency:   12.6951769878
  - # 16
    frequency:   12.7070550539
  - # 17
    frequency:   13.7772690690
  - # 18
    frequency:   13.7805351914
  - # 19
    frequency:   14.7280627946
  - # 20
    frequency:   26.9420249650
  - # 21
    frequency:   56.9818282043

- q-position: [    0.0252525,    0.0000000,    0.0000000 ]
  distance:    0.0087397
  band:
  - # 1
    frequency:    0.1236633648
  - # 2
    frequency:    0.4040129345
  - # 3
    frequency:    0.6478166850
  - # 4
    frequency:    0.8490243971
  - # 5
    frequency:    0.9715107672
  - # 6
    frequency:    4.5430806948
  - # 7
    frequency:    4.5718949340
  - # 8
    frequency:    5.6804666663
  - # 9
    frequency:    7.1670958372
  - # 10
    frequency:    7.1716274303
  - # 11
    frequency:    8.2388029816
  - # 12
    frequency:    8.2450863672
  - # 13
    frequency:    9.2035882061
  - # 14
    frequency:   12.2054693725
  - # 15
    frequency:   12.6953422297
  - # 16
    frequency:   12.7137049994
  - # 17
    frequency:   13.7767828345
  - # 18
    frequency:   13.7818666988
  - # 19
    frequency:   14.7204973116
  - # 20
    frequency:   26.9397984916
  - # 21
    frequency:   56.9754479166

- q-position: [    0.0303030,    0.0000000,    0.0000000 ]
  distance:    0.0104877
  band:
  - # 1
    frequency:    0.1562001487
  - # 2
    frequency:    0.4804215340
  - # 3
    frequency:    0.7591139257
  - # 4
    frequency:    0.8730091112
  - # 5
    frequency:    1.0506227285
  - # 6
    frequency:    4.5460594944
  - # 7
    frequency:    4.5868837234
  - # 8
    frequency:    5.6802596087
  - # 9
    frequency:    7.1708390876
  - # 10
    frequency:    7.1773248310
  - # 11
    frequency:    8.2404229443
  - # 12
    frequency:    8.2494281537
  - # 13
    frequency:    9.1961471054
  - # 14
    frequency:   12.1926594117
  - # 15
    frequency:   12.6955128605
  - # 16
    frequency:   12.7216199437
  - # 17
    frequency:   13.7762047885
  - # 18
    frequency:   13.7834913145
  - # 19
    frequency:   14.7113582668
  - # 20
    frequency:   26.9371012385
  - # 21
    frequency:   56.9676688240

- q-position: [    0.0353535,    0.0000000,    0.0000000 ]
  distance:    0.0122356
  band:
  - # 1
    frequency:    0.1912011680
  - # 2
    frequency:    0.5537693323
  - # 3
    frequency:    0.8596693959
  - # 4
    frequency:    0.9025075157
  - # 5
    frequency:    1.1456731752
  - # 6
    frequency:    4.5496186328
  - # 7
    frequency:    4.6041230176
  - # 8
    frequency:    5.6801610838
  - # 9
    frequency:    7.1751761204
  - # 10
    frequency:    7.1839392095
  - # 11
    frequency:    8.2422998303
  - # 12
    frequency:    8.2544899290
  - # 13
    frequency:    9.1874542124
  - # 14
    frequency:   12.1776602254
  - # 15
    frequency:   12.6956705644
  - # 16
    frequency:   12.7306845305
  - # 17
    frequency:   13.7755444239
  - # 18
    frequency:   13.7854071099
  - # 19
    frequency:   14.7007090894
  - # 20
    frequency:   26.9339472910
  - # 21
    frequency:   56.9585023050

- q-position: [    0.0404040,    0.0000000,    0.0000000 ]
  distance:    0.0139836
  band:
  - # 1
    frequency:    0.2285226978
  - # 2
    frequency:    0.6230345494
  - # 3
    frequency:    0.9382794122
  - # 4
    frequency:    0.9506472998
  - # 5
    frequency:    1.2543133798
  - # 6
    frequency:    4.5537764349
  - # 7
    frequency:    4.6233876463
  - # 8
    frequency:    5.6802469476
  - # 9
    frequency:    7.1800650307
  - # 10
    frequency:    7.1914118280
  - # 11
    frequency:    8.2444155705
  - # 12
    frequency:    8.2602397301
  - # 13
    frequency:    9.1775585624
  - # 14
    frequency:   12.1605290934
  - # 15
    frequency:   12.6957941332
  - # 16
    frequency:   12.7407708219
  - # 17
    frequency:   13.7748127332
  - # 18
    frequency:   13.7876115661
  - # 19
    frequency:   14.6886236923
  - # 20
    frequency:   26.9303530191
  - # 21
    frequency:   56.9479617675

- q-position: [    0.0454545,    0.0000000,    0.0000000 ]
  distance:    0.0157315
  band:
  - # 1
    frequency:    0.2680310257
  - # 2
    frequency:    0.6871884621
  - # 3
    frequency:    0.9810964747
  - # 4
    frequency:    1.0350677024
  - # 5
    frequency:    1.3725190091
  - # 6
    frequency:    4.5585532561
  - # 7
    frequency:    4.6444263630
  - # 8
    frequency:    5.6806066069
  - # 9
    frequency:    7.1854585898
  - # 10
    frequency:    7.1996755136
  - # 11
    frequency:    8.2467498607
  - # 12
    frequency:    8.2666426565
  - # 13
    frequency:    9.1665155840
  - # 14
    frequency:   12.1413260632
  - # 15
    frequency:   12.6958596826
  - # 16
    frequency:   12.7517403367
  - # 17
    frequency:   13.7740220977
  - # 18
    frequency:   13.7901014486
  - # 19
    frequency:   14.6751859609
  - # 20
    frequency:   26.9263369438
  - # 21
    frequency:   56.9360626284

- q-position: [    0.0505051,    0.0000000,    0.0000000 ]
  distance:    0.0174795
  band:
  - # 1
    frequency:    0.3096109187
  - # 2
    frequency:    0.7455482194
  - # 3
    frequency:    1.0313923675
  - # 4
    frequency:    1.1158427815
  - # 5
    frequency:    1.4965308544
  - # 6
    frequency:    4.5639711582
  - # 7
    frequency:    4.6669649019
  - # 8
    frequency:    5.6813435141
  - # 9
    frequency:    7.1913046971
  - # 10
    frequency:    7.2086549669
  - # 11
    frequency:    8.2492803742
  - # 12
    frequency:    8.2736615889
  - # 13
    frequency:    9.1543866278
  - # 14
    frequency:   12.1201135606
  - # 15
    frequency:   12.6958409001
  - # 16
    frequency:   12.7634456859
  - # 17
    frequency:   13.7731861620
  - # 18
    frequency:   13.7928726581
  - # 19
    frequency:   14.6604891722
  - # 20
    frequency:   26.9219195885
  - # 21
    frequency:   56.9228222914

- q-position: [    0.0555556,    0.0000000,    0.0000000 ]
  distance:    0.0192274
  band:
  - # 1
    frequency:    0.3531630854
  - # 2
    frequency:    0.7981459432
  - # 3
    frequency:    1.0888960769
  - # 4
    frequency:    1.1949082334
  - # 5
    frequency:    1.6236976773
  - # 6
    frequency:    4.5700535529
  - # 7
    frequency:    4.6907092538
  - # 8
    frequency:    5.6825754416
  - # 9
    frequency:    7.1975468742
  - # 10
    frequency:    7.2182671444
  - # 11
    frequency:    8.2519829889
  - # 12
    frequency:    8.2812579242
  - # 13
    frequency:    9.1412384460
  - # 14
    frequency:   12.0969564087
  - # 15
    frequency:   12.6957093231
  - # 16
    frequency:   12.7757319181
  - # 17
    frequency:   13.7723196934
  - # 18
    frequency:   13.7959200542
  - # 19
    frequency:   14.6446353525
  - # 20
    frequency:   26.9171233144
  - # 21
    frequency:   56.9082601197

- q-position: [    0.0606061,    0.0000000,    0.0000000 ]
  distance:    0.0209753
  band:
  - # 1
    frequency:    0.3985988403
  - # 2
    frequency:    0.8457682917
  - # 3
    frequency:    1.1525941386
  - # 4
    frequency:    1.2733425050
  - # 5
    frequency:    1.7523328909
  - # 6
    frequency:    4.5768248167
  - # 7
    frequency:    4.7153492495
  - # 8
    frequency:    5.6844343598
  - # 9
    frequency:    7.2041247947
  - # 10
    frequency:    7.2284217288
  - # 11
    frequency:    8.2548320262
  - # 12
    frequency:    8.2893923017
  - # 13
    frequency:    9.1271426213
  - # 14
    frequency:   12.0719221094
  - # 15
    frequency:   12.6954346450
  - # 16
    frequency:   12.7884377042
  - # 17
    frequency:   13.7714384287
  - # 18
    frequency:   13.7992372472
  - # 19
    frequency:   14.6277345779
  - # 20
    frequency:   26.9119721445
  - # 21
    frequency:   56.8923974077

- q-position: [    0.0656566,    0.0000000,    0.0000000 ]
  distance:    0.0227233
  band:
  - # 1
    frequency:    0.4458353166
  - # 2
    frequency:    0.8896008214
  - # 3
    frequency:    1.2210874167
  - # 4
    frequency:    1.3516899653
  - # 5
    frequency:    1.8813705818
  - # 6
    frequency:    4.5843098795
  - # 7
    frequency:    4.7405626198
  - # 8
    frequency:    5.6870656915
  - # 9
    frequency:    7.2109748440
  - # 10
    frequency:    7.2390217002
  - # 11
    frequency:    8.2578004977
  - # 12
    frequency:    8.2980252959
  - # 13
    frequency:    9.1121749484
  - # 14
    frequency:   12.0450812570
  - # 15
    frequency:   12.6949850499
  - # 16
    frequency:   12.8013964781
  - # 17
    frequency:   13.7705589078
  - # 18
    frequency:   13.8028163545
  - # 19
    frequency:   14.6099042261
  - # 20
    frequency:   26.9064915745
  - # 21
    frequency:   56.8752573475

- q-position: [    0.0707071,    0.0000000,    0.0000000 ]
  distance:    0.0244712
  band:
  - # 1
    frequency:    0.4947921868
  - # 2
    frequency:    0.9308088071
  - # 3
    frequency:    1.2930108425
  - # 4
    frequency:    1.4301987655
  - # 5
    frequency:    2.0101103667
  - # 6
    frequency:    4.5925337957
  - # 7
    frequency:    4.7660197694
  - # 8
    frequency:    5.6906266673
  - # 9
    frequency:    7.2180307034
  - # 10
    frequency:    7.2499640238
  - # 11
    frequency:    8.2608603565
  - # 12
    frequency:    8.3071180501
  - # 13
    frequency:    9.0964147699
  - # 14
    frequency:   12.0165079813
  - # 15
    frequency:   12.6943275702
  - # 16
    frequency:   12.8144376196
  - # 17
    frequency:   13.7696982965
  - # 18
    frequency:   13.8066477135
  - # 19
    frequency:   14.5912681909
  - # 20
    frequency:   26.9007083765
  - # 21
    frequency:   56.8568649934

- q-position: [    0.0757576,    0.0000000,    0.0000000 ]
  distance:    0.0262192
  band:
  - # 1
    frequency:    0.5453898510
  - # 2
    frequency:    0.9703171526
  - # 3
    frequency:    1.3672535891
  - # 4
    frequency:    1.5089593410
  - # 5
    frequency:    2.1380647852
  - # 6
    frequency:    4.6015212998
  - # 7
    frequency:    4.7913895534
  - # 8
    frequency:    5.6952834796
  - # 9
    frequency:    7.2252239506
  - # 10
    frequency:    7.2611404656
  - # 11
    frequency:    8.2639827500
  - # 12
    frequency:    8.3166328267
  - # 13
    frequency:    9.0799442682
  - # 14
    frequency:   11.9862803516
  - # 15
    frequency:   12.6934284673
  - # 16
    frequency:   12.8273877343
  - # 17
    frequency:   13.7688741995
  - # 18
    frequency:   13.8107195441
  - # 19
    frequency:   14.5719560683
  - # 20
    frequency:   26.8946503943
  - # 21
    frequency:   56.8372472227

- q-position: [    0.0808081,    0.0000000,    0.0000000 ]
  distance:    0.0279671
  band:
  - # 1
    frequency:    0.5975487302
  - # 2
    frequency:    1.0087786898
  - # 3
    frequency:    1.4429904943
  - # 4
    frequency:    1.5879797260
  - # 5
    frequency:    2.2648725262
  - # 6
    frequency:    4.6112963552
  - # 7
    frequency:    4.8163463416
  - # 8
    frequency:    5.7012069551
  - # 9
    frequency:    7.2324846734
  - # 10
    frequency:    7.2724385520
  - # 11
    frequency:    8.2671382706
  - # 12
    frequency:    8.3265334484
  - # 13
    frequency:    9.0628477189
  - # 14
    frequency:   11.9544806976
  - # 15
    frequency:   12.6922536310
  - # 16
    frequency:   12.8400720588
  - # 17
    frequency:   13.7681044647
  - # 18
    frequency:   13.8150175506
  - # 19
    frequency:   14.5521023305
  - # 20
    frequency:   26.8883463338
  - # 21
    frequency:   56.8164326928

- q-position: [    0.0858586,    0.0000000,    0.0000000 ]
  distance:    0.0297151
  band:
  - # 1
    frequency:    0.6511892719
  - # 2
    frequency:    1.0466246839
  - # 3
    frequency:    1.5196310204
  - # 4
    frequency:    1.6672258754
  - # 5
    frequency:    2.3902487514
  - # 6
    frequency:    4.6218817015
  - # 7
    frequency:    4.8405785765
  - # 8
    frequency:    5.7085665679
  - # 9
    frequency:    7.2397420876
  - # 10
    frequency:    7.2837426805
  - # 11
    frequency:    8.2702972032
  - # 12
    frequency:    8.3367856093
  - # 13
    frequency:    9.0452107122
  - # 14
    frequency:   11.9211958235
  - # 15
    frequency:   12.6907689938
  - # 16
    frequency:   12.8523159972
  - # 17
    frequency:   13.7674069807
  - # 18
    frequency:   13.8195244540
  - # 19
    frequency:   14.5318455030
  - # 20
    frequency:   26.8818255504
  - # 21
    frequency:   56.7944517954

- q-position: [    0.0909091,    0.0000000,    0.0000000 ]
  distance:    0.0314630
  band:
  - # 1
    frequency:    0.7062323463
  - # 2
    frequency:    1.0841281303
  - # 3
    frequency:    1.5967552536
  - # 4
    frequency:    1.7466432661
  - # 5
    frequency:    2.5139557507
  - # 6
    frequency:    4.6332984079
  - # 7
    frequency:    4.8637988328
  - # 8
    frequency:    5.7175228228
  - # 9
    frequency:    7.2469251567
  - # 10
    frequency:    7.2949353892
  - # 11
    frequency:    8.2734297670
  - # 12
    frequency:    8.3473570313
  - # 13
    frequency:    9.0271193549
  - # 14
    frequency:   11.8865171070
  - # 15
    frequency:   12.6889409562
  - # 16
    frequency:   12.8639467851
  - # 17
    frequency:   13.7667994704
  - # 18
    frequency:   13.8242194433
  - # 19
    frequency:   14.5113273626
  - # 20
    frequency:   26.8751178357
  - # 21
    frequency:   56.7713366069

- q-position: [    0.0959596,    0.0000000,    0.0000000 ]
  distance:    0.0332110
  band:
  - # 1
    frequency:    0.7625998017
  - # 2
    frequency:    1.1214552807
  - # 3
    frequency:    1.6740615738
  - # 4
    frequency:    1.8261684896
  - # 5
    frequency:    2.6357848002
  - # 6
    frequency:    4.6455654390
  - # 7
    frequency:    4.8857550852
  - # 8
    frequency:    5.7282183600
  - # 9
    frequency:    7.2539632061
  - # 10
    frequency:    7.3058987823
  - # 11
    frequency:    8.2765063494
  - # 12
    frequency:    8.3582174475
  - # 13
    frequency:    9.0086594693
  - # 14
    frequency:   11.8505404785
  - # 15
    frequency:   12.6867368179
  - # 16
    frequency:   12.8747952606
  - # 17
    frequency:   13.7662992817
  - # 18
    frequency:   13.8290775375
  - # 19
    frequency:   14.4906921789
  - # 20
    frequency:   26.8682532039
  - # 21
    frequency:   56.7471208354

- q-position: [    0.1010101,    0.0000000,    0.0000000 ]
  distance:    0.0349589
  band:
  - # 1
    frequency:    0.8202150320
  - # 2
    frequency:    1.1587021161
  - # 3
    frequency:    1.7513293324
  - # 4
    frequency:    1.9057354342
  - # 5
    frequency:    2.7555442692
  - # 6
    frequency:    4.6586992413
  - # 7
    frequency:    4.9062425092
  - # 8
    frequency:    5.7407685218
  - # 9
    frequency:    7.2607865280
  - # 10
    frequency:    7.3165161042
  - # 11
    frequency:    8.2794977324
  - # 12
    frequency:    8.3693383928
  - # 13
    frequency:    8.9899158183
  - # 14
    frequency:   11.8133662856
  - # 15
    frequency:   12.6841252092
  - # 16
    frequency:   12.8846977201
  - # 17
    frequency:   13.7659231786
  - # 18
    frequency:   13.8340688529
  - # 19
    frequency:   14.4700860189
  - # 20
    frequency:   26.8612616818
  - # 21
    frequency:   56.7218397645

- q-position: [    0.1060606,    0.0000000,    0.0000000 ]
  distance:    0.0367069
  band:
  - # 1
    frequency:    0.8790034665
  - # 2
    frequency:    1.1959187727
  - # 3
    frequency:    1.8283935656
  - # 4
    frequency:    1.9852785099
  - # 5
    frequency:    2.8730512287
  - # 6
    frequency:    4.6727133571
  - # 7
    frequency:    4.9251147899
  - # 8
    frequency:    5.7552524853
  - # 9
    frequency:    7.2673269724
  - # 10
    frequency:    7.3266734406
  - # 11
    frequency:    8.2823753084
  - # 12
    frequency:    8.3806927847
  - # 13
    frequency:    8.9709713883
  - # 14
    frequency:   11.7750990449
  - # 15
    frequency:   12.6810765176
  - # 16
    frequency:   12.8934978263
  - # 17
    frequency:   13.7656871355
  - # 18
    frequency:   13.8391577784
  - # 19
    frequency:   14.4496561349
  - # 20
    frequency:   26.8541731026
  - # 21
    frequency:   56.6955301924

- q-position: [    0.1111111,    0.0000000,    0.0000000 ]
  distance:    0.0384548
  band:
  - # 1
    frequency:    0.9388929405
  - # 2
    frequency:    1.2331255750
  - # 3
    frequency:    1.9051281188
  - # 4
    frequency:    2.0647342395
  - # 5
    frequency:    2.9881249814
  - # 6
    frequency:    4.6876180725
  - # 7
    frequency:    4.9422937336
  - # 8
    frequency:    5.7717062538
  - # 9
    frequency:    7.2735185209
  - # 10
    frequency:    7.3362615149
  - # 11
    frequency:    8.2851112876
  - # 12
    frequency:    8.3922542767
  - # 13
    frequency:    8.9519067837
  - # 14
    frequency:   11.7358470903
  - # 15
    frequency:   12.6775633025
  - # 16
    frequency:   12.9010485301
  - # 17
    frequency:   13.7656061377
  - # 18
    frequency:   13.8443020720
  - # 19
    frequency:   14.4295504512
  - # 20
    frequency:   26.8470169061
  - # 21
    frequency:   56.6682303691

- q-position: [    0.1161616,    0.0000000,    0.0000000 ]
  distance:    0.0402027
  band:
  - # 1
    frequency:    0.9998139287
  - # 2
    frequency:    1.2703235151
  - # 3
    frequency:    1.9814343556
  - # 4
    frequency:    2.1440419475
  - # 5
    frequency:    3.1005815679
  - # 6
    frequency:    4.7034201057
  - # 7
    frequency:    4.9577760862
  - # 8
    frequency:    5.7901186954
  - # 9
    frequency:    7.2792978392
  - # 10
    frequency:    7.3451775348
  - # 11
    frequency:    8.2876788940
  - # 12
    frequency:    8.4039963654
  - # 13
    frequency:    8.9327997934
  - # 14
    frequency:   11.6957221233
  - # 15
    frequency:   12.6735606919
  - # 16
    frequency:   12.9072139599
  - # 17
    frequency:   13.7656939906
  - # 18
    frequency:   13.8494519151
  - # 19
    frequency:   14.4099171511
  - # 20
    frequency:   26.8398219465
  - # 21
    frequency:   56.6399799283

- q-position: [    0.1212121,    0.0000000,    0.0000000 ]
  distance:    0.0419507
  band:
  - # 1
    frequency:    1.0616996457
  - # 2
    frequency:    1.3075011263
  - # 3
    frequency:    2.0572335180
  - # 4
    frequency:    2.2231439520
  - # 5
    frequency:    3.2102286573
  - # 6
    frequency:    4.7201223413
  - # 7
    frequency:    4.9716369080
  - # 8
    frequency:    5.8104313709
  - # 9
    frequency:    7.2846048044
  - # 10
    frequency:    7.3533270317
  - # 11
    frequency:    8.2900525508
  - # 12
    frequency:    8.4158912254
  - # 13
    frequency:    8.9137252169
  - # 14
    frequency:   11.6548386740
  - # 15
    frequency:   12.6690467544
  - # 16
    frequency:   12.9118712260
  - # 17
    frequency:   13.7659631423
  - # 18
    frequency:   13.8545489879
  - # 19
    frequency:   14.3909043431
  - # 20
    frequency:   26.8326163082
  - # 21
    frequency:   56.6108198170

- q-position: [    0.1262626,    0.0000000,    0.0000000 ]
  distance:    0.0436986
  band:
  - # 1
    frequency:    1.1244860235
  - # 2
    frequency:    1.3446390186
  - # 3
    frequency:    2.1324614725
  - # 4
    frequency:    2.3019854914
  - # 5
    frequency:    3.3168604478
  - # 6
    frequency:    4.7377236157
  - # 7
    frequency:    4.9840295138
  - # 8
    frequency:    5.8325422186
  - # 9
    frequency:    7.2893830068
  - # 10
    frequency:    7.3606256238
  - # 11
    frequency:    8.2922080561
  - # 12
    frequency:    8.4279082295
  - # 13
    frequency:    8.8947550583
  - # 14
    frequency:   11.6133134850
  - # 15
    frequency:   12.6640028403
  - # 16
    frequency:   12.9149120831
  - # 17
    frequency:   13.7664245214
  - # 18
    frequency:   13.8595256710
  - # 19
    frequency:   14.3726597526
  - # 20
    frequency:   26.8254271334
  - # 21
    frequency:   56.5807922206

- q-position: [    0.1313131,    0.0000000,    0.0000000 ]
  distance:    0.0454466
  band:
  - # 1
    frequency:    1.1881115849
  - # 2
    frequency:    1.3817128935
  - # 3
    frequency:    2.2070650323
  - # 4
    frequency:    2.3805145138
  - # 5
    frequency:    3.4202523659
  - # 6
    frequency:    4.7562185558
  - # 7
    frequency:    4.9951826510
  - # 8
    frequency:    5.8563124549
  - # 9
    frequency:    7.2935802202
  - # 10
    frequency:    7.3670006270
  - # 11
    frequency:    8.2941227458
  - # 12
    frequency:    8.4400120860
  - # 13
    frequency:    8.8759592339
  - # 14
    frequency:   11.5712648265
  - # 15
    frequency:   12.6584138856
  - # 16
    frequency:   12.9162443889
  - # 17
    frequency:   13.7670873937
  - # 18
    frequency:   13.8643045335
  - # 19
    frequency:   14.3553303300
  - # 20
    frequency:   26.8182804593
  - # 21
    frequency:   56.5499404846

- q-position: [    0.1363636,    0.0000000,    0.0000000 ]
  distance:    0.0471945
  band:
  - # 1
    frequency:    1.2525172286
  - # 2
    frequency:    1.4186955596
  - # 3
    frequency:    2.2809993341
  - # 4
    frequency:    2.4586814051
  - # 5
    frequency:    3.5201555131
  - # 6
    frequency:    4.7755974740
  - # 7
    frequency:    5.0053960039
  - # 8
    frequency:    5.8815755442
  - # 9
    frequency:    7.2971488411
  - # 10
    frequency:    7.3723924375
  - # 11
    frequency:    8.2957756462
  - # 12
    frequency:    8.4521604732
  - # 13
    frequency:    8.8574069910
  - # 14
    frequency:   11.5288117596
  - # 15
    frequency:   12.6522686728
  - # 16
    frequency:   12.9157933021
  - # 17
    frequency:   13.7679592406
  - # 18
    frequency:   13.8687983312
  - # 19
    frequency:   14.3390616004
  - # 20
    frequency:   26.8112010685
  - # 21
    frequency:   56.5183090332

- q-position: [    0.1414141,    0.0000000,    0.0000000 ]
  distance:    0.0489425
  band:
  - # 1
    frequency:    1.3176459454
  - # 2
    frequency:    1.4555582869
  - # 3
    frequency:    2.3542259348
  - # 4
    frequency:    2.5364386953
  - # 5
    frequency:    3.6162910331
  - # 6
    frequency:    4.7958463205
  - # 7
    frequency:    5.0150351153
  - # 8
    frequency:    5.9081469079
  - # 9
    frequency:    7.3000462928
  - # 10
    frequency:    7.3767556121
  - # 11
    frequency:    8.2971476136
  - # 12
    frequency:    8.4643009704
  - # 13
    frequency:    8.8391693082
  - # 14
    frequency:   11.4860733617
  - # 15
    frequency:   12.6455600441
  - # 16
    frequency:   12.9135021686
  - # 17
    frequency:   13.7690456606
  - # 18
    frequency:   13.8729108040
  - # 19
    frequency:   14.3239965097
  - # 20
    frequency:   26.8042123520
  - # 21
    frequency:   56.4859432835

- q-position: [    0.1464646,    0.0000000,    0.0000000 ]
  distance:    0.0506904
  band:
  - # 1
    frequency:    1.3834424797
  - # 2
    frequency:    1.4922717182
  - # 3
    frequency:    2.4267114103
  - # 4
    frequency:    2.6137407662
  - # 5
    frequency:    3.7083449112
  - # 6
    frequency:    4.8169466910
  - # 7
    frequency:    5.0245263652
  - # 8
    frequency:    5.9358331816
  - # 9
    frequency:    7.3022353920
  - # 10
    frequency:    7.3800595857
  - # 11
    frequency:    8.2982214623
  - # 12
    frequency:    8.4763669557
  - # 13
    frequency:    8.8213226674
  - # 14
    frequency:   11.4431679306
  - # 15
    frequency:   12.6382850635
  - # 16
    frequency:   12.9093330598
  - # 17
    frequency:   13.7703502973
  - # 18
    frequency:   13.8765386048
  - # 19
    frequency:   14.3102734589
  - # 20
    frequency:   26.7973361861
  - # 21
    frequency:   56.4528895574

- q-position: [    0.1515152,    0.0000000,    0.0000000 ]
  distance:    0.0524384
  band:
  - # 1
    frequency:    1.4498529506
  - # 2
    frequency:    1.5288064830
  - # 3
    frequency:    2.4984263157
  - # 4
    frequency:    2.6905435711
  - # 5
    frequency:    3.7959642442
  - # 6
    frequency:    4.8388758891
  - # 7
    frequency:    5.0343517955
  - # 8
    frequency:    5.9644401755
  - # 9
    frequency:    7.3036846766
  - # 10
    frequency:    7.3822889834
  - # 11
    frequency:    8.2989820778
  - # 12
    frequency:    8.4882719483
  - # 13
    frequency:    8.8039547599
  - # 14
    frequency:   11.4002121888
  - # 15
    frequency:   12.6304451235
  - # 16
    frequency:   12.9032669450
  - # 17
    frequency:   13.7718747930
  - # 18
    frequency:   13.8795746793
  - # 19
    frequency:   14.2980232169
  - # 20
    frequency:   26.7905928233
  - # 21
    frequency:   56.4191949893