nqpoint: 300    
npath: 3      
segment_nqpoint:
- 100
- 100
- 100
labels:
- [ 'G', 'M' ]
- [ 'M', 'K' ]
- [ 'K', 'G' ]
reciprocal_lattice:
- [   0.29972551,   0.17304660,   0.00000000 ] # a*
- [   0.00000000,   0.34609321,   0.00000000 ] # b*
- [   0.00000000,   0.00000000,   0.03902878 ] # c*
natom: 7      
lattice:
- [     3.336386010574254,     0.000000000000000,     0.000000000000000 ] # a
- [    -1.668193005287126,     2.889395041973459,     0.000000000000000 ] # b
- [     0.000000000000000,     0.000000000000000,    25.622119193114163 ] # c
points:
- symbol: C # 1
  coordinates: [  0.333332985432215,  0.666666983183674,  0.588170771071460 ]
  mass: 12.010700
- symbol: F # 2
  coordinates: [  0.666666984744047,  0.333332985985145,  0.351259001340479 ]
  mass: 18.998403
- symbol: N # 3
  coordinates: [  0.000000000000000,  0.000000000000000,  0.440624739256823 ]
  mass: 14.006700
- symbol: N # 4
  coordinates: [  0.333332985432215,  0.666666983183674,  0.539194659853257 ]
  mass: 14.006700
- symbol: S # 5
  coordinates: [  0.333332985432215,  0.666666983183674,  0.648740998659521 ]
  mass: 32.065000
- symbol: Sc # 6
  coordinates: [  0.333332985432215,  0.666666983183674,  0.395695549499130 ]
  mass: 44.955912
- symbol: Sc # 7
  coordinates: [  0.666666984744047,  0.333332985985145,  0.490508640382744 ]
  mass: 44.955912

phonon:
- q-position: [    0.0000000,    0.0000000,    0.0000000 ]
  distance:    0.0000000
  band:
  - # 1
    frequency:   -0.4021656429
  - # 2
    frequency:   -0.4021656422
  - # 3
    frequency:   -0.0000251066
  - # 4
    frequency:   -0.0000001185
  - # 5
    frequency:    0.0000213142
  - # 6
    frequency:    4.7927014737
  - # 7
    frequency:    4.7927014738
  - # 8
    frequency:    5.8204982439
  - # 9
    frequency:    7.3605435669
  - # 10
    frequency:    7.3605435669
  - # 11
    frequency:    8.3405959115
  - # 12
    frequency:    8.3405959115
  - # 13
    frequency:    9.0866541249
  - # 14
    frequency:   12.0895169856
  - # 15
    frequency:   12.9973439203
  - # 16
    frequency:   12.9973439204
  - # 17
    frequency:   13.6908681223
  - # 18
    frequency:   13.6908681224
  - # 19
    frequency:   14.5156182187
  - # 20
    frequency:   26.8718764423
  - # 21
    frequency:   57.0047745063

- q-position: [    0.0050505,    0.0000000,    0.0000000 ]
  distance:    0.0017479
  band:
  - # 1
    frequency:   -0.4335902444
  - # 2
    frequency:   -0.4281073828
  - # 3
    frequency:    0.0025812341
  - # 4
    frequency:    0.1958537305
  - # 5
    frequency:    0.2008131793
  - # 6
    frequency:    4.7923522856
  - # 7
    frequency:    4.7934659681
  - # 8
    frequency:    5.8203163990
  - # 9
    frequency:    7.3604412412
  - # 10
    frequency:    7.3606812615
  - # 11
    frequency:    8.3405785306
  - # 12
    frequency:    8.3406035393
  - # 13
    frequency:    9.0862984962
  - # 14
    frequency:   12.0887414559
  - # 15
    frequency:   12.9969733269
  - # 16
    frequency:   12.9970283905
  - # 17
    frequency:   13.6909963012
  - # 18
    frequency:   13.6911516766
  - # 19
    frequency:   14.5152413810
  - # 20
    frequency:   26.8717941259
  - # 21
    frequency:   57.0040332368

- q-position: [    0.0101010,    0.0000000,    0.0000000 ]
  distance:    0.0034959
  band:
  - # 1
    frequency:   -0.4845803062
  - # 2
    frequency:   -0.4664754408
  - # 3
    frequency:    0.0105100240
  - # 4
    frequency:    0.3484678342
  - # 5
    frequency:    0.3618877569
  - # 6
    frequency:    4.7913094673
  - # 7
    frequency:    4.7957514368
  - # 8
    frequency:    5.8197751333
  - # 9
    frequency:    7.3601342489
  - # 10
    frequency:    7.3610909775
  - # 11
    frequency:    8.3405300563
  - # 12
    frequency:    8.3406257022
  - # 13
    frequency:    9.0852322288
  - # 14
    frequency:   12.0864146513
  - # 15
    frequency:   12.9958618940
  - # 16
    frequency:   12.9960812958
  - # 17
    frequency:   13.6913805625
  - # 18
    frequency:   13.6920016550
  - # 19
    frequency:   14.5141134420
  - # 20
    frequency:   26.8715472848
  - # 21
    frequency:   57.0018106774

- q-position: [    0.0151515,    0.0000000,    0.0000000 ]
  distance:    0.0052438
  band:
  - # 1
    frequency:   -0.5279834709
  - # 2
    frequency:   -0.4916916520
  - # 3
    frequency:    0.0240774161
  - # 4
    frequency:    0.4750709369
  - # 5
    frequency:    0.4987999913
  - # 6
    frequency:    4.7895872423
  - # 7
    frequency:    4.7995338763
  - # 8
    frequency:    5.8188873062
  - # 9
    frequency:    7.3596225388
  - # 10
    frequency:    7.3617626174
  - # 11
    frequency:    8.3404614551
  - # 12
    frequency:    8.3406602461
  - # 13
    frequency:    9.0834571978
  - # 14
    frequency:   12.0825359593
  - # 15
    frequency:   12.9940106750
  - # 16
    frequency:   12.9945011410
  - # 17
    frequency:   13.6920200722
  - # 18
    frequency:   13.6934159831
  - # 19
    frequency:   14.5122421011
  - # 20
    frequency:   26.8711362430
  - # 21
    frequency:   56.9981105711

- q-position: [    0.0202020,    0.0000000,    0.0000000 ]
  distance:    0.0069918
  band:
  - # 1
    frequency:   -0.5609006076
  - # 2
    frequency:   -0.5003807154
  - # 3
    frequency:    0.0439301419
  - # 4
    frequency:    0.5880029562
  - # 5
    frequency:    0.6229941767
  - # 6
    frequency:    4.7872092664
  - # 7
    frequency:    4.8047734153
  - # 8
    frequency:    5.8176745241
  - # 9
    frequency:    7.3589060071
  - # 10
    frequency:    7.3626793712
  - # 11
    frequency:    8.3403908727
  - # 12
    frequency:    8.3407036064
  - # 13
    frequency:    9.0809765898
  - # 14
    frequency:   12.0771044683
  - # 15
    frequency:   12.9914214622
  - # 16
    frequency:   12.9922854979
  - # 17
    frequency:   13.6929134151
  - # 18
    frequency:   13.6953911371
  - # 19
    frequency:   14.5096401160
  - # 20
    frequency:   26.8705615400
  - # 21
    frequency:   56.9929391462

- q-position: [    0.0252525,    0.0000000,    0.0000000 ]
  distance:    0.0087397
  band:
  - # 1
    frequency:   -0.5840933202
  - # 2
    frequency:   -0.4923741553
  - # 3
    frequency:    0.0712701598
  - # 4
    frequency:    0.6929548119
  - # 5
    frequency:    0.7397407440
  - # 6
    frequency:    4.7842085514
  - # 7
    frequency:    4.8114145104
  - # 8
    frequency:    5.8161673960
  - # 9
    frequency:    7.3579844710
  - # 10
    frequency:    7.3638177554
  - # 11
    frequency:    8.3403434321
  - # 12
    frequency:    8.3407508459
  - # 13
    frequency:    9.0777949914
  - # 14
    frequency:   12.0701191311
  - # 15
    frequency:   12.9880968398
  - # 16
    frequency:   12.9894310992
  - # 17
    frequency:   13.6940585588
  - # 18
    frequency:   13.6979220452
  - # 19
    frequency:   14.5063251925
  - # 20
    frequency:   26.8698239297
  - # 21
    frequency:   56.9863050998

- q-position: [    0.0303030,    0.0000000,    0.0000000 ]
  distance:    0.0104877
  band:
  - # 1
    frequency:   -0.5985476434
  - # 2
    frequency:   -0.4675723850
  - # 3
    frequency:    0.1083250078
  - # 4
    frequency:    0.7928081870
  - # 5
    frequency:    0.8516963336
  - # 6
    frequency:    4.7806273532
  - # 7
    frequency:    4.8193862133
  - # 8
    frequency:    5.8144058791
  - # 9
    frequency:    7.3568576326
  - # 10
    frequency:    7.3651476855
  - # 11
    frequency:    8.3403509413
  - # 12
    frequency:    8.3407957067
  - # 13
    frequency:    9.0739185081
  - # 14
    frequency:   12.0615789896
  - # 15
    frequency:   12.9840402536
  - # 16
    frequency:   12.9859339636
  - # 17
    frequency:   13.6954528063
  - # 18
    frequency:   13.7010019560
  - # 19
    frequency:   14.5023198350
  - # 20
    frequency:   26.8689243796
  - # 21
    frequency:   56.9782195762

- q-position: [    0.0353535,    0.0000000,    0.0000000 ]
  distance:    0.0122356
  band:
  - # 1
    frequency:   -0.6050181840
  - # 2
    frequency:   -0.4262408415
  - # 3
    frequency:    0.1591761417
  - # 4
    frequency:    0.8891705744
  - # 5
    frequency:    0.9603472614
  - # 6
    frequency:    4.7765170211
  - # 7
    frequency:    4.8286025040
  - # 8
    frequency:    5.8124396998
  - # 9
    frequency:    7.3555250364
  - # 10
    frequency:    7.3666326003
  - # 11
    frequency:    8.3404515025
  - # 12
    frequency:    8.3408306751
  - # 13
    frequency:    9.0693549071
  - # 14
    frequency:   12.0514834596
  - # 15
    frequency:   12.9792560947
  - # 16
    frequency:   12.9817895471
  - # 17
    frequency:   13.6970927421
  - # 18
    frequency:   13.7046222756
  - # 19
    frequency:   14.4976511608
  - # 20
    frequency:   26.8678640691
  - # 21
    frequency:   56.9686961382

- q-position: [    0.0404040,    0.0000000,    0.0000000 ]
  distance:    0.0139836
  band:
  - # 1
    frequency:   -0.6039953490
  - # 2
    frequency:   -0.3715821071
  - # 3
    frequency:    0.2301816629
  - # 4
    frequency:    0.9830016385
  - # 5
    frequency:    1.0665959082
  - # 6
    frequency:    4.7719378028
  - # 7
    frequency:    4.8389626899
  - # 8
    frequency:    5.8103288289
  - # 9
    frequency:    7.3539860213
  - # 10
    frequency:    7.3682296588
  - # 11
    frequency:    8.3406890113
  - # 12
    frequency:    8.3408470590
  - # 13
    frequency:    9.0641137777
  - # 14
    frequency:   12.0398326696
  - # 15
    frequency:   12.9737497917
  - # 16
    frequency:   12.9769929162
  - # 17
    frequency:   13.6989741743
  - # 18
    frequency:   13.7087723809
  - # 19
    frequency:   14.4923506853
  - # 20
    frequency:   26.8666443878
  - # 21
    frequency:   56.9577507330

- q-position: [    0.0454545,    0.0000000,    0.0000000 ]
  distance:    0.0157315
  band:
  - # 1
    frequency:   -0.5957223301
  - # 2
    frequency:   -0.3137247667
  - # 3
    frequency:    0.3254169353
  - # 4
    frequency:    1.0748996090
  - # 5
    frequency:    1.1710256196
  - # 6
    frequency:    4.7669585980
  - # 7
    frequency:    4.8503518790
  - # 8
    frequency:    5.8081439787
  - # 9
    frequency:    7.3522396690
  - # 10
    frequency:    7.3698900344
  - # 11
    frequency:    8.3408350758
  - # 12
    frequency:    8.3411125349
  - # 13
    frequency:    9.0582067020
  - # 14
    frequency:   12.0266278487
  - # 15
    frequency:   12.9675279079
  - # 16
    frequency:   12.9715389349
  - # 17
    frequency:   13.7010920769
  - # 18
    frequency:   13.7134394106
  - # 19
    frequency:   14.4864540827
  - # 20
    frequency:   26.8652669345
  - # 21
    frequency:   56.9454016517

- q-position: [    0.0505051,    0.0000000,    0.0000000 ]
  distance:    0.0174795
  band:
  - # 1
    frequency:   -0.5801966904
  - # 2
    frequency:   -0.2634203887
  - # 3
    frequency:    0.4374070593
  - # 4
    frequency:    1.1652461494
  - # 5
    frequency:    1.2740323928
  - # 6
    frequency:    4.7616566548
  - # 7
    frequency:    4.8626415468
  - # 8
    frequency:    5.8059670774
  - # 9
    frequency:    7.3502847528
  - # 10
    frequency:    7.3715593304
  - # 11
    frequency:    8.3407839497
  - # 12
    frequency:    8.3417755570
  - # 13
    frequency:    9.0516474273
  - # 14
    frequency:   12.0118717572
  - # 15
    frequency:   12.9605982377
  - # 16
    frequency:   12.9654224633
  - # 17
    frequency:   13.7034405369
  - # 18
    frequency:   13.7186080427
  - # 19
    frequency:   14.4800009318
  - # 20
    frequency:   26.8637335152
  - # 21
    frequency:   56.9316694832

- q-position: [    0.0555556,    0.0000000,    0.0000000 ]
  distance:    0.0192274
  band:
  - # 1
    frequency:   -0.5571377993
  - # 2
    frequency:   -0.2190815542
  - # 3
    frequency:    0.5539666473
  - # 4
    frequency:    1.2542858992
  - # 5
    frequency:    1.3758955615
  - # 6
    frequency:    4.7561171990
  - # 7
    frequency:    4.8756902362
  - # 8
    frequency:    5.8038916584
  - # 9
    frequency:    7.3481196873
  - # 10
    frequency:    7.3731781425
  - # 11
    frequency:    8.3406820174
  - # 12
    frequency:    8.3427350782
  - # 13
    frequency:    9.0444520332
  - # 14
    frequency:   11.9955691505
  - # 15
    frequency:   12.9529698983
  - # 16
    frequency:   12.9586385603
  - # 17
    frequency:   13.7060127100
  - # 18
    frequency:   13.7242602577
  - # 19
    frequency:   14.4730344532
  - # 20
    frequency:   26.8620461417
  - # 21
    frequency:   56.9165770619

- q-position: [    0.0606061,    0.0000000,    0.0000000 ]
  distance:    0.0209753
  band:
  - # 1
    frequency:   -0.5258978221
  - # 2
    frequency:   -0.1703484102
  - # 3
    frequency:    0.6692640523
  - # 4
    frequency:    1.3421731548
  - # 5
    frequency:    1.4768180981
  - # 6
    frequency:    4.7504329888
  - # 7
    frequency:    4.8893444501
  - # 8
    frequency:    5.8020230804
  - # 9
    frequency:    7.3457424826
  - # 10
    frequency:    7.3746827876
  - # 11
    frequency:    8.3405168402
  - # 12
    frequency:    8.3440505656
  - # 13
    frequency:    9.0366390839
  - # 14
    frequency:   11.9777272686
  - # 15
    frequency:   12.9446534131
  - # 16
    frequency:   12.9511826895
  - # 17
    frequency:   13.7088007871
  - # 18
    frequency:   13.7303750949
  - # 19
    frequency:   14.4656012498
  - # 20
    frequency:   26.8602070305
  - # 21
    frequency:   56.9001494105

- q-position: [    0.0656566,    0.0000000,    0.0000000 ]
  distance:    0.0227233
  band:
  - # 1
    frequency:   -0.4852626521
  - # 2
    frequency:   -0.0949788199
  - # 3
    frequency:    0.7820245075
  - # 4
    frequency:    1.4290008175
  - # 5
    frequency:    1.5769506949
  - # 6
    frequency:    4.7447037842
  - # 7
    frequency:    4.9034398271
  - # 8
    frequency:    5.8004784713
  - # 9
    frequency:    7.3431507050
  - # 10
    frequency:    7.3760062152
  - # 11
    frequency:    8.3402753221
  - # 12
    frequency:    8.3457827489
  - # 13
    frequency:    9.0282297589
  - # 14
    frequency:   11.9583563380
  - # 15
    frequency:   12.9356607817
  - # 16
    frequency:   12.9430509246
  - # 17
    frequency:   13.7117959760
  - # 18
    frequency:   13.7369284006
  - # 19
    frequency:   14.4577510581
  - # 20
    frequency:   26.8582186021
  - # 21
    frequency:   56.8824136768

- q-position: [    0.0707071,    0.0000000,    0.0000000 ]
  distance:    0.0244712
  band:
  - # 1
    frequency:   -0.4329908842
  - # 2
    frequency:    0.1186212575
  - # 3
    frequency:    0.8923525155
  - # 4
    frequency:    1.5148191996
  - # 5
    frequency:    1.6764066605
  - # 6
    frequency:    4.7390357231
  - # 7
    frequency:    4.9178027154
  - # 8
    frequency:    5.7993862602
  - # 9
    frequency:    7.3403414459
  - # 10
    frequency:    7.3770791056
  - # 11
    frequency:    8.3399438319
  - # 12
    frequency:    8.3479922694
  - # 13
    frequency:    9.0192479558
  - # 14
    frequency:   11.9374700777
  - # 15
    frequency:   12.9260055356
  - # 16
    frequency:   12.9342401536
  - # 17
    frequency:   13.7149884976
  - # 18
    frequency:   13.7438925709
  - # 19
    frequency:   14.4495365215
  - # 20
    frequency:   26.8560834799
  - # 21
    frequency:   56.8633990660

- q-position: [    0.0757576,    0.0000000,    0.0000000 ]
  distance:    0.0262192
  band:
  - # 1
    frequency:   -0.3645639152
  - # 2
    frequency:    0.2041445083
  - # 3
    frequency:    1.0006018731
  - # 4
    frequency:    1.5996487439
  - # 5
    frequency:    1.7752713506
  - # 6
    frequency:    4.7335405928
  - # 7
    frequency:    4.9322522919
  - # 8
    frequency:    5.7988851428
  - # 9
    frequency:    7.3373113011
  - # 10
    frequency:    7.3778311509
  - # 11
    frequency:    8.3395083284
  - # 12
    frequency:    8.3507381974
  - # 13
    frequency:    9.0097203591
  - # 14
    frequency:   11.9150861948
  - # 15
    frequency:   12.9157027764
  - # 16
    frequency:   12.9247482817
  - # 17
    frequency:   13.7183676010
  - # 18
    frequency:   13.7512362893
  - # 19
    frequency:   14.4410129950
  - # 20
    frequency:   26.8538044908
  - # 21
    frequency:   56.8431367673

- q-position: [    0.0808081,    0.0000000,    0.0000000 ]
  distance:    0.0279671
  band:
  - # 1
    frequency:   -0.2684795901
  - # 2
    frequency:    0.2736825428
  - # 3
    frequency:    1.1070960427
  - # 4
    frequency:    1.6834889423
  - # 5
    frequency:    1.8736081915
  - # 6
    frequency:    4.7283349891
  - # 7
    frequency:    4.9466033830
  - # 8
    frequency:    5.7991223126
  - # 9
    frequency:    7.3340563619
  - # 10
    frequency:    7.3781924974
  - # 11
    frequency:    8.3389544885
  - # 12
    frequency:    8.3540764476
  - # 13
    frequency:    8.9996764713
  - # 14
    frequency:   11.8912268595
  - # 15
    frequency:   12.9047691948
  - # 16
    frequency:   12.9145744338
  - # 17
    frequency:   13.7219215944
  - # 18
    frequency:   13.7589242588
  - # 19
    frequency:   14.4322383906
  - # 20
    frequency:   26.8513846648
  - # 21
    frequency:   56.8216598763

- q-position: [    0.0858586,    0.0000000,    0.0000000 ]
  distance:    0.0297151
  band:
  - # 1
    frequency:   -0.0729286964
  - # 2
    frequency:    0.3386911023
  - # 3
    frequency:    1.2120798023
  - # 4
    frequency:    1.7663247972
  - # 5
    frequency:    1.9714624918
  - # 6
    frequency:    4.7235393549
  - # 7
    frequency:    4.9606701430
  - # 8
    frequency:    5.8002507995
  - # 9
    frequency:    7.3305722191
  - # 10
    frequency:    7.3780953155
  - # 11
    frequency:    8.3382678365
  - # 12
    frequency:    8.3580581321
  - # 13
    frequency:    8.9891486044
  - # 14
    frequency:   11.8659191465
  - # 15
    frequency:   12.8932230719
  - # 16
    frequency:   12.9037191568
  - # 17
    frequency:   13.7256378942
  - # 18
    frequency:   13.7669169298
  - # 19
    frequency:   14.4232730694
  - # 20
    frequency:   26.8488272364
  - # 21
    frequency:   56.7990033126

- q-position: [    0.0909091,    0.0000000,    0.0000000 ]
  distance:    0.0314630
  band:
  - # 1
    frequency:    0.2589914502
  - # 2
    frequency:    0.4024661713
  - # 3
    frequency:    1.3157254294
  - # 4
    frequency:    1.8481316537
  - # 5
    frequency:    2.0688637588
  - # 6
    frequency:    4.7192768915
  - # 7
    frequency:    4.9742707011
  - # 8
    frequency:    5.8024258074
  - # 9
    frequency:    7.3268539816
  - # 10
    frequency:    7.3774754466
  - # 11
    frequency:    8.3374338739
  - # 12
    frequency:    8.3627279035
  - # 13
    frequency:    8.9781718318
  - # 14
    frequency:   11.8391954343
  - # 15
    frequency:   12.8810842597
  - # 16
    frequency:   12.8921846233
  - # 17
    frequency:   13.7295030887
  - # 18
    frequency:   13.7751702247
  - # 19
    frequency:   14.4141797869
  - # 20
    frequency:   26.8461356455
  - # 21
    frequency:   56.7752037336

- q-position: [    0.0959596,    0.0000000,    0.0000000 ]
  distance:    0.0332110
  band:
  - # 1
    frequency:    0.3805368508
  - # 2
    frequency:    0.4663970535
  - # 3
    frequency:    1.4181482798
  - # 4
    frequency:    1.9288789225
  - # 5
    frequency:    2.1658269643
  - # 6
    frequency:    4.7156723402
  - # 7
    frequency:    4.9872328049
  - # 8
    frequency:    5.8058000268
  - # 9
    frequency:    7.3228963091
  - # 10
    frequency:    7.3762740665
  - # 11
    frequency:    8.3364382101
  - # 12
    frequency:    8.3681223501
  - # 13
    frequency:    8.9667839034
  - # 14
    frequency:   11.8110937496
  - # 15
    frequency:   12.8683741439
  - # 16
    frequency:   12.8799748369
  - # 17
    frequency:   13.7335030174
  - # 18
    frequency:   13.7836352641
  - # 19
    frequency:   14.4050236904
  - # 20
    frequency:   26.8433135388
  - # 21
    frequency:   56.7502994436

- q-position: [    0.1010101,    0.0000000,    0.0000000 ]
  distance:    0.0349589
  band:
  - # 1
    frequency:    0.4770624559
  - # 2
    frequency:    0.5311634116
  - # 3
    frequency:    1.5194211210
  - # 4
    frequency:    2.0085330360
  - # 5
    frequency:    2.2623530456
  - # 6
    frequency:    4.7128506341
  - # 7
    frequency:    4.9994003492
  - # 8
    frequency:    5.8105180450
  - # 9
    frequency:    7.3186934608
  - # 10
    frequency:    7.3744392940
  - # 11
    frequency:    8.3352666911
  - # 12
    frequency:    8.3742685080
  - # 13
    frequency:    8.9550251314
  - # 14
    frequency:   11.7816580519
  - # 15
    frequency:   12.8551155889
  - # 16
    frequency:   12.8670958394
  - # 17
    frequency:   13.7376228626
  - # 18
    frequency:   13.7922581036
  - # 19
    frequency:   14.3958723645
  - # 20
    frequency:   26.8403647721
  - # 21
    frequency:   56.7243303002

- q-position: [    0.1060606,    0.0000000,    0.0000000 ]
  distance:    0.0367069
  band:
  - # 1
    frequency:    0.5613702234
  - # 2
    frequency:    0.5971171995
  - # 3
    frequency:    1.6195854159
  - # 4
    frequency:    2.0870598605
  - # 5
    frequency:    2.3584288298
  - # 6
    frequency:    4.7109354236
  - # 7
    frequency:    5.0106405070
  - # 8
    frequency:    5.8167101524
  - # 9
    frequency:    7.3142393596
  - # 10
    frequency:    7.3719276753
  - # 11
    frequency:    8.3339055285
  - # 12
    frequency:    8.3811825518
  - # 13
    frequency:    8.9429382548
  - # 14
    frequency:   11.7509384501
  - # 15
    frequency:   12.8413328657
  - # 16
    frequency:   12.8535559199
  - # 17
    frequency:   13.7418472509
  - # 18
    frequency:   13.8009794946
  - # 19
    frequency:   14.3867959123
  - # 20
    frequency:   26.8372934117
  - # 21
    frequency:   56.6973376164

- q-position: [    0.1111111,    0.0000000,    0.0000000 ]
  distance:    0.0384548
  band:
  - # 1
    frequency:    0.6381045657
  - # 2
    frequency:    0.6644377805
  - # 3
    frequency:    1.7186598526
  - # 4
    frequency:    2.1644267149
  - # 5
    frequency:    2.4540265121
  - # 6
    frequency:    4.7100474888
  - # 7
    frequency:    5.0208509953
  - # 8
    frequency:    5.8244860296
  - # 9
    frequency:    7.3095276724
  - # 10
    frequency:    7.3687054759
  - # 11
    frequency:    8.3323414250
  - # 12
    frequency:    8.3888687158
  - # 13
    frequency:    8.9305683002
  - # 14
    frequency:   11.7189913472
  - # 15
    frequency:   12.8270515649
  - # 16
    frequency:   12.8393658230
  - # 17
    frequency:   13.7461603638
  - # 18
    frequency:   13.8097346939
  - # 19
    frequency:   14.3778670481
  - # 20
    frequency:   26.8341037370
  - # 21
    frequency:   56.6693640599

- q-position: [    0.1161616,    0.0000000,    0.0000000 ]
  distance:    0.0402027
  band:
  - # 1
    frequency:    0.7095365385
  - # 2
    frequency:    0.7332049589
  - # 3
    frequency:    1.8166467623
  - # 4
    frequency:    2.2406040919
  - # 5
    frequency:    2.5491027782
  - # 6
    frequency:    4.7103030542
  - # 7
    frequency:    5.0299668700
  - # 8
    frequency:    5.8339289435
  - # 9
    frequency:    7.3045519060
  - # 10
    frequency:    7.3647497263
  - # 11
    frequency:    8.3305616987
  - # 12
    frequency:    8.3973184767
  - # 13
    frequency:    8.9179624601
  - # 14
    frequency:   11.6858795117
  - # 15
    frequency:   12.8122984963
  - # 16
    frequency:   12.8245389556
  - # 17
    frequency:   13.7505460542
  - # 18
    frequency:   13.8184533572
  - # 19
    frequency:   14.3691611673
  - # 20
    frequency:   26.8308002416
  - # 21
    frequency:   56.6404535505

- q-position: [    0.1212121,    0.0000000,    0.0000000 ]
  distance:    0.0419507
  band:
  - # 1
    frequency:    0.7769595089
  - # 2
    frequency:    0.8034370540
  - # 3
    frequency:    1.9135369850
  - # 4
    frequency:    2.3155671429
  - # 5
    frequency:    2.6435976401
  - # 6
    frequency:    4.7118120326
  - # 7
    frequency:    5.0379662040
  - # 8
    frequency:    5.8450911232
  - # 9
    frequency:    7.2993055195
  - # 10
    frequency:    7.3600489838
  - # 11
    frequency:    8.3285544018
  - # 12
    frequency:    8.4065100047
  - # 13
    frequency:    8.9051700190
  - # 14
    frequency:   11.6516720725
  - # 15
    frequency:   12.7971015759
  - # 16
    frequency:   12.8090915888
  - # 17
    frequency:   13.7549879664
  - # 18
    frequency:   13.8270595652
  - # 19
    frequency:   14.3607563397
  - # 20
    frequency:   26.8273876355
  - # 21
    frequency:   56.6106511533

- q-position: [    0.1262626,    0.0000000,    0.0000000 ]
  distance:    0.0436986
  band:
  - # 1
    frequency:    0.8411831715
  - # 2
    frequency:    0.8751123172
  - # 3
    frequency:    2.0093135964
  - # 4
    frequency:    2.3892969572
  - # 5
    frequency:    2.7374330370
  - # 6
    frequency:    4.7146762320
  - # 7
    frequency:    5.0448740988
  - # 8
    frequency:    5.8579908921
  - # 9
    frequency:    7.2937820521
  - # 10
    frequency:    7.3546037938
  - # 11
    frequency:    8.3263084367
  - # 12
    frequency:    8.4164078525
  - # 13
    frequency:    8.8922423714
  - # 14
    frequency:   11.6164444423
  - # 15
    frequency:   12.7814897027
  - # 16
    frequency:   12.7930430506
  - # 17
    frequency:   13.7594696588
  - # 18
    frequency:   13.8354720509
  - # 19
    frequency:   14.3527331572
  - # 20
    frequency:   26.8238708453
  - # 21
    frequency:   56.5800029719

- q-position: [    0.1313131,    0.0000000,    0.0000000 ]
  distance:    0.0454466
  band:
  - # 1
    frequency:    0.9027484280
  - # 2
    frequency:    0.9481817223
  - # 3
    frequency:    2.1039547846
  - # 4
    frequency:    2.4617816454
  - # 5
    frequency:    2.8305112432
  - # 6
    frequency:    4.7189875694
  - # 7
    frequency:    5.0507647056
  - # 8
    frequency:    5.8726119022
  - # 9
    frequency:    7.2879752663
  - # 10
    frequency:    7.3484268543
  - # 11
    frequency:    8.3238136646
  - # 12
    frequency:    8.4269628184
  - # 13
    frequency:    8.8792331900
  - # 14
    frequency:   11.5802781675
  - # 15
    frequency:   12.7654926264
  - # 16
    frequency:   12.7764159077
  - # 17
    frequency:   13.7639747262
  - # 18
    frequency:   13.8436047123
  - # 19
    frequency:   14.3451743441
  - # 20
    frequency:   26.8202550145
  - # 21
    frequency:   56.5485560379

- q-position: [    0.1363636,    0.0000000,    0.0000000 ]
  distance:    0.0471945
  band:
  - # 1
    frequency:    0.9620341592
  - # 2
    frequency:    1.0225769927
  - # 3
    frequency:    2.1974360720
  - # 4
    frequency:    2.5330172227
  - # 5
    frequency:    2.9227131221
  - # 6
    frequency:    4.7248263412
  - # 7
    frequency:    5.0557612472
  - # 8
    frequency:    5.8889045021
  - # 9
    frequency:    7.2818793071
  - # 10
    frequency:    7.3415429059
  - # 11
    frequency:    8.3210610080
  - # 12
    frequency:    8.4381118719
  - # 13
    frequency:    8.8661988267
  - # 14
    frequency:   11.5432607117
  - # 15
    frequency:   12.7491408079
  - # 16
    frequency:   12.7592361300
  - # 17
    frequency:   13.7684869209
  - # 18
    frequency:   13.8513675094
  - # 19
    frequency:   14.3381640279
  - # 20
    frequency:   26.8165455025
  - # 21
    frequency:   56.5163582004

- q-position: [    0.1414141,    0.0000000,    0.0000000 ]
  distance:    0.0489425
  band:
  - # 1
    frequency:    1.0193155316
  - # 2
    frequency:    1.0982158594
  - # 3
    frequency:    2.2897320185
  - # 4
    frequency:    2.6030082711
  - # 5
    frequency:    3.0138962690
  - # 6
    frequency:    4.7322596101
  - # 7
    frequency:    5.0600343311
  - # 8
    frequency:    5.9067889515
  - # 9
    frequency:    7.2754888754
  - # 10
    frequency:    7.3339883842
  - # 11
    frequency:    8.3180425449
  - # 12
    frequency:    8.4497779852
  - # 13
    frequency:    8.8531990649
  - # 14
    frequency:   11.5054851747
  - # 15
    frequency:   12.7324652743
  - # 16
    frequency:   12.7415332352
  - # 17
    frequency:   13.7729902708
  - # 18
    frequency:   13.8586678504
  - # 19
    frequency:   14.3317865576
  - # 20
    frequency:   26.8127478818
  - # 21
    frequency:   56.4834580135

- q-position: [    0.1464646,    0.0000000,    0.0000000 ]
  distance:    0.0506904
  band:
  - # 1
    frequency:    1.0747981843
  - # 2
    frequency:    1.1750056408
  - # 3
    frequency:    2.3808175000
  - # 4
    frequency:    2.6717683558
  - # 5
    frequency:    3.1038930977
  - # 6
    frequency:    4.7413397700
  - # 7
    frequency:    5.0637990641
  - # 8
    frequency:    5.9261599580
  - # 9
    frequency:    7.2687994149
  - # 10
    frequency:    7.3258108789
  - # 11
    frequency:    8.3147515929
  - # 12
    frequency:    8.4618696549
  - # 13
    frequency:    8.8402983847
  - # 14
    frequency:   11.4670499524
  - # 15
    frequency:   12.7154974686
  - # 16
    frequency:   12.7233404085
  - # 17
    frequency:   13.7774691926
  - # 18
    frequency:   13.8654125576
  - # 19
    frequency:   14.3261247722
  - # 20
    frequency:   26.8088679342
  - # 21
    frequency:   56.4499046238

- q-position: [    0.1515152,    0.0000000,    0.0000000 ]
  distance:    0.0524384
  band:
  - # 1
    frequency:    1.1286394276
  - # 2
    frequency:    1.2528457669
  - # 3
    frequency:    2.4706686325
  - # 4
    frequency:    2.7393201661
  - # 5
    frequency:    3.1925089603
  - # 6
    frequency:    4.7521033522
  - # 7
    frequency:    5.0673115391
  - # 8
    frequency:    5.9468919082
  - # 9
    frequency:    7.2618073138
  - # 10
    frequency:    7.3170684458
  - # 11
    frequency:    8.3111827830
  - # 12
    frequency:    8.4742798274
  - # 13
    frequency:    8.8275679761
  - # 14
    frequency:   11.4280583417
  - # 15
    frequency:   12.6982690983
  - # 16
    frequency:   12.7046945940
  - # 17
    frequency:   13.7819086007
  - # 18
    frequency:   13.8715104633
  - # 19
    frequency:   14.3212576641
  - # 20
    frequency:   26.8049116448
  - # 21
    frequency:   56.4157476570