nqpoint: 300    
npath: 3      
segment_nqpoint:
- 100
- 100
- 100
labels:
- [ 'G', 'M' ]
- [ 'M', 'K' ]
- [ 'K', 'G' ]
reciprocal_lattice:
- [   0.32683833,   0.18870020,   0.00000000 ] # a*
- [   0.00000000,   0.37740039,   0.00000000 ] # b*
- [   0.00000000,   0.00000000,   0.03536164 ] # c*
natom: 7      
lattice:
- [     3.059616680467727,     0.000000000000000,     0.000000000000000 ] # a
- [    -1.529808340233863,     2.649705771127656,     0.000000000000000 ] # b
- [     0.000000000000000,     0.000000000000000,    28.279232498213318 ] # c
points:
- symbol: Cl # 1
  coordinates: [  0.333332985432215,  0.666666983183674,  0.681745252436797 ]
  mass: 35.453000
- symbol: H # 2
  coordinates: [  0.666666984744047,  0.333332985985145,  0.318254747563203 ]
  mass: 1.007940
- symbol: N # 3
  coordinates: [  0.000000000000000,  0.000000000000000,  0.437833760743725 ]
  mass: 14.006700
- symbol: O # 4
  coordinates: [  0.333332985432215,  0.666666983183674,  0.515023736440648 ]
  mass: 15.999400
- symbol: O # 5
  coordinates: [  0.666666984744047,  0.333332985985145,  0.353225644967126 ]
  mass: 15.999400
- symbol: Ti # 6
  coordinates: [  0.333332985432215,  0.666666983183674,  0.397579509759629 ]
  mass: 47.867000
- symbol: Ti # 7
  coordinates: [  0.666666984744047,  0.333332985985145,  0.482909635996275 ]
  mass: 47.867000

phonon:
- q-position: [    0.0000000,    0.0000000,    0.0000000 ]
  distance:    0.0000000
  band:
  - # 1
    frequency:   -1.3506783600
  - # 2
    frequency:   -1.3506783600
  - # 3
    frequency:   -0.5396837883
  - # 4
    frequency:   -0.0000011074
  - # 5
    frequency:   -0.0000002510
  - # 6
    frequency:    0.0000004353
  - # 7
    frequency:    2.7474397021
  - # 8
    frequency:    2.7474397021
  - # 9
    frequency:    3.5561756731
  - # 10
    frequency:    3.5561756731
  - # 11
    frequency:    8.1301810716
  - # 12
    frequency:    9.4731620788
  - # 13
    frequency:    9.4731620788
  - # 14
    frequency:   13.6560744535
  - # 15
    frequency:   13.6560744535
  - # 16
    frequency:   14.0885683425
  - # 17
    frequency:   15.9270849964
  - # 18
    frequency:   16.4397742495
  - # 19
    frequency:   16.4397742495
  - # 20
    frequency:   16.5378697987
  - # 21
    frequency:  111.2046486588

- q-position: [    0.0050505,    0.0000000,    0.0000000 ]
  distance:    0.0019061
  band:
  - # 1
    frequency:   -1.3554455171
  - # 2
    frequency:   -1.3519434980
  - # 3
    frequency:   -0.5390973254
  - # 4
    frequency:   -0.0546920640
  - # 5
    frequency:   -0.0076874776
  - # 6
    frequency:    0.0778169210
  - # 7
    frequency:    2.7503844631
  - # 8
    frequency:    2.7511082201
  - # 9
    frequency:    3.5581873263
  - # 10
    frequency:    3.5595460451
  - # 11
    frequency:    8.1294810900
  - # 12
    frequency:    9.4737154796
  - # 13
    frequency:    9.4746409642
  - # 14
    frequency:   13.6515273979
  - # 15
    frequency:   13.6573720903
  - # 16
    frequency:   14.0940766612
  - # 17
    frequency:   15.9269632648
  - # 18
    frequency:   16.4393642170
  - # 19
    frequency:   16.4403966120
  - # 20
    frequency:   16.5375832185
  - # 21
    frequency:  111.2009256395

- q-position: [    0.0101010,    0.0000000,    0.0000000 ]
  distance:    0.0038121
  band:
  - # 1
    frequency:   -1.3699379523
  - # 2
    frequency:   -1.3558861477
  - # 3
    frequency:   -0.5367962617
  - # 4
    frequency:   -0.1073764428
  - # 5
    frequency:   -0.0294811626
  - # 6
    frequency:    0.1586000044
  - # 7
    frequency:    2.7590951068
  - # 8
    frequency:    2.7620827662
  - # 9
    frequency:    3.5642826117
  - # 10
    frequency:    3.5696499552
  - # 11
    frequency:    8.1273950793
  - # 12
    frequency:    9.4753744881
  - # 13
    frequency:    9.4790521480
  - # 14
    frequency:   13.6385862397
  - # 15
    frequency:   13.6612608151
  - # 16
    frequency:   14.1098990146
  - # 17
    frequency:   15.9265943849
  - # 18
    frequency:   16.4381364081
  - # 19
    frequency:   16.4422632094
  - # 20
    frequency:   16.5367243823
  - # 21
    frequency:  111.1897691618

- q-position: [    0.0151515,    0.0000000,    0.0000000 ]
  distance:    0.0057182
  band:
  - # 1
    frequency:   -1.3946343543
  - # 2
    frequency:   -1.3629346952
  - # 3
    frequency:   -0.5315814206
  - # 4
    frequency:   -0.1559917468
  - # 5
    frequency:   -0.0621238288
  - # 6
    frequency:    0.2447980928
  - # 7
    frequency:    2.7732042428
  - # 8
    frequency:    2.7802689497
  - # 9
    frequency:    3.5746417410
  - # 10
    frequency:    3.5864632437
  - # 11
    frequency:    8.1239639994
  - # 12
    frequency:    9.4781355261
  - # 13
    frequency:    9.4863203090
  - # 14
    frequency:   13.6189678924
  - # 15
    frequency:   13.6677280519
  - # 16
    frequency:   14.1343105357
  - # 17
    frequency:   15.9259677294
  - # 18
    frequency:   16.4360976954
  - # 19
    frequency:   16.4453718718
  - # 20
    frequency:   16.5352964324
  - # 21
    frequency:  111.1712169260

- q-position: [    0.0202020,    0.0000000,    0.0000000 ]
  distance:    0.0076243
  band:
  - # 1
    frequency:   -1.4300673143
  - # 2
    frequency:   -1.3737547228
  - # 3
    frequency:   -0.5225290545
  - # 4
    frequency:   -0.1983795620
  - # 5
    frequency:   -0.1014189844
  - # 6
    frequency:    0.3381336330
  - # 7
    frequency:    2.7921121744
  - # 8
    frequency:    2.8055059881
  - # 9
    frequency:    3.5895613457
  - # 10
    frequency:    3.6099378388
  - # 11
    frequency:    8.1192534265
  - # 12
    frequency:    9.4819926394
  - # 13
    frequency:    9.4963234408
  - # 14
    frequency:   13.5946641535
  - # 15
    frequency:   13.6767527803
  - # 16
    frequency:   14.1653056037
  - # 17
    frequency:   15.9250669735
  - # 18
    frequency:   16.4332595549
  - # 19
    frequency:   16.4497164713
  - # 20
    frequency:   16.5333062583
  - # 21
    frequency:  111.1453316335

- q-position: [    0.0252525,    0.0000000,    0.0000000 ]
  distance:    0.0095303
  band:
  - # 1
    frequency:   -1.4765694018
  - # 2
    frequency:   -1.3891654029
  - # 3
    frequency:   -0.5097380795
  - # 4
    frequency:   -0.2322551279
  - # 5
    frequency:   -0.1429239704
  - # 6
    frequency:    0.4394963467
  - # 7
    frequency:    2.8150088339
  - # 8
    frequency:    2.8375647926
  - # 9
    frequency:    3.6094448988
  - # 10
    frequency:    3.6399921753
  - # 11
    frequency:    8.1133498985
  - # 12
    frequency:    9.4869375101
  - # 13
    frequency:    9.5088977458
  - # 14
    frequency:   13.5674312468
  - # 15
    frequency:   13.6883054443
  - # 16
    frequency:   14.2011074478
  - # 17
    frequency:   15.9238720443
  - # 18
    frequency:   16.4296380999
  - # 19
    frequency:   16.4552822993
  - # 20
    frequency:   16.5307679638
  - # 21
    frequency:  111.1122007878

- q-position: [    0.0303030,    0.0000000,    0.0000000 ]
  distance:    0.0114364
  band:
  - # 1
    frequency:   -1.5341138658
  - # 2
    frequency:   -1.4100114149
  - # 3
    frequency:   -0.4945024902
  - # 4
    frequency:   -0.2551729454
  - # 5
    frequency:   -0.1820659069
  - # 6
    frequency:    0.5488482941
  - # 7
    frequency:    2.8409101893
  - # 8
    frequency:    2.8761501867
  - # 9
    frequency:    3.6347818520
  - # 10
    frequency:    3.6765013801
  - # 11
    frequency:    8.1063564706
  - # 12
    frequency:    9.4929594712
  - # 13
    frequency:    9.5238437748
  - # 14
    frequency:   13.5386314694
  - # 15
    frequency:   13.7023478295
  - # 16
    frequency:   14.2403253064
  - # 17
    frequency:   15.9223615973
  - # 18
    frequency:   16.4252541287
  - # 19
    frequency:   16.4620366741
  - # 20
    frequency:   16.5277108979
  - # 21
    frequency:  111.0719364165

- q-position: [    0.0353535,    0.0000000,    0.0000000 ]
  distance:    0.0133424
  band:
  - # 1
    frequency:   -1.6022860255
  - # 2
    frequency:   -1.4370031427
  - # 3
    frequency:   -0.4791367039
  - # 4
    frequency:   -0.2644086297
  - # 5
    frequency:   -0.2138159200
  - # 6
    frequency:    0.6653600037
  - # 7
    frequency:    2.8687132418
  - # 8
    frequency:    2.9209091320
  - # 9
    frequency:    3.6661100587
  - # 10
    frequency:    3.7192895413
  - # 11
    frequency:    8.0983879852
  - # 12
    frequency:    9.5000455185
  - # 13
    frequency:    9.5409332739
  - # 14
    frequency:   13.5092665900
  - # 15
    frequency:   13.7188329078
  - # 16
    frequency:   14.2819194950
  - # 17
    frequency:   15.9205158009
  - # 18
    frequency:   16.4201331898
  - # 19
    frequency:   16.4699065979
  - # 20
    frequency:   16.5242006502
  - # 21
    frequency:  111.0246747141

- q-position: [    0.0404040,    0.0000000,    0.0000000 ]
  distance:    0.0152485
  band:
  - # 1
    frequency:   -1.6803433593
  - # 2
    frequency:   -1.4705632925
  - # 3
    frequency:   -0.4667634015
  - # 4
    frequency:   -0.2565214549
  - # 5
    frequency:   -0.2322380034
  - # 6
    frequency:    0.7878068692
  - # 7
    frequency:    2.8972710389
  - # 8
    frequency:    2.9714448365
  - # 9
    frequency:    3.7039588230
  - # 10
    frequency:    3.7681257284
  - # 11
    frequency:    8.0895665110
  - # 12
    frequency:    9.5081803197
  - # 13
    frequency:    9.5599162387
  - # 14
    frequency:   13.4800629859
  - # 15
    frequency:   13.7377046547
  - # 16
    frequency:   14.3251144025
  - # 17
    frequency:   15.9183191852
  - # 18
    frequency:   16.4143056629
  - # 19
    frequency:   16.4787110826
  - # 20
    frequency:   16.5204056349
  - # 21
    frequency:  110.9705756072

- q-position: [    0.0454545,    0.0000000,    0.0000000 ]
  distance:    0.0171546
  band:
  - # 1
    frequency:   -1.7673055193
  - # 2
    frequency:   -1.5107315517
  - # 3
    frequency:   -0.4602643132
  - # 4
    frequency:   -0.2308892428
  - # 5
    frequency:   -0.2257836324
  - # 6
    frequency:    0.9149651424
  - # 7
    frequency:    2.9254825702
  - # 8
    frequency:    3.0273347483
  - # 9
    frequency:    3.7487766824
  - # 10
    frequency:    3.8227244710
  - # 11
    frequency:    8.0800173110
  - # 12
    frequency:    9.5173462161
  - # 13
    frequency:    9.5805277683
  - # 14
    frequency:   13.4515496075
  - # 15
    frequency:   13.7588978418
  - # 16
    frequency:   14.3693183385
  - # 17
    frequency:   15.9157633190
  - # 18
    frequency:   16.4078068609
  - # 19
    frequency:   16.4878877851
  - # 20
    frequency:   16.5168698532
  - # 21
    frequency:  110.9098222403

- q-position: [    0.0505051,    0.0000000,    0.0000000 ]
  distance:    0.0190606
  band:
  - # 1
    frequency:   -1.8620419964
  - # 2
    frequency:   -1.5571613565
  - # 3
    frequency:   -0.4595762828
  - # 4
    frequency:   -0.2042133497
  - # 5
    frequency:   -0.1564707977
  - # 6
    frequency:    1.0458168755
  - # 7
    frequency:    2.9523835546
  - # 8
    frequency:    3.0881494563
  - # 9
    frequency:    3.8008571489
  - # 10
    frequency:    3.8827504452
  - # 11
    frequency:    8.0698655608
  - # 12
    frequency:    9.5275232166
  - # 13
    frequency:    9.6024944427
  - # 14
    frequency:   13.4241153377
  - # 15
    frequency:   13.7823378075
  - # 16
    frequency:   14.4140636869
  - # 17
    frequency:   15.9128491035
  - # 18
    frequency:   16.4006771524
  - # 19
    frequency:   16.4952100788
  - # 20
    frequency:   16.5157959051
  - # 21
    frequency:  110.8426203858

- q-position: [    0.0555556,    0.0000000,    0.0000000 ]
  distance:    0.0209667
  band:
  - # 1
    frequency:   -1.9633494296
  - # 2
    frequency:   -1.6092010048
  - # 3
    frequency:   -0.4608233364
  - # 4
    frequency:   -0.1425281208
  - # 5
    frequency:    0.1176661975
  - # 6
    frequency:    1.1795817261
  - # 7
    frequency:    2.9772181594
  - # 8
    frequency:    3.1534696446
  - # 9
    frequency:    3.8602818641
  - # 10
    frequency:    3.9478264009
  - # 11
    frequency:    8.0592339172
  - # 12
    frequency:    9.5386889839
  - # 13
    frequency:    9.6255400698
  - # 14
    frequency:   13.3980478503
  - # 15
    frequency:   13.8079402094
  - # 16
    frequency:   14.4589652971
  - # 17
    frequency:   15.9095885183
  - # 18
    frequency:   16.3929621074
  - # 19
    frequency:   16.4959384853
  - # 20
    frequency:   16.5218944700
  - # 21
    frequency:  110.7691977765

- q-position: [    0.0606061,    0.0000000,    0.0000000 ]
  distance:    0.0228728
  band:
  - # 1
    frequency:   -2.0700174469
  - # 2
    frequency:   -1.6660169390
  - # 3
    frequency:   -0.4591193775
  - # 4
    frequency:    0.0923595986
  - # 5
    frequency:    0.2521354244
  - # 6
    frequency:    1.3156694414
  - # 7
    frequency:    2.9994744635
  - # 8
    frequency:    3.2228991487
  - # 9
    frequency:    3.9268980825
  - # 10
    frequency:    4.0175430050
  - # 11
    frequency:    8.0482409278
  - # 12
    frequency:    9.5508188139
  - # 13
    frequency:    9.6493907530
  - # 14
    frequency:   13.3735590599
  - # 15
    frequency:   13.8356107628
  - # 16
    frequency:   14.5036920774
  - # 17
    frequency:   15.9060057037
  - # 18
    frequency:   16.3847126681
  - # 19
    frequency:   16.4915016925
  - # 20
    frequency:   16.5337051030
  - # 21
    frequency:  110.6898033625

- q-position: [    0.0656566,    0.0000000,    0.0000000 ]
  distance:    0.0247788
  band:
  - # 1
    frequency:   -2.1808808282
  - # 2
    frequency:   -1.7267127106
  - # 3
    frequency:   -0.4505040513
  - # 4
    frequency:    0.2076387977
  - # 5
    frequency:    0.3519828027
  - # 6
    frequency:    1.4536183307
  - # 7
    frequency:    3.0188784944
  - # 8
    frequency:    3.2960733181
  - # 9
    frequency:    4.0003355708
  - # 10
    frequency:    4.0914692515
  - # 11
    frequency:    8.0370002001
  - # 12
    frequency:    9.5638856131
  - # 13
    frequency:    9.6737793027
  - # 14
    frequency:   13.3508015701
  - # 15
    frequency:   13.8652449678
  - # 16
    frequency:   14.5479474645
  - # 17
    frequency:   15.9021373047
  - # 18
    frequency:   16.3759853457
  - # 19
    frequency:   16.4851674977
  - # 20
    frequency:   16.5479280226
  - # 21
    frequency:  110.6047064948

- q-position: [    0.0707071,    0.0000000,    0.0000000 ]
  distance:    0.0266849
  band:
  - # 1
    frequency:   -2.2948557545
  - # 2
    frequency:   -1.7904162286
  - # 3
    frequency:   -0.4317475153
  - # 4
    frequency:    0.2872151507
  - # 5
    frequency:    0.4402500584
  - # 6
    frequency:    1.5930451400
  - # 7
    frequency:    3.0353559852
  - # 8
    frequency:    3.3726628811
  - # 9
    frequency:    4.0800538345
  - # 10
    frequency:    4.1691623142
  - # 11
    frequency:    8.0256202063
  - # 12
    frequency:    9.5778598767
  - # 13
    frequency:    9.6984490583
  - # 14
    frequency:   13.3298792620
  - # 15
    frequency:   13.8967278303
  - # 16
    frequency:   14.5914557449
  - # 17
    frequency:   15.8980320290
  - # 18
    frequency:   16.3668424432
  - # 19
    frequency:   16.4779148094
  - # 20
    frequency:   16.5635557113
  - # 21
    frequency:  110.5141960341

- q-position: [    0.0757576,    0.0000000,    0.0000000 ]
  distance:    0.0285909
  band:
  - # 1
    frequency:   -2.4109602064
  - # 2
    frequency:   -1.8563299643
  - # 3
    frequency:   -0.3993760298
  - # 4
    frequency:    0.3552663656
  - # 5
    frequency:    0.5218488210
  - # 6
    frequency:    1.7336104853
  - # 7
    frequency:    3.0489790410
  - # 8
    frequency:    3.4523741067
  - # 9
    frequency:    4.1654026440
  - # 10
    frequency:    4.2501760567
  - # 11
    frequency:    8.0142045840
  - # 12
    frequency:    9.5927096783
  - # 13
    frequency:    9.7231572026
  - # 14
    frequency:   13.3108541258
  - # 15
    frequency:   13.9299335806
  - # 16
    frequency:   14.6339522868
  - # 17
    frequency:   15.8937493744
  - # 18
    frequency:   16.3573523040
  - # 19
    frequency:   16.4700608492
  - # 20
    frequency:   16.5802500978
  - # 21
    frequency:  110.4185793890

- q-position: [    0.0808081,    0.0000000,    0.0000000 ]
  distance:    0.0304970
  band:
  - # 1
    frequency:   -2.5283210649
  - # 2
    frequency:   -1.9237516149
  - # 3
    frequency:   -0.3480327360
  - # 4
    frequency:    0.4172533345
  - # 5
    frequency:    0.5986704740
  - # 6
    frequency:    1.8749968603
  - # 7
    frequency:    3.0599138735
  - # 8
    frequency:    3.5349463017
  - # 9
    frequency:    4.2556799182
  - # 10
    frequency:    4.3340677709
  - # 11
    frequency:    8.0028527936
  - # 12
    frequency:    9.6084006746
  - # 13
    frequency:    9.7476776503
  - # 14
    frequency:   13.2937507142
  - # 15
    frequency:   13.9647253961
  - # 16
    frequency:   14.6751765169
  - # 17
    frequency:   15.8893574625
  - # 18
    frequency:   16.3475895830
  - # 19
    frequency:   16.4617728412
  - # 20
    frequency:   16.5978359162
  - # 21
    frequency:  110.3181814840

- q-position: [    0.0858586,    0.0000000,    0.0000000 ]
  distance:    0.0324031
  band:
  - # 1
    frequency:   -2.6461717150
  - # 2
    frequency:   -1.9920759861
  - # 3
    frequency:   -0.2655982735
  - # 4
    frequency:    0.4755317602
  - # 5
    frequency:    0.6716506234
  - # 6
    frequency:    2.0168952213
  - # 7
    frequency:    3.0683792694
  - # 8
    frequency:    3.6201476380
  - # 9
    frequency:    4.3501775478
  - # 10
    frequency:    4.4204030226
  - # 11
    frequency:    7.9916610091
  - # 12
    frequency:    9.6248961381
  - # 13
    frequency:    9.7718035782
  - # 14
    frequency:   13.2785591348
  - # 15
    frequency:   14.0009551378
  - # 16
    frequency:   14.7148670040
  - # 17
    frequency:   15.8849298872
  - # 18
    frequency:   16.3376355347
  - # 19
    frequency:   16.4531848181
  - # 20
    frequency:   16.6161894604
  - # 21
    frequency:  110.2133436592

- q-position: [    0.0909091,    0.0000000,    0.0000000 ]
  distance:    0.0343091
  band:
  - # 1
    frequency:   -2.7638439000
  - # 2
    frequency:   -2.0607870737
  - # 3
    frequency:   -0.0854096616
  - # 4
    frequency:    0.5314059059
  - # 5
    frequency:    0.7413276072
  - # 6
    frequency:    2.1589969583
  - # 7
    frequency:    3.0746186470
  - # 8
    frequency:    3.7077701348
  - # 9
    frequency:    4.4482125474
  - # 10
    frequency:    4.5087587023
  - # 11
    frequency:    7.9807231359
  - # 12
    frequency:    9.6421570243
  - # 13
    frequency:    9.7953496512
  - # 14
    frequency:   13.2652371955
  - # 15
    frequency:   14.0384631086
  - # 16
    frequency:   14.7527583715
  - # 17
    frequency:   15.8805414617
  - # 18
    frequency:   16.3275783090
  - # 19
    frequency:   16.4444329645
  - # 20
    frequency:   16.6352091253
  - # 21
    frequency:  110.1044225044

- q-position: [    0.0959596,    0.0000000,    0.0000000 ]
  distance:    0.0362152
  band:
  - # 1
    frequency:   -2.8807568023
  - # 2
    frequency:   -2.1294462558
  - # 3
    frequency:    0.2623276016
  - # 4
    frequency:    0.5857275468
  - # 5
    frequency:    0.8080402613
  - # 6
    frequency:    2.3009890901
  - # 7
    frequency:    3.0788842236
  - # 8
    frequency:    3.7976244022
  - # 9
    frequency:    4.5491452361
  - # 10
    frequency:    4.5987245174
  - # 11
    frequency:    7.9701318709
  - # 12
    frequency:    9.6601420817
  - # 13
    frequency:    9.8181539774
  - # 14
    frequency:   13.2537121305
  - # 15
    frequency:   14.0770778529
  - # 16
    frequency:   14.7885800085
  - # 17
    frequency:   15.8762627579
  - # 18
    frequency:   16.3175132408
  - # 19
    frequency:   16.4356699405
  - # 20
    frequency:   16.6548070362
  - # 21
    frequency:  109.9917886295

- q-position: [    0.1010101,    0.0000000,    0.0000000 ]
  distance:    0.0381213
  band:
  - # 1
    frequency:   -2.9964053840
  - # 2
    frequency:   -2.1976799081
  - # 3
    frequency:    0.3971312546
  - # 4
    frequency:    0.6391570325
  - # 5
    frequency:    0.8720098146
  - # 6
    frequency:    2.4425513273
  - # 7
    frequency:    3.0814301424
  - # 8
    frequency:    3.8895345456
  - # 9
    frequency:    4.6523877868
  - # 10
    frequency:    4.6899032241
  - # 11
    frequency:    7.9599797360
  - # 12
    frequency:    9.6788080139
  - # 13
    frequency:    9.8400798148
  - # 14
    frequency:   13.2438822059
  - # 15
    frequency:   14.1166160168
  - # 16
    frequency:   14.8220566931
  - # 17
    frequency:   15.8721534107
  - # 18
    frequency:   16.3075431123
  - # 19
    frequency:   16.4270721825
  - # 20
    frequency:   16.6749074094
  - # 21
    frequency:  109.8758253749

- q-position: [    0.1060606,    0.0000000,    0.0000000 ]
  distance:    0.0400273
  band:
  - # 1
    frequency:   -3.1103492020
  - # 2
    frequency:   -2.2651680296
  - # 3
    frequency:    0.5088490634
  - # 4
    frequency:    0.6923480528
  - # 5
    frequency:    0.9333777430
  - # 6
    frequency:    2.5833541896
  - # 7
    frequency:    3.0825113923
  - # 8
    frequency:    3.9833334712
  - # 9
    frequency:    4.7574064510
  - # 10
    frequency:    4.7819099147
  - # 11
    frequency:    7.9503600366
  - # 12
    frequency:    9.6981096955
  - # 13
    frequency:    9.8610170419
  - # 14
    frequency:   13.2356184212
  - # 15
    frequency:   14.1568823000
  - # 16
    frequency:   14.8529112914
  - # 17
    frequency:   15.8682543534
  - # 18
    frequency:   16.2977783584
  - # 19
    frequency:   16.4188438583
  - # 20
    frequency:   16.6954474420
  - # 21
    frequency:  109.7569274637

- q-position: [    0.1111111,    0.0000000,    0.0000000 ]
  distance:    0.0419334
  band:
  - # 1
    frequency:   -3.2222023169
  - # 2
    frequency:   -2.3316344712
  - # 3
    frequency:    0.6092923386
  - # 4
    frequency:    0.7462021754
  - # 5
    frequency:    0.9922248891
  - # 6
    frequency:    2.7230577110
  - # 7
    frequency:    3.0823860188
  - # 8
    frequency:    4.0788587095
  - # 9
    frequency:    4.8637200494
  - # 10
    frequency:    4.8743706543
  - # 11
    frequency:    7.9413677039
  - # 12
    frequency:    9.7180004478
  - # 13
    frequency:    9.8808833940
  - # 14
    frequency:   13.2287664560
  - # 15
    frequency:   14.1976695385
  - # 16
    frequency:   14.8808696301
  - # 17
    frequency:   15.8645794940
  - # 18
    frequency:   16.2883371760
  - # 19
    frequency:   16.4112181771
  - # 20
    frequency:   16.7163792800
  - # 21
    frequency:  109.6354996006

- q-position: [    0.1161616,    0.0000000,    0.0000000 ]
  distance:    0.0438394
  band:
  - # 1
    frequency:   -3.3316245352
  - # 2
    frequency:   -2.3968388500
  - # 3
    frequency:    0.7011921102
  - # 4
    frequency:    0.8024122226
  - # 5
    frequency:    1.0485819475
  - # 6
    frequency:    2.8613104764
  - # 7
    frequency:    3.0813188758
  - # 8
    frequency:    4.1759487871
  - # 9
    frequency:    4.9669207377
  - # 10
    frequency:    4.9708965100
  - # 11
    frequency:    7.9330999922
  - # 12
    frequency:    9.7384323720
  - # 13
    frequency:    9.8996254704
  - # 14
    frequency:   13.2231489665
  - # 15
    frequency:   14.2387589718
  - # 16
    frequency:   14.9056674376
  - # 17
    frequency:   15.8611078355
  - # 18
    frequency:   16.2793454843
  - # 19
    frequency:   16.4044556138
  - # 20
    frequency:   16.7376725024
  - # 21
    frequency:  109.5119550193

- q-position: [    0.1212121,    0.0000000,    0.0000000 ]
  distance:    0.0457455
  band:
  - # 1
    frequency:   -3.4383139972
  - # 2
    frequency:   -2.4605700025
  - # 3
    frequency:    0.7832349251
  - # 4
    frequency:    0.8643668910
  - # 5
    frequency:    1.1024357622
  - # 6
    frequency:    2.9977488590
  - # 7
    frequency:    3.0795857647
  - # 8
    frequency:    4.2744401161
  - # 9
    frequency:    5.0592028042
  - # 10
    frequency:    5.0785485709
  - # 11
    frequency:    7.9256570081
  - # 12
    frequency:    9.7593567380
  - # 13
    frequency:    9.9172195106
  - # 14
    frequency:   13.2185682889
  - # 15
    frequency:   14.2799207586
  - # 16
    frequency:   14.9270589289
  - # 17
    frequency:   15.8577776156
  - # 18
    frequency:   16.2709366691
  - # 19
    frequency:   16.3988380624
  - # 20
    frequency:   16.7593168746
  - # 21
    frequency:  109.3867139851

- q-position: [    0.1262626,    0.0000000,    0.0000000 ]
  distance:    0.0476516
  band:
  - # 1
    frequency:   -3.5420010090
  - # 2
    frequency:   -2.5226407536
  - # 3
    frequency:    0.8528462014
  - # 4
    frequency:    0.9357635908
  - # 5
    frequency:    1.1537336163
  - # 6
    frequency:    3.0774772037
  - # 7
    frequency:    3.1319964075
  - # 8
    frequency:    4.3741643190
  - # 9
    frequency:    5.1508650341
  - # 10
    frequency:    5.1863293013
  - # 11
    frequency:    7.9191420496
  - # 12
    frequency:    9.7807244227
  - # 13
    frequency:    9.9336719391
  - # 14
    frequency:   13.2148095725
  - # 15
    frequency:   14.3209148243
  - # 16
    frequency:   14.9448262257
  - # 17
    frequency:   15.8544844882
  - # 18
    frequency:   16.2632510303
  - # 19
    frequency:   16.3946577836
  - # 20
    frequency:   16.7813252395
  - # 21
    frequency:  109.2602022550

- q-position: [    0.1313131,    0.0000000,    0.0000000 ]
  distance:    0.0495576
  band:
  - # 1
    frequency:   -3.6424429689
  - # 2
    frequency:   -2.5828837653
  - # 3
    frequency:    0.9122811314
  - # 4
    frequency:    1.0150037204
  - # 5
    frequency:    1.2023867277
  - # 6
    frequency:    3.0753012958
  - # 7
    frequency:    3.2636633780
  - # 8
    frequency:    4.4749458614
  - # 9
    frequency:    5.2415596481
  - # 10
    frequency:    5.2939277904
  - # 11
    frequency:    7.9136617382
  - # 12
    frequency:    9.8024863883
  - # 13
    frequency:    9.9490196721
  - # 14
    frequency:   13.2116443298
  - # 15
    frequency:   14.3614921338
  - # 16
    frequency:   14.9587884692
  - # 17
    frequency:   15.8510857721
  - # 18
    frequency:   16.2564348349
  - # 19
    frequency:   16.3922003347
  - # 20
    frequency:   16.8037364397
  - # 21
    frequency:  109.1328495007

- q-position: [    0.1363636,    0.0000000,    0.0000000 ]
  distance:    0.0514637
  band:
  - # 1
    frequency:   -3.7394202251
  - # 2
    frequency:   -2.6411482553
  - # 3
    frequency:    0.9664685488
  - # 4
    frequency:    1.0975572000
  - # 5
    frequency:    1.2482737603
  - # 6
    frequency:    3.0733852685
  - # 7
    frequency:    3.3923464408
  - # 8
    frequency:    4.5765998094
  - # 9
    frequency:    5.3309419574
  - # 10
    frequency:    5.4010651751
  - # 11
    frequency:    7.9093259220
  - # 12
    frequency:    9.8245941917
  - # 13
    frequency:    9.9633301731
  - # 14
    frequency:   13.2088343579
  - # 15
    frequency:   14.4013964951
  - # 16
    frequency:   14.9688093520
  - # 17
    frequency:   15.8474120021
  - # 18
    frequency:   16.2506388697
  - # 19
    frequency:   16.3917216408
  - # 20
    frequency:   16.8266181355
  - # 21
    frequency:  109.0050877010

- q-position: [    0.1414141,    0.0000000,    0.0000000 ]
  distance:    0.0533698
  band:
  - # 1
    frequency:   -3.8327327108
  - # 2
    frequency:   -2.6972974077
  - # 3
    frequency:    1.0182763519
  - # 4
    frequency:    1.1807987840
  - # 5
    frequency:    1.2912449841
  - # 6
    frequency:    3.0720752976
  - # 7
    frequency:    3.5176286140
  - # 8
    frequency:    4.6789294575
  - # 9
    frequency:    5.4186702684
  - # 10
    frequency:    5.5074910690
  - # 11
    frequency:    7.9062473320
  - # 12
    frequency:    9.8470005091
  - # 13
    frequency:    9.9767012278
  - # 14
    frequency:   13.2061359599
  - # 15
    frequency:   14.4403670017
  - # 16
    frequency:   14.9748019802
  - # 17
    frequency:   15.8432853081
  - # 18
    frequency:   16.2460163845
  - # 19
    frequency:   16.3934209858
  - # 20
    frequency:   16.8500693091
  - # 21
    frequency:  108.8773495073

- q-position: [    0.1464646,    0.0000000,    0.0000000 ]
  distance:    0.0552758
  band:
  - # 1
    frequency:   -3.9221972201
  - # 2
    frequency:   -2.7512063280
  - # 3
    frequency:    1.0689307546
  - # 4
    frequency:    1.2636429137
  - # 5
    frequency:    1.3311276350
  - # 6
    frequency:    3.0717342475
  - # 7
    frequency:    3.6390794956
  - # 8
    frequency:    4.7817234711
  - # 9
    frequency:    5.5044070498
  - # 10
    frequency:    5.6129804034
  - # 11
    frequency:    7.9045409668
  - # 12
    frequency:    9.8696596643
  - # 13
    frequency:    9.9892603908
  - # 14
    frequency:   13.2033043683
  - # 15
    frequency:   14.4781412076
  - # 16
    frequency:   14.9767304784
  - # 17
    frequency:   15.8385418651
  - # 18
    frequency:   16.2427203285
  - # 19
    frequency:   16.3974136044
  - # 20
    frequency:   16.8742221408
  - # 21
    frequency:  108.7500665900

- q-position: [    0.1515152,    0.0000000,    0.0000000 ]
  distance:    0.0571819
  band:
  - # 1
    frequency:   -4.0076452075
  - # 2
    frequency:   -2.8027604268
  - # 3
    frequency:    1.1189749399
  - # 4
    frequency:    1.3456154220
  - # 5
    frequency:    1.3677329391
  - # 6
    frequency:    3.0727370058
  - # 7
    frequency:    3.7562558787
  - # 8
    frequency:    4.8847520405
  - # 9
    frequency:    5.5878219321
  - # 10
    frequency:    5.7173306569
  - # 11
    frequency:    7.9043231810
  - # 12
    frequency:    9.8925281449
  - # 13
    frequency:   10.0011640299
  - # 14
    frequency:   13.2000982544
  - # 15
    frequency:   14.5144590998
  - # 16
    frequency:   14.9746084416
  - # 17
    frequency:   15.8330537308
  - # 18
    frequency:   16.2408998128
  - # 19
    frequency:   16.4037079527
  - # 20
    frequency:   16.8992428016
  - # 21
    frequency:  108.6236679705