nqpoint: 300    
npath: 3      
segment_nqpoint:
- 100
- 100
- 100
labels:
- [ 'G', 'M' ]
- [ 'M', 'K' ]
- [ 'K', 'G' ]
reciprocal_lattice:
- [   0.32683833,   0.18870020,   0.00000000 ] # a*
- [   0.00000000,   0.37740039,   0.00000000 ] # b*
- [   0.00000000,   0.00000000,   0.03536164 ] # c*
natom: 7      
lattice:
- [     3.059616680467727,     0.000000000000000,     0.000000000000000 ] # a
- [    -1.529808340233863,     2.649705771127656,     0.000000000000000 ] # b
- [     0.000000000000000,     0.000000000000000,    28.279232498213318 ] # c
points:
- symbol: Cl # 1
  coordinates: [  0.333332985432215,  0.666666983183674,  0.681745252436797 ]
  mass: 35.453000
- symbol: H # 2
  coordinates: [  0.666666984744047,  0.333332985985145,  0.318254747563203 ]
  mass: 1.007940
- symbol: N # 3
  coordinates: [  0.000000000000000,  0.000000000000000,  0.437833760743725 ]
  mass: 14.006700
- symbol: O # 4
  coordinates: [  0.333332985432215,  0.666666983183674,  0.515023736440648 ]
  mass: 15.999400
- symbol: O # 5
  coordinates: [  0.666666984744047,  0.333332985985145,  0.353225644967126 ]
  mass: 15.999400
- symbol: Ti # 6
  coordinates: [  0.333332985432215,  0.666666983183674,  0.397579509759629 ]
  mass: 47.867000
- symbol: Ti # 7
  coordinates: [  0.666666984744047,  0.333332985985145,  0.482909635996275 ]
  mass: 47.867000

phonon:
- q-position: [    0.0000000,    0.0000000,    0.0000000 ]
  distance:    0.0000000
  band:
  - # 1
    frequency:   -2.3020889768
  - # 2
    frequency:   -2.3020889768
  - # 3
    frequency:   -0.7681311408
  - # 4
    frequency:   -0.0000000303
  - # 5
    frequency:    0.0000002564
  - # 6
    frequency:    0.0000008692
  - # 7
    frequency:    0.0832928127
  - # 8
    frequency:    0.0832928127
  - # 9
    frequency:    7.3579539584
  - # 10
    frequency:    7.3579539584
  - # 11
    frequency:    7.9593153800
  - # 12
    frequency:   10.1653626538
  - # 13
    frequency:   10.1653626538
  - # 14
    frequency:   13.2834567169
  - # 15
    frequency:   13.2834567169
  - # 16
    frequency:   13.5152105930
  - # 17
    frequency:   15.0769543701
  - # 18
    frequency:   15.0769543701
  - # 19
    frequency:   15.9106090265
  - # 20
    frequency:   16.5256888236
  - # 21
    frequency:  109.1928428780

- q-position: [    0.0050505,    0.0000000,    0.0000000 ]
  distance:    0.0019061
  band:
  - # 1
    frequency:   -2.2927293033
  - # 2
    frequency:   -2.2926104112
  - # 3
    frequency:   -0.7697513243
  - # 4
    frequency:   -0.3489012912
  - # 5
    frequency:   -0.1806158867
  - # 6
    frequency:   -0.0996504492
  - # 7
    frequency:    0.1129065300
  - # 8
    frequency:    0.3930895603
  - # 9
    frequency:    7.3579619561
  - # 10
    frequency:    7.3599626917
  - # 11
    frequency:    7.9614991009
  - # 12
    frequency:   10.1641285830
  - # 13
    frequency:   10.1648700944
  - # 14
    frequency:   13.2798262323
  - # 15
    frequency:   13.2858119336
  - # 16
    frequency:   13.5225167379
  - # 17
    frequency:   15.0778309469
  - # 18
    frequency:   15.0780106449
  - # 19
    frequency:   15.9111791587
  - # 20
    frequency:   16.5253192904
  - # 21
    frequency:  109.1936700245

- q-position: [    0.0101010,    0.0000000,    0.0000000 ]
  distance:    0.0038121
  band:
  - # 1
    frequency:   -2.2645616865
  - # 2
    frequency:   -2.2640861986
  - # 3
    frequency:   -0.7743492194
  - # 4
    frequency:   -0.4610615637
  - # 5
    frequency:   -0.3832650070
  - # 6
    frequency:   -0.2345798489
  - # 7
    frequency:    0.2139395301
  - # 8
    frequency:    0.5826048857
  - # 9
    frequency:    7.3579792263
  - # 10
    frequency:    7.3659806497
  - # 11
    frequency:    7.9680391815
  - # 12
    frequency:   10.1604475013
  - # 13
    frequency:   10.1634100817
  - # 14
    frequency:   13.2702789766
  - # 15
    frequency:   13.2928485420
  - # 16
    frequency:   13.5430621361
  - # 17
    frequency:   15.0804577346
  - # 18
    frequency:   15.0811700178
  - # 19
    frequency:   15.9128883167
  - # 20
    frequency:   16.5242120076
  - # 21
    frequency:  109.1961327991

- q-position: [    0.0151515,    0.0000000,    0.0000000 ]
  distance:    0.0057182
  band:
  - # 1
    frequency:   -2.2173137424
  - # 2
    frequency:   -2.2162478554
  - # 3
    frequency:   -0.7806869553
  - # 4
    frequency:   -0.5802325301
  - # 5
    frequency:   -0.5224443870
  - # 6
    frequency:   -0.3610026382
  - # 7
    frequency:    0.3192406199
  - # 8
    frequency:    0.7453781275
  - # 9
    frequency:    7.3579863464
  - # 10
    frequency:    7.3759830954
  - # 11
    frequency:    7.9789014863
  - # 12
    frequency:   10.1543826271
  - # 13
    frequency:   10.1610347887
  - # 14
    frequency:   13.2576068312
  - # 15
    frequency:   13.3044803317
  - # 16
    frequency:   13.5739687261
  - # 17
    frequency:   15.0848259190
  - # 18
    frequency:   15.0864041272
  - # 19
    frequency:   15.9157327405
  - # 20
    frequency:   16.5223710193
  - # 21
    frequency:  109.2001754190

- q-position: [    0.0202020,    0.0000000,    0.0000000 ]
  distance:    0.0076243
  band:
  - # 1
    frequency:   -2.1505090784
  - # 2
    frequency:   -2.1486415883
  - # 3
    frequency:   -0.7886299538
  - # 4
    frequency:   -0.7720546067
  - # 5
    frequency:   -0.5538620927
  - # 6
    frequency:   -0.4849934875
  - # 7
    frequency:    0.4267798724
  - # 8
    frequency:    0.8964189023
  - # 9
    frequency:    7.3579532708
  - # 10
    frequency:    7.3899287593
  - # 11
    frequency:    7.9940263336
  - # 12
    frequency:   10.1460387455
  - # 13
    frequency:   10.1578284986
  - # 14
    frequency:   13.2442906844
  - # 15
    frequency:   13.3205665963
  - # 16
    frequency:   13.6126130966
  - # 17
    frequency:   15.0909208552
  - # 18
    frequency:   15.0936656893
  - # 19
    frequency:   15.9197060057
  - # 20
    frequency:   16.5198033830
  - # 21
    frequency:  109.2057056184

- q-position: [    0.0252525,    0.0000000,    0.0000000 ]
  distance:    0.0095303
  band:
  - # 1
    frequency:   -2.0634322029
  - # 2
    frequency:   -2.0606354101
  - # 3
    frequency:   -0.9688930694
  - # 4
    frequency:   -0.7842658782
  - # 5
    frequency:   -0.6075646280
  - # 6
    frequency:   -0.5648947186
  - # 7
    frequency:    0.5369013642
  - # 8
    frequency:    1.0413290046
  - # 9
    frequency:    7.3578422911
  - # 10
    frequency:    7.4077597688
  - # 11
    frequency:    8.0133248728
  - # 12
    frequency:   10.1355613306
  - # 13
    frequency:   10.1539038434
  - # 14
    frequency:   13.2319653576
  - # 15
    frequency:   13.3409163566
  - # 16
    frequency:   13.6571632219
  - # 17
    frequency:   15.0987221316
  - # 18
    frequency:   15.1028885005
  - # 19
    frequency:   15.9247987534
  - # 20
    frequency:   16.5165196600
  - # 21
    frequency:  109.2125956980

- q-position: [    0.0303030,    0.0000000,    0.0000000 ]
  distance:    0.0114364
  band:
  - # 1
    frequency:   -1.9550766162
  - # 2
    frequency:   -1.9514843584
  - # 3
    frequency:   -1.1604641083
  - # 4
    frequency:   -0.7731596610
  - # 5
    frequency:   -0.7289380316
  - # 6
    frequency:   -0.5604833241
  - # 7
    frequency:    0.6504355019
  - # 8
    frequency:    1.1829574959
  - # 9
    frequency:    7.3576112939
  - # 10
    frequency:    7.4294015321
  - # 11
    frequency:    8.0366749699
  - # 12
    frequency:   10.1231353045
  - # 13
    frequency:   10.1493969907
  - # 14
    frequency:   13.2215847124
  - # 15
    frequency:   13.3652938263
  - # 16
    frequency:   13.7064156594
  - # 17
    frequency:   15.1082036497
  - # 18
    frequency:   15.1139874896
  - # 19
    frequency:   15.9309982470
  - # 20
    frequency:   16.5125346336
  - # 21
    frequency:  109.2206839786

- q-position: [    0.0353535,    0.0000000,    0.0000000 ]
  distance:    0.0133424
  band:
  - # 1
    frequency:   -1.8240728369
  - # 2
    frequency:   -1.8205928706
  - # 3
    frequency:   -1.3503003765
  - # 4
    frequency:   -0.8491133556
  - # 5
    frequency:   -0.7470945809
  - # 6
    frequency:   -0.5404343865
  - # 7
    frequency:    0.7686028174
  - # 8
    frequency:    1.3230385490
  - # 9
    frequency:    7.3572167445
  - # 10
    frequency:    7.4547625653
  - # 11
    frequency:    8.0639172436
  - # 12
    frequency:   10.1089834338
  - # 13
    frequency:   10.1444621530
  - # 14
    frequency:   13.2136675333
  - # 15
    frequency:   13.3934247481
  - # 16
    frequency:   13.7595525808
  - # 17
    frequency:   15.1193337131
  - # 18
    frequency:   15.1268588727
  - # 19
    frequency:   15.9382876794
  - # 20
    frequency:   16.5078682896
  - # 21
    frequency:  109.2297766419

- q-position: [    0.0404040,    0.0000000,    0.0000000 ]
  distance:    0.0152485
  band:
  - # 1
    frequency:   -1.6685863931
  - # 2
    frequency:   -1.6685180805
  - # 3
    frequency:   -1.5379021408
  - # 4
    frequency:   -0.9680012383
  - # 5
    frequency:   -0.7026780518
  - # 6
    frequency:   -0.4938523150
  - # 7
    frequency:    0.8930993495
  - # 8
    frequency:    1.4627736742
  - # 9
    frequency:    7.3566159766
  - # 10
    frequency:    7.4837342506
  - # 11
    frequency:    8.0948517623
  - # 12
    frequency:   10.0933643738
  - # 13
    frequency:   10.1392658081
  - # 14
    frequency:   13.2084657596
  - # 15
    frequency:   13.4250032185
  - # 16
    frequency:   13.8159769982
  - # 17
    frequency:   15.1320751149
  - # 18
    frequency:   15.1413804784
  - # 19
    frequency:   15.9466451344
  - # 20
    frequency:   16.5025471165
  - # 21
    frequency:  109.2396499391

- q-position: [    0.0454545,    0.0000000,    0.0000000 ]
  distance:    0.0171546
  band:
  - # 1
    frequency:   -1.7241872751
  - # 2
    frequency:   -1.4976867009
  - # 3
    frequency:   -1.4861469665
  - # 4
    frequency:   -1.0854333085
  - # 5
    frequency:   -0.6445354074
  - # 6
    frequency:   -0.3687637399
  - # 7
    frequency:    1.0261918391
  - # 8
    frequency:    1.6030844865
  - # 9
    frequency:    7.3557685787
  - # 10
    frequency:    7.5161905230
  - # 11
    frequency:    8.1292357280
  - # 12
    frequency:   10.0765703821
  - # 13
    frequency:   10.1339809884
  - # 14
    frequency:   13.2060633030
  - # 15
    frequency:   13.4596986440
  - # 16
    frequency:   13.8752178532
  - # 17
    frequency:   15.1463852121
  - # 18
    frequency:   15.1574123314
  - # 19
    frequency:   15.9560420634
  - # 20
    frequency:   16.4966058053
  - # 21
    frequency:  109.2500527424

- q-position: [    0.0505051,    0.0000000,    0.0000000 ]
  distance:    0.0190606
  band:
  - # 1
    frequency:   -1.9072116546
  - # 2
    frequency:   -1.3212313941
  - # 3
    frequency:   -1.2740977596
  - # 4
    frequency:   -1.2001070912
  - # 5
    frequency:   -0.5902535453
  - # 6
    frequency:    0.3112448780
  - # 7
    frequency:    1.1706339257
  - # 8
    frequency:    1.7447334494
  - # 9
    frequency:    7.3546368787
  - # 10
    frequency:    7.5519874878
  - # 11
    frequency:    8.1667822842
  - # 12
    frequency:   10.0589247268
  - # 13
    frequency:   10.1287819387
  - # 14
    frequency:   13.2064330720
  - # 15
    frequency:   13.4971625294
  - # 16
    frequency:   13.9368772158
  - # 17
    frequency:   15.1622159770
  - # 18
    frequency:   15.1747975984
  - # 19
    frequency:   15.9664411034
  - # 20
    frequency:   16.4900894662
  - # 21
    frequency:  109.2607094130

- q-position: [    0.0555556,    0.0000000,    0.0000000 ]
  distance:    0.0209667
  band:
  - # 1
    frequency:   -2.0876103608
  - # 2
    frequency:   -1.3166489678
  - # 3
    frequency:   -1.1584891191
  - # 4
    frequency:   -1.0199820258
  - # 5
    frequency:   -0.5445158398
  - # 6
    frequency:    0.7090660307
  - # 7
    frequency:    1.3290256109
  - # 8
    frequency:    1.8883763587
  - # 9
    frequency:    7.3531856723
  - # 10
    frequency:    7.5909629903
  - # 11
    frequency:    8.2071604710
  - # 12
    frequency:   10.0407788071
  - # 13
    frequency:   10.1238393637
  - # 14
    frequency:   13.2094710032
  - # 15
    frequency:   13.5370348739
  - # 16
    frequency:   14.0006006300
  - # 17
    frequency:   15.1795140143
  - # 18
    frequency:   15.1933640162
  - # 19
    frequency:   15.9777930062
  - # 20
    frequency:   16.4830565297
  - # 21
    frequency:  109.2713229538

- q-position: [    0.0606061,    0.0000000,    0.0000000 ]
  distance:    0.0228728
  band:
  - # 1
    frequency:   -2.2650484116
  - # 2
    frequency:   -1.4290697717
  - # 3
    frequency:   -1.0227219996
  - # 4
    frequency:   -0.7053387127
  - # 5
    frequency:   -0.4999621419
  - # 6
    frequency:    1.0372325309
  - # 7
    frequency:    1.5022809389
  - # 8
    frequency:    2.0345655837
  - # 9
    frequency:    7.3513814230
  - # 10
    frequency:    7.6329361713
  - # 11
    frequency:    8.2499963046
  - # 12
    frequency:   10.0225089717
  - # 13
    frequency:   10.1193164043
  - # 14
    frequency:   13.2150175673
  - # 15
    frequency:   13.5789500252
  - # 16
    frequency:   14.0660599505
  - # 17
    frequency:   15.1982205358
  - # 18
    frequency:   15.2129259361
  - # 19
    frequency:   15.9900323926
  - # 20
    frequency:   16.4755825636
  - # 21
    frequency:  109.2815784144

- q-position: [    0.0656566,    0.0000000,    0.0000000 ]
  distance:    0.0247788
  band:
  - # 1
    frequency:   -2.4392717502
  - # 2
    frequency:   -1.5397584146
  - # 3
    frequency:   -0.9078792569
  - # 4
    frequency:   -0.4505734079
  - # 5
    frequency:   -0.0584162797
  - # 6
    frequency:    1.3296242790
  - # 7
    frequency:    1.6879422037
  - # 8
    frequency:    2.1837065192
  - # 9
    frequency:    7.3491911707
  - # 10
    frequency:    7.6777070620
  - # 11
    frequency:    8.2948749927
  - # 12
    frequency:   10.0045129676
  - # 13
    frequency:   10.1153654049
  - # 14
    frequency:   13.2228722979
  - # 15
    frequency:   13.6225419125
  - # 16
    frequency:   14.1329429084
  - # 17
    frequency:   15.2182712876
  - # 18
    frequency:   15.2332871212
  - # 19
    frequency:   16.0030719755
  - # 20
    frequency:   16.4677653195
  - # 21
    frequency:  109.2911465120

- q-position: [    0.0707071,    0.0000000,    0.0000000 ]
  distance:    0.0266849
  band:
  - # 1
    frequency:   -2.6100395670
  - # 2
    frequency:   -1.6484442626
  - # 3
    frequency:   -0.8004947297
  - # 4
    frequency:   -0.3907192607
  - # 5
    frequency:    0.6641085655
  - # 6
    frequency:    1.5909257712
  - # 7
    frequency:    1.8803856909
  - # 8
    frequency:    2.3359707719
  - # 9
    frequency:    7.3465813620
  - # 10
    frequency:    7.7250562917
  - # 11
    frequency:    8.3413443811
  - # 12
    frequency:    9.9872058704
  - # 13
    frequency:   10.1121254704
  - # 14
    frequency:   13.2328042730
  - # 15
    frequency:   13.6674486368
  - # 16
    frequency:   14.2009462475
  - # 17
    frequency:   15.2395964291
  - # 18
    frequency:   15.2542444388
  - # 19
    frequency:   16.0167948406
  - # 20
    frequency:   16.4597314055
  - # 21
    frequency:  109.2996874313

- q-position: [    0.0757576,    0.0000000,    0.0000000 ]
  distance:    0.0285909
  band:
  - # 1
    frequency:   -2.7771185459
  - # 2
    frequency:   -1.7549722010
  - # 3
    frequency:   -0.6890395194
  - # 4
    frequency:   -0.3103213950
  - # 5
    frequency:    0.9199965700
  - # 6
    frequency:    1.8261350291
  - # 7
    frequency:    2.0732533553
  - # 8
    frequency:    2.4911901206
  - # 9
    frequency:    7.3435167689
  - # 10
    frequency:    7.7747449965
  - # 11
    frequency:    8.3889198451
  - # 12
    frequency:    9.9710152375
  - # 13
    frequency:   10.1097207603
  - # 14
    frequency:   13.2445601166
  - # 15
    frequency:   13.7133164334
  - # 16
    frequency:   14.2697706148
  - # 17
    frequency:   15.2621203685
  - # 18
    frequency:   15.2755925800
  - # 19
    frequency:   16.0310443571
  - # 20
    frequency:   16.4516450354
  - # 21
    frequency:  109.3068547649

- q-position: [    0.0808081,    0.0000000,    0.0000000 ]
  distance:    0.0304970
  band:
  - # 1
    frequency:   -2.9402821132
  - # 2
    frequency:   -1.8592057220
  - # 3
    frequency:   -0.5641040661
  - # 4
    frequency:   -0.1722700118
  - # 5
    frequency:    1.1074476714
  - # 6
    frequency:    2.0401784974
  - # 7
    frequency:    2.2616299514
  - # 8
    frequency:    2.6487872875
  - # 9
    frequency:    7.3399596160
  - # 10
    frequency:    7.8265150284
  - # 11
    frequency:    8.4370909638
  - # 12
    frequency:    9.9563751049
  - # 13
    frequency:   10.1082594335
  - # 14
    frequency:   13.2578703755
  - # 15
    frequency:   13.7598030495
  - # 16
    frequency:   14.3391160695
  - # 17
    frequency:   15.2857615683
  - # 18
    frequency:   15.2971299389
  - # 19
    frequency:   16.0456114255
  - # 20
    frequency:   16.4437192246
  - # 21
    frequency:  109.3122995531

- q-position: [    0.0858586,    0.0000000,    0.0000000 ]
  distance:    0.0324031
  band:
  - # 1
    frequency:   -3.0993105581
  - # 2
    frequency:   -1.9610159696
  - # 3
    frequency:   -0.4170739151
  - # 4
    frequency:    0.2377122832
  - # 5
    frequency:    1.2621277942
  - # 6
    frequency:    2.2373764122
  - # 7
    frequency:    2.4425391080
  - # 8
    frequency:    2.8078089516
  - # 9
    frequency:    7.3358689976
  - # 10
    frequency:    7.8800895706
  - # 11
    frequency:    8.4853304218
  - # 12
    frequency:    9.9437183356
  - # 13
    frequency:   10.1078331386
  - # 14
    frequency:   13.2724547541
  - # 15
    frequency:   13.8065805860
  - # 16
    frequency:   14.4086774043
  - # 17
    frequency:   15.3104323404
  - # 18
    frequency:   15.3186657846
  - # 19
    frequency:   16.0602192678
  - # 20
    frequency:   16.4362293617
  - # 21
    frequency:  109.3156743852

- q-position: [    0.0909091,    0.0000000,    0.0000000 ]
  distance:    0.0343091
  band:
  - # 1
    frequency:   -3.2539913487
  - # 2
    frequency:   -2.0602795152
  - # 3
    frequency:   -0.2308542801
  - # 4
    frequency:    0.4209167029
  - # 5
    frequency:    1.3979926769
  - # 6
    frequency:    2.4213949934
  - # 7
    frequency:    2.6144672092
  - # 8
    frequency:    2.9670788351
  - # 9
    frequency:    7.3312006417
  - # 10
    frequency:    7.9351742566
  - # 11
    frequency:    8.5331056219
  - # 12
    frequency:    9.9334667678
  - # 13
    frequency:   10.1085169303
  - # 14
    frequency:   13.2880264956
  - # 15
    frequency:   13.8533378558
  - # 16
    frequency:   14.4781385956
  - # 17
    frequency:   15.3360386591
  - # 18
    frequency:   15.3400288919
  - # 19
    frequency:   16.0745072744
  - # 20
    frequency:   16.4295278412
  - # 21
    frequency:  109.3166375195

- q-position: [    0.0959596,    0.0000000,    0.0000000 ]
  distance:    0.0362152
  band:
  - # 1
    frequency:   -3.4041194848
  - # 2
    frequency:   -2.1568778685
  - # 3
    frequency:    0.2055320232
  - # 4
    frequency:    0.5796604028
  - # 5
    frequency:    1.5218989751
  - # 6
    frequency:    2.5952538880
  - # 7
    frequency:    2.7767810261
  - # 8
    frequency:    3.1254111358
  - # 9
    frequency:    7.3259070557
  - # 10
    frequency:    7.9914588781
  - # 11
    frequency:    8.5798934057
  - # 12
    frequency:    9.9260186878
  - # 13
    frequency:   10.1103694981
  - # 14
    frequency:   13.3042960903
  - # 15
    frequency:   13.8997823009
  - # 16
    frequency:   14.5471656995
  - # 17
    frequency:   15.3610778605
  - # 18
    frequency:   15.3624800277
  - # 19
    frequency:   16.0880182311
  - # 20
    frequency:   16.4240556823
  - # 21
    frequency:  109.3148569846

- q-position: [    0.1010101,    0.0000000,    0.0000000 ]
  distance:    0.0381213
  band:
  - # 1
    frequency:   -3.5494978438
  - # 2
    frequency:   -2.2506974526
  - # 3
    frequency:    0.3539158005
  - # 4
    frequency:    0.7223883557
  - # 5
    frequency:    1.6375918957
  - # 6
    frequency:    2.7613286317
  - # 7
    frequency:    2.9293267430
  - # 8
    frequency:    3.2817933390
  - # 9
    frequency:    7.3199380867
  - # 10
    frequency:    8.0486197380
  - # 11
    frequency:    8.6251979693
  - # 12
    frequency:    9.9217334364
  - # 13
    frequency:   10.1134335950
  - # 14
    frequency:   13.3209744407
  - # 15
    frequency:   13.9456415007
  - # 16
    frequency:   14.6153974326
  - # 17
    frequency:   15.3817134734
  - # 18
    frequency:   15.3896494397
  - # 19
    frequency:   16.1001980858
  - # 20
    frequency:   16.4203422514
  - # 21
    frequency:  109.3100146210

- q-position: [    0.1060606,    0.0000000,    0.0000000 ]
  distance:    0.0400273
  band:
  - # 1
    frequency:   -3.6899375056
  - # 2
    frequency:   -2.3416297203
  - # 3
    frequency:    0.4528348089
  - # 4
    frequency:    0.8522865382
  - # 5
    frequency:    1.7472484605
  - # 6
    frequency:    2.9213820424
  - # 7
    frequency:    3.0722015536
  - # 8
    frequency:    3.4354863569
  - # 9
    frequency:    7.3132419244
  - # 10
    frequency:    8.1063226709
  - # 11
    frequency:    8.6685714678
  - # 12
    frequency:    9.9209135483
  - # 13
    frequency:   10.1177365676
  - # 14
    frequency:   13.3377755821
  - # 15
    frequency:   13.9906642942
  - # 16
    frequency:   14.6824325725
  - # 17
    frequency:   15.4018935857
  - # 18
    frequency:   15.4174334770
  - # 19
    frequency:   16.1104230436
  - # 20
    frequency:   16.4189785765
  - # 21
    frequency:  109.3018100249

- q-position: [    0.1111111,    0.0000000,    0.0000000 ]
  distance:    0.0419334
  band:
  - # 1
    frequency:   -3.8252580535
  - # 2
    frequency:   -2.4295713148
  - # 3
    frequency:    0.5345455587
  - # 4
    frequency:    0.9728045066
  - # 5
    frequency:    1.8521844508
  - # 6
    frequency:    3.0766309371
  - # 7
    frequency:    3.2056335256
  - # 8
    frequency:    3.5860466124
  - # 9
    frequency:    7.3057665836
  - # 10
    frequency:    8.1642267111
  - # 11
    frequency:    8.7096359142
  - # 12
    frequency:    9.9237857097
  - # 13
    frequency:   10.1232909051
  - # 14
    frequency:   13.3544190368
  - # 15
    frequency:   14.0346215292
  - # 16
    frequency:   14.7478133033
  - # 17
    frequency:   15.4216511064
  - # 18
    frequency:   15.4457125895
  - # 19
    frequency:   16.1180690952
  - # 20
    frequency:   16.4205493838
  - # 21
    frequency:  109.2899643587

- q-position: [    0.1161616,    0.0000000,    0.0000000 ]
  distance:    0.0438394
  band:
  - # 1
    frequency:   -3.9552878480
  - # 2
    frequency:   -2.5144242374
  - # 3
    frequency:    0.6075236437
  - # 4
    frequency:    1.0865397170
  - # 5
    frequency:    1.9532125827
  - # 6
    frequency:    3.2278292766
  - # 7
    frequency:    3.3299206552
  - # 8
    frequency:    3.7333018074
  - # 9
    frequency:    7.2974619171
  - # 10
    frequency:    8.2219883434
  - # 11
    frequency:    8.7481039598
  - # 12
    frequency:    9.9304828443
  - # 13
    frequency:   10.1300947445
  - # 14
    frequency:   13.3706318718
  - # 15
    frequency:   14.0773064477
  - # 16
    frequency:   14.8110039664
  - # 17
    frequency:   15.4411153751
  - # 18
    frequency:   15.4743615904
  - # 19
    frequency:   16.1226232016
  - # 20
    frequency:   16.4255248120
  - # 21
    frequency:  109.2742239904

- q-position: [    0.1212121,    0.0000000,    0.0000000 ]
  distance:    0.0457455
  band:
  - # 1
    frequency:   -4.0798642740
  - # 2
    frequency:   -2.5960960102
  - # 3
    frequency:    0.6752669457
  - # 4
    frequency:    1.1952867791
  - # 5
    frequency:    2.0508372734
  - # 6
    frequency:    3.3753485634
  - # 7
    frequency:    3.4454004961
  - # 8
    frequency:    3.8773091856
  - # 9
    frequency:    7.2882822336
  - # 10
    frequency:    8.2792662261
  - # 11
    frequency:    8.7837953500
  - # 12
    frequency:    9.9410304541
  - # 13
    frequency:   10.1381322900
  - # 14
    frequency:   13.3861505167
  - # 15
    frequency:   14.1185347181
  - # 16
    frequency:   14.8713659342
  - # 17
    frequency:   15.4605360508
  - # 18
    frequency:   15.5032503944
  - # 19
    frequency:   16.1238012293
  - # 20
    frequency:   16.4341468180
  - # 21
    frequency:  109.2543639309

- q-position: [    0.1262626,    0.0000000,    0.0000000 ]
  distance:    0.0476516
  band:
  - # 1
    frequency:   -4.1988339610
  - # 2
    frequency:   -2.6744998269
  - # 3
    frequency:    0.7395558303
  - # 4
    frequency:    1.3002835115
  - # 5
    frequency:    2.1453665298
  - # 6
    frequency:    3.5192469271
  - # 7
    frequency:    3.5524351607
  - # 8
    frequency:    4.0183113319
  - # 9
    frequency:    7.2781896354
  - # 10
    frequency:    8.3357262373
  - # 11
    frequency:    8.8166457407
  - # 12
    frequency:    9.9553404633
  - # 13
    frequency:   10.1473741345
  - # 14
    frequency:   13.4007223865
  - # 15
    frequency:   14.1581441290
  - # 16
    frequency:   14.9281325105
  - # 17
    frequency:   15.4803054844
  - # 18
    frequency:   15.5322450121
  - # 19
    frequency:   16.1216132504
  - # 20
    frequency:   16.4463697381
  - # 21
    frequency:  109.2301910343

- q-position: [    0.1313131,    0.0000000,    0.0000000 ]
  distance:    0.0495576
  band:
  - # 1
    frequency:   -4.3120529755
  - # 2
    frequency:   -2.7495546905
  - # 3
    frequency:    0.8014206500
  - # 4
    frequency:    1.4023966635
  - # 5
    frequency:    2.2369791854
  - # 6
    frequency:    3.6514039194
  - # 7
    frequency:    3.6593281310
  - # 8
    frequency:    4.1566924462
  - # 9
    frequency:    7.2671582507
  - # 10
    frequency:    8.3910466599
  - # 11
    frequency:    8.8467054965
  - # 12
    frequency:    9.9732149090
  - # 13
    frequency:   10.1577774945
  - # 14
    frequency:   13.4141073487
  - # 15
    frequency:   14.1959939706
  - # 16
    frequency:   14.9803941783
  - # 17
    frequency:   15.5009690868
  - # 18
    frequency:   15.5612087944
  - # 19
    frequency:   16.1163407683
  - # 20
    frequency:   16.4618905720
  - # 21
    frequency:  109.2015469344

- q-position: [    0.1363636,    0.0000000,    0.0000000 ]
  distance:    0.0514637
  band:
  - # 1
    frequency:   -4.4193869853
  - # 2
    frequency:   -2.8211855365
  - # 3
    frequency:    0.8615111656
  - # 4
    frequency:    1.5022403397
  - # 5
    frequency:    2.3257668605
  - # 6
    frequency:    3.7426994948
  - # 7
    frequency:    3.7951973857
  - # 8
    frequency:    4.2929308144
  - # 9
    frequency:    7.2551796213
  - # 10
    frequency:    8.4449233010
  - # 11
    frequency:    8.8741279648
  - # 12
    frequency:    9.9943599620
  - # 13
    frequency:   10.1692864002
  - # 14
    frequency:   13.4260790558
  - # 15
    frequency:   14.2319641387
  - # 16
    frequency:   15.0271141037
  - # 17
    frequency:   15.5232034211
  - # 18
    frequency:   15.5900039053
  - # 19
    frequency:   16.1084494717
  - # 20
    frequency:   16.4802457096
  - # 21
    frequency:  109.1683106881

- q-position: [    0.1414141,    0.0000000,    0.0000000 ]
  distance:    0.0533698
  band:
  - # 1
    frequency:   -4.5207113959
  - # 2
    frequency:   -2.8893233404
  - # 3
    frequency:    0.9202623729
  - # 4
    frequency:    1.6002497467
  - # 5
    frequency:    2.4117609933
  - # 6
    frequency:    3.8267261289
  - # 7
    frequency:    3.9263221897
  - # 8
    frequency:    4.4275407712
  - # 9
    frequency:    7.2422696362
  - # 10
    frequency:    8.4970743264
  - # 11
    frequency:    8.8991489669
  - # 12
    frequency:   10.0184085345
  - # 13
    frequency:   10.1818319086
  - # 14
    frequency:   13.4364261622
  - # 15
    frequency:   14.2659540113
  - # 16
    frequency:   15.0672007538
  - # 17
    frequency:   15.5477343433
  - # 18
    frequency:   15.6184929824
  - # 19
    frequency:   16.0984943473
  - # 20
    frequency:   16.5009180607
  - # 21
    frequency:  109.1304011008

- q-position: [    0.1464646,    0.0000000,    0.0000000 ]
  distance:    0.0552758
  band:
  - # 1
    frequency:   -4.6159114581
  - # 2
    frequency:   -2.9539052108
  - # 3
    frequency:    0.9779780705
  - # 4
    frequency:    1.6967276253
  - # 5
    frequency:    2.4949507275
  - # 6
    frequency:    3.9038984892
  - # 7
    frequency:    4.0521032192
  - # 8
    frequency:    4.5609998658
  - # 9
    frequency:    7.2284775736
  - # 10
    frequency:    8.5472445957
  - # 11
    frequency:    8.9220610077
  - # 12
    frequency:   10.0449479757
  - # 13
    frequency:   10.1953324254
  - # 14
    frequency:   13.4449534279
  - # 15
    frequency:   14.2978811544
  - # 16
    frequency:   15.0996528229
  - # 17
    frequency:   15.5751782576
  - # 18
    frequency:   15.6465409326
  - # 19
    frequency:   16.0870587122
  - # 20
    frequency:   16.5234147372
  - # 21
    frequency:  109.0877787114

- q-position: [    0.1515152,    0.0000000,    0.0000000 ]
  distance:    0.0571819
  band:
  - # 1
    frequency:   -4.7048823455
  - # 2
    frequency:   -3.0148744659
  - # 3
    frequency:    1.0348768245
  - # 4
    frequency:    1.7918740047
  - # 5
    frequency:    2.5752950229
  - # 6
    frequency:    3.9746409706
  - # 7
    frequency:    4.1719525591
  - # 8
    frequency:    4.6936640431
  - # 9
    frequency:    7.2138980587
  - # 10
    frequency:    8.5952092983
  - # 11
    frequency:    8.9431863688
  - # 12
    frequency:   10.0735486921
  - # 13
    frequency:   10.2096942346
  - # 14
    frequency:   13.4514827090
  - # 15
    frequency:   14.3276799230
  - # 16
    frequency:   15.1237462774
  - # 17
    frequency:   15.6058331820
  - # 18
    frequency:   15.6740167960
  - # 19
    frequency:   16.0747383620
  - # 20
    frequency:   16.5473075690
  - # 21
    frequency:  109.0404474166