nqpoint: 300    
npath: 3      
segment_nqpoint:
- 100
- 100
- 100
labels:
- [ 'G', 'M' ]
- [ 'M', 'K' ]
- [ 'K', 'G' ]
reciprocal_lattice:
- [   0.29711828,   0.17154132,   0.00000000 ] # a*
- [   0.00000000,   0.34308264,   0.00000000 ] # b*
- [   0.00000000,   0.00000000,   0.03910681 ] # c*
natom: 7      
lattice:
- [     3.365662969571735,     0.000000000000000,     0.000000000000000 ] # a
- [    -1.682831484785867,     2.914749632225698,     0.000000000000000 ] # b
- [     0.000000000000000,     0.000000000000000,    25.570991225774595 ] # c
points:
- symbol: C # 1
  coordinates: [  0.333332985432215,  0.666666983183674,  0.587325458774624 ]
  mass: 12.010700
- symbol: H # 2
  coordinates: [  0.666666984744047,  0.333332985985145,  0.351961326822886 ]
  mass: 1.007940
- symbol: N # 3
  coordinates: [  0.000000000000000,  0.000000000000000,  0.437490979960094 ]
  mass: 14.006700
- symbol: N # 4
  coordinates: [  0.333332985432215,  0.666666983183674,  0.538254821067519 ]
  mass: 14.006700
- symbol: S # 5
  coordinates: [  0.333332985432215,  0.666666983183674,  0.648038673177114 ]
  mass: 32.065000
- symbol: Zr # 6
  coordinates: [  0.333332985432215,  0.666666983183674,  0.391401662940058 ]
  mass: 91.224000
- symbol: Zr # 7
  coordinates: [  0.666666984744047,  0.333332985985145,  0.483700512536949 ]
  mass: 91.224000

phonon:
- q-position: [    0.0000000,    0.0000000,    0.0000000 ]
  distance:    0.0000000
  band:
  - # 1
    frequency:   -2.1322284443
  - # 2
    frequency:   -2.1322284443
  - # 3
    frequency:   -0.0000002783
  - # 4
    frequency:    0.0000001423
  - # 5
    frequency:    0.0000003938
  - # 6
    frequency:    1.9292454699
  - # 7
    frequency:    1.9292454699
  - # 8
    frequency:    4.7424821390
  - # 9
    frequency:    6.0925788627
  - # 10
    frequency:    6.0925788627
  - # 11
    frequency:    7.0784301838
  - # 12
    frequency:   12.7983243614
  - # 13
    frequency:   14.1899837144
  - # 14
    frequency:   14.1899837144
  - # 15
    frequency:   14.7967575883
  - # 16
    frequency:   14.7967575883
  - # 17
    frequency:   26.4763115209
  - # 18
    frequency:   26.8529801296
  - # 19
    frequency:   27.5906335332
  - # 20
    frequency:   27.5906335332
  - # 21
    frequency:   55.3298340764

- q-position: [    0.0050505,    0.0000000,    0.0000000 ]
  distance:    0.0017327
  band:
  - # 1
    frequency:   -2.1329052656
  - # 2
    frequency:   -2.1324265738
  - # 3
    frequency:   -0.0008176171
  - # 4
    frequency:    0.0352459979
  - # 5
    frequency:    0.0773376924
  - # 6
    frequency:    1.9287565841
  - # 7
    frequency:    1.9289734435
  - # 8
    frequency:    4.7417675706
  - # 9
    frequency:    6.0930972045
  - # 10
    frequency:    6.0940232902
  - # 11
    frequency:    7.0778290077
  - # 12
    frequency:   12.7982639975
  - # 13
    frequency:   14.1893465178
  - # 14
    frequency:   14.1897667587
  - # 15
    frequency:   14.7970967680
  - # 16
    frequency:   14.7974954222
  - # 17
    frequency:   26.4757517385
  - # 18
    frequency:   26.8520173061
  - # 19
    frequency:   27.5907779946
  - # 20
    frequency:   27.5917490548
  - # 21
    frequency:   55.3294697342

- q-position: [    0.0101010,    0.0000000,    0.0000000 ]
  distance:    0.0034655
  band:
  - # 1
    frequency:   -2.1349421055
  - # 2
    frequency:   -2.1330263749
  - # 3
    frequency:   -0.0033495915
  - # 4
    frequency:    0.0705515758
  - # 5
    frequency:    0.1545045129
  - # 6
    frequency:    1.9272930562
  - # 7
    frequency:    1.9282032875
  - # 8
    frequency:    4.7396435450
  - # 9
    frequency:    6.0946504869
  - # 10
    frequency:    6.0983308623
  - # 11
    frequency:    7.0760300328
  - # 12
    frequency:   12.7980831058
  - # 13
    frequency:   14.1874474720
  - # 14
    frequency:   14.1891221467
  - # 15
    frequency:   14.7981027139
  - # 16
    frequency:   14.7996961752
  - # 17
    frequency:   26.4740766632
  - # 18
    frequency:   26.8491550443
  - # 19
    frequency:   27.5912109154
  - # 20
    frequency:   27.5950679836
  - # 21
    frequency:   55.3283774659

- q-position: [    0.0151515,    0.0000000,    0.0000000 ]
  distance:    0.0051982
  band:
  - # 1
    frequency:   -2.1383564247
  - # 2
    frequency:   -2.1340440516
  - # 3
    frequency:   -0.0078144799
  - # 4
    frequency:    0.1059750634
  - # 5
    frequency:    0.2313277759
  - # 6
    frequency:    1.9248643473
  - # 7
    frequency:    1.9270716725
  - # 8
    frequency:    4.7361682995
  - # 9
    frequency:    6.0972334971
  - # 10
    frequency:    6.1054252531
  - # 11
    frequency:    7.0730471080
  - # 12
    frequency:   12.7977822779
  - # 13
    frequency:   14.1843235193
  - # 14
    frequency:   14.1880681548
  - # 15
    frequency:   14.7997413297
  - # 16
    frequency:   14.8033221446
  - # 17
    frequency:   26.4712991456
  - # 18
    frequency:   26.8444694017
  - # 19
    frequency:   27.5919309047
  - # 20
    frequency:   27.6005099247
  - # 21
    frequency:   55.3265595444

- q-position: [    0.0202020,    0.0000000,    0.0000000 ]
  distance:    0.0069310
  band:
  - # 1
    frequency:   -2.1431719669
  - # 2
    frequency:   -2.1355064990
  - # 3
    frequency:   -0.0145254989
  - # 4
    frequency:    0.1415723452
  - # 5
    frequency:    0.3076314429
  - # 6
    frequency:    1.9214864695
  - # 7
    frequency:    1.9258025984
  - # 8
    frequency:    4.7314363261
  - # 9
    frequency:    6.1008375972
  - # 10
    frequency:    6.1151818124
  - # 11
    frequency:    7.0689039509
  - # 12
    frequency:   12.7973624702
  - # 13
    frequency:   14.1800340268
  - # 14
    frequency:   14.1866336773
  - # 15
    frequency:   14.8019579769
  - # 16
    frequency:   14.8083122419
  - # 17
    frequency:   26.4674407094
  - # 18
    frequency:   26.8380791018
  - # 19
    frequency:   27.5929356402
  - # 20
    frequency:   27.6079487549
  - # 21
    frequency:   55.3240197504

- q-position: [    0.0252525,    0.0000000,    0.0000000 ]
  distance:    0.0086637
  band:
  - # 1
    frequency:   -2.1494113979
  - # 2
    frequency:   -2.1374511382
  - # 3
    frequency:   -0.0238321175
  - # 4
    frequency:    0.1773957719
  - # 5
    frequency:    0.3832350939
  - # 6
    frequency:    1.9171823520
  - # 7
    frequency:    1.9247013115
  - # 8
    frequency:    4.7255748464
  - # 9
    frequency:    6.1054507989
  - # 10
    frequency:    6.1274309984
  - # 11
    frequency:    7.0636351313
  - # 12
    frequency:   12.7968249614
  - # 13
    frequency:   14.1746577816
  - # 14
    frequency:   14.1848560841
  - # 15
    frequency:   14.8046804552
  - # 16
    frequency:   14.8145844047
  - # 17
    frequency:   26.4625316639
  - # 18
    frequency:   26.8301351180
  - # 19
    frequency:   27.5942218627
  - # 20
    frequency:   27.6172228304
  - # 21
    frequency:   55.3207633618

- q-position: [    0.0303030,    0.0000000,    0.0000000 ]
  distance:    0.0103964
  band:
  - # 1
    frequency:   -2.1570872859
  - # 2
    frequency:   -2.1399256876
  - # 3
    frequency:   -0.0360628440
  - # 4
    frequency:    0.2134932310
  - # 5
    frequency:    0.4579535808
  - # 6
    frequency:    1.9119823562
  - # 7
    frequency:    1.9241450312
  - # 8
    frequency:    4.7187394604
  - # 9
    frequency:    6.1110578636
  - # 10
    frequency:    6.1419624518
  - # 11
    frequency:    7.0572875055
  - # 12
    frequency:   12.7961712937
  - # 13
    frequency:   14.1682893130
  - # 14
    frequency:   14.1827785869
  - # 15
    frequency:   14.8078226479
  - # 16
    frequency:   14.8220386015
  - # 17
    frequency:   26.4566111744
  - # 18
    frequency:   26.8208088190
  - # 19
    frequency:   27.5957853684
  - # 20
    frequency:   27.6281466373
  - # 21
    frequency:   55.3167971386

- q-position: [    0.0353535,    0.0000000,    0.0000000 ]
  distance:    0.0121292
  band:
  - # 1
    frequency:   -2.1661925427
  - # 2
    frequency:   -2.1429878741
  - # 3
    frequency:   -0.0514766166
  - # 4
    frequency:    0.2499074198
  - # 5
    frequency:    0.5315974339
  - # 6
    frequency:    1.9059249381
  - # 7
    frequency:    1.9245698964
  - # 8
    frequency:    4.7111093927
  - # 9
    frequency:    6.1176404263
  - # 10
    frequency:    6.1585291422
  - # 11
    frequency:    7.0499221615
  - # 12
    frequency:   12.7954032005
  - # 13
    frequency:   14.1610349272
  - # 14
    frequency:   14.1804473892
  - # 15
    frequency:   14.8112884442
  - # 16
    frequency:   14.8305601462
  - # 17
    frequency:   26.4497272160
  - # 18
    frequency:   26.8102803828
  - # 19
    frequency:   27.5976209997
  - # 20
    frequency:   27.6405222541
  - # 21
    frequency:   55.3121293033

- q-position: [    0.0404040,    0.0000000,    0.0000000 ]
  distance:    0.0138619
  band:
  - # 1
    frequency:   -2.1766915260
  - # 2
    frequency:   -2.1467050836
  - # 3
    frequency:   -0.0702251579
  - # 4
    frequency:    0.2866753611
  - # 5
    frequency:    0.6039739834
  - # 6
    frequency:    1.8990574563
  - # 7
    frequency:    1.9264536586
  - # 8
    frequency:    4.7028827190
  - # 9
    frequency:    6.1251771385
  - # 10
    frequency:    6.1768510350
  - # 11
    frequency:    7.0416169511
  - # 12
    frequency:   12.7945225222
  - # 13
    frequency:   14.1530088017
  - # 14
    frequency:   14.1779088681
  - # 15
    frequency:   14.8149755926
  - # 16
    frequency:   14.8400230644
  - # 17
    frequency:   26.4419363318
  - # 18
    frequency:   26.7987287504
  - # 19
    frequency:   27.5997226344
  - # 20
    frequency:   27.6541494354
  - # 21
    frequency:   55.3067695177

- q-position: [    0.0454545,    0.0000000,    0.0000000 ]
  distance:    0.0155947
  band:
  - # 1
    frequency:   -2.1885129167
  - # 2
    frequency:   -2.1511539520
  - # 3
    frequency:   -0.0923265279
  - # 4
    frequency:    0.3238281943
  - # 5
    frequency:    0.6748890459
  - # 6
    frequency:    1.8914371123
  - # 7
    frequency:    1.9302940388
  - # 8
    frequency:    4.6942718519
  - # 9
    frequency:    6.1336438263
  - # 10
    frequency:    6.1966178061
  - # 11
    frequency:    7.0324696971
  - # 12
    frequency:   12.7935311126
  - # 13
    frequency:   14.1443294020
  - # 14
    frequency:   14.1752069885
  - # 15
    frequency:   14.8187792217
  - # 16
    frequency:   14.8502933048
  - # 17
    frequency:   26.4333031266
  - # 18
    frequency:   26.7863238234
  - # 19
    frequency:   27.6020831743
  - # 20
    frequency:   27.6688336826
  - # 21
    frequency:   55.3007288551

- q-position: [    0.0505051,    0.0000000,    0.0000000 ]
  distance:    0.0173274
  band:
  - # 1
    frequency:   -2.2015452403
  - # 2
    frequency:   -2.1564198889
  - # 3
    frequency:   -0.1176499811
  - # 4
    frequency:    0.3613912615
  - # 5
    frequency:    0.7441489437
  - # 6
    frequency:    1.8831320076
  - # 7
    frequency:    1.9365833804
  - # 8
    frequency:    4.6854994486
  - # 9
    frequency:    6.1430136593
  - # 10
    frequency:    6.2174902540
  - # 11
    frequency:    7.0226021624
  - # 12
    frequency:   12.7924307396
  - # 13
    frequency:   14.1351163842
  - # 14
    frequency:   14.1723810743
  - # 15
    frequency:   14.8225948648
  - # 16
    frequency:   14.8612316561
  - # 17
    frequency:   26.4238994470
  - # 18
    frequency:   26.7732211041
  - # 19
    frequency:   27.6046945332
  - # 20
    frequency:   27.6843921555
  - # 21
    frequency:   55.2940197686

- q-position: [    0.0555556,    0.0000000,    0.0000000 ]
  distance:    0.0190601
  band:
  - # 1
    frequency:   -2.2156355251
  - # 2
    frequency:   -2.1625965256
  - # 3
    frequency:   -0.1459125474
  - # 4
    frequency:    0.3993845014
  - # 5
    frequency:    0.8115625930
  - # 6
    frequency:    1.8742222829
  - # 7
    frequency:    1.9457812029
  - # 8
    frequency:    4.6767947855
  - # 9
    frequency:    6.1532573245
  - # 10
    frequency:    6.2391002101
  - # 11
    frequency:    7.0121648358
  - # 12
    frequency:   12.7912229824
  - # 13
    frequency:   14.1254880542
  - # 14
    frequency:   14.1694640008
  - # 15
    frequency:   14.8263209183
  - # 16
    frequency:   14.8726962987
  - # 17
    frequency:   26.4138032279
  - # 18
    frequency:   26.7595586138
  - # 19
    frequency:   27.6075476256
  - # 20
    frequency:   27.7006576084
  - # 21
    frequency:   55.2866560559

- q-position: [    0.0606061,    0.0000000,    0.0000000 ]
  distance:    0.0207929
  band:
  - # 1
    frequency:   -2.2305911761
  - # 2
    frequency:   -2.1697850641
  - # 3
    frequency:   -0.1766875825
  - # 4
    frequency:    0.4378231467
  - # 5
    frequency:    0.8769434418
  - # 6
    frequency:    1.8648012909
  - # 7
    frequency:    1.9582872795
  - # 8
    frequency:    4.6683905586
  - # 9
    frequency:    6.1643432017
  - # 10
    frequency:    6.2610489443
  - # 11
    frequency:    7.0013424936
  - # 12
    frequency:   12.7899091300
  - # 13
    frequency:   14.1155593810
  - # 14
    frequency:   14.1664808117
  - # 15
    frequency:   14.8298605344
  - # 16
    frequency:   14.8845449737
  - # 17
    frequency:   26.4030970262
  - # 18
    frequency:   26.7454557254
  - # 19
    frequency:   27.6106323553
  - # 20
    frequency:   27.7174807005
  - # 21
    frequency:   55.2786528193

- q-position: [    0.0656566,    0.0000000,    0.0000000 ]
  distance:    0.0225256
  band:
  - # 1
    frequency:   -2.2461847441
  - # 2
    frequency:   -2.1780935002
  - # 3
    frequency:   -0.2094245889
  - # 4
    frequency:    0.4767187057
  - # 5
    frequency:    0.9401111606
  - # 6
    frequency:    1.8549767338
  - # 7
    frequency:    1.9744185417
  - # 8
    frequency:    4.6605200096
  - # 9
    frequency:    6.1762375351
  - # 10
    frequency:    6.2829043428
  - # 11
    frequency:    6.9903602890
  - # 12
    frequency:   12.7884900838
  - # 13
    frequency:   14.1054405157
  - # 14
    frequency:   14.1634477302
  - # 15
    frequency:   14.8331229991
  - # 16
    frequency:   14.8966367928
  - # 17
    frequency:   26.3918662915
  - # 18
    frequency:   26.7310134681
  - # 19
    frequency:   27.6139376068
  - # 20
    frequency:   27.7347310700
  - # 21
    frequency:   55.2700264235

- q-position: [    0.0707071,    0.0000000,    0.0000000 ]
  distance:    0.0242584
  band:
  - # 1
    frequency:   -2.2621609827
  - # 2
    frequency:   -2.1876356756
  - # 3
    frequency:   -0.2434781230
  - # 4
    frequency:    0.5160801919
  - # 5
    frequency:    1.0008931806
  - # 6
    frequency:    1.8448716714
  - # 7
    frequency:    1.9943930618
  - # 8
    frequency:    4.6534142566
  - # 9
    frequency:    6.1889045977
  - # 10
    frequency:    6.3041975832
  - # 11
    frequency:    6.9794897156
  - # 12
    frequency:   12.7869662690
  - # 13
    frequency:   14.0952357412
  - # 14
    frequency:   14.1603715065
  - # 15
    frequency:   14.8360246680
  - # 16
    frequency:   14.9088337345
  - # 17
    frequency:   26.3801974595
  - # 18
    frequency:   26.7163158689
  - # 19
    frequency:   27.6174512377
  - # 20
    frequency:   27.7522975285
  - # 21
    frequency:   55.2607944486

- q-position: [    0.0757576,    0.0000000,    0.0000000 ]
  distance:    0.0259911
  band:
  - # 1
    frequency:   -2.2782454280
  - # 2
    frequency:   -2.1985301074
  - # 3
    frequency:   -0.2781421092
  - # 4
    frequency:    0.5559155438
  - # 5
    frequency:    1.0591263805
  - # 6
    frequency:    1.8346252815
  - # 7
    frequency:    2.0183233778
  - # 8
    frequency:    4.6472997116
  - # 9
    frequency:    6.2023068446
  - # 10
    frequency:    6.3244207377
  - # 11
    frequency:    6.9690531064
  - # 12
    frequency:   12.7853375583
  - # 13
    frequency:   14.0850427703
  - # 14
    frequency:   14.1572490392
  - # 15
    frequency:   14.8384895434
  - # 16
    frequency:   14.9210018822
  - # 17
    frequency:   26.3681759664
  - # 18
    frequency:   26.7014319419
  - # 19
    frequency:   27.6211600748
  - # 20
    frequency:   27.7700876668
  - # 21
    frequency:   55.2509756401

- q-position: [    0.0808081,    0.0000000,    0.0000000 ]
  distance:    0.0277238
  band:
  - # 1
    frequency:   -2.2941537186
  - # 2
    frequency:   -2.2108985298
  - # 3
    frequency:   -0.3126850064
  - # 4
    frequency:    0.5962331552
  - # 5
    frequency:    1.1146593896
  - # 6
    frequency:    1.8243932329
  - # 7
    frequency:    2.0462196840
  - # 8
    frequency:    4.6423954941
  - # 9
    frequency:    6.2164050531
  - # 10
    frequency:    6.3430277663
  - # 11
    frequency:    6.9594243004
  - # 12
    frequency:   12.7836032112
  - # 13
    frequency:   14.0749523165
  - # 14
    frequency:   14.1540672065
  - # 15
    frequency:   14.8404495697
  - # 16
    frequency:   14.9330124614
  - # 17
    frequency:   26.3558842897
  - # 18
    frequency:   26.6864180083
  - # 19
    frequency:   27.6250499129
  - # 20
    frequency:   27.7880270868
  - # 21
    frequency:   55.2405898560

- q-position: [    0.0858586,    0.0000000,    0.0000000 ]
  distance:    0.0294566
  band:
  - # 1
    frequency:   -2.3096009695
  - # 2
    frequency:   -2.2248640827
  - # 3
    frequency:   -0.3463814130
  - # 4
    frequency:    0.6370434109
  - # 5
    frequency:    1.1673560207
  - # 6
    frequency:    1.8143475169
  - # 7
    frequency:    2.0780014798
  - # 8
    frequency:    4.6389107845
  - # 9
    frequency:    6.2311584478
  - # 10
    frequency:    6.3594425654
  - # 11
    frequency:    6.9510218990
  - # 12
    frequency:   12.7817618331
  - # 13
    frequency:   14.0650478662
  - # 14
    frequency:   14.1508028480
  - # 15
    frequency:   14.8418447163
  - # 16
    frequency:   14.9447427282
  - # 17
    frequency:   26.3434001113
  - # 18
    frequency:   26.6713201004
  - # 19
    frequency:   27.6291055193
  - # 20
    frequency:   27.8060584128
  - # 21
    frequency:   55.2296580106

- q-position: [    0.0909091,    0.0000000,    0.0000000 ]
  distance:    0.0311893
  band:
  - # 1
    frequency:   -2.3243106714
  - # 2
    frequency:   -2.2405490843
  - # 3
    frequency:   -0.3785368100
  - # 4
    frequency:    0.6783600982
  - # 5
    frequency:    1.2171002455
  - # 6
    frequency:    1.8046755787
  - # 7
    frequency:    2.1135148025
  - # 8
    frequency:    4.6370421113
  - # 9
    frequency:    6.2465248092
  - # 10
    frequency:    6.3730785358
  - # 11
    frequency:    6.9442907213
  - # 12
    frequency:   12.7798113558
  - # 13
    frequency:   14.0554055999
  - # 14
    frequency:   14.1474228510
  - # 15
    frequency:   14.8426229037
  - # 16
    frequency:   14.9560767517
  - # 17
    frequency:   26.3307946830
  - # 18
    frequency:   26.6561762733
  - # 19
    frequency:   27.6333106415
  - # 20
    frequency:   27.8241401819
  - # 21
    frequency:   55.2182020150

- q-position: [    0.0959596,    0.0000000,    0.0000000 ]
  distance:    0.0329221
  band:
  - # 1
    frequency:   -2.3380227745
  - # 2
    frequency:   -2.2580723421
  - # 3
    frequency:   -0.4085038159
  - # 4
    frequency:    0.7202015386
  - # 5
    frequency:    1.2638028737
  - # 6
    frequency:    1.7955786178
  - # 7
    frequency:    2.1525516383
  - # 8
    frequency:    4.6369706047
  - # 9
    frequency:    6.2624605668
  - # 10
    frequency:    6.3833732506
  - # 11
    frequency:    6.9396679373
  - # 12
    frequency:   12.7777490429
  - # 13
    frequency:   14.0460944158
  - # 14
    frequency:   14.1438843013
  - # 15
    frequency:   14.8427398176
  - # 16
    frequency:   14.9669061261
  - # 17
    frequency:   26.3181314509
  - # 18
    frequency:   26.6410187107
  - # 19
    frequency:   27.6376480223
  - # 20
    frequency:   27.8422456725
  - # 21
    frequency:   55.2062447156

- q-position: [    0.1010101,    0.0000000,    0.0000000 ]
  distance:    0.0346548
  band:
  - # 1
    frequency:   -2.3505007873
  - # 2
    frequency:   -2.2775459899
  - # 3
    frequency:   -0.4356899751
  - # 4
    frequency:    0.7625912621
  - # 5
    frequency:    1.3074097672
  - # 6
    frequency:    1.7872689696
  - # 7
    frequency:    2.1948685067
  - # 8
    frequency:    4.6388592926
  - # 9
    frequency:    6.2789208779
  - # 10
    frequency:    6.3898376820
  - # 11
    frequency:    6.9375344661
  - # 12
    frequency:   12.7755715209
  - # 13
    frequency:   14.0371760264
  - # 14
    frequency:   14.1401346714
  - # 15
    frequency:   14.8421586439
  - # 16
    frequency:   14.9771306377
  - # 17
    frequency:   26.3054649726
  - # 18
    frequency:   26.6258755562
  - # 19
    frequency:   27.6420994195
  - # 20
    frequency:   27.8603617081
  - # 21
    frequency:   55.1938098298

- q-position: [    0.1060606,    0.0000000,    0.0000000 ]
  distance:    0.0363876
  band:
  - # 1
    frequency:   -2.3615378625
  - # 2
    frequency:   -2.2990718837
  - # 3
    frequency:   -0.4595582883
  - # 4
    frequency:    0.8055580320
  - # 5
    frequency:    1.3479111149
  - # 6
    frequency:    1.7799665705
  - # 7
    frequency:    2.2402022370
  - # 8
    frequency:    4.6428505436
  - # 9
    frequency:    6.2958596929
  - # 10
    frequency:    6.3921118596
  - # 11
    frequency:    6.9381598018
  - # 12
    frequency:   12.7732748360
  - # 13
    frequency:   14.0287051020
  - # 14
    frequency:   14.1361120277
  - # 15
    frequency:   14.8408497494
  - # 16
    frequency:   14.9866589046
  - # 17
    frequency:   26.2928401408
  - # 18
    frequency:   26.6107724459
  - # 19
    frequency:   27.6466456330
  - # 20
    frequency:   27.8784874508
  - # 21
    frequency:   55.1809218791

- q-position: [    0.1111111,    0.0000000,    0.0000000 ]
  distance:    0.0381203
  band:
  - # 1
    frequency:   -2.3709619476
  - # 2
    frequency:   -2.3227376481
  - # 3
    frequency:   -0.4796222317
  - # 4
    frequency:    0.8491350242
  - # 5
    frequency:    1.3853510921
  - # 6
    frequency:    1.7738946270
  - # 7
    frequency:    2.2882821141
  - # 8
    frequency:    4.6490637781
  - # 9
    frequency:    6.3132298113
  - # 10
    frequency:    6.3900111418
  - # 11
    frequency:    6.9416561106
  - # 12
    frequency:   12.7708545385
  - # 13
    frequency:   14.0207294461
  - # 14
    frequency:   14.1317452466
  - # 15
    frequency:   14.8387903257
  - # 16
    frequency:   14.9954089973
  - # 17
    frequency:   26.2802917108
  - # 18
    frequency:   26.5957337387
  - # 19
    frequency:   27.6512665394
  - # 20
    frequency:   27.8966331924
  - # 21
    frequency:   55.1676061205

- q-position: [    0.1161616,    0.0000000,    0.0000000 ]
  distance:    0.0398530
  band:
  - # 1
    frequency:   -2.3786401354
  - # 2
    frequency:   -2.3486125310
  - # 3
    frequency:   -0.4954369490
  - # 4
    frequency:    0.8933579778
  - # 5
    frequency:    1.4198371907
  - # 6
    frequency:    1.7692747537
  - # 7
    frequency:    2.3388384933
  - # 8
    frequency:    4.6575935662
  - # 9
    frequency:    6.3309829312
  - # 10
    frequency:    6.3835460093
  - # 11
    frequency:    6.9479587119
  - # 12
    frequency:   12.7683057911
  - # 13
    frequency:   14.0132901925
  - # 14
    frequency:   14.1269542366
  - # 15
    frequency:   14.8359640093
  - # 16
    frequency:   15.0033090439
  - # 17
    frequency:   26.2678441193
  - # 18
    frequency:   26.5807834623
  - # 19
    frequency:   27.6559411333
  - # 20
    frequency:   27.9148191406
  - # 21
    frequency:   55.1538884759

- q-position: [    0.1212121,    0.0000000,    0.0000000 ]
  distance:    0.0415858
  band:
  - # 1
    frequency:   -2.3844823805
  - # 2
    frequency:   -2.3767432846
  - # 3
    frequency:   -0.5065877856
  - # 4
    frequency:    0.9382621666
  - # 5
    frequency:    1.4515485982
  - # 6
    frequency:    1.7663220064
  - # 7
    frequency:    2.3916085092
  - # 8
    frequency:    4.6685082168
  - # 9
    frequency:    6.3490696959
  - # 10
    frequency:    6.3729072956
  - # 11
    frequency:    6.9568410458
  - # 12
    frequency:   12.7656235027
  - # 13
    frequency:   14.0064220152
  - # 14
    frequency:   14.1216501727
  - # 15
    frequency:   14.8323604852
  - # 16
    frequency:   15.0102978140
  - # 17
    frequency:   26.2555115739
  - # 18
    frequency:   26.5659459981
  - # 19
    frequency:   27.6606475763
  - # 20
    frequency:   27.9330742011
  - # 21
    frequency:   55.1397954596

- q-position: [    0.1262626,    0.0000000,    0.0000000 ]
  distance:    0.0433185
  band:
  - # 1
    frequency:   -2.4071503347
  - # 2
    frequency:   -2.3884447516
  - # 3
    frequency:   -0.5126764656
  - # 4
    frequency:    0.9838780953
  - # 5
    frequency:    1.4807431435
  - # 6
    frequency:    1.7652403716
  - # 7
    frequency:    2.4463396501
  - # 8
    frequency:    4.6818489253
  - # 9
    frequency:    6.3584233283
  - # 10
    frequency:    6.3674397424
  - # 11
    frequency:    6.9679576708
  - # 12
    frequency:   12.7628024811
  - # 13
    frequency:   14.0001533488
  - # 14
    frequency:   14.1157357532
  - # 15
    frequency:   14.8279750822
  - # 16
    frequency:   15.0163252706
  - # 17
    frequency:   26.2432983932
  - # 18
    frequency:   26.5512465324
  - # 19
    frequency:   27.6653632544
  - # 20
    frequency:   27.9514347502
  - # 21
    frequency:   55.1253541043

- q-position: [    0.1313131,    0.0000000,    0.0000000 ]
  distance:    0.0450513
  band:
  - # 1
    frequency:   -2.4398245192
  - # 2
    frequency:   -2.3905323676
  - # 3
    frequency:   -0.5133039549
  - # 4
    frequency:    1.0302258936
  - # 5
    frequency:    1.5077624115
  - # 6
    frequency:    1.7662193706
  - # 7
    frequency:    2.5027918792
  - # 8
    frequency:    4.6976295031
  - # 9
    frequency:    6.3405054088
  - # 10
    frequency:    6.3860417560
  - # 11
    frequency:    6.9808988842
  - # 12
    frequency:   12.7598376050
  - # 13
    frequency:   13.9945066160
  - # 14
    frequency:   14.1091054979
  - # 15
    frequency:   14.8228083632
  - # 16
    frequency:   15.0213530712
  - # 17
    frequency:   26.2311995748
  - # 18
    frequency:   26.5367113012
  - # 19
    frequency:   27.6700648429
  - # 20
    frequency:   27.9699433975
  - # 21
    frequency:   55.1105918866

- q-position: [    0.1363636,    0.0000000,    0.0000000 ]
  distance:    0.0467840
  band:
  - # 1
    frequency:   -2.4747246581
  - # 2
    frequency:   -2.3908021342
  - # 3
    frequency:   -0.5080471076
  - # 4
    frequency:    1.0773084573
  - # 5
    frequency:    1.5330345635
  - # 6
    frequency:    1.7694324537
  - # 7
    frequency:    2.5607387940
  - # 8
    frequency:    4.7158366575
  - # 9
    frequency:    6.3195978789
  - # 10
    frequency:    6.4048235341
  - # 11
    frequency:    6.9952407387
  - # 12
    frequency:   12.7567240088
  - # 13
    frequency:   13.9894984605
  - # 14
    frequency:   14.1016461104
  - # 15
    frequency:   14.8168657143
  - # 16
    frequency:   15.0253549952
  - # 17
    frequency:   26.2192015705
  - # 18
    frequency:   26.5223676504
  - # 19
    frequency:   27.6747283789
  - # 20
    frequency:   27.9886477393
  - # 21
    frequency:   55.0955366505

- q-position: [    0.1414141,    0.0000000,    0.0000000 ]
  distance:    0.0485167
  band:
  - # 1
    frequency:   -2.5117761596
  - # 2
    frequency:   -2.3893653488
  - # 3
    frequency:   -0.4964227785
  - # 4
    frequency:    1.1251034687
  - # 5
    frequency:    1.5570741502
  - # 6
    frequency:    1.7750377808
  - # 7
    frequency:    2.6199681347
  - # 8
    frequency:    4.7364307357
  - # 9
    frequency:    6.2961418937
  - # 10
    frequency:    6.4237320650
  - # 11
    frequency:    7.0105813708
  - # 12
    frequency:   12.7534572775
  - # 13
    frequency:   13.9851399846
  - # 14
    frequency:   14.0932369348
  - # 15
    frequency:   14.8101569372
  - # 16
    frequency:   15.0283172658
  - # 17
    frequency:   26.2072832492
  - # 18
    frequency:   26.5082439330
  - # 19
    frequency:   27.6793293414
  - # 20
    frequency:   28.0075991054
  - # 21
    frequency:   55.0802165308

- q-position: [    0.1464646,    0.0000000,    0.0000000 ]
  distance:    0.0502495
  band:
  - # 1
    frequency:   -2.5508707827
  - # 2
    frequency:   -2.3863901793
  - # 3
    frequency:   -0.4778263131
  - # 4
    frequency:    1.1735545044
  - # 5
    frequency:    1.5804777938
  - # 6
    frequency:    1.7831817974
  - # 7
    frequency:    2.6802818241
  - # 8
    frequency:    4.7593467985
  - # 9
    frequency:    6.2705543827
  - # 10
    frequency:    6.4427136227
  - # 11
    frequency:    7.0265621965
  - # 12
    frequency:   12.7500336450
  - # 13
    frequency:   13.9814369919
  - # 14
    frequency:   14.0837505397
  - # 15
    frequency:   14.8026958472
  - # 16
    frequency:   15.0302387326
  - # 17
    frequency:   26.1954170254
  - # 18
    frequency:   26.4943692594
  - # 19
    frequency:   27.6838427388
  - # 20
    frequency:   28.0268513062
  - # 21
    frequency:   55.0646598756

- q-position: [    0.1515152,    0.0000000,    0.0000000 ]
  distance:    0.0519822
  band:
  - # 1
    frequency:   -2.5918675702
  - # 2
    frequency:   -2.3821039323
  - # 3
    frequency:   -0.4514161679
  - # 4
    frequency:    1.2225615482
  - # 5
    frequency:    1.6039141653
  - # 6
    frequency:    1.7940057076
  - # 7
    frequency:    2.7414956488
  - # 8
    frequency:    4.7844958445
  - # 9
    frequency:    6.2432192585
  - # 10
    frequency:    6.4617138815
  - # 11
    frequency:    7.0428769735
  - # 12
    frequency:   12.7464501921
  - # 13
    frequency:   13.9783902318
  - # 14
    frequency:   14.0730534673
  - # 15
    frequency:   14.7944998804
  - # 16
    frequency:   15.0311308748
  - # 17
    frequency:   26.1835701314
  - # 18
    frequency:   26.4807731208
  - # 19
    frequency:   27.6882432033
  - # 20
    frequency:   28.0464593880
  - # 21
    frequency:   55.0488951689
