nqpoint: 300    
npath: 3      
segment_nqpoint:
- 100
- 100
- 100
labels:
- [ 'G', 'M' ]
- [ 'M', 'K' ]
- [ 'K', 'G' ]
reciprocal_lattice:
- [   0.29582101,   0.17079234,   0.00000000 ] # a*
- [   0.00000000,   0.34158468,   0.00000000 ] # b*
- [   0.00000000,   0.00000000,   0.04320892 ] # c*
natom: 5      
lattice:
- [     3.380422464532575,     0.000000000000000,     0.000000000000000 ] # a
- [    -1.690211232266287,     2.927531729803059,     0.000000000000000 ] # b
- [     0.000000000000000,     0.000000000000000,    23.143369668529264 ] # c
points:
- symbol: Cl # 1
  coordinates: [  0.333332985432215,  0.666666983183674,  0.611119723320224 ]
  mass: 35.453000
- symbol: H # 2
  coordinates: [  0.666666984744048,  0.333332985985145,  0.388880276679776 ]
  mass: 1.007940
- symbol: N # 3
  coordinates: [  0.000000000000000,  0.000000000000000,  0.482636920023589 ]
  mass: 14.006700
- symbol: Zr # 4
  coordinates: [  0.333332985432215,  0.666666983183674,  0.432301322124311 ]
  mass: 91.224000
- symbol: Zr # 5
  coordinates: [  0.666666984744048,  0.333332985985145,  0.532613393107118 ]
  mass: 91.224000

phonon:
- q-position: [    0.0000000,    0.0000000,    0.0000000 ]
  distance:    0.0000000
  band:
  - # 1
    frequency:   -4.5457277572
  - # 2
    frequency:   -0.0000131756
  - # 3
    frequency:    0.0000002141
  - # 4
    frequency:    0.0000113894
  - # 5
    frequency:    1.7291925026
  - # 6
    frequency:    1.7291925026
  - # 7
    frequency:    5.9293951057
  - # 8
    frequency:    5.9293951057
  - # 9
    frequency:    8.1519232264
  - # 10
    frequency:   12.1682882273
  - # 11
    frequency:   15.0609140229
  - # 12
    frequency:   15.0609140229
  - # 13
    frequency:   26.5344385768
  - # 14
    frequency:   28.5712255540
  - # 15
    frequency:   28.5712255540

- q-position: [    0.0050505,    0.0000000,    0.0000000 ]
  distance:    0.0017252
  band:
  - # 1
    frequency:   -4.5492065243
  - # 2
    frequency:   -0.0926839894
  - # 3
    frequency:   -0.0015144698
  - # 4
    frequency:    0.1945429211
  - # 5
    frequency:    1.7265921431
  - # 6
    frequency:    1.7272121949
  - # 7
    frequency:    5.9302692508
  - # 8
    frequency:    5.9311218453
  - # 9
    frequency:    8.1517167408
  - # 10
    frequency:   12.1700052511
  - # 11
    frequency:   15.0605257671
  - # 12
    frequency:   15.0613571888
  - # 13
    frequency:   26.5345350600
  - # 14
    frequency:   28.5699945826
  - # 15
    frequency:   28.5705039208

- q-position: [    0.0101010,    0.0000000,    0.0000000 ]
  distance:    0.0034504
  band:
  - # 1
    frequency:   -4.5594797130
  - # 2
    frequency:   -0.1856625006
  - # 3
    frequency:   -0.0061953736
  - # 4
    frequency:    0.3848368942
  - # 5
    frequency:    1.7194363197
  - # 6
    frequency:    1.7213236928
  - # 7
    frequency:    5.9328817133
  - # 8
    frequency:    5.9362892412
  - # 9
    frequency:    8.1510979540
  - # 10
    frequency:   12.1751334968
  - # 11
    frequency:   15.0593627446
  - # 12
    frequency:   15.0626830132
  - # 13
    frequency:   26.5348244772
  - # 14
    frequency:   28.5663075874
  - # 15
    frequency:   28.5683416140

- q-position: [    0.0151515,    0.0000000,    0.0000000 ]
  distance:    0.0051755
  band:
  - # 1
    frequency:   -4.5760782440
  - # 2
    frequency:   -0.2792211165
  - # 3
    frequency:   -0.0144631510
  - # 4
    frequency:    0.5658944426
  - # 5
    frequency:    1.7099241534
  - # 6
    frequency:    1.7116842539
  - # 7
    frequency:    5.9372028422
  - # 8
    frequency:    5.9448589706
  - # 9
    frequency:    8.1500688904
  - # 10
    frequency:   12.1836050884
  - # 11
    frequency:   15.0574301324
  - # 12
    frequency:   15.0648804776
  - # 13
    frequency:   26.5353067137
  - # 14
    frequency:   28.5601823021
  - # 15
    frequency:   28.5647464021

- q-position: [    0.0202020,    0.0000000,    0.0000000 ]
  distance:    0.0069007
  band:
  - # 1
    frequency:   -4.5982823350
  - # 2
    frequency:   -0.3736263424
  - # 3
    frequency:   -0.0270527158
  - # 4
    frequency:    0.7308966419
  - # 5
    frequency:    1.6985555686
  - # 6
    frequency:    1.7026777112
  - # 7
    frequency:    5.9431840945
  - # 8
    frequency:    5.9567676312
  - # 9
    frequency:    8.1486329717
  - # 10
    frequency:   12.1953088710
  - # 11
    frequency:   15.0547363688
  - # 12
    frequency:   15.0679312233
  - # 13
    frequency:   26.5359815215
  - # 14
    frequency:   28.5516482060
  - # 15
    frequency:   28.5597311982

- q-position: [    0.0252525,    0.0000000,    0.0000000 ]
  distance:    0.0086259
  band:
  - # 1
    frequency:   -4.6251977584
  - # 2
    frequency:   -0.4691134129
  - # 3
    frequency:   -0.0450786577
  - # 4
    frequency:    0.8696404985
  - # 5
    frequency:    1.6823018519
  - # 6
    frequency:    1.7061850657
  - # 7
    frequency:    5.9507592964
  - # 8
    frequency:    5.9719273979
  - # 9
    frequency:    8.1467950831
  - # 10
    frequency:   12.2100932726
  - # 11
    frequency:   15.0512928715
  - # 12
    frequency:   15.0718095606
  - # 13
    frequency:   26.5368484347
  - # 14
    frequency:   28.5407464090
  - # 15
    frequency:   28.5533140090

- q-position: [    0.0303030,    0.0000000,    0.0000000 ]
  distance:    0.0103511
  band:
  - # 1
    frequency:   -4.6558364957
  - # 2
    frequency:   -0.5658719160
  - # 3
    frequency:   -0.0701572341
  - # 4
    frequency:    0.9681026144
  - # 5
    frequency:    1.6633847753
  - # 6
    frequency:    1.7331920361
  - # 7
    frequency:    5.9598463087
  - # 8
    frequency:    5.9902268581
  - # 9
    frequency:    8.1445616581
  - # 10
    frequency:   12.2277701250
  - # 11
    frequency:   15.0471136527
  - # 12
    frequency:   15.0764824869
  - # 13
    frequency:   26.5379066545
  - # 14
    frequency:   28.5275294896
  - # 15
    frequency:   28.5455178636

- q-position: [    0.0353535,    0.0000000,    0.0000000 ]
  distance:    0.0120762
  band:
  - # 1
    frequency:   -4.6891882859
  - # 2
    frequency:   -0.6640301432
  - # 3
    frequency:   -0.1046190064
  - # 4
    frequency:    1.0141139340
  - # 5
    frequency:    1.6423534198
  - # 6
    frequency:    1.7950682572
  - # 7
    frequency:    5.9703490103
  - # 8
    frequency:    6.0115319672
  - # 9
    frequency:    8.1419407732
  - # 10
    frequency:   12.2481192756
  - # 11
    frequency:   15.0422148382
  - # 12
    frequency:   15.0819097163
  - # 13
    frequency:   26.5391549056
  - # 14
    frequency:   28.5120612865
  - # 15
    frequency:   28.5363707218

- q-position: [    0.0404040,    0.0000000,    0.0000000 ]
  distance:    0.0138014
  band:
  - # 1
    frequency:   -4.7242755242
  - # 2
    frequency:   -0.7636402497
  - # 3
    frequency:   -0.1518465003
  - # 4
    frequency:    1.0079037913
  - # 5
    frequency:    1.6198278739
  - # 6
    frequency:    1.8915049456
  - # 7
    frequency:    5.9821595003
  - # 8
    frequency:    6.0356870776
  - # 9
    frequency:    8.1389422446
  - # 10
    frequency:   12.2708937984
  - # 11
    frequency:   15.0366141037
  - # 12
    frequency:   15.0880437250
  - # 13
    frequency:   26.5405912672
  - # 14
    frequency:   28.4944166425
  - # 15
    frequency:   28.5259053641

- q-position: [    0.0454545,    0.0000000,    0.0000000 ]
  distance:    0.0155266
  band:
  - # 1
    frequency:   -4.7601897453
  - # 2
    frequency:   -0.8646672111
  - # 3
    frequency:   -0.2166817075
  - # 4
    frequency:    0.9618674007
  - # 5
    frequency:    1.5964762894
  - # 6
    frequency:    2.0114901078
  - # 7
    frequency:    5.9951604203
  - # 8
    frequency:    6.0625160144
  - # 9
    frequency:    8.1355777193
  - # 10
    frequency:   12.2958255973
  - # 11
    frequency:   15.0303300424
  - # 12
    frequency:   15.0948298195
  - # 13
    frequency:   26.5422129840
  - # 14
    frequency:   28.4746811010
  - # 15
    frequency:   28.5141592612

- q-position: [    0.0505051,    0.0000000,    0.0000000 ]
  distance:    0.0172518
  band:
  - # 1
    frequency:   -4.7961117919
  - # 2
    frequency:   -0.9669846759
  - # 3
    frequency:   -0.3053434583
  - # 4
    frequency:    0.8921735001
  - # 5
    frequency:    1.5729869604
  - # 6
    frequency:    2.1434898355
  - # 7
    frequency:    6.0092273013
  - # 8
    frequency:    6.0918231974
  - # 9
    frequency:    8.1318607511
  - # 10
    frequency:   12.3226311967
  - # 11
    frequency:   15.0233814833
  - # 12
    frequency:   15.1022062305
  - # 13
    frequency:   26.5440162601
  - # 14
    frequency:   28.4529505542
  - # 15
    frequency:   28.5011744261

- q-position: [    0.0555556,    0.0000000,    0.0000000 ]
  distance:    0.0189769
  band:
  - # 1
    frequency:   -4.8313195027
  - # 2
    frequency:   -1.0703797705
  - # 3
    frequency:   -0.4228104674
  - # 4
    frequency:    0.8169670729
  - # 5
    frequency:    1.5500387103
  - # 6
    frequency:    2.2799177622
  - # 7
    frequency:    6.0242308515
  - # 8
    frequency:    6.1233948326
  - # 9
    frequency:    8.1278068561
  - # 10
    frequency:   12.3510175225
  - # 11
    frequency:   15.0157867816
  - # 12
    frequency:   15.1101042398
  - # 13
    frequency:   26.5459960433
  - # 14
    frequency:   28.4293308417
  - # 15
    frequency:   28.4869972475

- q-position: [    0.0606061,    0.0000000,    0.0000000 ]
  distance:    0.0207021
  band:
  - # 1
    frequency:   -4.8651869273
  - # 2
    frequency:   -1.1745668700
  - # 3
    frequency:   -0.5658773570
  - # 4
    frequency:    0.7558650015
  - # 5
    frequency:    1.5282737664
  - # 6
    frequency:    2.4164987610
  - # 7
    frequency:    6.0400391154
  - # 8
    frequency:    6.1570002143
  - # 9
    frequency:    8.1234335413
  - # 10
    frequency:   12.3806874981
  - # 11
    frequency:   15.0075631074
  - # 12
    frequency:   15.1184483447
  - # 13
    frequency:   26.5481458042
  - # 14
    frequency:   28.4039372996
  - # 15
    frequency:   28.4716783069

- q-position: [    0.0656566,    0.0000000,    0.0000000 ]
  distance:    0.0224273
  band:
  - # 1
    frequency:   -4.8971784446
  - # 2
    frequency:   -1.2792080543
  - # 3
    frequency:   -0.7205638143
  - # 4
    frequency:    0.7209405299
  - # 5
    frequency:    1.5082768061
  - # 6
    frequency:    2.5509209841
  - # 7
    frequency:    6.0565194523
  - # 8
    frequency:    6.1923931870
  - # 9
    frequency:    8.1187603007
  - # 10
    frequency:   12.4113452980
  - # 11
    frequency:   14.9987257611
  - # 12
    frequency:   15.1271564647
  - # 13
    frequency:   26.5504573182
  - # 14
    frequency:   28.3768942596
  - # 15
    frequency:   28.4552721780

- q-position: [    0.0707071,    0.0000000,    0.0000000 ]
  distance:    0.0241525
  band:
  - # 1
    frequency:   -4.9268402721
  - # 2
    frequency:   -1.3839364059
  - # 3
    frequency:   -0.8725294795
  - # 4
    frequency:    0.7113588560
  - # 5
    frequency:    1.4905621263
  - # 6
    frequency:    2.6819549241
  - # 7
    frequency:    6.0735402980
  - # 8
    frequency:    6.2293138133
  - # 9
    frequency:    8.1138085759
  - # 10
    frequency:   12.4427011347
  - # 11
    frequency:   14.9892875471
  - # 12
    frequency:   15.1361401942
  - # 13
    frequency:   26.5529204568
  - # 14
    frequency:   28.3483344953
  - # 15
    frequency:   28.4378372123

- q-position: [    0.0757576,    0.0000000,    0.0000000 ]
  distance:    0.0258776
  band:
  - # 1
    frequency:   -4.9537910275
  - # 2
    frequency:   -1.4883780915
  - # 3
    frequency:   -1.0146212041
  - # 4
    frequency:    0.7206152210
  - # 5
    frequency:    1.4755686990
  - # 6
    frequency:    2.8089726421
  - # 7
    frequency:    6.0909726899
  - # 8
    frequency:    6.2674902819
  - # 9
    frequency:    8.1086016764
  - # 10
    frequency:   12.4744754741
  - # 11
    frequency:   14.9792582404
  - # 12
    frequency:   15.1453051042
  - # 13
    frequency:   26.5555229974
  - # 14
    frequency:   28.3183986168
  - # 15
    frequency:   28.4194353080

- q-position: [    0.0808081,    0.0000000,    0.0000000 ]
  distance:    0.0276028
  band:
  - # 1
    frequency:   -4.9777123506
  - # 2
    frequency:   -1.5921701992
  - # 3
    frequency:   -1.1449396758
  - # 4
    frequency:    0.7428974859
  - # 5
    frequency:    1.4636611704
  - # 6
    frequency:    2.9316908915
  - # 7
    frequency:    6.1086915487
  - # 8
    frequency:    6.3066410731
  - # 9
    frequency:    8.1031646573
  - # 10
    frequency:   12.5064026086
  - # 11
    frequency:   14.9686441774
  - # 12
    frequency:   15.1545510964
  - # 13
    frequency:   26.5582504586
  - # 14
    frequency:   28.2872344115
  - # 15
    frequency:   28.4001316676

- q-position: [    0.0858586,    0.0000000,    0.0000000 ]
  distance:    0.0293280
  band:
  - # 1
    frequency:   -4.9983401413
  - # 2
    frequency:   -1.6949729185
  - # 3
    frequency:   -1.2636750851
  - # 4
    frequency:    0.7743139995
  - # 5
    frequency:    1.4551341823
  - # 6
    frequency:    3.0500302446
  - # 7
    frequency:    6.1265767223
  - # 8
    frequency:    6.3464773766
  - # 9
    frequency:    8.0975241497
  - # 10
    frequency:   12.5382335346
  - # 11
    frequency:   14.9574480073
  - # 12
    frequency:   15.1637728071
  - # 13
    frequency:   26.5610859715
  - # 14
    frequency:   28.2549961289
  - # 15
    frequency:   28.3799945411

- q-position: [    0.0909091,    0.0000000,    0.0000000 ]
  distance:    0.0310532
  band:
  - # 1
    frequency:   -5.0154566672
  - # 2
    frequency:   -1.7964761500
  - # 3
    frequency:   -1.3715909918
  - # 4
    frequency:    0.8123977883
  - # 5
    frequency:    1.4502176790
  - # 6
    frequency:    3.1640346775
  - # 7
    frequency:    6.1445138039
  - # 8
    frequency:    6.3867057359
  - # 9
    frequency:    8.0917081412
  - # 10
    frequency:   12.5697381092
  - # 11
    frequency:   14.9456686318
  - # 12
    frequency:   15.1728600644
  - # 13
    frequency:   26.5640101956
  - # 14
    frequency:   28.2218437091
  - # 15
    frequency:   28.3590949592

- q-position: [    0.0959596,    0.0000000,    0.0000000 ]
  distance:    0.0327783
  band:
  - # 1
    frequency:   -5.0288836196
  - # 2
    frequency:   -1.8964015747
  - # 3
    frequency:   -1.4695026879
  - # 4
    frequency:    0.8555516746
  - # 5
    frequency:    1.4490817044
  - # 6
    frequency:    3.2738236674
  - # 7
    frequency:    6.1623947438
  - # 8
    frequency:    6.4270308772
  - # 9
    frequency:    8.0857457010
  - # 10
    frequency:   12.6007064781
  - # 11
    frequency:   14.9333013596
  - # 12
    frequency:   15.1816983940
  - # 13
    frequency:   26.5670012899
  - # 14
    frequency:   28.1879419527
  - # 15
    frequency:   28.3375064562

- q-position: [    0.1010101,    0.0000000,    0.0000000 ]
  distance:    0.0345035
  band:
  - # 1
    frequency:   -5.0384761005
  - # 2
    frequency:   -1.9945015751
  - # 3
    frequency:   -1.5581312064
  - # 4
    frequency:    0.9026919442
  - # 5
    frequency:    1.4518401108
  - # 6
    frequency:    3.3795624684
  - # 7
    frequency:    6.1801182780
  - # 8
    frequency:    6.4671586687
  - # 9
    frequency:    8.0796666470
  - # 10
    frequency:   12.6309497862
  - # 11
    frequency:   14.9203382954
  - # 12
    frequency:   15.1901695712
  - # 13
    frequency:   26.5700349479
  - # 14
    frequency:   28.1534596294
  - # 15
    frequency:   28.3153047842

- q-position: [    0.1060606,    0.0000000,    0.0000000 ]
  distance:    0.0362287
  band:
  - # 1
    frequency:   -5.0441174730
  - # 2
    frequency:   -2.0905563217
  - # 3
    frequency:   -1.6380792259
  - # 4
    frequency:    0.9530421386
  - # 5
    frequency:    1.4585533034
  - # 6
    frequency:    3.4814429676
  - # 7
    frequency:    6.1975901968
  - # 8
    frequency:    6.5067991499
  - # 9
    frequency:    8.0735011483
  - # 10
    frequency:   12.6603001993
  - # 11
    frequency:   14.9067689726
  - # 12
    frequency:   15.1981522160
  - # 13
    frequency:   26.5730845085
  - # 14
    frequency:   28.1185685244
  - # 15
    frequency:   28.2925676196

- q-position: [    0.1111111,    0.0000000,    0.0000000 ]
  distance:    0.0379539
  band:
  - # 1
    frequency:   -5.0457149972
  - # 2
    frequency:   -2.1843700553
  - # 3
    frequency:   -1.7098418304
  - # 4
    frequency:    1.0060150189
  - # 5
    frequency:    1.4692305213
  - # 6
    frequency:    3.5796709541
  - # 7
    frequency:    6.2147234781
  - # 8
    frequency:    6.5456695713
  - # 9
    frequency:    8.0672792623
  - # 10
    frequency:   12.6886102809
  - # 11
    frequency:   14.8925812317
  - # 12
    frequency:   15.2055224255
  - # 13
    frequency:   26.5761211504
  - # 14
    frequency:   28.0834424204
  - # 15
    frequency:   28.2693742644

- q-position: [    0.1161616,    0.0000000,    0.0000000 ]
  distance:    0.0396790
  band:
  - # 1
    frequency:   -5.0431961720
  - # 2
    frequency:   -2.2757672677
  - # 3
    frequency:   -1.7738241309
  - # 4
    frequency:    1.0611439036
  - # 5
    frequency:    1.4838322350
  - # 6
    frequency:    3.6744574287
  - # 7
    frequency:    6.2314383100
  - # 8
    frequency:    6.5834973919
  - # 9
    frequency:    8.0610304013
  - # 10
    frequency:   12.7157517807
  - # 11
    frequency:   14.8777623336
  - # 12
    frequency:   15.2121544364
  - # 13
    frequency:   26.5791141803
  - # 14
    frequency:   28.0482560130
  - # 15
    frequency:   28.2458053430

- q-position: [    0.1212121,    0.0000000,    0.0000000 ]
  distance:    0.0414042
  band:
  - # 1
    frequency:   -5.0365057176
  - # 2
    frequency:   -2.3645891927
  - # 3
    frequency:   -1.8303574275
  - # 4
    frequency:    1.1180418414
  - # 5
    frequency:    1.5022731264
  - # 6
    frequency:    3.7660125661
  - # 7
    frequency:    6.2476620229
  - # 8
    frequency:    6.6200231846
  - # 9
    frequency:    8.0547827324
  - # 10
    frequency:   12.7416139055
  - # 11
    frequency:   14.8623002867
  - # 12
    frequency:   15.2179213138
  - # 13
    frequency:   26.5820314213
  - # 14
    frequency:   28.0131837617
  - # 15
    frequency:   28.2219424951

- q-position: [    0.1262626,    0.0000000,    0.0000000 ]
  distance:    0.0431294
  band:
  - # 1
    frequency:   -5.0256031472
  - # 2
    frequency:   -2.4506908115
  - # 3
    frequency:   -1.8797119837
  - # 4
    frequency:    1.1763768679
  - # 5
    frequency:    1.5244258981
  - # 6
    frequency:    3.8545414807
  - # 7
    frequency:    6.2633289523
  - # 8
    frequency:    6.6550034147
  - # 9
    frequency:    8.0485625129
  - # 10
    frequency:   12.7661011518
  - # 11
    frequency:   14.8461853563
  - # 12
    frequency:   15.2226956559
  - # 13
    frequency:   26.5848397054
  - # 14
    frequency:   27.9783986753
  - # 15
    frequency:   28.1978680685

- q-position: [    0.1313131,    0.0000000,    0.0000000 ]
  distance:    0.0448546
  band:
  - # 1
    frequency:   -5.0104608953
  - # 2
    frequency:   -2.5339384333
  - # 3
    frequency:   -1.9221064376
  - # 4
    frequency:    1.2358568483
  - # 5
    frequency:    1.5501259362
  - # 6
    frequency:    3.9402412669
  - # 7
    frequency:    6.2783802494
  - # 8
    frequency:    6.6882130585
  - # 9
    frequency:    8.0423933743
  - # 10
    frequency:   12.7891307904
  - # 11
    frequency:   14.8294117129
  - # 12
    frequency:   15.2263503098
  - # 13
    frequency:   26.5875054730
  - # 14
    frequency:   27.9440710403
  - # 15
    frequency:   28.1736648109

- q-position: [    0.1363636,    0.0000000,    0.0000000 ]
  distance:    0.0465797
  band:
  - # 1
    frequency:   -4.9910629861
  - # 2
    frequency:   -2.6142078348
  - # 3
    frequency:   -1.9577143612
  - # 4
    frequency:    1.2962202242
  - # 5
    frequency:    1.5791766628
  - # 6
    frequency:    4.0232989619
  - # 7
    frequency:    6.2927636542
  - # 8
    frequency:    6.7194480377
  - # 9
    frequency:    8.0362955704
  - # 10
    frequency:   12.8106300981
  - # 11
    frequency:   14.8119791694
  - # 12
    frequency:   15.2287590893
  - # 13
    frequency:   26.5899954732
  - # 14
    frequency:   27.9103670977
  - # 15
    frequency:   28.1494155634

- q-position: [    0.1414141,    0.0000000,    0.0000000 ]
  distance:    0.0483049
  band:
  - # 1
    frequency:   -4.9674042431
  - # 2
    frequency:   -2.6913828962
  - # 3
    frequency:   -1.9866684956
  - # 4
    frequency:    1.3572305166
  - # 5
    frequency:    1.6113553038
  - # 6
    frequency:    4.1038901950
  - # 7
    frequency:    6.3064332449
  - # 8
    frequency:    6.7485274460
  - # 9
    frequency:    8.0302852194
  - # 10
    frequency:   12.8305334387
  - # 11
    frequency:   14.7938949474
  - # 12
    frequency:   15.2297974888
  - # 13
    frequency:   26.5922775543
  - # 14
    frequency:   27.8774476880
  - # 15
    frequency:   28.1252029569

- q-position: [    0.1464646,    0.0000000,    0.0000000 ]
  distance:    0.0500301
  band:
  - # 1
    frequency:   -4.9394900568
  - # 2
    frequency:   -2.7653546568
  - # 3
    frequency:   -2.0090630706
  - # 4
    frequency:    1.4186733063
  - # 5
    frequency:    1.6464187564
  - # 6
    frequency:    4.1821783524
  - # 7
    frequency:    6.3193491730
  - # 8
    frequency:    6.7752955418
  - # 9
    frequency:    8.0243735736
  - # 10
    frequency:   12.8487792966
  - # 11
    frequency:   14.7751754072
  - # 12
    frequency:   15.2293433839
  - # 13
    frequency:   26.5943215253
  - # 14
    frequency:   27.8454668835
  - # 15
    frequency:   28.1011091126

- q-position: [    0.1515152,    0.0000000,    0.0000000 ]
  distance:    0.0517553
  band:
  - # 1
    frequency:   -4.9073367443
  - # 2
    frequency:   -2.8360207122
  - # 3
    frequency:   -2.0249544727
  - # 4
    frequency:    1.4803549059
  - # 5
    frequency:    1.6841092589
  - # 6
    frequency:    4.2583141299
  - # 7
    frequency:    6.3314773932
  - # 8
    frequency:    6.7996234812
  - # 9
    frequency:    8.0185663619
  - # 10
    frequency:   12.8653073713
  - # 11
    frequency:   14.7558476720
  - # 12
    frequency:   15.2272777152
  - # 13
    frequency:   26.5961000577
  - # 14
    frequency:   27.8145706427
  - # 15
    frequency:   28.0772153477

- q-position: [    0.1565657,    0.0000000,    0.0000000 ]
  distance:    0.0534804
  band:
  - # 1
    frequency:   -4.8709725483
  - # 2
    frequency:   -2.9032848782
  - # 3
    frequency:   -2.0343603891
  - # 4
    frequency:    1.5421022379
  - # 5
    frequency:    1.7241596260
  - # 6
    frequency:    4.3324353781
  - # 7
    frequency:    6.3427893959
  - # 8
    frequency:    6.8214107584
  - # 9
    frequency:    8.0128632553
  - # 10
    frequency:   12.8800558379
  - # 11
    frequency:   14.7359510703
  - # 12
    frequency:   15.2234851460
  - # 13
    frequency:   26.5975895871
  - # 14
    frequency:   27.7848955289
  - # 15
    frequency:   28.0536018880

- q-position: [    0.1616162,    0.0000000,    0.0000000 ]
  distance:    0.0552056
  band:
  - # 1
    frequency:   -4.8304393386
  - # 2
    frequency:   -2.9670570588
  - # 3
    frequency:   -2.0372574251
  - # 4
    frequency:    1.6037636135
  - # 5
    frequency:    1.7662978879
  - # 6
    frequency:    4.4046671624
  - # 7
    frequency:    6.3532619455
  - # 8
    frequency:    6.8405863206
  - # 9
    frequency:    8.0072575073
  - # 10
    frequency:   12.8929588845
  - # 11
    frequency:   14.7155383160
  - # 12
    frequency:   15.2178546908
  - # 13
    frequency:   26.5987711622
  - # 14
    frequency:   27.7565675451
  - # 15
    frequency:   28.0303475876

- q-position: [    0.1666667,    0.0000000,    0.0000000 ]
  distance:    0.0569308
  band:
  - # 1
    frequency:   -4.7857950922
  - # 2
    frequency:   -3.0272532633
  - # 3
    frequency:   -2.0335770597
  - # 4
    frequency:    1.6652102243
  - # 5
    frequency:    1.8102512492
  - # 6
    frequency:    4.4751219789
  - # 7
    frequency:    6.3628768304
  - # 8
    frequency:    6.8571093271
  - # 9
    frequency:    8.0017358160
  - # 10
    frequency:   12.9039446325
  - # 11
    frequency:   14.6946763457
  - # 12
    frequency:   15.2102803086
  - # 13
    frequency:   26.5996311780
  - # 14
    frequency:   27.7297011472
  - # 15
    frequency:   28.0075296576

- q-position: [    0.1717172,    0.0000000,    0.0000000 ]
  distance:    0.0586560
  band:
  - # 1
    frequency:   -4.7371172365
  - # 2
    frequency:   -3.0837957307
  - # 3
    frequency:   -2.0231996652
  - # 4
    frequency:    1.7263382306
  - # 5
    frequency:    1.8557493479
  - # 6
    frequency:    4.5439000770
  - # 7
    frequency:    6.3716206261
  - # 8
    frequency:    6.8709695281
  - # 9
    frequency:    7.9962784450
  - # 10
    frequency:   12.9129335486
  - # 11
    frequency:   14.6734467234
  - # 12
    frequency:   15.2006614575
  - # 13
    frequency:   26.6001619249
  - # 14
    frequency:   27.7043985040
  - # 15
    frequency:   27.9852234036

- q-position: [    0.1767677,    0.0000000,    0.0000000 ]
  distance:    0.0603811
  band:
  - # 1
    frequency:   -4.6845069463
  - # 2
    frequency:   -3.1366131232
  - # 3
    frequency:   -2.0059461435
  - # 4
    frequency:    1.7870713836
  - # 5
    frequency:    1.9025268488
  - # 6
    frequency:    4.6110898534
  - # 7
    frequency:    6.3794844743
  - # 8
    frequency:    6.8821872497
  - # 9
    frequency:    7.9908596205
  - # 10
    frequency:   12.9198374552
  - # 11
    frequency:   14.6519455257
  - # 12
    frequency:   15.1889036068
  - # 13
    frequency:   26.6003618820
  - # 14
    frequency:   27.6807490724
  - # 15
    frequency:   27.9635019735

- q-position: [    0.1818182,    0.0000000,    0.0000000 ]
  distance:    0.0621063
  band:
  - # 1
    frequency:   -4.6280944763
  - # 2
    frequency:   -3.1856407642
  - # 3
    frequency:   -1.9815665047
  - # 4
    frequency:    1.8473641458
  - # 5
    frequency:    1.9503254333
  - # 6
    frequency:    4.6767682901
  - # 7
    frequency:    6.3864638779
  - # 8
    frequency:    6.8908129925
  - # 9
    frequency:    7.9854482012
  - # 10
    frequency:   12.9245592370
  - # 11
    frequency:   14.6302826204
  - # 12
    frequency:   15.1749187052
  - # 13
    frequency:   26.6002356876
  - # 14
    frequency:   27.6588295492
  - # 15
    frequency:   27.9424361148

- q-position: [    0.1868687,    0.0000000,    0.0000000 ]
  distance:    0.0638315
  band:
  - # 1
    frequency:   -4.5680455874
  - # 2
    frequency:   -3.2308208981
  - # 3
    frequency:   -1.9497243852
  - # 4
    frequency:    1.9072052919
  - # 5
    frequency:    1.9988952708
  - # 6
    frequency:    4.7410014142
  - # 7
    frequency:    6.3925585130
  - # 8
    frequency:    6.8969266604
  - # 9
    frequency:    7.9800085919
  - # 10
    frequency:   12.9269933363
  - # 11
    frequency:   14.6085802586
  - # 12
    frequency:   15.1586256029
  - # 13
    frequency:   26.5997937365
  - # 14
    frequency:   27.6387042504
  - # 15
    frequency:   27.9220939440

- q-position: [    0.1919192,    0.0000000,    0.0000000 ]
  distance:    0.0655567
  band:
  - # 1
    frequency:   -4.5045690728
  - # 2
    frequency:   -3.2721029564
  - # 3
    frequency:   -1.9099759951
  - # 4
    frequency:    1.9666219744
  - # 5
    frequency:    2.0479960577
  - # 6
    frequency:    4.8038447701
  - # 7
    frequency:    6.3977720572
  - # 8
    frequency:    6.9006364607
  - # 9
    frequency:    7.9745018483
  - # 10
    frequency:   12.9270271023
  - # 11
    frequency:   14.5869709199
  - # 12
    frequency:   15.1399504268
  - # 13
    frequency:   26.5990513709
  - # 14
    frequency:   27.6204259419
  - # 15
    frequency:   27.9025407254

- q-position: [    0.1969697,    0.0000000,    0.0000000 ]
  distance:    0.0672818
  band:
  - # 1
    frequency:   -4.4379252930
  - # 2
    frequency:   -3.3094438184
  - # 3
    frequency:   -1.8617411344
  - # 4
    frequency:    2.0256842253
  - # 5
    frequency:    2.0973977147
  - # 6
    frequency:    4.8653438949
  - # 7
    frequency:    6.4021120344
  - # 8
    frequency:    6.9020775173
  - # 9
    frequency:    7.9688869063
  - # 10
    frequency:   12.9245430304
  - # 11
    frequency:   14.5655943787
  - # 12
    frequency:   15.1188269086
  - # 13
    frequency:   26.5980276660
  - # 14
    frequency:   27.6040371174
  - # 15
    frequency:   27.8838386613

- q-position: [    0.2020202,    0.0000000,    0.0000000 ]
  distance:    0.0690070
  band:
  - # 1
    frequency:   -4.3684354776
  - # 2
    frequency:   -3.3428080587
  - # 3
    frequency:   -1.8042624193
  - # 4
    frequency:    2.0845098263
  - # 5
    frequency:    2.1468808174
  - # 6
    frequency:    4.9255347949
  - # 7
    frequency:    6.4055896730
  - # 8
    frequency:    6.9014102476
  - # 9
    frequency:    7.9631218570
  - # 10
    frequency:   12.9194218774
  - # 11
    frequency:   14.5445940082
  - # 12
    frequency:   15.0951966668
  - # 13
    frequency:   26.5967438420
  - # 14
    frequency:   27.5895716847
  - # 15
    frequency:   27.8660466938

- q-position: [    0.2070707,    0.0000000,    0.0000000 ]
  distance:    0.0707322
  band:
  - # 1
    frequency:   -4.2964913199
  - # 2
    frequency:   -3.3721681755
  - # 3
    frequency:   -1.7365460190
  - # 4
    frequency:    2.1432694184
  - # 5
    frequency:    2.1962368336
  - # 6
    frequency:    4.9844444270
  - # 7
    frequency:    6.4082197774
  - # 8
    frequency:    6.8988185431
  - # 9
    frequency:    7.9571651908
  - # 10
    frequency:   12.9115465694
  - # 11
    frequency:   14.5241124017
  - # 12
    frequency:   15.0690094433
  - # 13
    frequency:   26.5952213747
  - # 14
    frequency:   27.5770569834
  - # 15
    frequency:   27.8492203155

- q-position: [    0.2121212,    0.0000000,    0.0000000 ]
  distance:    0.0724574
  band:
  - # 1
    frequency:   -4.2225640786
  - # 2