nqpoint: 300    
npath: 3      
segment_nqpoint:
- 100
- 100
- 100
labels:
- [ 'G', 'M' ]
- [ 'M', 'K' ]
- [ 'K', 'G' ]
reciprocal_lattice:
- [   0.32163740,   0.18569744,   0.00000000 ] # a*
- [   0.00000000,   0.37139488,   0.00000000 ] # b*
- [   0.00000000,   0.00000000,   0.04351103 ] # c*
natom: 5      
lattice:
- [     3.109091172999338,     0.000000000000000,     0.000000000000000 ] # a
- [    -1.554545586499669,     2.692551938496162,     0.000000000000000 ] # b
- [     0.000000000000000,     0.000000000000000,    22.982677350818953 ] # c
points:
- symbol: Cl # 1
  coordinates: [  0.666666984744048,  0.333332985985145,  0.391599284218264 ]
  mass: 35.453000
- symbol: N # 2
  coordinates: [  0.000000000000000,  0.000000000000000,  0.514522201194834 ]
  mass: 14.006700
- symbol: O # 3
  coordinates: [  0.333332985432215,  0.666666983183674,  0.608400715781736 ]
  mass: 15.999400
- symbol: Ti # 4
  coordinates: [  0.333332985432215,  0.666666983183674,  0.466011513547925 ]
  mass: 47.867000
- symbol: Ti # 5
  coordinates: [  0.666666984744048,  0.333332985985145,  0.568899146222267 ]
  mass: 47.867000

phonon:
- q-position: [    0.0000000,    0.0000000,    0.0000000 ]
  distance:    0.0000000
  band:
  - # 1
    frequency:   -0.0000150536
  - # 2
    frequency:    0.0000000132
  - # 3
    frequency:    0.0000088206
  - # 4
    frequency:    2.4210857334
  - # 5
    frequency:    2.4210857334
  - # 6
    frequency:    5.4151416567
  - # 7
    frequency:    5.4151416567
  - # 8
    frequency:    6.9611268953
  - # 9
    frequency:    8.7924869344
  - # 10
    frequency:    8.7924869344
  - # 11
    frequency:   11.5140884558
  - # 12
    frequency:   14.9940194671
  - # 13
    frequency:   15.2618338706
  - # 14
    frequency:   15.2618338706
  - # 15
    frequency:   16.3807467835

- q-position: [    0.0050505,    0.0000000,    0.0000000 ]
  distance:    0.0018757
  band:
  - # 1
    frequency:    0.0027955742
  - # 2
    frequency:    0.0842627540
  - # 3
    frequency:    0.1215718411
  - # 4
    frequency:    2.4224150501
  - # 5
    frequency:    2.4260096118
  - # 6
    frequency:    5.4155230440
  - # 7
    frequency:    5.4158228272
  - # 8
    frequency:    6.9622835781
  - # 9
    frequency:    8.7910373393
  - # 10
    frequency:    8.7923772274
  - # 11
    frequency:   11.5142310366
  - # 12
    frequency:   14.9943128502
  - # 13
    frequency:   15.2607398302
  - # 14
    frequency:   15.2613025685
  - # 15
    frequency:   16.3800538101

- q-position: [    0.0101010,    0.0000000,    0.0000000 ]
  distance:    0.0037515
  band:
  - # 1
    frequency:    0.0111490637
  - # 2
    frequency:    0.1685067304
  - # 3
    frequency:    0.2432419403
  - # 4
    frequency:    2.4263895970
  - # 5
    frequency:    2.4406944596
  - # 6
    frequency:    5.4166675215
  - # 7
    frequency:    5.4178549126
  - # 8
    frequency:    6.9657547166
  - # 9
    frequency:    8.7867033358
  - # 10
    frequency:    8.7920499736
  - # 11
    frequency:   11.5146412400
  - # 12
    frequency:   14.9951747055
  - # 13
    frequency:   15.2574621242
  - # 14
    frequency:   15.2597283959
  - # 15
    frequency:   16.3779766708

- q-position: [    0.0151515,    0.0000000,    0.0000000 ]
  distance:    0.0056272
  band:
  - # 1
    frequency:    0.0249634483
  - # 2
    frequency:    0.2527133491
  - # 3
    frequency:    0.3651038936
  - # 4
    frequency:    2.4329694445
  - # 5
    frequency:    2.4648863992
  - # 6
    frequency:    5.4185760323
  - # 7
    frequency:    5.4212040952
  - # 8
    frequency:    6.9715433658
  - # 9
    frequency:    8.7795287804
  - # 10
    frequency:    8.7915107648
  - # 11
    frequency:   11.5152671443
  - # 12
    frequency:   14.9965479830
  - # 13
    frequency:   15.2520139804
  - # 14
    frequency:   15.2571724726
  - # 15
    frequency:   16.3745207798

- q-position: [    0.0202020,    0.0000000,    0.0000000 ]
  distance:    0.0075029
  band:
  - # 1
    frequency:    0.0440868242
  - # 2
    frequency:    0.3368644145
  - # 3
    frequency:    0.4872422991
  - # 4
    frequency:    2.4420889679
  - # 5
    frequency:    2.4981827558
  - # 6
    frequency:    5.4212501355
  - # 7
    frequency:    5.4258155315
  - # 8
    frequency:    6.9796539066
  - # 9
    frequency:    8.7695851799
  - # 10
    frequency:    8.7907688886
  - # 11
    frequency:   11.5160244843
  - # 12
    frequency:   14.9983302897
  - # 13
    frequency:   15.2444173883
  - # 14
    frequency:   15.2537431554
  - # 15
    frequency:   16.3696953975

- q-position: [    0.0252525,    0.0000000,    0.0000000 ]
  distance:    0.0093787
  band:
  - # 1
    frequency:    0.0683247107
  - # 2
    frequency:    0.4209422838
  - # 3
    frequency:    0.6097290048
  - # 4
    frequency:    2.4536581890
  - # 5
    frequency:    2.5400590375
  - # 6
    frequency:    5.4246919861
  - # 7
    frequency:    5.4316155696
  - # 8
    frequency:    6.9900910021
  - # 9
    frequency:    8.7569694420
  - # 10
    frequency:    8.7898372806
  - # 11
    frequency:   11.5167999046
  - # 12
    frequency:   15.0003627546
  - # 13
    frequency:   15.2347030141
  - # 14
    frequency:   15.2496059705
  - # 15
    frequency:   16.3635139884

- q-position: [    0.0303030,    0.0000000,    0.0000000 ]
  distance:    0.0112544
  band:
  - # 1
    frequency:    0.0974537018
  - # 2
    frequency:    0.5049300072
  - # 3
    frequency:    0.7326201195
  - # 4
    frequency:    2.4675645713
  - # 5
    frequency:    2.5899004502
  - # 6
    frequency:    5.4289043085
  - # 7
    frequency:    5.4385147348
  - # 8
    frequency:    7.0028581835
  - # 9
    frequency:    8.7418009753
  - # 10
    frequency:    8.7887324568
  - # 11
    frequency:   11.5174552272
  - # 12
    frequency:   15.0024146063
  - # 13
    frequency:   15.2229100817
  - # 14
    frequency:   15.2449974062
  - # 15
    frequency:   16.3559947260

- q-position: [    0.0353535,    0.0000000,    0.0000000 ]
  distance:    0.0131301
  band:
  - # 1
    frequency:    0.1312342571
  - # 2
    frequency:    0.5888114332
  - # 3
    frequency:    0.8559538480
  - # 4
    frequency:    2.4836751935
  - # 5
    frequency:    2.6470338309
  - # 6
    frequency:    5.4338903602
  - # 7
    frequency:    5.4464113679
  - # 8
    frequency:    7.0179561128
  - # 9
    frequency:    8.7242183535
  - # 10
    frequency:    8.7874744266
  - # 11
    frequency:   11.5178324789
  - # 12
    frequency:   15.0041651323
  - # 13
    frequency:   15.2090862207
  - # 14
    frequency:   15.2402409474
  - # 15
    frequency:   16.3471611482

- q-position: [    0.0404040,    0.0000000,    0.0000000 ]
  distance:    0.0150059
  band:
  - # 1
    frequency:    0.1694211792
  - # 2
    frequency:    0.6725712732
  - # 3
    frequency:    0.9797491108
  - # 4
    frequency:    2.5018392148
  - # 5
    frequency:    2.7107567344
  - # 6
    frequency:    5.4396538891
  - # 7
    frequency:    5.4551957754
  - # 8
    frequency:    7.0353805856
  - # 9
    frequency:    8.7043757768
  - # 10
    frequency:    8.7860865861
  - # 11
    frequency:   11.5177594024
  - # 12
    frequency:   15.0051879588
  - # 13
    frequency:   15.1932872811
  - # 14
    frequency:   15.2357604776
  - # 15
    frequency:   16.3370429694

- q-position: [    0.0454545,    0.0000000,    0.0000000 ]
  distance:    0.0168816
  band:
  - # 1
    frequency:    0.2117711613
  - # 2
    frequency:    0.7561951228
  - # 3
    frequency:    1.1040048287
  - # 4
    frequency:    2.5218905419
  - # 5
    frequency:    2.7803616405
  - # 6
    frequency:    5.4461990814
  - # 7
    frequency:    5.4647547358
  - # 8
    frequency:    7.0551203479
  - # 9
    frequency:    8.6824395673
  - # 10
    frequency:    8.7845955921
  - # 11
    frequency:   11.5170551660
  - # 12
    frequency:   15.0049481772
  - # 13
    frequency:   15.1755771167
  - # 14
    frequency:   15.2320805936
  - # 15
    frequency:   16.3256770564

- q-position: [    0.0505051,    0.0000000,    0.0000000 ]
  distance:    0.0187573
  band:
  - # 1
    frequency:    0.2580474890
  - # 2
    frequency:    0.8396694362
  - # 3
    frequency:    1.2286997090
  - # 4
    frequency:    2.5436506100
  - # 5
    frequency:    2.8551544335
  - # 6
    frequency:    5.4535305025
  - # 7
    frequency:    5.4749761881
  - # 8
    frequency:    7.0771548099
  - # 9
    frequency:    8.6585849143
  - # 10
    frequency:    8.7830312163
  - # 11
    frequency:   11.5155360070
  - # 12
    frequency:   15.0028284974
  - # 13
    frequency:   15.1560273353
  - # 14
    frequency:   15.2297977313
  - # 15
    frequency:   16.3131085745

- q-position: [    0.0555556,    0.0000000,    0.0000000 ]
  distance:    0.0206330
  band:
  - # 1
    frequency:    0.3080223996
  - # 2
    frequency:    0.9229814537
  - # 3
    frequency:    1.3537923588
  - # 4
    frequency:    2.5669311931
  - # 5
    frequency:    2.9344672207
  - # 6
    frequency:    5.4616530285
  - # 7
    frequency:    5.4857539365
  - # 8
    frequency:    7.1014517430
  - # 9
    frequency:    8.6329930641
  - # 10
    frequency:    8.7814261809
  - # 11
    frequency:   11.5130205729
  - # 12
    frequency:   14.9981980893
  - # 13
    frequency:   15.1347170196
  - # 14
    frequency:   15.2295085194
  - # 15
    frequency:   16.2993923170

- q-position: [    0.0606061,    0.0000000,    0.0000000 ]
  distance:    0.0225088
  band:
  - # 1
    frequency:    0.3614777617
  - # 2
    frequency:    1.0061190837
  - # 3
    frequency:    1.4792215663
  - # 4
    frequency:    2.5915371734
  - # 5
    frequency:    3.0176661113
  - # 6
    frequency:    5.4705717713
  - # 7
    frequency:    5.4969922093
  - # 8
    frequency:    7.1279650342
  - # 9
    frequency:    8.6058491191
  - # 10
    frequency:    8.7798159761
  - # 11
    frequency:   11.5093347684
  - # 12
    frequency:   14.9905163768
  - # 13
    frequency:   15.1117324173
  - # 14
    frequency:   15.2317031704
  - # 15
    frequency:   16.2845942291

- q-position: [    0.0656566,    0.0000000,    0.0000000 ]
  distance:    0.0243845
  band:
  - # 1
    frequency:    0.4182047041
  - # 2
    frequency:    1.0890707402
  - # 3
    frequency:    1.6049066232
  - # 4
    frequency:    2.6172692078
  - # 5
    frequency:    3.1041548195
  - # 6
    frequency:    5.4802919950
  - # 7
    frequency:    5.5086099359
  - # 8
    frequency:    7.1566325540
  - # 9
    frequency:    8.5773405846
  - # 10
    frequency:    8.7782386605
  - # 11
    frequency:   11.5043159609
  - # 12
    frequency:   14.9794301733
  - # 13
    frequency:   15.0871666020
  - # 14
    frequency:   15.2366655842
  - # 15
    frequency:   16.2687931431

- q-position: [    0.0707071,    0.0000000,    0.0000000 ]
  distance:    0.0262602
  band:
  - # 1
    frequency:    0.4780026951
  - # 2
    frequency:    1.1718251376
  - # 3
    frequency:    1.7307476024
  - # 4
    frequency:    2.6439262449
  - # 5
    frequency:    3.1933749814
  - # 6
    frequency:    5.4908190254
  - # 7
    frequency:    5.5205446435
  - # 8
    frequency:    7.1873741558
  - # 9
    frequency:    8.5476567870
  - # 10
    frequency:    8.7767346468
  - # 11
    frequency:   11.4978164476
  - # 12
    frequency:   14.9648122185
  - # 13
    frequency:   15.0611191071
  - # 14
    frequency:   15.2444321529
  - # 15
    frequency:   16.2520827441

- q-position: [    0.0757576,    0.0000000,    0.0000000 ]
  distance:    0.0281360
  band:
  - # 1
    frequency:    0.5406784193
  - # 2
    frequency:    1.2543710454
  - # 3
    frequency:    1.8566255451
  - # 4
    frequency:    2.6713078593
  - # 5
    frequency:    3.2848039647
  - # 6
    frequency:    5.5021581532
  - # 7
    frequency:    5.5327559152
  - # 8
    frequency:    7.2200897731
  - # 9
    frequency:    8.5169892854
  - # 10
    frequency:    8.7753464727
  - # 11
    frequency:   11.4897061338
  - # 12
    frequency:   14.9467260731
  - # 13
    frequency:   15.0336955314
  - # 14
    frequency:   15.2548243397
  - # 15
    frequency:   16.2345737859

- q-position: [    0.0808081,    0.0000000,    0.0000000 ]
  distance:    0.0300117
  band:
  - # 1
    frequency:    0.6060446597
  - # 2
    frequency:    1.3366970032
  - # 3
    frequency:    1.9824025483
  - # 4
    frequency:    2.6992163823
  - # 5
    frequency:    3.3779507862
  - # 6
    frequency:    5.5143145315
  - # 7
    frequency:    5.5452284102
  - # 8
    frequency:    7.2546575057
  - # 9
    frequency:    8.4855334154
  - # 10
    frequency:    8.7741185622
  - # 11
    frequency:   11.4798744119
  - # 12
    frequency:   14.9253504273
  - # 13
    frequency:   15.0050071212
  - # 14
    frequency:   15.2675219908
  - # 15
    frequency:   16.2163965756

- q-position: [    0.0858586,    0.0000000,    0.0000000 ]
  distance:    0.0318874
  band:
  - # 1
    frequency:    0.6739192863
  - # 2
    frequency:    1.4187909972
  - # 3
    frequency:    2.1079217770
  - # 4
    frequency:    2.7274588199
  - # 5
    frequency:    3.4723505698
  - # 6
    frequency:    5.5272930679
  - # 7
    frequency:    5.5579744987
  - # 8
    frequency:    7.2909314956
  - # 9
    frequency:    8.4534911480
  - # 10
    frequency:    8.7730969771
  - # 11
    frequency:   11.4682312728
  - # 12
    frequency:   14.9009067829
  - # 13
    frequency:   14.9751703264
  - # 14
    frequency:   15.2821334222
  - # 15
    frequency:   16.1977037364

- q-position: [    0.0909091,    0.0000000,    0.0000000 ]
  distance:    0.0337632
  band:
  - # 1
    frequency:    0.7441243803
  - # 2
    frequency:    1.5006400942
  - # 3
    frequency:    2.2330074476
  - # 4
    frequency:    2.7558485607
  - # 5
    frequency:    3.5675578132
  - # 6
    frequency:    5.5410983136
  - # 7
    frequency:    5.5710366232
  - # 8
    frequency:    7.3287392609
  - # 9
    frequency:    8.4210755295
  - # 10
    frequency:    8.7723291629
  - # 11
    frequency:   11.4547077056
  - # 12
    frequency:   14.8736126253
  - # 13
    frequency:   14.9443063358
  - # 14
    frequency:   15.2982401730
  - # 15
    frequency:   16.1786732260

- q-position: [    0.0959596,    0.0000000,    0.0000000 ]
  distance:    0.0356389
  band:
  - # 1
    frequency:    0.8164854806
  - # 2
    frequency:    1.5822300302
  - # 3
    frequency:    2.3574648501
  - # 4
    frequency:    2.7842068847
  - # 5
    frequency:    3.6631385917
  - # 6
    frequency:    5.5557343498
  - # 7
    frequency:    5.5844895411
  - # 8
    frequency:    7.3678779934
  - # 9
    frequency:    8.3885170999
  - # 10
    frequency:    8.7718636916
  - # 11
    frequency:   11.4392554726
  - # 12
    frequency:   14.8436598840
  - # 13
    frequency:   14.9125405907
  - # 14
    frequency:   15.3154166819
  - # 15
    frequency:   16.1595115329

- q-position: [    0.1010101,    0.0000000,    0.0000000 ]
  distance:    0.0375146
  band:
  - # 1
    frequency:    0.8908309140
  - # 2
    frequency:    1.6635447423
  - # 3
    frequency:    2.4810804915
  - # 4
    frequency:    2.8123642943
  - # 5
    frequency:    3.7586617202
  - # 6
    frequency:    5.5712046736
  - # 7
    frequency:    5.5984426427
  - # 8
    frequency:    7.4081090839
  - # 9
    frequency:    8.3560728936
  - # 10
    frequency:    8.7717500041
  - # 11
    frequency:   11.4218463579
  - # 12
    frequency:   14.8112098295
  - # 13
    frequency:   14.8800022801
  - # 14
    frequency:   15.3332338886
  - # 15
    frequency:   16.1404568494

- q-position: [    0.1060606,    0.0000000,    0.0000000 ]
  distance:    0.0393904
  band:
  - # 1
    frequency:    0.9669911626
  - # 2
    frequency:    1.7445658298
  - # 3
    frequency:    2.6036224501
  - # 4
    frequency:    2.8401616994
  - # 5
    frequency:    3.8536888394
  - # 6
    frequency:    5.5875120841
  - # 7
    frequency:    5.6130425391
  - # 8
    frequency:    7.4491498153
  - # 9
    frequency:    8.3240389381
  - # 10
    frequency:    8.7720381536
  - # 11
    frequency:   11.4024710009
  - # 12
    frequency:   14.7763961952
  - # 13
    frequency:   14.8468238194
  - # 14
    frequency:   15.3512553273
  - # 15
    frequency:   16.1217818139

- q-position: [    0.1111111,    0.0000000,    0.0000000 ]
  distance:    0.0412661
  band:
  - # 1
    frequency:    1.0447982174
  - # 2
    frequency:    1.8252719195
  - # 3
    frequency:    2.7248410383
  - # 4
    frequency:    2.8674514983
  - # 5
    frequency:    3.9477633893
  - # 6
    frequency:    5.6046585707
  - # 7
    frequency:    5.6284760869
  - # 8
    frequency:    7.4906607097
  - # 9
    frequency:    8.2927675989
  - # 10
    frequency:    8.7727785534
  - # 11
    frequency:   11.3811374285
  - # 12
    frequency:   14.7393314577
  - # 13
    frequency:   14.8131403140
  - # 14
    frequency:   15.3690314633
  - # 15
    frequency:   16.1037950701

- q-position: [    0.1161616,    0.0000000,    0.0000000 ]
  distance:    0.0431418
  band:
  - # 1
    frequency:    1.1240848669
  - # 2
    frequency:    1.9056378975
  - # 3
    frequency:    2.8444698678
  - # 4
    frequency:    2.8940986148
  - # 5
    frequency:    4.0403985259
  - # 6
    frequency:    5.6226452054
  - # 7
    frequency:    5.6449739056
  - # 8
    frequency:    7.5322264730
  - # 9
    frequency:    8.2626916504
  - # 10
    frequency:    8.7740217285
  - # 11
    frequency:   11.3578694006
  - # 12
    frequency:   14.7001137871
  - # 13
    frequency:   14.7790890120
  - # 14
    frequency:   15.3860959542
  - # 15
    frequency:   16.0868403871

- q-position: [    0.1212121,    0.0000000,    0.0000000 ]
  distance:    0.0450176
  band:
  - # 1
    frequency:    1.2046838699
  - # 2
    frequency:    1.9856339495
  - # 3
    frequency:    2.9199815707
  - # 4
    frequency:    2.9622274015
  - # 5
    frequency:    4.1310642658
  - # 6
    frequency:    5.6414720397
  - # 7
    frequency:    5.6628142292
  - # 8
    frequency:    7.5733280861
  - # 9
    frequency:    8.2343573324
  - # 10
    frequency:    8.7758180728
  - # 11
    frequency:   11.3327046747
  - # 12
    frequency:   14.6588336636
  - # 13
    frequency:   14.7448087466
  - # 14
    frequency:   15.4019666504
  - # 15
    frequency:   16.0712914585

- q-position: [    0.1262626,    0.0000000,    0.0000000 ]
  distance:    0.0468933
  band:
  - # 1
    frequency:    1.2864269562
  - # 2
    frequency:    2.0652243166
  - # 3
    frequency:    2.9449937098
  - # 4
    frequency:    3.0778190556
  - # 5
    frequency:    4.2191745714
  - # 6
    frequency:    5.6611380074
  - # 7
    frequency:    5.6823265422
  - # 8
    frequency:    7.6133042268
  - # 9
    frequency:    8.2084679885
  - # 10
    frequency:    8.7782176094
  - # 11
    frequency:   11.3056932906
  - # 12
    frequency:   14.6155798604
  - # 13
    frequency:   14.7104393731
  - # 14
    frequency:   15.4161539952
  - # 15
    frequency:   16.0575399583

- q-position: [    0.1313131,    0.0000000,    0.0000000 ]
  distance:    0.0487690
  band:
  - # 1
    frequency:    1.3691435941
  - # 2
    frequency:    2.1443656229
  - # 3
    frequency:    2.9690447444
  - # 4
    frequency:    3.1909398757
  - # 5
    frequency:    4.3040757883
  - # 6
    frequency:    5.6816408352
  - # 7
    frequency:    5.7038938316
  - # 8
    frequency:    7.6513044840
  - # 9
    frequency:    8.1859355722
  - # 10
    frequency:    8.7812697539
  - # 11
    frequency:   11.2768959632
  - # 12
    frequency:   14.5704447750
  - # 13
    frequency:   14.6761212021
  - # 14
    frequency:   15.4281791875
  - # 15
    frequency:   16.0459744456

- q-position: [    0.1363636,    0.0000000,    0.0000000 ]
  distance:    0.0506448
  band:
  - # 1
    frequency:    1.4526594491
  - # 2
    frequency:    2.2230045363
  - # 3
    frequency:    2.9920628837
  - # 4
    frequency:    3.3012777497
  - # 5
    frequency:    4.3850388368
  - # 6
    frequency:    5.7029769597
  - # 7
    frequency:    5.7279514173
  - # 8
    frequency:    7.6862507328
  - # 9
    frequency:    8.1679233434
  - # 10
    frequency:    8.7850230762
  - # 11
    frequency:   11.2463826649
  - # 12
    frequency:   14.5235291618
  - # 13
    frequency:   14.6419944328
  - # 14
    frequency:   15.4376030704
  - # 15
    frequency:   16.0369490470

- q-position: [    0.1414141,    0.0000000,    0.0000000 ]
  distance:    0.0525205
  band:
  - # 1
    frequency:    1.5367944353
  - # 2
    frequency:    2.3010743716
  - # 3
    frequency:    3.0139979652
  - # 4
    frequency:    3.4085170334
  - # 5
    frequency:    4.4612587314
  - # 6
    frequency:    5.7251414531
  - # 7
    frequency:    5.7549793314
  - # 8
    frequency:    7.7168550860
  - # 9
    frequency:    8.1558309677
  - # 10
    frequency:    8.7895250589
  - # 11
    frequency:   11.2142314625
  - # 12
    frequency:   14.4749463163
  - # 13
    frequency:   14.6081985893
  - # 14
    frequency:   15.4440634501
  - # 15
    frequency:   16.0307441075

- q-position: [    0.1464646,    0.0000000,    0.0000000 ]
  distance:    0.0543962
  band:
  - # 1
    frequency:    1.6213602306
  - # 2
    frequency:    2.3784899675
  - # 3
    frequency:    3.0348262803
  - # 4
    frequency:    3.5123423333
  - # 5
    frequency:    4.5318659505
  - # 6
    frequency:    5.7481279559
  - # 7
    frequency:    5.7854845052
  - # 8
    frequency:    7.7417865146
  - # 9
    frequency:    8.1511294694
  - # 10
    frequency:    8.7948218451
  - # 11
    frequency:   11.1805276723
  - # 12
    frequency:   14.4248257241
  - # 13
    frequency:   14.5748719641
  - # 14
    frequency:   15.4473138197
  - # 15
    frequency:   16.0275257677

- q-position: [    0.1515152,    0.0000000,    0.0000000 ]
  distance:    0.0562720
  band:
  - # 1
    frequency:    1.7061570773
  - # 2
    frequency:    2.4551396624
  - # 3
    frequency:    3.0545582955
  - # 4
    frequency:    3.6124420168
  - # 5
    frequency:    4.5959540925
  - # 6
    frequency:    5.7719286159
  - # 7
    frequency:    5.8199694104
  - # 8
    frequency:    7.7600629878
  - # 9
    frequency:    8.1549686567
  - # 10
    frequency:    8.8009579734
  - # 11
    frequency:   11.1453633805
  - # 12
    frequency:   14.3733161585
  - # 13
    frequency:   14.5421510710
  - # 14
    frequency:   15.4472525789
  - # 15
    frequency:   16.0273153460

- q-position: [    0.1565657,    0.0000000,    0.0000000 ]
  distance:    0.0581477
  band:
  - # 1
    frequency:    1.7909696175
  - # 2
    frequency:    2.5308722556
  - # 3
    frequency:    3.0732514068
  - # 4
    frequency:    3.7085107723
  - # 5
    frequency:    4.6526261061
  - # 6
    frequency:    5.7965340336
  - # 7
    frequency:    5.8588863185
  - # 8
    frequency:    7.7715495064
  - # 9
    frequency:    8.1676760591
  - # 10
    frequency:    8.8079760933
  - # 11
    frequency:   11.1088373713
  - # 12
    frequency:   14.3205881788
  - # 13
    frequency:   14.5101701120
  - # 14
    frequency:   15.4439322230
  - # 15
    frequency:   16.0299790399

- q-position: [    0.1616162,    0.0000000,    0.0000000 ]
  distance:    0.0600234
  band:
  - # 1
    frequency:    1.8755614120
  - # 2
    frequency:    2.6054750276
  - # 3
    frequency:    3.0910316774
  - # 4
    frequency:    3.8002501786
  - # 5
    frequency:    4.7010566777
  - # 6
    frequency:    5.8219332115
  - # 7
    frequency:    5.9025815035
  - # 8
    frequency:    7.7771808881
  - # 9
    frequency:    8.1885279307
  - # 10
    frequency:    8.8159166566
  - # 11
    frequency:   11.0710554960
  - # 12
    frequency:   14.2668359731
  - # 13
    frequency:   14.4790604588
  - # 14
    frequency:   15.4375441252
  - # 15
    frequency:   16.0352423285

- q-position: [    0.1666667,    0.0000000,    0.0000000 ]
  distance:    0.0618991
  band:
  - # 1
    frequency:    1.9596676345
  - # 2
    frequency:    2.6786353967
  - # 3
    frequency:    3.1081319992
  - # 4
    frequency:    3.8873657017
  - # 5
    frequency:    4.7405624514
  - # 6
    frequency:    5.8481135056
  - # 7
    frequency:    5.9512402074
  - # 8
    frequency:    7.7786708109
  - # 9
    frequency:    8.2160303309
  - # 10
    frequency:    8.8248175817
  - # 11
    frequency:   11.0321315040
  - # 12
    frequency:   14.2122784785
  - # 13
    frequency:   14.4489501556
  - # 14
    frequency:   15.4283835213
  - # 15
    frequency:   16.0427244690

- q-position: [    0.1717172,    0.0000000,    0.0000000 ]
  distance:    0.0637749
  band:
  - # 1
    frequency:    2.0429852122
  - # 2
    frequency:    2.7498722244
  - # 3
    frequency:    3.1249606865
  - # 4
    frequency:    3.9695576327
  - # 5
    frequency:    4.7706683903
  - # 6
    frequency:    5.8750605779
  - # 7
    frequency:    6.0048474133
  - # 8
    frequency:    7.7779648467
  - # 9
    frequency:    8.2484523113
  - # 10
    frequency:    8.8347138885
  - # 11
    frequency:   10.9921883417
  - # 12
    frequency:   14.1571597191
  - # 13
    frequency:   14.4199634405
  - # 14
    frequency:   15.4168056180
  - # 15
    frequency:   16.0519821676

- q-position: [    0.1767677,    0.0000000,    0.0000000 ]
  distance:    0.0656506
  band:
  - # 1
    frequency:    2.1251593431
  - # 2
    frequency:    2.8184121462
  - # 3
    frequency:    3.1422251355
  - # 4
    frequency:    4.0465019373
  - # 5
    frequency:    4.7911620864
  - # 6
    frequency:    5.9027583467
  - # 7
    frequency:    6.0631774175
  - # 8
    frequency:    7.7768295338
  - # 9
    frequency:    8.2842193366
  - # 10
    frequency:    8.8456373032
  - # 11
    frequency:   10.9513599091
  - # 12
    frequency:   14.1017483117
  - # 13
    frequency:   14.3922202918
  - # 14
    frequency:   15.4031841590
  - # 15
    frequency:   16.0625510759

- q-position: [    0.1818182,    0.0000000,    0.0000000 ]
  distance:    0.0675263
  band:
  - # 1
    frequency:    2.2057648237
  - # 2
    frequency:    2.8829793394
  - # 3
    frequency:    3.1611421495
  - # 4
    frequency:    4.1178141873
  - # 5
    frequency:    4.8021394134
  - # 6
    frequency:    5.9311889343
  - # 7
    frequency:    6.1258162725
  - # 8
    frequency:    7.7766885203
  - # 9
    frequency:    8.3220566667
  - # 10
    frequency:    8.8576158356
  - # 11
    frequency:   10.9097932314
  - # 12
    frequency:   14.0463361011
  - # 13
    frequency:   14.3658359969
  - # 14
    frequency:   15.3878796397
  - # 15
    frequency:   16.0739778988

- q-position: [    0.1868687,    0.0000000,    0.0000000 ]
  distance:    0.0694021
  band:
  - # 1
    frequency:    2.2842798707
  - # 2
    frequency:    2.9415198101
  - # 3
    frequency:    3.1837138492
  - # 4
    frequency:    4.1829847650
  - # 5
    frequency:    4.8040611012
  - # 6
    frequency:    5.9603326084
  - # 7
    frequency:    6.1922099837
  - # 8
    frequency:    7.7786124165
  - # 9
    frequency:    8.3609774912
  - # 10
    frequency:    8.8706733338
  - # 11
    frequency:   10.8676509726
  - # 12
    frequency:   13.9912359094
  - # 13
    frequency:   14.3409207464
  - # 14
    frequency:   15.3712192328
  - # 15
    frequency:   16.0858410162

- q-position: [    0.1919192,    0.0000000,    0.0000000 ]
  distance:    0.0712778
  band:
  - # 1
    frequency:    2.3600490206
  - # 2
    frequency:    2.9911778445
  - # 3
    frequency:    3.2127515237
  - # 4
    frequency:    4.2412654317
  - # 5
    frequency:    4.7978553500
  - # 6
    frequency:    5.9901677175
  - # 7
    frequency:    6.2617242683
  - # 8
    frequency:    7.7833613210
  - # 9
    frequency:    8.4002189058
  - # 10
    frequency:    8.8848290239
  - # 11
    frequency:   10.8251141636
  - # 12
    frequency:   13.9367784009
  - # 13
    frequency:   14.3175792515
  - # 14
    frequency:   15.3534869499
  - # 15
    frequency:   16.0977610519

- q-position: [    0.1969697,    0.0000000,    0.0000000 ]
  distance:    0.0731535
  band:
  - # 1
    frequency:    2.4322301166
  - # 2
    frequency:    3.0293508657
  - # 3
    frequency:    3.2508211726
  - # 4
    frequency:    4.2914788491
  - # 5
    frequency:    4.7851111431
  - # 6
    frequency:    6.0206706186
  - # 7
    frequency:    6.3337016466
  - # 8
    frequency:    7.7914313750
  - # 9
    frequency:    8.4391768362
  - # 10
    frequency:    8.9000970456
  - # 11
    frequency:   10.7823849638
  - # 12
    frequency:   13.8833080932
  - # 13
    frequency:   14.2959103848
  - # 14
    frequency:   15.3349211568
  - # 15
    frequency:   16.1094042241

- q-position: [    0.2020202,    0.0000000,    0.0000000 ]
  distance:    0.0750293
  band:
  - # 1
    frequency:    2.4997182905
  - # 2
    frequency:    3.0556718089
  - # 3
    frequency:    3.2982616129
  - # 4
    frequency:    4.3317374071
  - # 5
    frequency:    4.7683889718
  - # 6
    frequency:    6.0518155961
  - # 7
    frequency:    6.4075066297
  - # 8
    frequency:    7.8030924272
  - # 9
    frequency:    8.4773553022
  - # 10
    frequency:    8.9164859971
  - # 11
    frequency:   10.7396891967
  - # 12
    frequency:   13.8311785696
  - # 13
    frequency:   14.2760068421
  - # 14
    frequency:   15.3157166020
  - # 15
    frequency:   16.1204812727

- q-position: [    0.2070707,    0.0000000,    0.0000000 ]
  distance:    0.0769050
  band:
  - # 1
    frequency:    2.5610374844
  - # 2
    frequency:    3.0722549503
  - # 3
    frequency:    3.3529392010
  - # 4
    frequency:    4.3591946557
  - # 5
    frequency:    4.7515350741
  - # 6
    frequency:    6.0835747749
  - # 7
    frequency:    6.4825557874
  - # 8
    frequency:    7.8184179155
  - # 9
    frequency:    8.5143309526
  - # 10
    frequency:    8.9339985035
  - # 11
    frequency:   10.6972783263
  - # 12
    frequency:   13.7807469837
  - # 13
    frequency:   14.2579548234
  - # 14
    frequency:   15.2960287868
  - # 15
    frequency:   16.1307440882

- q-position: [    0.2121212,    0.0000000,    0.0000000 ]
  distance:    0.0787807
  band:
  - # 1
    frequency:    2.6141886945