nqpoint: 300    
npath: 3      
segment_nqpoint:
- 100
- 100
- 100
labels:
- [ 'G', 'M' ]
- [ 'M', 'K' ]
- [ 'K', 'G' ]
reciprocal_lattice:
- [   0.32163740,   0.18569744,   0.00000000 ] # a*
- [   0.00000000,   0.37139488,   0.00000000 ] # b*
- [   0.00000000,   0.00000000,   0.04351103 ] # c*
natom: 5      
lattice:
- [     3.109091172999338,     0.000000000000000,     0.000000000000000 ] # a
- [    -1.554545586499669,     2.692551938496162,     0.000000000000000 ] # b
- [     0.000000000000000,     0.000000000000000,    22.982677350818953 ] # c
points:
- symbol: Cl # 1
  coordinates: [  0.666666984744048,  0.333332985985145,  0.391599284218264 ]
  mass: 35.453000
- symbol: N # 2
  coordinates: [  0.000000000000000,  0.000000000000000,  0.514522201194834 ]
  mass: 14.006700
- symbol: O # 3
  coordinates: [  0.333332985432215,  0.666666983183674,  0.608400715781736 ]
  mass: 15.999400
- symbol: Ti # 4
  coordinates: [  0.333332985432215,  0.666666983183674,  0.466011513547925 ]
  mass: 47.867000
- symbol: Ti # 5
  coordinates: [  0.666666984744048,  0.333332985985145,  0.568899146222267 ]
  mass: 47.867000

phonon:
- q-position: [    0.0000000,    0.0000000,    0.0000000 ]
  distance:    0.0000000
  band:
  - # 1
    frequency:   -0.0000017757
  - # 2
    frequency:    0.0000005998
  - # 3
    frequency:    0.0000016138
  - # 4
    frequency:    1.8323453258
  - # 5
    frequency:    1.8323453258
  - # 6
    frequency:    5.2693278599
  - # 7
    frequency:    5.2693278599
  - # 8
    frequency:    6.7818562141
  - # 9
    frequency:    8.5562737538
  - # 10
    frequency:    8.5562737538
  - # 11
    frequency:   11.4038438108
  - # 12
    frequency:   13.8130136205
  - # 13
    frequency:   13.8130136205
  - # 14
    frequency:   14.9388405171
  - # 15
    frequency:   16.2515990235

- q-position: [    0.0050505,    0.0000000,    0.0000000 ]
  distance:    0.0018757
  band:
  - # 1
    frequency:   -0.3513489207
  - # 2
    frequency:    0.1019839150
  - # 3
    frequency:    0.3819355605
  - # 4
    frequency:    1.8363206617
  - # 5
    frequency:    1.8404050356
  - # 6
    frequency:    5.2709350385
  - # 7
    frequency:    5.2711676251
  - # 8
    frequency:    6.7834312740
  - # 9
    frequency:    8.5553972086
  - # 10
    frequency:    8.5563932488
  - # 11
    frequency:   11.4038646139
  - # 12
    frequency:   13.8154046529
  - # 13
    frequency:   13.8159014927
  - # 14
    frequency:   14.9395745256
  - # 15
    frequency:   16.2511300033

- q-position: [    0.0101010,    0.0000000,    0.0000000 ]
  distance:    0.0037515
  band:
  - # 1
    frequency:   -0.4749751599
  - # 2
    frequency:    0.2036861600
  - # 3
    frequency:    0.5615333793
  - # 4
    frequency:    1.8481794104
  - # 5
    frequency:    1.8643306501
  - # 6
    frequency:    5.2757482494
  - # 7
    frequency:    5.2766559785
  - # 8
    frequency:    6.7881640433
  - # 9
    frequency:    8.5527715399
  - # 10
    frequency:    8.5567554714
  - # 11
    frequency:   11.4039237847
  - # 12
    frequency:   13.8225535543
  - # 13
    frequency:   13.8245213696
  - # 14
    frequency:   14.9417834844
  - # 15
    frequency:   16.2497239487

- q-position: [    0.0151515,    0.0000000,    0.0000000 ]
  distance:    0.0056272
  band:
  - # 1
    frequency:   -0.5545993333
  - # 2
    frequency:    0.3048329927
  - # 3
    frequency:    0.7137680181
  - # 4
    frequency:    1.8677231684
  - # 5
    frequency:    1.9033924384
  - # 6
    frequency:    5.2837425344
  - # 7
    frequency:    5.2857010960
  - # 8
    frequency:    6.7960766788
  - # 9
    frequency:    8.5484086209
  - # 10
    frequency:    8.5573715417
  - # 11
    frequency:   11.4040113278
  - # 12
    frequency:   13.8343881023
  - # 13
    frequency:   13.8387428216
  - # 14
    frequency:   14.9454881826
  - # 15
    frequency:   16.2473839039

- q-position: [    0.0202020,    0.0000000,    0.0000000 ]
  distance:    0.0075029
  band:
  - # 1
    frequency:   -0.6086462507
  - # 2
    frequency:    0.4051660031
  - # 3
    frequency:    0.8540593081
  - # 4
    frequency:    1.8946320975
  - # 5
    frequency:    1.9564684640
  - # 6
    frequency:    5.2948763532
  - # 7
    frequency:    5.2981532589
  - # 8
    frequency:    6.8072040702
  - # 9
    frequency:    8.5423281527
  - # 10
    frequency:    8.5582596866
  - # 11
    frequency:   11.4041097014
  - # 12
    frequency:   13.8507891312
  - # 13
    frequency:   13.8583510458
  - # 14
    frequency:   14.9507232165
  - # 15
    frequency:   16.2441150325

- q-position: [    0.0252525,    0.0000000,    0.0000000 ]
  distance:    0.0093787
  band:
  - # 1
    frequency:   -0.6443651315
  - # 2
    frequency:    0.5044484985
  - # 3
    frequency:    0.9880550891
  - # 4
    frequency:    1.9284798374
  - # 5
    frequency:    2.0221604546
  - # 6
    frequency:    5.3090916728
  - # 7
    frequency:    5.3138097593
  - # 8
    frequency:    6.8215907932
  - # 9
    frequency:    8.5345575343
  - # 10
    frequency:    8.5594447951
  - # 11
    frequency:   11.4041926656
  - # 12
    frequency:   13.8715923018
  - # 13
    frequency:   13.8830505693
  - # 14
    frequency:   14.9575368619
  - # 15
    frequency:   16.2399247583

- q-position: [    0.0303030,    0.0000000,    0.0000000 ]
  distance:    0.0112544
  band:
  - # 1
    frequency:   -0.6653953896
  - # 2
    frequency:    0.6024704289
  - # 3
    frequency:    1.1184831298
  - # 4
    frequency:    1.9687520448
  - # 5
    frequency:    2.0989163935
  - # 6
    frequency:    5.3263141017
  - # 7
    frequency:    5.3324216102
  - # 8
    frequency:    6.8392868823
  - # 9
    frequency:    8.5251316909
  - # 10
    frequency:    8.5609578201
  - # 11
    frequency:   11.4042239757
  - # 12
    frequency:   13.8965905042
  - # 13
    frequency:   13.9124701464
  - # 14
    frequency:   14.9659907841
  - # 15
    frequency:   16.2348229716

- q-position: [    0.0353535,    0.0000000,    0.0000000 ]
  distance:    0.0131301
  band:
  - # 1
    frequency:   -0.6737033553
  - # 2
    frequency:    0.6990515197
  - # 3
    frequency:    1.2468555636
  - # 4
    frequency:    2.0148668675
  - # 5
    frequency:    2.1851395149
  - # 6
    frequency:    5.3464530793
  - # 7
    frequency:    5.3537018812
  - # 8
    frequency:    6.8603424901
  - # 9
    frequency:    8.5140928731
  - # 10
    frequency:    8.5628350528
  - # 11
    frequency:   11.4041561631
  - # 12
    frequency:   13.9255368263
  - # 13
    frequency:   13.9461686568
  - # 14
    frequency:   14.9761594491
  - # 15
    frequency:   16.2288223156

- q-position: [    0.0404040,    0.0000000,    0.0000000 ]
  distance:    0.0150059
  band:
  - # 1
    frequency:   -0.6702642137
  - # 2
    frequency:    0.7940424348
  - # 3
    frequency:    1.3740772392
  - # 4
    frequency:    2.0661958294
  - # 5
    frequency:    2.2792723917
  - # 6
    frequency:    5.3694021348
  - # 7
    frequency:    5.3773354094
  - # 8
    frequency:    6.8848015593
  - # 9
    frequency:    8.5014904543
  - # 10
    frequency:    8.5651172930
  - # 11
    frequency:   11.4039296271
  - # 12
    frequency:   13.9581480073
  - # 13
    frequency:   13.9836418758
  - # 14
    frequency:   14.9881290253
  - # 15
    frequency:   16.2219385677

- q-position: [    0.0454545,    0.0000000,    0.0000000 ]
  distance:    0.0168816
  band:
  - # 1
    frequency:   -0.6553116833
  - # 2
    frequency:    0.8873239870
  - # 3
    frequency:    1.5007104357
  - # 4
    frequency:    2.1220839145
  - # 5
    frequency:    2.3798534173
  - # 6
    frequency:    5.3950392317
  - # 7
    frequency:    5.4029895477
  - # 8
    frequency:    6.9126947145
  - # 9
    frequency:    8.4873807676
  - # 10
    frequency:    8.5678489451
  - # 11
    frequency:   11.4034722224
  - # 12
    frequency:   13.9941082861
  - # 13
    frequency:   14.0243301074
  - # 14
    frequency:   15.0019954648
  - # 15
    frequency:   16.2141911434

- q-position: [    0.0505051,    0.0000000,    0.0000000 ]
  distance:    0.0187573
  band:
  - # 1
    frequency:   -0.6283641815
  - # 2
    frequency:    0.9788046182
  - # 3
    frequency:    1.6271062401
  - # 4
    frequency:    2.1818679970
  - # 5
    frequency:    2.4855487295
  - # 6
    frequency:    5.4232272220
  - # 7
    frequency:    5.4303255196
  - # 8
    frequency:    6.9440316609
  - # 9
    frequency:    8.4718270459
  - # 10
    frequency:    8.5710770621
  - # 11
    frequency:   11.4026994561
  - # 12
    frequency:   14.0330735554
  - # 13
    frequency:   14.0676268331
  - # 14
    frequency:   15.0178613368
  - # 15
    frequency:   16.2056037538

- q-position: [    0.0555556,    0.0000000,    0.0000000 ]
  distance:    0.0206330
  band:
  - # 1
    frequency:   -0.5880404227
  - # 2
    frequency:    1.0684165450
  - # 3
    frequency:    1.7534764280
  - # 4
    frequency:    2.2448930693
  - # 5
    frequency:    2.5951652104
  - # 6
    frequency:    5.4538144322
  - # 7
    frequency:    5.4590098646
  - # 8
    frequency:    6.9787934649
  - # 9
    frequency:    8.4548995550
  - # 10
    frequency:    8.5748503647
  - # 11
    frequency:   11.4015153397
  - # 12
    frequency:   14.0746757280
  - # 13
    frequency:   14.1128887071
  - # 14
    frequency:   15.0358308612
  - # 15
    frequency:   16.1962052683

- q-position: [    0.0606061,    0.0000000,    0.0000000 ]
  distance:    0.0225088
  band:
  - # 1
    frequency:   -0.5314994003
  - # 2
    frequency:    1.1561110775
  - # 3
    frequency:    1.8799358777
  - # 4
    frequency:    2.3105259669
  - # 5
    frequency:    2.7076505012
  - # 6
    frequency:    5.4866354104
  - # 7
    frequency:    5.4887254013
  - # 8
    frequency:    7.0169251296
  - # 9
    frequency:    8.4366760433
  - # 10
    frequency:    8.5792182518
  - # 11
    frequency:   11.3998138675
  - # 12
    frequency:   14.1185272295
  - # 13
    frequency:   14.1594473622
  - # 14
    frequency:   15.0560025065
  - # 15
    frequency:   16.1860308461

- q-position: [    0.0656566,    0.0000000,    0.0000000 ]
  distance:    0.0243845
  band:
  - # 1
    frequency:   -0.4528318410
  - # 2
    frequency:    1.2418536419
  - # 3
    frequency:    2.0065290458
  - # 4
    frequency:    2.3781664660
  - # 5
    frequency:    2.8220850670
  - # 6
    frequency:    5.5191811240
  - # 7
    frequency:    5.5215118573
  - # 8
    frequency:    7.0583288657
  - # 9
    frequency:    8.4172426786
  - # 10
    frequency:    8.5842298209
  - # 11
    frequency:   11.3974810391
  - # 12
    frequency:   14.1642255366
  - # 13
    frequency:   14.2066235075
  - # 14
    frequency:   15.0784585354
  - # 15
    frequency:   16.1751234271

- q-position: [    0.0707071,    0.0000000,    0.0000000 ]
  distance:    0.0262602
  band:
  - # 1
    frequency:   -0.3369280697
  - # 2
    frequency:    1.3256189824
  - # 3
    frequency:    2.1332470989
  - # 4
    frequency:    2.4472557753
  - # 5
    frequency:    2.9376700428
  - # 6
    frequency:    5.5501205083
  - # 7
    frequency:    5.5582537686
  - # 8
    frequency:    7.1028583535
  - # 9
    frequency:    8.3966957083
  - # 10
    frequency:    8.5899329087
  - # 11
    frequency:   11.3943973028
  - # 12
    frequency:   14.2113576903
  - # 13
    frequency:   14.2537435972
  - # 14
    frequency:   15.1032510993
  - # 15
    frequency:   16.1635357075

- q-position: [    0.0757576,    0.0000000,    0.0000000 ]
  distance:    0.0281360
  band:
  - # 1
    frequency:   -0.0885895228
  - # 2
    frequency:    1.4073869078
  - # 3
    frequency:    2.2600391597
  - # 4
    frequency:    2.5172825535
  - # 5
    frequency:    3.0537133624
  - # 6
    frequency:    5.5813278227
  - # 7
    frequency:    5.5966608033
  - # 8
    frequency:    7.1503140771
  - # 9
    frequency:    8.3751441766
  - # 10
    frequency:    8.5963731630
  - # 11
    frequency:   11.3904402761
  - # 12
    frequency:   14.2595047213
  - # 13
    frequency:   14.3001588387
  - # 14
    frequency:   15.1303849836
  - # 15
    frequency:   16.1513327654

- q-position: [    0.0808081,    0.0000000,    0.0000000 ]
  distance:    0.0300117
  band:
  - # 1
    frequency:    0.3347425225
  - # 2
    frequency:    1.4871388075
  - # 3
    frequency:    2.3868196076
  - # 4
    frequency:    2.5877866749
  - # 5
    frequency:    3.1696156945
  - # 6
    frequency:    5.6126322360
  - # 7
    frequency:    5.6365238902
  - # 8
    frequency:    7.2004394821
  - # 9
    frequency:    8.3527141875
  - # 10
    frequency:    8.6035931511
  - # 11
    frequency:   11.3854875917
  - # 12
    frequency:   14.3082459375
  - # 13
    frequency:   14.3452654817
  - # 14
    frequency:   15.1597978989
  - # 15
    frequency:   16.1385955597

- q-position: [    0.0858586,    0.0000000,    0.0000000 ]
  distance:    0.0318874
  band:
  - # 1
    frequency:    0.4963052913
  - # 2
    frequency:    1.5648550323
  - # 3
    frequency:    2.5134726051
  - # 4
    frequency:    2.6583610256
  - # 5
    frequency:    3.2848570121
  - # 6
    frequency:    5.6439097160
  - # 7
    frequency:    5.6776270693
  - # 8
    frequency:    7.2529172512
  - # 9
    frequency:    8.3295554495
  - # 10
    frequency:    8.6116315119
  - # 11
    frequency:   11.3794197281
  - # 12
    frequency:   14.3571630311
  - # 13
    frequency:   14.3885243412
  - # 14
    frequency:   15.1913401436
  - # 15
    frequency:   16.1254255940

- q-position: [    0.0909091,    0.0000000,    0.0000000 ]
  distance:    0.0337632
  band:
  - # 1
    frequency:    0.6285882614
  - # 2
    frequency:    1.6405131274
  - # 3
    frequency:    2.6398546059
  - # 4
    frequency:    2.7286516458
  - # 5
    frequency:    3.3989841689
  - # 6
    frequency:    5.6750829315
  - # 7
    frequency:    5.7197495566
  - # 8
    frequency:    7.3073643757
  - # 9
    frequency:    8.3058512480
  - # 10
    frequency:    8.6205221580
  - # 11
    frequency:   11.3721226981
  - # 12
    frequency:   14.4058439742
  - # 13
    frequency:   14.4294767265
  - # 14
    frequency:   15.2247561714
  - # 15
    frequency:   16.1119511060

- q-position: [    0.0959596,    0.0000000,    0.0000000 ]
  distance:    0.0356389
  band:
  - # 1
    frequency:    0.7474367922
  - # 2
    frequency:    1.7140868355
  - # 3
    frequency:    2.7657953578
  - # 4
    frequency:    2.7983565421
  - # 5
    frequency:    3.5115995667
  - # 6
    frequency:    5.7061195273
  - # 7
    frequency:    5.7626680010
  - # 8
    frequency:    7.3633238592
  - # 9
    frequency:    8.2818336732
  - # 10
    frequency:    8.6302935340
  - # 11
    frequency:   11.3634904947
  - # 12
    frequency:   14.4538866788
  - # 13
    frequency:   14.4677538480
  - # 14
    frequency:   15.2596706419
  - # 15
    frequency:   16.0983351992

- q-position: [    0.1010101,    0.0000000,    0.0000000 ]
  distance:    0.0375146
  band:
  - # 1
    frequency:    0.8585716186
  - # 2
    frequency:    1.7855457487
  - # 3
    frequency:    2.8672234731
  - # 4
    frequency:    2.8910977823
  - # 5
    frequency:    3.6223508228
  - # 6
    frequency:    5.7370292469
  - # 7
    frequency:    5.8061588962
  - # 8
    frequency:    7.4202496609
  - # 9
    frequency:    8.2578070633
  - # 10
    frequency:    8.6409679416
  - # 11
    frequency:   11.3534272180
  - # 12
    frequency:   14.5009024056
  - # 13
    frequency:   14.5030776527
  - # 14
    frequency:   15.2955806676
  - # 15
    frequency:   16.0847863046

- q-position: [    0.1060606,    0.0000000,    0.0000000 ]
  distance:    0.0393904
  band:
  - # 1
    frequency:    0.9647737805
  - # 2
    frequency:    1.8548554791
  - # 3
    frequency:    2.9350469846
  - # 4
    frequency:    3.0155370364
  - # 5
    frequency:    3.7309212329
  - # 6
    frequency:    5.7678604049
  - # 7
    frequency:    5.8500010902
  - # 8
    frequency:    7.4774796459
  - # 9
    frequency:    8.2341844395
  - # 10
    frequency:    8.6525609417
  - # 11
    frequency:   11.3418488353
  - # 12
    frequency:   14.5352527686
  - # 13
    frequency:   14.5465189121
  - # 14
    frequency:   15.3318544678
  - # 15
    frequency:   16.0715711217

- q-position: [    0.1111111,    0.0000000,    0.0000000 ]
  distance:    0.0412661
  band:
  - # 1
    frequency:    1.0676143761
  - # 2
    frequency:    1.9219782244
  - # 3
    frequency:    3.0016649298
  - # 4
    frequency:    3.1388590406
  - # 5
    frequency:    3.8370207351
  - # 6
    frequency:    5.7986961815
  - # 7
    frequency:    5.8939783321
  - # 8
    frequency:    7.5341887252
  - # 9
    frequency:    8.2115443322
  - # 10
    frequency:    8.6650808485
  - # 11
    frequency:   11.3286845519
  - # 12
    frequency:   14.5641511928
  - # 13
    frequency:   14.5903833338
  - # 14
    frequency:   15.3677354075
  - # 15
    frequency:   16.0590294550

- q-position: [    0.1161616,    0.0000000,    0.0000000 ]
  distance:    0.0431418
  band:
  - # 1
    frequency:    1.1680642481
  - # 2
    frequency:    1.9868736241
  - # 3
    frequency:    3.0669546677
  - # 4
    frequency:    3.2607787797
  - # 5
    frequency:    3.9403769904
  - # 6
    frequency:    5.8296511422
  - # 7
    frequency:    5.9378817858
  - # 8
    frequency:    7.5893118821
  - # 9
    frequency:    8.1907179611
  - # 10
    frequency:    8.6785283296
  - # 11
    frequency:   11.3138777929
  - # 12
    frequency:   14.5896927545
  - # 13
    frequency:   14.6321648004
  - # 14
    frequency:   15.4023506797
  - # 15
    frequency:   16.0475886704

- q-position: [    0.1212121,    0.0000000,    0.0000000 ]
  distance:    0.0450176
  band:
  - # 1
    frequency:    1.2667576979
  - # 2
    frequency:    2.0494998207
  - # 3
    frequency:    3.1308290967
  - # 4
    frequency:    3.3809787506
  - # 5
    frequency:    4.0407260979
  - # 6
    frequency:    5.8608683021
  - # 7
    frequency:    5.9815124400
  - # 8
    frequency:    7.6414294812
  - # 9
    frequency:    8.1729141233
  - # 10
    frequency:    8.6928961308
  - # 11
    frequency:   11.2973868187
  - # 12
    frequency:   14.6118247651
  - # 13
    frequency:   14.6715567865
  - # 14
    frequency:   15.4347268033
  - # 15
    frequency:   16.0377721915

- q-position: [    0.1262626,    0.0000000,    0.0000000 ]
  distance:    0.0468933
  band:
  - # 1
    frequency:    1.3641225208
  - # 2
    frequency:    2.1098146618
  - # 3
    frequency:    3.1932326452
  - # 4
    frequency:    3.4991080447
  - # 5
    frequency:    4.1378023448
  - # 6
    frequency:    5.8925169693
  - # 7
    frequency:    6.0246833443
  - # 8
    frequency:    7.6886337605
  - # 9
    frequency:    8.1598627080
  - # 10
    frequency:    8.7081689403
  - # 11
    frequency:   11.2791850102
  - # 12
    frequency:   14.6305036823
  - # 13
    frequency:   14.7082792029
  - # 14
    frequency:   15.4638198383
  - # 15
    frequency:   16.0301912970

- q-position: [    0.1313131,    0.0000000,    0.0000000 ]
  distance:    0.0487690
  band:
  - # 1
    frequency:    1.4604501983
  - # 2
    frequency:    2.1677769948
  - # 3
    frequency:    3.2541373096
  - # 4
    frequency:    3.6147826984
  - # 5
    frequency:    4.2313262837
  - # 6
    frequency:    5.9247915211
  - # 7
    frequency:    6.0672216094
  - # 8
    frequency:    7.7284899776
  - # 9
    frequency:    8.1538632349
  - # 10
    frequency:    8.7243234087
  - # 11
    frequency:   11.2592608738
  - # 12
    frequency:   14.6456805246
  - # 13
    frequency:   14.7420802338
  - # 14
    frequency:   15.4885745184
  - # 15
    frequency:   16.0255042738

- q-position: [    0.1363636,    0.0000000,    0.0000000 ]
  distance:    0.0506448
  band:
  - # 1
    frequency:    1.5559362758
  - # 2
    frequency:    2.2233480194
  - # 3
    frequency:    3.3135388130
  - # 4
    frequency:    3.7275881104
  - # 5
    frequency:    4.3209903799
  - # 6
    frequency:    5.9579111795
  - # 7
    frequency:    6.1089701176
  - # 8
    frequency:    7.7583862267
  - # 9
    frequency:    8.1574442433
  - # 10
    frequency:    8.7413283347
  - # 11
    frequency:   11.2376178252
  - # 12
    frequency:   14.6572906720
  - # 13
    frequency:   14.7727379259
  - # 14
    frequency:   15.5080263186
  - # 15
    frequency:   16.0243282485

- q-position: [    0.1414141,    0.0000000,    0.0000000 ]
  distance:    0.0525205
  band:
  - # 1
    frequency:    1.6507045724
  - # 2
    frequency:    2.2764926683
  - # 3
    frequency:    3.3714529322
  - # 4
    frequency:    3.8370844432
  - # 5
    frequency:    4.4064415725
  - # 6
    frequency:    5.9921207194
  - # 7
    frequency:    6.1497889020
  - # 8
    frequency:    7.7765450296
  - # 9
    frequency:    8.1723602013
  - # 10
    frequency:    8.7591450253
  - # 11
    frequency:   11.2142738135
  - # 12
    frequency:   14.6652479163
  - # 13
    frequency:   14.8000615361
  - # 14
    frequency:   15.5214429364
  - # 15
    frequency:   16.0271073345

- q-position: [    0.1464646,    0.0000000,    0.0000000 ]
  distance:    0.0543962
  band:
  - # 1
    frequency:    1.7448219452
  - # 2
    frequency:    2.3271809935
  - # 3
    frequency:    3.4279120361
  - # 4
    frequency:    3.9428159158
  - # 5
    frequency:    4.4872605119
  - # 6
    frequency:    6.0276918126
  - # 7
    frequency:    6.1895561699
  - # 8
    frequency:    7.7831617996
  - # 9
    frequency:    8.1984604534
  - # 10
    frequency:    8.7777278292
  - # 11
    frequency:   11.1892608512
  - # 12
    frequency:   14.6694422496
  - # 13
    frequency:   14.8238926435
  - # 14
    frequency:   15.5284652061
  - # 15
    frequency:   16.0339775600

- q-position: [    0.1515152,    0.0000000,    0.0000000 ]
  distance:    0.0562720
  band:
  - # 1
    frequency:    1.8383071034
  - # 2
    frequency:    2.3753895347
  - # 3
    frequency:    3.4829618614
  - # 4
    frequency:    4.0443246258
  - # 5
    frequency:    4.5629381635
  - # 6
    frequency:    6.0649243137
  - # 7
    frequency:    6.2281689558
  - # 8
    frequency:    7.7804063393
  - # 9
    frequency:    8.2336934324
  - # 10
    frequency:    8.7970248386
  - # 11
    frequency:   11.1626245117
  - # 12
    frequency:   14.6697408488
  - # 13
    frequency:   14.8441060325
  - # 14
    frequency:   15.5291797240
  - # 15
    frequency:   16.0446968176

- q-position: [    0.1565657,    0.0000000,    0.0000000 ]
  distance:    0.0581477
  band:
  - # 1
    frequency:    1.9311353198
  - # 2
    frequency:    2.4211026467
  - # 3
    frequency:    3.5366585520
  - # 4
    frequency:    4.1411688837
  - # 5
    frequency:    4.6328520680
  - # 6
    frequency:    6.1041461883
  - # 7
    frequency:    6.2655434108
  - # 8
    frequency:    7.7712711413
  - # 9
    frequency:    8.2752614669
  - # 10
    frequency:    8.8169787434
  - # 11
    frequency:   11.1344234529
  - # 12
    frequency:   14.6659918767
  - # 13
    frequency:   14.8606103501
  - # 14
    frequency:   15.5240780797
  - # 15
    frequency:   16.0586852908

- q-position: [    0.1616162,    0.0000000,    0.0000000 ]
  distance:    0.0600234
  band:
  - # 1
    frequency:    2.0232399648
  - # 2
    frequency:    2.4643137592
  - # 3
    frequency:    3.5890659787
  - # 4
    frequency:    4.2329449481
  - # 5
    frequency:    4.6962467991
  - # 6
    frequency:    6.1457100107
  - # 7
    frequency:    6.3016147432
  - # 8
    frequency:    7.7585419004
  - # 9
    frequency:    8.3206495623
  - # 10
    frequency:    8.8375278173
  - # 11
    frequency:   11.1047290186
  - # 12
    frequency:   14.6580309486
  - # 13
    frequency:   14.8733485414
  - # 14
    frequency:   15.5139243589
  - # 15
    frequency:   16.0751548170

- q-position: [    0.1666667,    0.0000000,    0.0000000 ]
  distance:    0.0618991
  band:
  - # 1
    frequency:    2.1145111893
  - # 2
    frequency:    2.5050265439
  - # 3
    frequency:    3.6402533562
  - # 4
    frequency:    4.3193096333
  - # 5
    frequency:    4.7522256159
  - # 6
    frequency:    6.1899832740
  - # 7
    frequency:    6.3363368405
  - # 8
    frequency:    7.7444503349
  - # 9
    frequency:    8.3679666018
  - # 10
    frequency:    8.8586070085
  - # 11
    frequency:   11.0736249601
  - # 12
    frequency:   14.6456902843
  - # 13
    frequency:   14.8822980672
  - # 14
    frequency:   15.4995994394
  - # 15
    frequency:   16.0932586162

- q-position: [    0.1717172,    0.0000000,    0.0000000 ]
  distance:    0.0637749
  band:
  - # 1
    frequency:    2.2047916162
  - # 2
    frequency:    2.5432559588
  - # 3
    frequency:    3.6902931673
  - # 4
    frequency:    4.3999998283
  - # 5
    frequency:    4.7997620208
  - # 6
    frequency:    6.2373296841
  - # 7
    frequency:    6.3696816099
  - # 8
    frequency:    7.7307248725
  - # 9
    frequency:    8.4158819209
  - # 10
    frequency:    8.8801490997
  - # 11
    frequency:   11.0412073101
  - # 12
    frequency:   14.6288105815
  - # 13
    frequency:   14.8874709028
  - # 14
    frequency:   15.4819795177
  - # 15
    frequency:   16.1122038767

- q-position: [    0.1767677,    0.0000000,    0.0000000 ]
  distance:    0.0656506
  band:
  - # 1
    frequency:    2.2938684281
  - # 2
    frequency:    2.5790291445
  - # 3
    frequency:    3.7392594034
  - # 4
    frequency:    4.4748437740
  - # 5
    frequency:    4.8377397613
  - # 6
    frequency:    6.2880798851
  - # 7
    frequency:    6.4016380829
  - # 8
    frequency:    7.7187282836
  - # 9
    frequency:    8.4634670384
  - # 10
    frequency:    8.9020859030
  - # 11
    frequency:   11.0075844256
  - # 12
    frequency:   14.6072554496
  - # 13
    frequency:   14.8889133206
  - # 14
    frequency:   15.4618662095
  - # 15
    frequency:   16.1313099792

- q-position: [    0.1818182,    0.0000000,    0.0000000 ]
  distance:    0.0675263
  band:
  - # 1
    frequency:    2.3814606490
  - # 2
    frequency:    2.6123861467
  - # 3
    frequency:    3.7872261217
  - # 4
    frequency:    4.5437574953
  - # 5
    frequency:    4.8650276937
  - # 6
    frequency:    6.3424931457
  - # 7
    frequency:    6.4322113304
  - # 8
    frequency:    7.7095636117
  - # 9
    frequency:    8.5100609811
  - # 10
    frequency:    8.9243494509
  - # 11
    frequency:   10.9728772026
  - # 12
    frequency:   14.5809278195
  - # 13
    frequency:   14.8867054544
  - # 14
    frequency:   15.4399572632
  - # 15
    frequency:   16.1500238480

- q-position: [    0.1868687,    0.0000000,    0.0000000 ]
  distance:    0.0694021
  band:
  - # 1
    frequency:    2.4671995706
  - # 2
    frequency:    2.6433804444
  - # 3
    frequency:    3.8342663145
  - # 4
    frequency:    4.6067146608
  - # 5
    frequency:    4.8805958727
  - # 6
    frequency:    6.4007158978
  - # 7
    frequency:    6.4614212363
  - # 8
    frequency:    7.7041314517
  - # 9
    frequency:    8.5551774572
  - # 10
    frequency:    8.9468731472
  - # 11
    frequency:   10.9372194397
  - # 12
    frequency:   14.5497871957
  - # 13
    frequency:   14.8809606444
  - # 14
    frequency:   15.4168402147
  - # 15
    frequency:   16.1679111817

- q-position: [    0.1919192,    0.0000000,    0.0000000 ]
  distance:    0.0712778
  band:
  - # 1
    frequency:    2.5505989585
  - # 2
    frequency:    2.6720792672
  - # 3
    frequency:    3.8804510786
  - # 4
    frequency:    4.6636538559
  - # 5
    frequency:    4.8836991023
  - # 6
    frequency:    6.4627466920
  - # 7
    frequency:    6.4893011754
  - # 8
    frequency:    7.7031507800
  - # 9
    frequency:    8.5984448585
  - # 10
    frequency:    8.9695928437
  - # 11
    frequency:   10.9007583071
  - # 12
    frequency:   14.5138661075
  - # 13
    frequency:   14.8718245612
  - # 14
    frequency:   15.3929960875
  - # 15
    frequency:   16.1846380143

- q-position: [    0.1969697,    0.0000000,    0.0000000 ]
  distance:    0.0731535
  band:
  - # 1
    frequency:    2.6310095547
  - # 2
    frequency:    2.6985636924
  - # 3
    frequency:    3.9258490639
  - # 4
    frequency:    4.7141561377
  - # 5
    frequency:    4.8742850733
  - # 6
    frequency:    6.5158966379
  - # 7
    frequency:    6.5284175737
  - # 8
    frequency:    7.7071592983
  - # 9
    frequency:    8.6395679942
  - # 10
    frequency:    8.9924478134
  - # 11
    frequency:   10.8636548432
  - # 12
    frequency:   14.4732838948
  - # 13
    frequency:   14.8594741068
  - # 14
    frequency:   15.3688067416
  - # 15
    frequency:   16.1999507737

- q-position: [    0.2020202,    0.0000000,    0.0000000 ]
  distance:    0.0750293
  band:
  - # 1
    frequency:    2.7075489450
  - # 2
    frequency:    2.7229285151
  - # 3
    frequency:    3.9705261731
  - # 4
    frequency:    4.7557503590
  - # 5
    frequency:    4.8547659387
  - # 6
    frequency:    6.5412638341
  - # 7
    frequency:    6.5973978961
  - # 8
    frequency:    7.7165068422
  - # 9
    frequency:    8.6783036040
  - # 10
    frequency:    9.0153815971
  - # 11
    frequency:   10.8260843650
  - # 12
    frequency:   14.4282561812
  - # 13
    frequency:   14.8441160887
  - # 14
    frequency:   15.3445637758
  - # 15
    frequency:   16.2136584579

- q-position: [    0.2070707,    0.0000000,    0.0000000 ]
  distance:    0.0769050
  band:
  - # 1
    frequency:    2.7452818926
  - # 2
    frequency:    2.7789923237
  - # 3
    frequency:    4.0145454774
  - # 4
    frequency:    4.7720579150
  - # 5
    frequency:    4.8419504971
  - # 6
    frequency:    6.5654683121
  - # 7
    frequency:    6.6692198281
  - # 8
    frequency:    7.7313516327
  - # 9
    frequency:    8.7144447258
  - # 10
    frequency:    9.0383427060
  - # 11
    frequency:   10.7882366342
  - # 12
    frequency:   14.3790990342
  - # 13
    frequency:   14.8259856677
  - # 14
    frequency:   15.3204787125
  - # 15
    frequency:   16.2256180500

- q-position: [    0.2121212,    0.0000000,    0.0000000 ]
  distance:    0.0787807
  band:
  - # 1
    frequency:    2.7657447640