nqpoint: 300    
npath: 3      
segment_nqpoint:
- 100
- 100
- 100
labels:
- [ 'G', 'M' ]
- [ 'M', 'K' ]
- [ 'K', 'G' ]
reciprocal_lattice:
- [   0.26956873,   0.15563558,   0.00000000 ] # a*
- [   0.00000000,   0.31127116,   0.00000000 ] # b*
- [   0.00000000,   0.00000000,   0.03783622 ] # c*
natom: 7      
lattice:
- [     3.709629081723495,     0.000000000000000,     0.000000000000000 ] # a
- [    -1.854814540861748,     3.212633023418271,     0.000000000000000 ] # b
- [     0.000000000000000,     0.000000000000000,    26.429702337875547 ] # c
points:
- symbol: C # 1
  coordinates: [  0.000000000000000,  0.000000000000000,  0.433701017194046 ]
  mass: 12.010700
- symbol: C # 2
  coordinates: [  0.333332985432215,  0.666666983183674,  0.614442728990923 ]
  mass: 12.010700
- symbol: F # 3
  coordinates: [  0.666666984744048,  0.333332985985145,  0.340525969038342 ]
  mass: 18.998403
- symbol: N # 4
  coordinates: [  0.333332985432215,  0.666666983183674,  0.659474030961658 ]
  mass: 14.006700
- symbol: S # 5
  coordinates: [  0.333332985432215,  0.666666983183674,  0.551164254151732 ]
  mass: 32.065000
- symbol: Y # 6
  coordinates: [  0.333332985432215,  0.666666983183674,  0.382066219695421 ]
  mass: 88.905850
- symbol: Y # 7
  coordinates: [  0.666666984744048,  0.333332985985145,  0.484170768464126 ]
  mass: 88.905850

phonon:
- q-position: [    0.0000000,    0.0000000,    0.0000000 ]
  distance:    0.0000000
  band:
  - # 1
    frequency:   -0.5270492857
  - # 2
    frequency:   -0.5270492855
  - # 3
    frequency:   -0.0000226744
  - # 4
    frequency:    0.0000001223
  - # 5
    frequency:    0.0000229882
  - # 6
    frequency:    3.0196233430
  - # 7
    frequency:    3.0196233431
  - # 8
    frequency:    4.6603517416
  - # 9
    frequency:    4.6603517416
  - # 10
    frequency:    4.7126320361
  - # 11
    frequency:    5.5078387858
  - # 12
    frequency:    5.5078387858
  - # 13
    frequency:    7.5455940675
  - # 14
    frequency:    9.4948968170
  - # 15
    frequency:    9.5121081689
  - # 16
    frequency:    9.5121081691
  - # 17
    frequency:   10.4786839292
  - # 18
    frequency:   10.4786839293
  - # 19
    frequency:   16.0043290402
  - # 20
    frequency:   21.2248406593
  - # 21
    frequency:   65.2328876514

- q-position: [    0.0050505,    0.0000000,    0.0000000 ]
  distance:    0.0015721
  band:
  - # 1
    frequency:   -0.5281816697
  - # 2
    frequency:   -0.5254678616
  - # 3
    frequency:    0.0014803697
  - # 4
    frequency:    0.0629645402
  - # 5
    frequency:    0.1005094231
  - # 6
    frequency:    3.0196927833
  - # 7
    frequency:    3.0208202270
  - # 8
    frequency:    4.6539864398
  - # 9
    frequency:    4.6604745287
  - # 10
    frequency:    4.7196463525
  - # 11
    frequency:    5.5077410528
  - # 12
    frequency:    5.5113543957
  - # 13
    frequency:    7.5451955741
  - # 14
    frequency:    9.4757607613
  - # 15
    frequency:    9.5118934783
  - # 16
    frequency:    9.5345492680
  - # 17
    frequency:   10.4787161619
  - # 18
    frequency:   10.4790405206
  - # 19
    frequency:   16.0032760415
  - # 20
    frequency:   21.2247869322
  - # 21
    frequency:   65.2328186135

- q-position: [    0.0101010,    0.0000000,    0.0000000 ]
  distance:    0.0031442
  band:
  - # 1
    frequency:   -0.5313700276
  - # 2
    frequency:   -0.5205373195
  - # 3
    frequency:    0.0059141695
  - # 4
    frequency:    0.1250796521
  - # 5
    frequency:    0.2005708801
  - # 6
    frequency:    3.0199012831
  - # 7
    frequency:    3.0244001247
  - # 8
    frequency:    4.6402412787
  - # 9
    frequency:    4.6608424731
  - # 10
    frequency:    4.7353235977
  - # 11
    frequency:    5.5074487976
  - # 12
    frequency:    5.5218192142
  - # 13
    frequency:    7.5440006471
  - # 14
    frequency:    9.4526778539
  - # 15
    frequency:    9.5112499371
  - # 16
    frequency:    9.5675517971
  - # 17
    frequency:   10.4788128227
  - # 18
    frequency:   10.4801209515
  - # 19
    frequency:   16.0001189870
  - # 20
    frequency:   21.2246258469
  - # 21
    frequency:   65.2326116038

- q-position: [    0.0151515,    0.0000000,    0.0000000 ]
  distance:    0.0047162
  band:
  - # 1
    frequency:   -0.5360896986
  - # 2
    frequency:   -0.5117969770
  - # 3
    frequency:    0.0132784954
  - # 4
    frequency:    0.1857356713
  - # 5
    frequency:    0.2999312819
  - # 6
    frequency:    3.0202493770
  - # 7
    frequency:    3.0303311705
  - # 8
    frequency:    4.6243543307
  - # 9
    frequency:    4.6614543214
  - # 10
    frequency:    4.7543833462
  - # 11
    frequency:    5.5069648501
  - # 12
    frequency:    5.5389891561
  - # 13
    frequency:    7.5420109453
  - # 14
    frequency:    9.4313593137
  - # 15
    frequency:    9.5101791368
  - # 16
    frequency:    9.6054148922
  - # 17
    frequency:   10.4789738001
  - # 18
    frequency:   10.4819587481
  - # 19
    frequency:   15.9948637043
  - # 20
    frequency:   21.2243576901
  - # 21
    frequency:   65.2322669343

- q-position: [    0.0202020,    0.0000000,    0.0000000 ]
  distance:    0.0062883
  band:
  - # 1
    frequency:   -0.5417134062
  - # 2
    frequency:   -0.4986830568
  - # 3
    frequency:    0.0235366982
  - # 4
    frequency:    0.2446493079
  - # 5
    frequency:    0.3985579310
  - # 6
    frequency:    3.0207379459
  - # 7
    frequency:    3.0385615347
  - # 8
    frequency:    4.6080456407
  - # 9
    frequency:    4.6623079768
  - # 10
    frequency:    4.7750426843
  - # 11
    frequency:    5.5062939205
  - # 12
    frequency:    5.5624643181
  - # 13
    frequency:    7.5392292328
  - # 14
    frequency:    9.4116058423
  - # 15
    frequency:    9.5086837250
  - # 16
    frequency:    9.6483443587
  - # 17
    frequency:   10.4791989071
  - # 18
    frequency:   10.4846153641
  - # 19
    frequency:   15.9875199134
  - # 20
    frequency:   21.2239829392
  - # 21
    frequency:   65.2317851237

- q-position: [    0.0252525,    0.0000000,    0.0000000 ]
  distance:    0.0078604
  band:
  - # 1
    frequency:   -0.5476829076
  - # 2
    frequency:   -0.4806006298
  - # 3
    frequency:    0.0366404223
  - # 4
    frequency:    0.3018017766
  - # 5
    frequency:    0.4965418631
  - # 6
    frequency:    3.0213682035
  - # 7
    frequency:    3.0490212126
  - # 8
    frequency:    4.5918654772
  - # 9
    frequency:    4.6634004877
  - # 10
    frequency:    4.7966773644
  - # 11
    frequency:    5.5054425902
  - # 12
    frequency:    5.5917005248
  - # 13
    frequency:    7.5356593781
  - # 14
    frequency:    9.3930248086
  - # 15
    frequency:    9.5067673990
  - # 16
    frequency:    9.6967180053
  - # 17
    frequency:   10.4794878801
  - # 18
    frequency:   10.4881900747
  - # 19
    frequency:   15.9781012385
  - # 20
    frequency:   21.2235022602
  - # 21
    frequency:   65.2311668972

- q-position: [    0.0303030,    0.0000000,    0.0000000 ]
  distance:    0.0094325
  band:
  - # 1
    frequency:   -0.5535806887
  - # 2
    frequency:   -0.4568671624
  - # 3
    frequency:    0.0525333020
  - # 4
    frequency:    0.3573265917
  - # 5
    frequency:    0.5940010994
  - # 6
    frequency:    3.0221416764
  - # 7
    frequency:    3.0616242928
  - # 8
    frequency:    4.5760187799
  - # 9
    frequency:    4.6647280325
  - # 10
    frequency:    4.8190070312
  - # 11
    frequency:    5.5044192980
  - # 12
    frequency:    5.6260271027
  - # 13
    frequency:    7.5313063505
  - # 14
    frequency:    9.3752381516
  - # 15
    frequency:    9.5044348960
  - # 16
    frequency:    9.7508499517
  - # 17
    frequency:   10.4798403769
  - # 18
    frequency:   10.4928375176
  - # 19
    frequency:   15.9666252265
  - # 20
    frequency:   21.2229165061
  - # 21
    frequency:   65.2304131836

- q-position: [    0.0353535,    0.0000000,    0.0000000 ]
  distance:    0.0110045
  band:
  - # 1
    frequency:   -0.5591297519
  - # 2
    frequency:   -0.4265617236
  - # 3
    frequency:    0.0711575357
  - # 4
    frequency:    0.4114173926
  - # 5
    frequency:    0.6910310547
  - # 6
    frequency:    3.0230601798
  - # 7
    frequency:    3.0762715223
  - # 8
    frequency:    4.5605913823
  - # 9
    frequency:    4.6662859022
  - # 10
    frequency:    4.8418770095
  - # 11
    frequency:    5.5032343218
  - # 12
    frequency:    5.6646711136
  - # 13
    frequency:    7.5261762156
  - # 14
    frequency:    9.3579140045
  - # 15
    frequency:    9.5016919802
  - # 16
    frequency:    9.8109158513
  - # 17
    frequency:   10.4802559747
  - # 18
    frequency:   10.4987983878
  - # 19
    frequency:   15.9531133732
  - # 20
    frequency:   21.2222267142
  - # 21
    frequency:   65.2295251141

- q-position: [    0.0404040,    0.0000000,    0.0000000 ]
  distance:    0.0125766
  band:
  - # 1
    frequency:   -0.5641643832
  - # 2
    frequency:   -0.3882566309
  - # 3
    frequency:    0.0924671464
  - # 4
    frequency:    0.4642730574
  - # 5
    frequency:    0.7876912692
  - # 6
    frequency:    3.0241257884
  - # 7
    frequency:    3.0928529907
  - # 8
    frequency:    4.5456231288
  - # 9
    frequency:    4.6680684810
  - # 10
    frequency:    4.8651904433
  - # 11
    frequency:    5.5018997543
  - # 12
    frequency:    5.7067871850
  - # 13
    frequency:    7.5202761261
  - # 14
    frequency:    9.3407721425
  - # 15
    frequency:    9.4985454274
  - # 16
    frequency:    9.8768788131
  - # 17
    frequency:   10.4807341672
  - # 18
    frequency:   10.5064540402
  - # 19
    frequency:   15.9375911608
  - # 20
    frequency:   21.2214341025
  - # 21
    frequency:   65.2285040194

- q-position: [    0.0454545,    0.0000000,    0.0000000 ]
  distance:    0.0141487
  band:
  - # 1
    frequency:   -0.5685974217
  - # 2
    frequency:   -0.3394532835
  - # 3
    frequency:    0.1164601183
  - # 4
    frequency:    0.5160718075
  - # 5
    frequency:    0.8840085215
  - # 6
    frequency:    3.0253408044
  - # 7
    frequency:    3.1112507803
  - # 8
    frequency:    4.5311356394
  - # 9
    frequency:    4.6700692277
  - # 10
    frequency:    4.8888828682
  - # 11
    frequency:    5.5004294731
  - # 12
    frequency:    5.7514910287
  - # 13
    frequency:    7.5136143090
  - # 14
    frequency:    9.3235819957
  - # 15
    frequency:    9.4950030049
  - # 16
    frequency:    9.9483770053
  - # 17
    frequency:   10.4812743621
  - # 18
    frequency:   10.5164261264
  - # 19
    frequency:   15.9200881083
  - # 20
    frequency:   21.2205400668
  - # 21
    frequency:   65.2273514263

- q-position: [    0.0505051,    0.0000000,    0.0000000 ]
  distance:    0.0157208
  band:
  - # 1
    frequency:   -0.5723934630
  - # 2
    frequency:   -0.2750039234
  - # 3
    frequency:    0.1432772409
  - # 4
    frequency:    0.5669623088
  - # 5
    frequency:    0.9799843301
  - # 6
    frequency:    3.0267077204
  - # 7
    frequency:    3.1313414684
  - # 8
    frequency:    4.5171440628
  - # 9
    frequency:    4.6722806577
  - # 10
    frequency:    4.9129104010
  - # 11
    frequency:    5.4988391029
  - # 12
    frequency:    5.7978940721
  - # 13
    frequency:    7.5062000478
  - # 14
    frequency:    9.3061578948
  - # 15
    frequency:    9.4910734493
  - # 16
    frequency:   10.0245287215
  - # 17
    frequency:   10.4818758777
  - # 18
    frequency:   10.5297618376
  - # 19
    frequency:   15.9006378404
  - # 20
    frequency:   21.2195461758
  - # 21
    frequency:   65.2260690546

- q-position: [    0.0555556,    0.0000000,    0.0000000 ]
  distance:    0.0172928
  band:
  - # 1
    frequency:   -0.5755494641
  - # 2
    frequency:   -0.1800649899
  - # 3
    frequency:    0.1736249323
  - # 4
    frequency:    0.6170632018
  - # 5
    frequency:    1.0756019855
  - # 6
    frequency:    3.0282291818
  - # 7
    frequency:    3.1529984034
  - # 8
    frequency:    4.5036623326
  - # 9
    frequency:    4.6746943301
  - # 10
    frequency:    4.9372428568
  - # 11
    frequency:    5.4971459691
  - # 12
    frequency:    5.8451364855
  - # 13
    frequency:    7.4980436590
  - # 14
    frequency:    9.2883533842
  - # 15
    frequency:    9.4867664390
  - # 16
    frequency:   10.1035860934
  - # 17
    frequency:   10.4825379402
  - # 18
    frequency:   10.5482728448
  - # 19
    frequency:   15.8792781793
  - # 20
    frequency:   21.2184541666
  - # 21
    frequency:   65.2246588129

- q-position: [    0.0606061,    0.0000000,    0.0000000 ]
  distance:    0.0188649
  band:
  - # 1
    frequency:   -0.5780815158
  - # 2
    frequency:    0.1103638140
  - # 3
    frequency:    0.2117404286
  - # 4
    frequency:    0.6664661946
  - # 5
    frequency:    1.1708318381
  - # 6
    frequency:    3.0299079459
  - # 7
    frequency:    3.1760937152
  - # 8
    frequency:    4.4907055299
  - # 9
    frequency:    4.6773008391
  - # 10
    frequency:    4.9618589965
  - # 11
    frequency:    5.4953690418
  - # 12
    frequency:    5.8924162054
  - # 13
    frequency:    7.4891564635
  - # 14
    frequency:    9.2700555051
  - # 15
    frequency:    9.4820925636
  - # 16
    frequency:   10.1823841645
  - # 17
    frequency:   10.4832596802
  - # 18
    frequency:   10.5750813999
  - # 19
    frequency:   15.8560512666
  - # 20
    frequency:   21.2172659394
  - # 21
    frequency:   65.2231227943

- q-position: [    0.0656566,    0.0000000,    0.0000000 ]
  distance:    0.0204370
  band:
  - # 1
    frequency:   -0.5800161030
  - # 2
    frequency:    0.2126268609
  - # 3
    frequency:    0.2788928239
  - # 4
    frequency:    0.7152402723
  - # 5
    frequency:    1.2656348936
  - # 6
    frequency:    3.0317468408
  - # 7
    frequency:    3.2005000421
  - # 8
    frequency:    4.4782908976
  - # 9
    frequency:    4.6800898145
  - # 10
    frequency:    4.9867429759
  - # 11
    frequency:    5.4935288683
  - # 12
    frequency:    5.9390121829
  - # 13
    frequency:    7.4795507530
  - # 14
    frequency:    9.2511795060
  - # 15
    frequency:    9.4770632885
  - # 16
    frequency:   10.2558525031
  - # 17
    frequency:   10.4840401301
  - # 18
    frequency:   10.6151068602
  - # 19
    frequency:   15.8310037230
  - # 20
    frequency:   21.2159835517
  - # 21
    frequency:   65.2214632717

- q-position: [    0.0707071,    0.0000000,    0.0000000 ]
  distance:    0.0220091
  band:
  - # 1
    frequency:   -0.5813844375
  - # 2
    frequency:    0.2564646693
  - # 3
    frequency:    0.3606758275
  - # 4
    frequency:    0.7634359082
  - # 5
    frequency:    1.3599651112
  - # 6
    frequency:    3.0337487239
  - # 7
    frequency:    3.2260919830
  - # 8
    frequency:    4.4664382281
  - # 9
    frequency:    4.6830499318
  - # 10
    frequency:    5.0118816487
  - # 11
    frequency:    5.4916474930
  - # 12
    frequency:    5.9843008444
  - # 13
    frequency:    7.4692397525
  - # 14
    frequency:    9.2316641812
  - # 15
    frequency:    9.4716909152
  - # 16
    frequency:   10.3179103613
  - # 17
    frequency:   10.4848782210
  - # 18
    frequency:   10.6741720103
  - # 19
    frequency:   15.8041868590
  - # 20
    frequency:   21.2146092122
  - # 21
    frequency:   65.2196826925

- q-position: [    0.0757576,    0.0000000,    0.0000000 ]
  distance:    0.0235811
  band:
  - # 1
    frequency:   -0.5822188350
  - # 2
    frequency:    0.2948202033
  - # 3
    frequency:    0.4346272682
  - # 4
    frequency:    0.8110888329
  - # 5
    frequency:    1.4537707952
  - # 6
    frequency:    3.0359164414
  - # 7
    frequency:    3.2527472890
  - # 8
    frequency:    4.4551699759
  - # 9
    frequency:    4.6861689364
  - # 10
    frequency:    5.0372625463
  - # 11
    frequency:    5.4897483621
  - # 12
    frequency:    6.0277655224
  - # 13
    frequency:    7.4582375805
  - # 14
    frequency:    9.2114678905
  - # 15
    frequency:    9.4659885371
  - # 16
    frequency:   10.3650001445
  - # 17
    frequency:   10.4857727807
  - # 18
    frequency:   10.7554745379
  - # 19
    frequency:   15.7756569478
  - # 20
    frequency:   21.2131452740
  - # 21
    frequency:   65.2177836729

- q-position: [    0.0808081,    0.0000000,    0.0000000 ]
  distance:    0.0251532
  band:
  - # 1
    frequency:   -0.5825504299
  - # 2
    frequency:    0.3333336045
  - # 3
    frequency:    0.5019339700
  - # 4
    frequency:    0.8582232336
  - # 5
    frequency:    1.5469953742
  - # 6
    frequency:    3.0382527887
  - # 7
    frequency:    3.2803478225
  - # 8
    frequency:    4.4445112724
  - # 9
    frequency:    4.6894336817
  - # 10
    frequency:    5.0628723980
  - # 11
    frequency:    5.4878562128
  - # 12
    frequency:    6.0689992845
  - # 13
    frequency:    7.4465592095
  - # 14
    frequency:    9.1905652286
  - # 15
    frequency:    9.4599699900
  - # 16
    frequency:   10.3985494233
  - # 17
    frequency:   10.4867225311
  - # 18
    frequency:   10.8571331965
  - # 19
    frequency:   15.7454755815
  - # 20
    frequency:   21.2115942275
  - # 21
    frequency:   65.2157689924

- q-position: [    0.0858586,    0.0000000,    0.0000000 ]
  distance:    0.0267253
  band:
  - # 1
    frequency:   -0.5824077578
  - # 2
    frequency:    0.3728475253
  - # 3
    frequency:    0.5645332897
  - # 4
    frequency:    0.9048543920
  - # 5
    frequency:    1.6395777720
  - # 6
    frequency:    3.0407604742
  - # 7
    frequency:    3.3087803103
  - # 8
    frequency:    4.4344899278
  - # 9
    frequency:    4.6928301860
  - # 10
    frequency:    5.0886960721
  - # 11
    frequency:    5.4859969435
  - # 12
    frequency:    6.1077020965
  - # 13
    frequency:    7.4342204296
  - # 14
    frequency:    9.1689442747
  - # 15
    frequency:    9.4536497987
  - # 16
    frequency:   10.4225636384
  - # 17
    frequency:   10.4877260870
  - # 18
    frequency:   10.9746059307
  - # 19
    frequency:   15.7137101337
  - # 20
    frequency:   21.2099586929
  - # 21
    frequency:   65.2136415870

- q-position: [    0.0909091,    0.0000000,    0.0000000 ]
  distance:    0.0282974
  band:
  - # 1
    frequency:   -0.5818158966
  - # 2
    frequency:    0.4135270416
  - # 3
    frequency:    0.6236605369
  - # 4
    frequency:    0.9509908256
  - # 5
    frequency:    1.7314525058
  - # 6
    frequency:    3.0434420853
  - # 7
    frequency:    3.3379369223
  - # 8
    frequency:    4.4251364591
  - # 9
    frequency:    4.6963437089
  - # 10
    frequency:    5.1147158315
  - # 11
    frequency:    5.4841974659
  - # 12
    frequency:    6.1436735758
  - # 13
    frequency:    7.4212378176
  - # 14
    frequency:    9.1466043362
  - # 15
    frequency:    9.4470431179
  - # 16
    frequency:   10.4405902649
  - # 17
    frequency:   10.4887819551
  - # 18
    frequency:   11.1037383650
  - # 19
    frequency:   15.6804343595
  - # 20
    frequency:   21.2082414126
  - # 21
    frequency:   65.2114045432

- q-position: [    0.0959596,    0.0000000,    0.0000000 ]
  distance:    0.0298695
  band:
  - # 1
    frequency:   -0.5807959641
  - # 2
    frequency:    0.4553702026
  - # 3
    frequency:    0.6801050588
  - # 4
    frequency:    0.9966360074
  - # 5
    frequency:    1.8225495943
  - # 6
    frequency:    3.0463000590
  - # 7
    frequency:    3.3677157048
  - # 8
    frequency:    4.4164841599
  - # 9
    frequency:    4.6999588492
  - # 10
    frequency:    5.1409108178
  - # 11
    frequency:    5.4824855349
  - # 12
    frequency:    6.1768027052
  - # 13
    frequency:    7.4076287178
  - # 14
    frequency:    9.1235541040
  - # 15
    frequency:    9.4401656694
  - # 16
    frequency:   10.4549464137
  - # 17
    frequency:   10.4898885331
  - # 18
    frequency:   11.2415497157
  - # 19
    frequency:   15.6457291762
  - # 20
    frequency:   21.2064452427
  - # 21
    frequency:   65.2090610905

- q-position: [    0.1010101,    0.0000000,    0.0000000 ]
  distance:    0.0314415
  band:
  - # 1
    frequency:   -0.5793648405
  - # 2
    frequency:    0.4983197278
  - # 3
    frequency:    0.7343951116
  - # 4
    frequency:    1.0417897398
  - # 5
    frequency:    1.9127943324
  - # 6
    frequency:    3.0493366566
  - # 7
    frequency:    3.3980208989
  - # 8
    frequency:    4.4085692145
  - # 9
    frequency:    4.7036596669
  - # 10
    frequency:    5.1672566981
  - # 11
    frequency:    5.4808895578
  - # 12
    frequency:    6.2070558245
  - # 13
    frequency:    7.3934112366
  - # 14
    frequency:    9.0998101408
  - # 15
    frequency:    9.4330336740
  - # 16
    frequency:   10.4670169576
  - # 17
    frequency:   10.4910441100
  - # 18
    frequency:   11.3859480803
  - # 19
    frequency:   15.6096836792
  - # 20
    frequency:   21.2045731447
  - # 21
    frequency:   65.2066145949

- q-position: [    0.1060606,    0.0000000,    0.0000000 ]
  distance:    0.0330136
  band:
  - # 1
    frequency:   -0.5775350301
  - # 2
    frequency:    0.5422968440
  - # 3
    frequency:    0.7869004830
  - # 4
    frequency:    1.0864492470
  - # 5
    frequency:    2.0021069643
  - # 6
    frequency:    3.0525539439
  - # 7
    frequency:    3.4287631718
  - # 8
    frequency:    4.4014308521
  - # 9
    frequency:    4.7074298276
  - # 10
    frequency:    5.1937254238
  - # 11
    frequency:    5.4794383806
  - # 12
    frequency:    6.2344640359
  - # 13
    frequency:    7.3786042574
  - # 14
    frequency:    9.0753956374
  - # 15
    frequency:    9.4256637799
  - # 16
    frequency:   10.4776248810
  - # 17
    frequency:   10.4922468671
  - # 18
    frequency:   11.5353725513
  - # 19
    frequency:   15.5723964705
  - # 20
    frequency:   21.2026281765
  - # 21
    frequency:   65.2040685510

- q-position: [    0.1111111,    0.0000000,    0.0000000 ]
  distance:    0.0345857
  band:
  - # 1
    frequency:   -0.5753146052
  - # 2
    frequency:    0.5872137483
  - # 3
    frequency:    0.8378905389
  - # 4
    frequency:    1.1306100407
  - # 5
    frequency:    2.0904022772
  - # 6
    frequency:    3.0559537767
  - # 7
    frequency:    3.4598597876
  - # 8
    frequency:    4.3951115338
  - # 9
    frequency:    4.7112527724
  - # 10
    frequency:    5.2202850710
  - # 11
    frequency:    5.4781610523
  - # 12
    frequency:    6.2591109079
  - # 13
    frequency:    7.3632274803
  - # 14
    frequency:    9.0503393802
  - # 15
    frequency:    9.4180729867
  - # 16
    frequency:   10.4872706232
  - # 17
    frequency:   10.4934948793
  - # 18
    frequency:   11.6885646895
  - # 19
    frequency:   15.5339773998
  - # 20
    frequency:   21.2006134839
  - # 21
    frequency:   65.2014265744

- q-position: [    0.1161616,    0.0000000,    0.0000000 ]
  distance:    0.0361578
  band:
  - # 1
    frequency:   -0.5727071979
  - # 2
    frequency:    0.6329787259
  - # 3
    frequency:    0.8875687008
  - # 4
    frequency:    1.1742666052
  - # 5
    frequency:    2.1775891317
  - # 6
    frequency:    3.0595377919
  - # 7
    frequency:    3.4912347458
  - # 8
    frequency:    4.3896571618
  - # 9
    frequency:    4.7151119102
  - # 10
    frequency:    5.2468997400
  - # 11
    frequency:    5.4770865688
  - # 12
    frequency:    6.2811210923
  - # 13
    frequency:    7.3473014932
  - # 14
    frequency:    9.0246748859
  - # 15
    frequency:    9.4102785664
  - # 16
    frequency:   10.4947861170
  - # 17
    frequency:   10.4962676619
  - # 18
    frequency:   11.8444415990
  - # 19
    frequency:   15.4945498607
  - # 20
    frequency:   21.1985322912
  - # 21
    frequency:   65.1986923943

- q-position: [    0.1212121,    0.0000000,    0.0000000 ]
  distance:    0.0377298
  band:
  - # 1
    frequency:   -0.5697120132
  - # 2
    frequency:    0.6794982852
  - # 3
    frequency:    0.9360939817
  - # 4
    frequency:    1.2174129353
  - # 5
    frequency:    2.2635699412
  - # 6
    frequency:    3.0633074053
  - # 7
    frequency:    3.5228189083
  - # 8
    frequency:    4.3851172970
  - # 9
    frequency:    4.7189908307
  - # 10
    frequency:    5.2735295032
  - # 11
    frequency:    5.4762435964
  - # 12
    frequency:    6.3006502163
  - # 13
    frequency:    7.3308478805
  - # 14
    frequency:    8.9984396645
  - # 15
    frequency:    9.4022979814
  - # 16
    frequency:   10.4961184493
  - # 17
    frequency:   10.5048179062
  - # 18
    frequency:   12.0020266565
  - # 19
    frequency:   15.4542538345
  - # 20
    frequency:   21.1963878915
  - # 21
    frequency:   65.1958698450

- q-position: [    0.1262626,    0.0000000,    0.0000000 ]
  distance:    0.0393019
  band:
  - # 1
    frequency:   -0.5663238498
  - # 2
    frequency:    0.7266778947
  - # 3
    frequency:    0.9835951000
  - # 4
    frequency:    1.2600429582
  - # 5
    frequency:    2.3482401145
  - # 6
    frequency:    3.0672638148
  - # 7
    frequency:    3.5545501389
  - # 8
    frequency:    4.3815453657
  - # 9
    frequency:    4.7228735361
  - # 10
    frequency:    5.3001303998
  - # 11
    frequency:    5.4756601804
  - # 12
    frequency:    6.3178761994
  - # 13
    frequency:    7.3138893754
  - # 14
    frequency:    8.9716745834
  - # 15
    frequency:    9.3941487997
  - # 16
    frequency:   10.4974896473
  - # 17
    frequency:   10.5130543877
  - # 18
    frequency:   12.1604101279
  - # 19
    frequency:   15.4132499508
  - # 20
    frequency:   21.1941836384
  - # 21
    frequency:   65.1929628576

- q-position: [    0.1313131,    0.0000000,    0.0000000 ]
  distance:    0.0408740
  band:
  - # 1
    frequency:   -0.5625331135
  - # 2
    frequency:    0.7744219676
  - # 3
    frequency:    1.0301801738
  - # 4
    frequency:    1.3021508616
  - # 5
    frequency:    2.4314874842
  - # 6
    frequency:    3.0714080095
  - # 7
    frequency:    3.5863734716
  - # 8
    frequency:    4.3789988363
  - # 9
    frequency:    4.7267446858
  - # 10
    frequency:    5.3266544787
  - # 11
    frequency:    5.4753634408
  - # 12
    frequency:    6.3329919905
  - # 13
    frequency:    7.2964500660
  - # 14
    frequency:    8.9444233081
  - # 15
    frequency:    9.3858486100
  - # 16
    frequency:   10.4988973883
  - # 17
    frequency:   10.5210661695
  - # 18
    frequency:   12.3187244781
  - # 19
    frequency:   15.3717249398
  - # 20
    frequency:   21.1919229356
  - # 21
    frequency:   65.1899754523

- q-position: [    0.1363636,    0.0000000,    0.0000000 ]
  distance:    0.0424461
  band:
  - # 1
    frequency:   -0.5583258176
  - # 2
    frequency:    0.8226333778
  - # 3
    frequency:    1.0759437072
  - # 4
    frequency:    1.3437313444
  - # 5
    frequency:    2.5131917505
  - # 6
    frequency:    3.0757407851
  - # 7
    frequency:    3.6182413174
  - # 8
    frequency:    4.3775393336
  - # 9
    frequency:    4.7305898493
  - # 10
    frequency:    5.3530498998
  - # 11
    frequency:    5.4753792621
  - # 12
    frequency:    6.3461996079
  - # 13
    frequency:    7.2785556608
  - # 14
    frequency:    8.9167318026
  - # 15
    frequency:    9.3774149338
  - # 16
    frequency:   10.5003392606
  - # 17
    frequency:   10.5289133677
  - # 18
    frequency:   12.4761261359
  - # 19
    frequency:   15.3298990015
  - # 20
    frequency:   21.1896092282
  - # 21
    frequency:   65.1869117294

- q-position: [    0.1414141,    0.0000000,    0.0000000 ]
  distance:    0.0440181
  band:
  - # 1
    frequency:   -0.5536835573
  - # 2
    frequency:    0.8712126373
  - # 3
    frequency:    1.1209718887
  - # 4
    frequency:    1.3847798073
  - # 5
    frequency:    2.5932239887
  - # 6
    frequency:    3.0802627627
  - # 7
    frequency:    3.6501137088
  - # 8
    frequency:    4.3772326586
  - # 9
    frequency:    4.7343957598
  - # 10
    frequency:    5.3792611067
  - # 11
    frequency:    5.4757319823
  - # 12
    frequency:    6.3577053019
  - # 13
    frequency:    7.2602338264
  - # 14
    frequency:    8.8886478742
  - # 15
    frequency:    9.3688651397
  - # 16
    frequency:   10.5018127688
  - # 17
    frequency:   10.5366365047
  - # 18
    frequency:   12.6317789787
  - # 19
    frequency:   15.2880358219
  - # 20
    frequency:   21.1872459933
  - # 21
    frequency:   65.1837758611

- q-position: [    0.1464646,    0.0000000,    0.0000000 ]
  distance:    0.0455902
  band:
  - # 1
    frequency:   -0.5485834528
  - # 2
    frequency:    0.9200568008
  - # 3
    frequency:    1.1653468298
  - # 4
    frequency:    1.4252924913
  - # 5
    frequency:    2.6714462901
  - # 6
    frequency:    3.0849744137
  - # 7
    frequency:    3.6819585635
  - # 8
    frequency:    4.3781486689
  - # 9
    frequency:    4.7381505616
  - # 10
    frequency:    5.4052290892
  - # 11
    frequency:    5.4764440895
  - # 12
    frequency:    6.3677156253
  - # 13
    frequency:    7.2415146077
  - # 14
    frequency:    8.8602207536
  - # 15
    frequency:    9.3602163573
  - # 16
    frequency:   10.5033153399
  - # 17
    frequency:   10.5442625110
  - # 18
    frequency:   12.7848364405
  - # 19
    frequency:   15.2464562416
  - # 20
    frequency:   21.1848367312
  - # 21
    frequency:   65.1805720828

- q-position: [    0.1515152,    0.0000000,    0.0000000 ]
  distance:    0.0471623
  band:
  - # 1
    frequency:   -0.5429980473
  - # 2
    frequency:    0.9690581397
  - # 3
    frequency:    1.2091501335
  - # 4
    frequency:    1.4652665766
  - # 5
    frequency:    2.7477116399
  - # 6
    frequency:    3.0898760867
  - # 7
    frequency:    3.7137519240
  - # 8
    frequency:    4.3803609714
  - # 9
    frequency:    4.7418440413
  - # 10
    frequency:    5.4308917583
  - # 11
    frequency:    5.4775359333
  - # 12
    frequency:    6.3764341881
  - # 13
    frequency:    7.2224309437
  - # 14
    frequency:    8.8315007013
  - # 15
    frequency:    9.3514853928
  - # 16
    frequency:   10.5048443301
  - # 17
    frequency:   10.5518086863
  - # 18
    frequency:   12.9344198046
  - # 19
    frequency:   15.2055569222
  - # 20
    frequency:   21.1823849564
  - # 21
    frequency:   65.1773046845
