nqpoint: 300    
npath: 3      
segment_nqpoint:
- 100
- 100
- 100
labels:
- [ 'G', 'M' ]
- [ 'M', 'K' ]
- [ 'K', 'G' ]
reciprocal_lattice:
- [   0.30322343,   0.17506613,   0.00000000 ] # a*
- [   0.00000000,   0.35013225,   0.00000000 ] # b*
- [   0.00000000,   0.00000000,   0.03948719 ] # c*
natom: 7      
lattice:
- [     3.297898222931225,     0.000000000000000,     0.000000000000000 ] # a
- [    -1.648949111465613,     2.856063640159445,     0.000000000000000 ] # b
- [     0.000000000000000,     0.000000000000000,    25.324669249941124 ] # c
points:
- symbol: C # 1
  coordinates: [  0.000000000000000,  0.000000000000000,  0.555842579975358 ]
  mass: 12.010700
- symbol: C # 2
  coordinates: [  0.666666984744047,  0.333332985985144,  0.402261550561951 ]
  mass: 12.010700
- symbol: H # 3
  coordinates: [  0.333332985432215,  0.666666983183674,  0.644615299367792 ]
  mass: 1.007940
- symbol: Hf # 4
  coordinates: [  0.333332985432215,  0.666666983183674,  0.509854323625059 ]
  mass: 178.490000
- symbol: Hf # 5
  coordinates: [  0.666666984744047,  0.333332985985144,  0.605559734162017 ]
  mass: 178.490000
- symbol: N # 6
  coordinates: [  0.666666984744047,  0.333332985985144,  0.355384700632208 ]
  mass: 14.006700
- symbol: O # 7
  coordinates: [  0.666666984744047,  0.333332985985144,  0.455130105467027 ]
  mass: 15.999400

phonon:
- q-position: [    0.0000000,    0.0000000,    0.0000000 ]
  distance:    0.0000000
  band:
  - # 1
    frequency:   -0.0000090224
  - # 2
    frequency:   -0.0000004507
  - # 3
    frequency:    0.0000129311
  - # 4
    frequency:    2.0734972262
  - # 5
    frequency:    2.0734972262
  - # 6
    frequency:    3.9993591438
  - # 7
    frequency:    3.9993591439
  - # 8
    frequency:    5.1820318387
  - # 9
    frequency:    6.2525927545
  - # 10
    frequency:    6.2525927545
  - # 11
    frequency:    8.1351517784
  - # 12
    frequency:   13.8286738466
  - # 13
    frequency:   13.8286738466
  - # 14
    frequency:   17.3125257267
  - # 15
    frequency:   18.6363318466
  - # 16
    frequency:   18.6363318467
  - # 17
    frequency:   28.1899068232
  - # 18
    frequency:   31.6304897639
  - # 19
    frequency:   31.6304897640
  - # 20
    frequency:   31.8037254033
  - # 21
    frequency:   68.1182306388

- q-position: [    0.0050505,    0.0000000,    0.0000000 ]
  distance:    0.0017683
  band:
  - # 1
    frequency:    0.0011844975
  - # 2
    frequency:    0.0282885423
  - # 3
    frequency:    0.0830182642
  - # 4
    frequency:    2.0727505584
  - # 5
    frequency:    2.0741958207
  - # 6
    frequency:    3.9991331066
  - # 7
    frequency:    3.9995231911
  - # 8
    frequency:    5.1819978257
  - # 9
    frequency:    6.2525839844
  - # 10
    frequency:    6.2526447328
  - # 11
    frequency:    8.1348186127
  - # 12
    frequency:   13.8287253996
  - # 13
    frequency:   13.8288891385
  - # 14
    frequency:   17.3123108278
  - # 15
    frequency:   18.6358424607
  - # 16
    frequency:   18.6361382322
  - # 17
    frequency:   28.1892410928
  - # 18
    frequency:   31.6288201639
  - # 19
    frequency:   31.6291670313
  - # 20
    frequency:   31.8032782562
  - # 21
    frequency:   68.1179487086

- q-position: [    0.0101010,    0.0000000,    0.0000000 ]
  distance:    0.0035367
  band:
  - # 1
    frequency:    0.0047341597
  - # 2
    frequency:    0.0566680673
  - # 3
    frequency:    0.1660270907
  - # 4
    frequency:    2.0705124814
  - # 5
    frequency:    2.0762886354
  - # 6
    frequency:    3.9984568370
  - # 7
    frequency:    4.0000177450
  - # 8
    frequency:    5.1818948313
  - # 9
    frequency:    6.2525584884
  - # 10
    frequency:    6.2528031437
  - # 11
    frequency:    8.1338194145
  - # 12
    frequency:   13.8288801805
  - # 13
    frequency:   13.8295347564
  - # 14
    frequency:   17.3116666492
  - # 15
    frequency:   18.6343753368
  - # 16
    frequency:   18.6355565971
  - # 17
    frequency:   28.1872459565
  - # 18
    frequency:   31.6238165033
  - # 19
    frequency:   31.6252033608
  - # 20
    frequency:   31.8019366287
  - # 21
    frequency:   68.1171034829

- q-position: [    0.0151515,    0.0000000,    0.0000000 ]
  distance:    0.0053050
  band:
  - # 1
    frequency:    0.0106376241
  - # 2
    frequency:    0.0852291660
  - # 3
    frequency:    0.2490166666
  - # 4
    frequency:    2.0667887807
  - # 5
    frequency:    2.0797668845
  - # 6
    frequency:    3.9973358472
  - # 7
    frequency:    4.0008499453
  - # 8
    frequency:    5.1817200617
  - # 9
    frequency:    6.2525187000
  - # 10
    frequency:    6.2530753178
  - # 11
    frequency:    8.1321550839
  - # 12
    frequency:   13.8291385500
  - # 13
    frequency:   13.8306099254
  - # 14
    frequency:   17.3105947388
  - # 15
    frequency:   18.6319335819
  - # 16
    frequency:   18.6345845867
  - # 17
    frequency:   28.1839275743
  - # 18
    frequency:   31.6154941852
  - # 19
    frequency:   31.6186121568
  - # 20
    frequency:   31.7997001363
  - # 21
    frequency:   68.1156966549

- q-position: [    0.0202020,    0.0000000,    0.0000000 ]
  distance:    0.0070734
  band:
  - # 1
    frequency:    0.0188762658
  - # 2
    frequency:    0.1140616487
  - # 3
    frequency:    0.3319764266
  - # 4
    frequency:    2.0615891206
  - # 5
    frequency:    2.0846163219
  - # 6
    frequency:    3.9957792768
  - # 7
    frequency:    4.0020313752
  - # 8
    frequency:    5.1814690978
  - # 9
    frequency:    6.2524686419
  - # 10
    frequency:    6.2534731516
  - # 11
    frequency:    8.1298271288
  - # 12
    frequency:   13.8295010916
  - # 13
    frequency:   13.8321133456
  - # 14
    frequency:   17.3090976557
  - # 15
    frequency:   18.6285223906
  - # 16
    frequency:   18.6332183471
  - # 17
    frequency:   28.1792961979
  - # 18
    frequency:   31.6038788311
  - # 19
    frequency:   31.6094152152
  - # 20
    frequency:   31.7965686671
  - # 21
    frequency:   68.1137310410

- q-position: [    0.0252525,    0.0000000,    0.0000000 ]
  distance:    0.0088417
  band:
  - # 1
    frequency:    0.0294246514
  - # 2
    frequency:    0.1432541536
  - # 3
    frequency:    0.4148946852
  - # 4
    frequency:    2.0549270771
  - # 5
    frequency:    2.0908178072
  - # 6
    frequency:    3.9937998216
  - # 7
    frequency:    4.0035775991
  - # 8
    frequency:    5.1811362348
  - # 9
    frequency:    6.2524138759
  - # 10
    frequency:    6.2540126401
  - # 11
    frequency:    8.1268376782
  - # 12
    frequency:   13.8299685869
  - # 13
    frequency:   13.8340431808
  - # 14
    frequency:   17.3071789397
  - # 15
    frequency:   18.6241490705
  - # 16
    frequency:   18.6314526289
  - # 17
    frequency:   28.1733661468
  - # 18
    frequency:   31.5890062038
  - # 19
    frequency:   31.5976420538
  - # 20
    frequency:   31.7925430266
  - # 21
    frequency:   68.1112105718

- q-position: [    0.0303030,    0.0000000,    0.0000000 ]
  distance:    0.0106101
  band:
  - # 1
    frequency:    0.0422511262
  - # 2
    frequency:    0.1728937561
  - # 3
    frequency:    0.4977582755
  - # 4
    frequency:    2.0468201854
  - # 5
    frequency:    2.0983480458
  - # 6
    frequency:    3.9914136352
  - # 7
    frequency:    4.0055075437
  - # 8
    frequency:    5.1807149268
  - # 9
    frequency:    6.2523614339
  - # 10
    frequency:    6.2547132513
  - # 11
    frequency:    8.1231894984
  - # 12
    frequency:   13.8305419800
  - # 13
    frequency:   13.8363970422
  - # 14
    frequency:   17.3048430686
  - # 15
    frequency:   18.6188230764
  - # 16
    frequency:   18.6292809301
  - # 17
    frequency:   28.1661557750
  - # 18
    frequency:   31.5709221014
  - # 19
    frequency:   31.5833292115
  - # 20
    frequency:   31.7876256054
  - # 21
    frequency:   68.1081402800

- q-position: [    0.0353535,    0.0000000,    0.0000000 ]
  distance:    0.0123784
  band:
  - # 1
    frequency:    0.0573184974
  - # 2
    frequency:    0.2030655764
  - # 3
    frequency:    0.5805521990
  - # 4
    frequency:    2.0372900018
  - # 5
    frequency:    2.1071804549
  - # 6
    frequency:    3.9886402034
  - # 7
    frequency:    4.0078427466
  - # 8
    frequency:    5.1801983086
  - # 9
    frequency:    6.2523197277
  - # 10
    frequency:    6.2555971681
  - # 11
    frequency:    8.1188860142
  - # 12
    frequency:   13.8312223348
  - # 13
    frequency:   13.8391719699
  - # 14
    frequency:   17.3020954042
  - # 15
    frequency:   18.6125560540
  - # 16
    frequency:   18.6266956756
  - # 17
    frequency:   28.1576874265
  - # 18
    frequency:   31.5496822197
  - # 19
    frequency:   31.5665196368
  - # 20
    frequency:   31.7818209431
  - # 21
    frequency:   68.1045262851

- q-position: [    0.0404040,    0.0000000,    0.0000000 ]
  distance:    0.0141468
  band:
  - # 1
    frequency:    0.0745847693
  - # 2
    frequency:    0.2338523866
  - # 3
    frequency:    0.6632592881
  - # 4
    frequency:    2.0263621829
  - # 5
    frequency:    2.1172861015
  - # 6
    frequency:    3.9855021925
  - # 7
    frequency:    4.0106065027
  - # 8
    frequency:    5.1795797607
  - # 9
    frequency:    6.2522984396
  - # 10
    frequency:    6.2566884318
  - # 11
    frequency:    8.1139313326
  - # 12
    frequency:   13.8320107831
  - # 13
    frequency:   13.8423644103
  - # 14
    frequency:   17.2989421282
  - # 15
    frequency:   18.6053618925
  - # 16
    frequency:   18.6236884298
  - # 17
    frequency:   28.1479873785
  - # 18
    frequency:   31.5253519839
  - # 19
    frequency:   31.5472622406
  - # 20
    frequency:   31.7751361188
  - # 21
    frequency:   68.1003757747

- q-position: [    0.0454545,    0.0000000,    0.0000000 ]
  distance:    0.0159151
  band:
  - # 1
    frequency:    0.0940038874
  - # 2
    frequency:    0.2653342133
  - # 3
    frequency:    0.7458598847
  - # 4
    frequency:    2.0140665820
  - # 5
    frequency:    2.1286346612
  - # 6
    frequency:    3.9820252723
  - # 7
    frequency:    4.0138229423
  - # 8
    frequency:    5.1788534820
  - # 9
    frequency:    6.2523083935
  - # 10
    frequency:    6.2580120217
  - # 11
    frequency:    8.1083302700
  - # 12
    frequency:   13.8329084682
  - # 13
    frequency:   13.8459701928
  - # 14
    frequency:   17.2953901674
  - # 15
    frequency:   18.5972567848
  - # 16
    frequency:   18.6202501392
  - # 17
    frequency:   28.1370857718
  - # 18
    frequency:   31.4980063498
  - # 19
    frequency:   31.5256116213
  - # 20
    frequency:   31.7675809531
  - # 21
    frequency:   68.0956969821

- q-position: [    0.0505051,    0.0000000,    0.0000000 ]
  distance:    0.0176834
  band:
  - # 1
    frequency:    0.1155264526
  - # 2
    frequency:    0.2975879363
  - # 3
    frequency:    0.8283315359
  - # 4
    frequency:    2.0004373651
  - # 5
    frequency:    2.1411953438
  - # 6
    frequency:    3.9782379143
  - # 7
    frequency:    4.0175160763
  - # 8
    frequency:    5.1780150338
  - # 9
    frequency:    6.2523614072
  - # 10
    frequency:    6.2595929120
  - # 11
    frequency:    8.1020883810
  - # 12
    frequency:   13.8339164812
  - # 13
    frequency:   13.8499845054
  - # 14
    frequency:   17.2914471109
  - # 15
    frequency:   18.5882592959
  - # 16
    frequency:   18.6163713998
  - # 17
    frequency:   28.1250165265
  - # 18
    frequency:   31.4677295743
  - # 19
    frequency:   31.5016279399
  - # 20
    frequency:   31.7591680473
  - # 21
    frequency:   68.0904991614

- q-position: [    0.0555556,    0.0000000,    0.0000000 ]
  distance:    0.0194518
  band:
  - # 1
    frequency:    0.1391003707
  - # 2
    frequency:    0.3306868806
  - # 3
    frequency:    0.9106487102
  - # 4
    frequency:    1.9855131495
  - # 5
    frequency:    2.1549377424
  - # 6
    frequency:    3.9741711673
  - # 7
    frequency:    4.0217088443
  - # 8
    frequency:    5.1770618216
  - # 9
    frequency:    6.2524701269
  - # 10
    frequency:    6.2614551420
  - # 11
    frequency:    8.0952119878
  - # 12
    frequency:   13.8350357958
  - # 13
    frequency:   13.8544018698
  - # 14
    frequency:   17.2871211194
  - # 15
    frequency:   18.5783904372
  - # 16
    frequency:   18.6120427464
  - # 17
    frequency:   28.1118172419
  - # 18
    frequency:   31.4346149545
  - # 19
    frequency:   31.4753768961
  - # 20
    frequency:   31.7499127034
  - # 21
    frequency:   68.0847925589

- q-position: [    0.0606061,    0.0000000,    0.0000000 ]
  distance:    0.0212201
  band:
  - # 1
    frequency:    0.1646714135
  - # 2
    frequency:    0.3647003993
  - # 3
    frequency:    0.9927825346
  - # 4
    frequency:    1.9693371659
  - # 5
    frequency:    2.1698325690
  - # 6
    frequency:    3.9698584097
  - # 7
    frequency:    4.0264222007
  - # 8
    frequency:    5.1759934841
  - # 9
    frequency:    6.2526478461
  - # 10
    frequency:    6.2636209389
  - # 11
    frequency:    8.0877082106
  - # 12
    frequency:   13.8362671989
  - # 13
    frequency:   13.8592161188
  - # 14
    frequency:   17.2824208273
  - # 15
    frequency:   18.5676737472
  - # 16
    frequency:   18.6072549570
  - # 17
    frequency:   28.0975290791
  - # 18
    frequency:   31.3987645362
  - # 19
    frequency:   31.4469297593
  - # 20
    frequency:   31.7398327728
  - # 21
    frequency:   68.0785883824

- q-position: [    0.0656566,    0.0000000,    0.0000000 ]
  distance:    0.0229885
  band:
  - # 1
    frequency:    0.1921836744
  - # 2
    frequency:    0.3996934450
  - # 3
    frequency:    1.0747005552
  - # 4
    frequency:    1.9519574478
  - # 5
    frequency:    2.1858522511
  - # 6
    frequency:    3.9653350817
  - # 7
    frequency:    4.0316742692
  - # 8
    frequency:    5.1748121680
  - # 9
    frequency:    6.2529083095
  - # 10
    frequency:    6.2661099257
  - # 11
    frequency:    8.0795849965
  - # 12
    frequency:   13.8376112225
  - # 13
    frequency:   13.8644203744
  - # 14
    frequency:   17.2773552417
  - # 15
    frequency:   18.5561353757
  - # 16
    frequency:   18.6019993694
  - # 17
    frequency:   28.0821966248
  - # 18
    frequency:   31.3602887919
  - # 19
    frequency:   31.4163634155
  - # 20
    frequency:   31.7289484678
  - # 21
    frequency:   68.0718987669

- q-position: [    0.0707071,    0.0000000,    0.0000000 ]
  distance:    0.0247568
  band:
  - # 1
    frequency:    0.2215799130
  - # 2
    frequency:    0.4357261274
  - # 3
    frequency:    1.1563665213
  - # 4
    frequency:    1.9334270529
  - # 5
    frequency:    2.2029713733
  - # 6
    frequency:    3.9606383960
  - # 7
    frequency:    4.0374795959
  - # 8
    frequency:    5.1735226721
  - # 9
    frequency:    6.2532655062
  - # 10
    frequency:    6.2689384414
  - # 11
    frequency:    8.0708511478
  - # 12
    frequency:   13.8390680753
  - # 13
    frequency:   13.8700070302
  - # 14
    frequency:   17.2719336366
  - # 15
    frequency:   18.5438041726
  - # 16
    frequency:   18.5962682029
  - # 17
    frequency:   28.0658677353
  - # 18
    frequency:   31.3193062673
  - # 19
    frequency:   31.3837604013
  - # 20
    frequency:   31.7172821656
  - # 21
    frequency:   68.0647367380

- q-position: [    0.0757576,    0.0000000,    0.0000000 ]
  distance:    0.0265252
  band:
  - # 1
    frequency:    0.2528017896
  - # 2
    frequency:    0.4728532528
  - # 3
    frequency:    1.2377401937
  - # 4
    frequency:    1.9138043176
  - # 5
    frequency:    2.2211669588
  - # 6
    frequency:    3.9558070307
  - # 7
    frequency:    4.0438485227
  - # 8
    frequency:    5.1721324559
  - # 9
    frequency:    6.2537334543
  - # 10
    frequency:    6.2721189953
  - # 11
    frequency:    8.0615163467
  - # 12
    frequency:   13.8406375780
  - # 13
    frequency:   13.8759677368
  - # 14
    frequency:   17.2661654471
  - # 15
    frequency:   18.5307117772
  - # 16
    frequency:   18.5900548821
  - # 17
    frequency:   28.0485933587
  - # 18
    frequency:   31.2759431975
  - # 19
    frequency:   31.3492089078
  - # 20
    frequency:   31.7048582186
  - # 21
    frequency:   68.0571161727

- q-position: [    0.0808081,    0.0000000,    0.0000000 ]
  distance:    0.0282935
  band:
  - # 1
    frequency:    0.2857899989
  - # 2
    frequency:    0.5111238421
  - # 3
    frequency:    1.3187771769
  - # 4
    frequency:    1.8931531535
  - # 5
    frequency:    2.2404185958
  - # 6
    frequency:    3.9508808052
  - # 7
    frequency:    4.0507867006
  - # 8
    frequency:    5.1706515154
  - # 9
    frequency:    6.2543259805
  - # 10
    frequency:    6.2756598673
  - # 11
    frequency:    8.0515911783
  - # 12
    frequency:   13.8423191024
  - # 13
    frequency:   13.8822933921
  - # 14
    frequency:   17.2600601632
  - # 15
    frequency:   18.5168927089
  - # 16
    frequency:   18.5833543551
  - # 17
    frequency:   28.0304273347
  - # 18
    frequency:   31.2303330935
  - # 19
    frequency:   31.3128027462
  - # 20
    frequency:   31.6917027779
  - # 21
    frequency:   68.0490517577

- q-position: [    0.0858586,    0.0000000,    0.0000000 ]
  distance:    0.0300619
  band:
  - # 1
    frequency:    0.3204843167
  - # 2
    frequency:    0.5505806203
  - # 3
    frequency:    1.3994287727
  - # 4
    frequency:    1.8715433915
  - # 5
    frequency:    2.2607084209
  - # 6
    frequency:    3.9459003403
  - # 7
    frequency:    4.0582947542
  - # 8
    frequency:    5.1690921382
  - # 9
    frequency:    6.2550564988
  - # 10
    frequency:    6.2795648611
  - # 11
    frequency:    8.0410871482
  - # 12
    frequency:   13.8441115168
  - # 13
    frequency:   13.8889741372
  - # 14
    frequency:   17.2536272271
  - # 15
    frequency:   18.5023844560
  - # 16
    frequency:   18.5761634045
  - # 17
    frequency:   28.0114261714
  - # 18
    frequency:   31.1826162974
  - # 19
    frequency:   31.2746412691
  - # 20
    frequency:   31.6778436343
  - # 21
    frequency:   68.0405589457

- q-position: [    0.0909091,    0.0000000,    0.0000000 ]
  distance:    0.0318302
  band:
  - # 1
    frequency:    0.3568235791
  - # 2
    frequency:    0.5912594702
  - # 3
    frequency:    1.4796418550
  - # 4
    frequency:    1.8490511834
  - # 5
    frequency:    2.2820209800
  - # 6
    frequency:    3.9409067055
  - # 7
    frequency:    4.0663681056
  - # 8
    frequency:    5.1674685568
  - # 9
    frequency:    6.2559377929
  - # 10
    frequency:    6.2838332063
  - # 11
    frequency:    8.0300166970
  - # 12
    frequency:   13.8460131385
  - # 13
    frequency:   13.8959993573
  - # 14
    frequency:   17.2468759347
  - # 15
    frequency:   18.4872275613
  - # 16
    frequency:   18.5684809425
  - # 17
    frequency:   27.9916487975
  - # 18
    frequency:   31.1329395101
  - # 19
    frequency:   31.2348292503
  - # 20
    frequency:   31.6633100734
  - # 21
    frequency:   68.0316539097

- q-position: [    0.0959596,    0.0000000,    0.0000000 ]
  distance:    0.0335985
  band:
  - # 1
    frequency:    0.3947456127
  - # 2
    frequency:    0.6331888342
  - # 3
    frequency:    1.5593587591
  - # 4
    frequency:    1.8257594781
  - # 5
    frequency:    2.3043429912
  - # 6
    frequency:    3.9359410560
  - # 7
    frequency:    4.0749969601
  - # 8
    frequency:    5.1657965266
  - # 9
    frequency:    6.2569818054
  - # 10
    frequency:    6.2884596021
  - # 11
    frequency:    8.0183932091
  - # 12
    frequency:   13.8480216957
  - # 13
    frequency:   13.9033576897
  - # 14
    frequency:   17.2398153446
  - # 15
    frequency:   18.4714657029
  - # 16
    frequency:   18.5603082889
  - # 17
    frequency:   27.9711562904
  - # 18
    frequency:   31.0814552884
  - # 19
    frequency:   31.1934767209
  - # 20
    frequency:   31.6481327438
  - # 21
    frequency:   68.0223534950

- q-position: [    0.1010101,    0.0000000,    0.0000000 ]
  distance:    0.0353669
  band:
  - # 1
    frequency:    0.4341871388
  - # 2
    frequency:    0.6763890437
  - # 3
    frequency:    1.6385171821
  - # 4
    frequency:    1.8017585947
  - # 5
    frequency:    2.3276630394
  - # 6
    frequency:    3.9310442633
  - # 7
    frequency:    4.0841664486
  - # 8
    frequency:    5.1640928549
  - # 9
    frequency:    6.2581994402
  - # 10
    frequency:    6.2934343883
  - # 11
    frequency:    8.0062310166
  - # 12
    frequency:   13.8501342981
  - # 13
    frequency:   13.9110370378
  - # 14
    frequency:   17.2324541953
  - # 15
    frequency:   18.4551457664
  - # 16
    frequency:   18.5516494253
  - # 17
    frequency:   27.9500115802
  - # 18
    frequency:   31.0283215161
  - # 19
    frequency:   31.1506987656
  - # 20
    frequency:   31.6323435351
  - # 21
    frequency:   68.0126751698

- q-position: [    0.1060606,    0.0000000,    0.0000000 ]
  distance:    0.0371352
  band:
  - # 1
    frequency:    0.4750836718
  - # 2
    frequency:    0.7208715369
  - # 3
    frequency:    1.7170500842
  - # 4
    frequency:    1.7771469311
  - # 5
    frequency:    2.3519712350
  - # 6
    frequency:    3.9262565411
  - # 7
    frequency:    4.0938569222
  - # 8
    frequency:    5.1623749131
  - # 9
    frequency:    6.2596003798
  - # 10
    frequency:    6.2987438261
  - # 11
    frequency:    7.9935453972
  - # 12
    frequency:   13.8523474203
  - # 13
    frequency:   13.9190245918
  - # 14
    frequency:   17.2248008339
  - # 15
    frequency:   18.4383179089
  - # 16
    frequency:   18.5425112228
  - # 17
    frequency:   27.9282791292
  - # 18
    frequency:   30.9737008467
  - # 19
    frequency:   31.1066152810
  - # 20
    frequency:   31.6159754619
  - # 21
    frequency:   68.0026369746

- q-position: [    0.1111111,    0.0000000,    0.0000000 ]
  distance:    0.0389036
  band:
  - # 1
    frequency:    0.5173694291
  - # 2
    frequency:    0.7666379004
  - # 3
    frequency:    1.7520318727
  - # 4
    frequency:    1.7948855813
  - # 5
    frequency:    2.3772588726
  - # 6
    frequency:    3.9216170733
  - # 7
    frequency:    4.1040443868
  - # 8
    frequency:    5.1606601599
  - # 9
    frequency:    6.2611929239
  - # 10
    frequency:    6.3043704691
  - # 11
    frequency:    7.9803525667
  - # 12
    frequency:   13.8546568953
  - # 13
    frequency:   13.9273068564
  - # 14
    frequency:   17.2168631574
  - # 15
    frequency:   18.4210356091
  - # 16
    frequency:   18.5329036380
  - # 17
    frequency:   27.9060245895
  - # 18
    frequency:   30.9177601224
  - # 19
    frequency:   31.0613506967
  - # 20
    frequency:   31.5990625532
  - # 21
    frequency:   67.9922574697

- q-position: [    0.1161616,    0.0000000,    0.0000000 ]
  distance:    0.0406719
  band:
  - # 1
    frequency:    0.5609772711
  - # 2
    frequency:    0.8136786238
  - # 3
    frequency:    1.7265310103
  - # 4
    frequency:    1.8719468108
  - # 5
    frequency:    2.4035181277
  - # 6
    frequency:    3.9171636457
  - # 7
    frequency:    4.1147010659
  - # 8
    frequency:    5.1589657018
  - # 9
    frequency:    6.2629838505
  - # 10
    frequency:    6.3102936044
  - # 11
    frequency:    7.9666696656
  - # 12
    frequency:   13.8570579217
  - # 13
    frequency:   13.9358696846
  - # 14
    frequency:   17.2086485685
  - # 15
    frequency:   18.4033557039
  - # 16
    frequency:   18.5228398750
  - # 17
    frequency:   27.8833144378
  - # 18
    frequency:   30.8606697678
  - # 19
    frequency:   31.0150336628
  - # 20
    frequency:   31.5816397429
  - # 21
    frequency:   67.9815556820

- q-position: [    0.1212121,    0.0000000,    0.0000000 ]
  distance:    0.0424403
  band:
  - # 1
    frequency:    0.6058386834
  - # 2
    frequency:    0.8619713652
  - # 3
    frequency:    1.7007738639
  - # 4
    frequency:    1.9481517475
  - # 5
    frequency:    2.4307418359
  - # 6
    frequency:    3.9129322894
  - # 7
    frequency:    4.1257960747
  - # 8
    frequency:    5.1573079120
  - # 9
    frequency:    6.2649783041
  - # 10
    frequency:    6.3164897448
  - # 11
    frequency:    7.9525147397
  - # 12
    frequency:   13.8595450836
  - # 13
    frequency:   13.9446983181
  - # 14
    frequency:   17.2001639468
  - # 15
    frequency:   18.3853384065
  - # 16
    frequency:   18.5123365091
  - # 17
    frequency:   27.8602155915
  - # 18
    frequency:   30.8026031625
  - # 19
    frequency:   30.9677967032
  - # 20
    frequency:   31.5637427622
  - # 21
    frequency:   67.9705510508

- q-position: [    0.1262626,    0.0000000,    0.0000000 ]
  distance:    0.0442086
  band:
  - # 1
    frequency:    0.6518838107
  - # 2
    frequency:    0.9114783586
  - # 3
    frequency:    1.6749044735
  - # 4
    frequency:    2.0234129339
  - # 5
    frequency:    2.4589234083
  - # 6
    frequency:    3.9089569373
  - # 7
    frequency:    4.1372961918
  - # 8
    frequency:    5.1557021243
  - # 9
    frequency:    6.2671797106
  - # 10
    frequency:    6.3229331537
  - # 11
    frequency:    7.9379067154
  - # 12
    frequency:   13.8621123828
  - # 13
    frequency:   13.9537774341
  - # 14
    frequency:   17.1914156375
  - # 15
    frequency:   18.3670473044
  - # 16
    frequency:   18.5014135701
  - # 17
    frequency:   27.8367950067
  - # 18
    frequency:   30.7437359931
  - # 19
    frequency:   30.9197758386
  - # 20
    frequency:   31.5454080310
  - # 21
    frequency:   67.9592633727

- q-position: [    0.1313131,    0.0000000,    0.0000000 ]
  distance:    0.0459770
  band:
  - # 1
    frequency:    0.6990415503
  - # 2
    frequency:    0.9621422536
  - # 3
    frequency:    1.6490855588
  - # 4
    frequency:    2.0976370720
  - # 5
    frequency:    2.4880569497
  - # 6
    frequency:    3.9052691013
  - # 7
    frequency:    4.1491667089
  - # 8
    frequency:    5.1541624105
  - # 9
    frequency:    6.2695897236
  - # 10
    frequency:    6.3295963878
  - # 11
    frequency:    7.9228653685
  - # 12
    frequency:   13.8647532855
  - # 13
    frequency:   13.9630911975
  - # 14
    frequency:   17.1824094570
  - # 15
    frequency:   18.3485493343
  - # 16
    frequency:   18.4900945824
  - # 17
    frequency:   27.8131192628
  - # 18
    frequency:   30.6842455884
  - # 19
    frequency:   30.8711101791
  - # 20
    frequency:   31.5266725486
  - # 21
    frequency:   67.9477127465

- q-position: [    0.1363636,    0.0000000,    0.0000000 ]
  distance:    0.0477453
  band:
  - # 1
    frequency:    0.7472397071
  - # 2
    frequency:    1.0138789485
  - # 3
    frequency:    1.6235056676
  - # 4
    frequency:    2.1707243898
  - # 5
    frequency:    2.5181376810
  - # 6
    frequency:    3.9018975739
  - # 7
    frequency:    4.1613723406
  - # 8
    frequency:    5.1527014451
  - # 9
    frequency:    6.2722081992
  - # 10
    frequency:    6.3364508447
  - # 11
    frequency:    7.9074112879
  - # 12
    frequency:   13.8674607804
  - # 13
    frequency:   13.9726233181
  - # 14
    frequency:   17.1731507169
  - # 15
    frequency:   18.3299147308
  - # 16
    frequency:   18.4784065598
  - # 17
    frequency:   27.7892541353
  - # 18
    frequency:   30.6243102384
  - # 19
    frequency:   30.8219414887
  - # 20
    frequency:   31.5075737832
  - # 21
    frequency:   67.9359195170

- q-position: [    0.1414141,    0.0000000,    0.0000000 ]
  distance:    0.0495137
  band:
  - # 1
    frequency:    0.7964052115
  - # 2
    frequency:    1.0665643253
  - # 3
    frequency:    1.5983923867
  - # 4
    frequency:    2.2425676487
  - # 5
    frequency:    2.5491628097
  - # 6
    frequency:    3.8988681579
  - # 7
    frequency:    4.1738781770
  - # 8
    frequency:    5.1513304527
  - # 9
    frequency:    6.2750332003
  - # 10
    frequency:    6.3434673044
  - # 11
    frequency:    7.8915658343
  - # 12
    frequency:   13.8702274494
  - # 13
    frequency:   13.9823571131
  - # 14
    frequency:   17.1636442653
  - # 15
    frequency:   18.3112169462
  - # 16
    frequency:   18.4663799537
  - # 17
    frequency:   27.7652641619
  - # 18
    frequency:   30.5641085021
  - # 19
    frequency:   30.7724137246
  - # 20
    frequency:   31.4881495596
  - # 21
    frequency:   67.9239042196

- q-position: [    0.1464646,    0.0000000,    0.0000000 ]
  distance:    0.0512820
  band:
  - # 1
    frequency:    0.8464643965
  - # 2
    frequency:    1.1200077195
  - # 3
    frequency:    1.5740387569
  - # 4
    frequency:    2.3130505675
  - # 5
    frequency:    2.5811330859
  - # 6
    frequency:    3.8962034289
  - # 7
    frequency:    4.1866506553
  - # 8
    frequency:    5.1500592321
  - # 9
    frequency:    6.2780610289
  - # 10
    frequency:    6.3506164564
  - # 11
    frequency:    7.8753510918
  - # 12
    frequency:   13.8730455499
  - # 13
    frequency:   13.9922755727
  - # 14
    frequency:   17.1538945456
  - # 15
    frequency:   18.2925325386
  - # 16
    frequency:   18.4540485533
  - # 17
    frequency:   27.7412122063
  - # 18
    frequency:   30.5038185060
  - # 19
    frequency:   30.7226725512
  - # 20
    frequency:   31.4684379458
  - # 21
    frequency:   67.9116875245

- q-position: [    0.1515152,    0.0000000,    0.0000000 ]
  distance:    0.0530503
  band:
  - # 1
    frequency:    0.8973433289
  - # 2
    frequency:    1.1738939738
  - # 3
    frequency:    1.5508610122
  - # 4
    frequency:    2.3820452950
  - # 5
    frequency:    2.6140554230
  - # 6
    frequency:    3.8939225333
  - # 7
    frequency:    4.1996585306
  - # 8
    frequency:    5.1488962407
  - # 9
    frequency:    6.2812862848
  - # 10
    frequency:    6.3578694074
  - # 11
    frequency:    7.8587898159
  - # 12
    frequency:   13.8759071066
  - # 13
    frequency:   14.0023614299
  - # 14
    frequency:   17.1439056706
  - # 15
    frequency:   18.2739410261
  - # 16
    frequency:   18.4414493392
  - # 17
    frequency:   27.7171590239
  - # 18
    frequency:   30.4436172369
  - # 19
    frequency:   30.6728648340
  - # 20
    frequency:   31.4484771382
  - # 21