nqpoint: 300    
npath: 3      
segment_nqpoint:
- 100
- 100
- 100
labels:
- [ 'G', 'M' ]
- [ 'M', 'K' ]
- [ 'K', 'G' ]
reciprocal_lattice:
- [   0.26511986,   0.15306702,   0.00000000 ] # a*
- [   0.00000000,   0.30613404,   0.00000000 ] # b*
- [   0.00000000,   0.00000000,   0.03584320 ] # c*
natom: 8      
lattice:
- [     3.771878945844999,     0.000000000000000,     0.000000000000000 ] # a
- [    -1.885939472922500,     3.266542987165713,     0.000000000000000 ] # b
- [     0.000000000000000,     0.000000000000000,    27.899291126462082 ] # c
points:
- symbol: C # 1
  coordinates: [  0.000000000000000,  0.000000000000000,  0.535298641635066 ]
  mass: 12.010700
- symbol: C # 2
  coordinates: [  0.333332985432215,  0.666666983183674,  0.634377322852092 ]
  mass: 12.010700
- symbol: C # 3
  coordinates: [  0.666666984744048,  0.333332985985145,  0.365252894889313 ]
  mass: 12.010700
- symbol: N # 4
  coordinates: [  0.333332985432215,  0.666666983183674,  0.677411158613144 ]
  mass: 14.006700
- symbol: N # 5
  coordinates: [  0.666666984744048,  0.333332985985145,  0.322588841386856 ]
  mass: 14.006700
- symbol: S # 6
  coordinates: [  0.666666984744048,  0.333332985985145,  0.425292614752386 ]
  mass: 32.065000
- symbol: Y # 7
  coordinates: [  0.333332985432215,  0.666666983183674,  0.487451127385929 ]
  mass: 88.905850
- symbol: Y # 8
  coordinates: [  0.666666984744048,  0.333332985985145,  0.583573118155110 ]
  mass: 88.905850

phonon:
- q-position: [    0.0000000,    0.0000000,    0.0000000 ]
  distance:    0.0000000
  band:
  - # 1
    frequency:   -3.1533181656
  - # 2
    frequency:   -3.1533181655
  - # 3
    frequency:   -0.6415079736
  - # 4
    frequency:   -0.6415079733
  - # 5
    frequency:   -0.0000314549
  - # 6
    frequency:    0.0000005543
  - # 7
    frequency:    0.0000342869
  - # 8
    frequency:    2.9786501718
  - # 9
    frequency:    2.9786501721
  - # 10
    frequency:    4.4174369552
  - # 11
    frequency:    4.7015333296
  - # 12
    frequency:    4.7015333298
  - # 13
    frequency:    6.5911735182
  - # 14
    frequency:    6.5911735185
  - # 15
    frequency:    6.7427549026
  - # 16
    frequency:    7.9741580852
  - # 17
    frequency:    8.7410206418
  - # 18
    frequency:    8.7410206421
  - # 19
    frequency:   10.4268166736
  - # 20
    frequency:   10.4268166739
  - # 21
    frequency:   15.1077379927
  - # 22
    frequency:   21.0449085580
  - # 23
    frequency:   62.2601822684
  - # 24
    frequency:   65.1753628290

- q-position: [    0.0050505,    0.0000000,    0.0000000 ]
  distance:    0.0015461
  band:
  - # 1
    frequency:   -3.1533082867
  - # 2
    frequency:   -3.1531658061
  - # 3
    frequency:   -0.6415971662
  - # 4
    frequency:   -0.6399990360
  - # 5
    frequency:    0.0013180124
  - # 6
    frequency:    0.0518912001
  - # 7
    frequency:    0.0880673756
  - # 8
    frequency:    2.9787624081
  - # 9
    frequency:    2.9795628209
  - # 10
    frequency:    4.4162206821
  - # 11
    frequency:    4.7016123056
  - # 12
    frequency:    4.7037439468
  - # 13
    frequency:    6.5911428905
  - # 14
    frequency:    6.5944888806
  - # 15
    frequency:    6.7426440295
  - # 16
    frequency:    7.9732615777
  - # 17
    frequency:    8.7407759993
  - # 18
    frequency:    8.7450233416
  - # 19
    frequency:   10.4268593749
  - # 20
    frequency:   10.4270063345
  - # 21
    frequency:   15.1065835620
  - # 22
    frequency:   21.0448628052
  - # 23
    frequency:   62.2601382670
  - # 24
    frequency:   65.1753006841

- q-position: [    0.0101010,    0.0000000,    0.0000000 ]
  distance:    0.0030923
  band:
  - # 1
    frequency:   -3.1532787482
  - # 2
    frequency:   -3.1527100244
  - # 3
    frequency:   -0.6418407166
  - # 4
    frequency:   -0.6354812169
  - # 5
    frequency:    0.0052668168
  - # 6
    frequency:    0.1036109225
  - # 7
    frequency:    0.1762196850
  - # 8
    frequency:    2.9790988896
  - # 9
    frequency:    2.9822942720
  - # 10
    frequency:    4.4126851352
  - # 11
    frequency:    4.7018487208
  - # 12
    frequency:    4.7102367433
  - # 13
    frequency:    6.5910519453
  - # 14
    frequency:    6.6043432278
  - # 15
    frequency:    6.7423130189
  - # 16
    frequency:    7.9705930679
  - # 17
    frequency:    8.7400428362
  - # 18
    frequency:    8.7570529207
  - # 19
    frequency:   10.4269874097
  - # 20
    frequency:   10.4275758980
  - # 21
    frequency:   15.1031221929
  - # 22
    frequency:   21.0447256261
  - # 23
    frequency:   62.2600063463
  - # 24
    frequency:   65.1751143454

- q-position: [    0.0151515,    0.0000000,    0.0000000 ]
  distance:    0.0046384
  band:
  - # 1
    frequency:   -3.1532298425
  - # 2
    frequency:   -3.1519546442
  - # 3
    frequency:   -0.6421714106
  - # 4
    frequency:   -0.6279710948
  - # 5
    frequency:    0.0118241812
  - # 6
    frequency:    0.1550066250
  - # 7
    frequency:    0.2645150987
  - # 8
    frequency:    2.9796589356
  - # 9
    frequency:    2.9868251807
  - # 10
    frequency:    4.4071315806
  - # 11
    frequency:    4.7022410395
  - # 12
    frequency:    4.7206356391
  - # 13
    frequency:    6.5909034933
  - # 14
    frequency:    6.6204626287
  - # 15
    frequency:    6.7417678145
  - # 16
    frequency:    7.9662126595
  - # 17
    frequency:    8.7388234435
  - # 18
    frequency:    8.7771741597
  - # 19
    frequency:   10.4272005721
  - # 20
    frequency:   10.4285271813
  - # 21
    frequency:   15.0973596538
  - # 22
    frequency:   21.0444972578
  - # 23
    frequency:   62.2597867566
  - # 24
    frequency:   65.1748041010

- q-position: [    0.0202020,    0.0000000,    0.0000000 ]
  distance:    0.0061845
  band:
  - # 1
    frequency:   -3.1531620502
  - # 2
    frequency:   -3.1509058272
  - # 3
    frequency:   -0.6424915339
  - # 4
    frequency:   -0.6174673223
  - # 5
    frequency:    0.0209546221
  - # 6
    frequency:    0.2059583449
  - # 7
    frequency:    0.3529708284
  - # 8
    frequency:    2.9804414128
  - # 9
    frequency:    2.9931237754
  - # 10
    frequency:    4.3999597093
  - # 11
    frequency:    4.7027867082
  - # 12
    frequency:    4.7344242743
  - # 13
    frequency:    6.5907022040
  - # 14
    frequency:    6.6423933080
  - # 15
    frequency:    6.7410239203
  - # 16
    frequency:    7.9602116026
  - # 17
    frequency:    8.7371216294
  - # 18
    frequency:    8.8054951568
  - # 19
    frequency:   10.4274985186
  - # 20
    frequency:   10.4298634682
  - # 21
    frequency:   15.0893055574
  - # 22
    frequency:   21.0441780949
  - # 23
    frequency:   62.2594799143
  - # 24
    frequency:   65.1743704300

- q-position: [    0.0252525,    0.0000000,    0.0000000 ]
  distance:    0.0077307
  band:
  - # 1
    frequency:   -3.1530760307
  - # 2
    frequency:   -3.1495717772
  - # 3
    frequency:   -0.6426888198
  - # 4
    frequency:   -0.6039217867
  - # 5
    frequency:    0.0326094074
  - # 6
    frequency:    0.2563842634
  - # 7
    frequency:    0.4415650000
  - # 8
    frequency:    2.9814447377
  - # 9
    frequency:    3.0011465507
  - # 10
    frequency:    4.3915780315
  - # 11
    frequency:    4.7034821648
  - # 12
    frequency:    4.7510462849
  - # 13
    frequency:    6.5904545840
  - # 14
    frequency:    6.6694935204
  - # 15
    frequency:    6.7401282009
  - # 16
    frequency:    7.9527015084
  - # 17
    frequency:    8.7349427046
  - # 18
    frequency:    8.8421644955
  - # 19
    frequency:   10.4278807678
  - # 20
    frequency:   10.4315899273
  - # 21
    frequency:   15.0789733588
  - # 22
    frequency:   21.0437686883
  - # 23
    frequency:   62.2590864009
  - # 24
    frequency:   65.1738140019

- q-position: [    0.0303030,    0.0000000,    0.0000000 ]
  distance:    0.0092768
  band:
  - # 1
    frequency:   -3.1529726085
  - # 2
    frequency:   -3.1479623659
  - # 3
    frequency:   -0.6426510444
  - # 4
    frequency:   -0.5872155080
  - # 5
    frequency:    0.0467274654
  - # 6
    frequency:    0.3062388382
  - # 7
    frequency:    0.5302486596
  - # 8
    frequency:    2.9826668798
  - # 9
    frequency:    3.0108392118
  - # 10
    frequency:    4.3823467005
  - # 11
    frequency:    4.7043228527
  - # 12
    frequency:    4.7699750182
  - # 13
    frequency:    6.5901689458
  - # 14
    frequency:    6.7008077877
  - # 15
    frequency:    6.7393055217
  - # 16
    frequency:    7.9438032514
  - # 17
    frequency:    8.7322934612
  - # 18
    frequency:    8.8873626619
  - # 19
    frequency:   10.4283467007
  - # 20
    frequency:   10.4337142817
  - # 21
    frequency:   15.0663803538
  - # 22
    frequency:   21.0432697436
  - # 23
    frequency:   62.2586069610
  - # 24
    frequency:   65.1731356744

- q-position: [    0.0353535,    0.0000000,    0.0000000 ]
  distance:    0.0108229
  band:
  - # 1
    frequency:   -3.1528527565
  - # 2
    frequency:   -3.1460887131
  - # 3
    frequency:   -0.6422764887
  - # 4
    frequency:   -0.5671388573
  - # 5
    frequency:    0.0632365015
  - # 6
    frequency:    0.3555061796
  - # 7
    frequency:    0.6189594701
  - # 8
    frequency:    2.9841053662
  - # 9
    frequency:    3.0221378431
  - # 10
    frequency:    4.3725555736
  - # 11
    frequency:    4.7053032400
  - # 12
    frequency:    4.7907481550
  - # 13
    frequency:    6.5898553664
  - # 14
    frequency:    6.7309805663
  - # 15
    frequency:    6.7430738595
  - # 16
    frequency:    7.9336375569
  - # 17
    frequency:    8.7291821463
  - # 18
    frequency:    8.9412856372
  - # 19
    frequency:   10.4288955599
  - # 20
    frequency:   10.4362478325
  - # 21
    frequency:   15.0515476784
  - # 22
    frequency:   21.0426821188
  - # 23
    frequency:   62.2580425002
  - # 24
    frequency:   65.1723364919

- q-position: [    0.0404040,    0.0000000,    0.0000000 ]
  distance:    0.0123691
  band:
  - # 1
    frequency:   -3.1527175762
  - # 2
    frequency:   -3.1439627538
  - # 3
    frequency:   -0.6414796642
  - # 4
    frequency:   -0.5433688999
  - # 5
    frequency:    0.0820542893
  - # 6
    frequency:    0.4041916652
  - # 7
    frequency:    0.7076318079
  - # 8
    frequency:    2.9857572878
  - # 9
    frequency:    3.0349702603
  - # 10
    frequency:    4.3624253637
  - # 11
    frequency:    4.7064168439
  - # 12
    frequency:    4.8129778892
  - # 13
    frequency:    6.5895256363
  - # 14
    frequency:    6.7342110918
  - # 15
    frequency:    6.7763258350
  - # 16
    frequency:    7.9223183042
  - # 17
    frequency:    8.7256184290
  - # 18
    frequency:    9.0041202029
  - # 19
    frequency:   10.4295264499
  - # 20
    frequency:   10.4392070168
  - # 21
    frequency:   15.0345003107
  - # 22
    frequency:   21.0420068224
  - # 23
    frequency:   62.2573940830
  - # 24
    frequency:   65.1714176824

- q-position: [    0.0454545,    0.0000000,    0.0000000 ]
  distance:    0.0139152
  band:
  - # 1
    frequency:   -3.1525682752
  - # 2
    frequency:   -3.1415968214
  - # 3
    frequency:   -0.6401931175
  - # 4
    frequency:   -0.5154324803
  - # 5
    frequency:    0.1030901003
  - # 6
    frequency:    0.4523139667
  - # 7
    frequency:    0.7962020867
  - # 8
    frequency:    2.9876193080
  - # 9
    frequency:    3.0492574982
  - # 10
    frequency:    4.3521192055
  - # 11
    frequency:    4.7076562625
  - # 12
    frequency:    4.8363483114
  - # 13
    frequency:    6.5891931970
  - # 14
    frequency:    6.7326988427
  - # 15
    frequency:    6.8159254859
  - # 16
    frequency:    7.9099486794
  - # 17
    frequency:    8.7216133617
  - # 18
    frequency:    9.0760122932
  - # 19
    frequency:   10.4302383366
  - # 20
    frequency:   10.4426158039
  - # 21
    frequency:   15.0152670761
  - # 22
    frequency:   21.0412450100
  - # 23
    frequency:   62.2566629293
  - # 24
    frequency:   65.1703806553

- q-position: [    0.0505051,    0.0000000,    0.0000000 ]
  distance:    0.0154613
  band:
  - # 1
    frequency:   -3.1524061424
  - # 2
    frequency:   -3.1390032707
  - # 3
    frequency:   -0.6383666313
  - # 4
    frequency:   -0.4826376210
  - # 5
    frequency:    0.1262462530
  - # 6
    frequency:    0.4998985876
  - # 7
    frequency:    0.8846104288
  - # 8
    frequency:    2.9896876721
  - # 9
    frequency:    3.0649153799
  - # 10
    frequency:    4.3417566122
  - # 11
    frequency:    4.7090132150
  - # 12
    frequency:    4.8606075434
  - # 13
    frequency:    6.5888730672
  - # 14
    frequency:    6.7306691593
  - # 15
    frequency:    6.8567274833
  - # 16
    frequency:    7.8966197377
  - # 17
    frequency:    8.7171793356
  - # 18
    frequency:    9.1570311846
  - # 19
    frequency:   10.4310300473
  - # 20
    frequency:   10.4465094631
  - # 21
    frequency:   14.9938806597
  - # 22
    frequency:   21.0403979812
  - # 23
    frequency:   62.2558504111
  - # 24
    frequency:   65.1692269974

- q-position: [    0.0555556,    0.0000000,    0.0000000 ]
  distance:    0.0170074
  band:
  - # 1
    frequency:   -3.1522325209
  - # 2
    frequency:   -3.1361941557
  - # 3
    frequency:   -0.6359650284
  - # 4
    frequency:   -0.4439387977
  - # 5
    frequency:    0.1514197913
  - # 6
    frequency:    0.5469731894
  - # 7
    frequency:    0.9728002740
  - # 8
    frequency:    2.9919582212
  - # 9
    frequency:    3.0818561112
  - # 10
    frequency:    4.3314260647
  - # 11
    frequency:    4.7104785893
  - # 12
    frequency:    4.8855584122
  - # 13
    frequency:    6.5885817570
  - # 14
    frequency:    6.7283419292
  - # 15
    frequency:    6.8976514880
  - # 16
    frequency:    7.8824107117
  - # 17
    frequency:    8.7123300302
  - # 18
    frequency:    9.2471329144
  - # 19
    frequency:   10.4319002708
  - # 20
    frequency:   10.4509406761
  - # 21
    frequency:   14.9703776268
  - # 22
    frequency:   21.0394671758
  - # 23
    frequency:   62.2549580487
  - # 24
    frequency:   65.1679584696

- q-position: [    0.0606061,    0.0000000,    0.0000000 ]
  distance:    0.0185536
  band:
  - # 1
    frequency:   -3.1520487802
  - # 2
    frequency:   -3.1331809721
  - # 3
    frequency:   -0.6329654476
  - # 4
    frequency:   -0.3976496439
  - # 5
    frequency:    0.1785044008
  - # 6
    frequency:    0.5935645321
  - # 7
    frequency:    1.0607171210
  - # 8
    frequency:    2.9944264080
  - # 9
    frequency:    3.0999898473
  - # 10
    frequency:    4.3211950254
  - # 11
    frequency:    4.7120425011
  - # 12
    frequency:    4.9110492638
  - # 13
    frequency:    6.5883371682
  - # 14
    frequency:    6.7257654531
  - # 15
    frequency:    6.9378848504
  - # 16
    frequency:    7.8673904227
  - # 17
    frequency:    8.7070803572
  - # 18
    frequency:    9.3461255646
  - # 19
    frequency:   10.4328475574
  - # 20
    frequency:   10.4559898349
  - # 21
    frequency:   14.9447984563
  - # 22
    frequency:   21.0384541697
  - # 23
    frequency:   62.2539875062
  - # 24
    frequency:   65.1665770022

- q-position: [    0.0656566,    0.0000000,    0.0000000 ]
  distance:    0.0200997
  band:
  - # 1
    frequency:   -3.1518562873
  - # 2
    frequency:   -3.1299744644
  - # 3
    frequency:   -0.6293546158
  - # 4
    frequency:   -0.3407336624
  - # 5
    frequency:    0.2073929186
  - # 6
    frequency:    0.6396966780
  - # 7
    frequency:    1.1483070855
  - # 8
    frequency:    2.9970873167
  - # 9
    frequency:    3.1192261878
  - # 10
    frequency:    4.3111173654
  - # 11
    frequency:    4.7136943627
  - # 12
    frequency:    4.9369655155
  - # 13
    frequency:    6.5881584817
  - # 14
    frequency:    6.7229581355
  - # 15
    frequency:    6.9767671062
  - # 16
    frequency:    7.8516192842
  - # 17
    frequency:    8.7014463989
  - # 18
    frequency:    9.4536362873
  - # 19
    frequency:   10.4338703198
  - # 20
    frequency:   10.4617832171
  - # 21
    frequency:   14.9171875922
  - # 22
    frequency:   21.0373606705
  - # 23
    frequency:   62.2529405873
  - # 24
    frequency:   65.1650846912

- q-position: [    0.0707071,    0.0000000,    0.0000000 ]
  distance:    0.0216458
  band:
  - # 1
    frequency:   -3.1516563770
  - # 2
    frequency:   -3.1265844959
  - # 3
    frequency:   -0.6251263811
  - # 4
    frequency:   -0.2665322174
  - # 5
    frequency:    0.2379815928
  - # 6
    frequency:    0.6853901016
  - # 7
    frequency:    1.2355155753
  - # 8
    frequency:    2.9999356862
  - # 9
    frequency:    3.1394755611
  - # 10
    frequency:    4.3012386369
  - # 11
    frequency:    4.7154229643
  - # 12
    frequency:    4.9632221502
  - # 13
    frequency:    6.5880660303
  - # 14
    frequency:    6.7199299609
  - # 15
    frequency:    7.0137821153
  - # 16
    frequency:    7.8351515526
  - # 17
    frequency:    8.6954453409
  - # 18
    frequency:    9.5690740531
  - # 19
    frequency:   10.4349668333
  - # 20
    frequency:   10.4685268750
  - # 21
    frequency:   14.8875935176
  - # 22
    frequency:   21.0361885125
  - # 23
    frequency:   62.2518192296
  - # 24
    frequency:   65.1634837924

- q-position: [    0.0757576,    0.0000000,    0.0000000 ]
  distance:    0.0231920
  band:
  - # 1
    frequency:   -3.1514503222
  - # 2
    frequency:   -3.1230199744
  - # 3
    frequency:   -0.6202796046
  - # 4
    frequency:   -0.1516338115
  - # 5
    frequency:    0.2701803651
  - # 6
    frequency:    0.7306614010
  - # 7
    frequency:    1.3222861747
  - # 8
    frequency:    3.0029659383
  - # 9
    frequency:    3.1606504752
  - # 10
    frequency:    4.2915997031
  - # 11
    frequency:    4.7172165669
  - # 12
    frequency:    4.9897572070
  - # 13
    frequency:    6.5880811572
  - # 14
    frequency:    6.7166879780
  - # 15
    frequency:    7.0485535683
  - # 16
    frequency:    7.8180376240
  - # 17
    frequency:    8.6890953997
  - # 18
    frequency:    9.6915699888
  - # 19
    frequency:   10.4361352370
  - # 20
    frequency:   10.4765741036
  - # 21
    frequency:   14.8560688619
  - # 22
    frequency:   21.0349396513
  - # 23
    frequency:   62.2506254996
  - # 24
    frequency:   65.1617767168

- q-position: [    0.0808081,    0.0000000,    0.0000000 ]
  distance:    0.0247381
  band:
  - # 1
    frequency:   -3.1512393060
  - # 2
    frequency:   -3.1192888252
  - # 3
    frequency:   -0.6148164200
  - # 4
    frequency:    0.1671934800
  - # 5
    frequency:    0.3039499576
  - # 6
    frequency:    0.7755233849
  - # 7
    frequency:    1.4085597332
  - # 8
    frequency:    3.0061722099
  - # 9
    frequency:    3.1826666176
  - # 10
    frequency:    4.2822391846
  - # 11
    frequency:    4.7190630087
  - # 12
    frequency:    5.0165262591
  - # 13
    frequency:    6.5882260585
  - # 14
    frequency:    6.7132381605
  - # 15
    frequency:    7.0808333797
  - # 16
    frequency:    7.8003262885
  - # 17
    frequency:    8.6824157455
  - # 18
    frequency:    9.8198491998
  - # 19
    frequency:   10.4373735353
  - # 20
    frequency:   10.4865704830
  - # 21
    frequency:   14.8226705496
  - # 22
    frequency:   21.0336161587
  - # 23
    frequency:   62.2493615868
  - # 24
    frequency:   65.1599660247

- q-position: [    0.0858586,    0.0000000,    0.0000000 ]
  distance:    0.0262842
  band:
  - # 1
    frequency:   -3.1510243924
  - # 2
    frequency:   -3.1153980031
  - # 3
    frequency:   -0.6087408193
  - # 4
    frequency:    0.2854791471
  - # 5
    frequency:    0.3395351692
  - # 6
    frequency:    0.8199853740
  - # 7
    frequency:    1.4942736179
  - # 8
    frequency:    3.0095483911
  - # 9
    frequency:    3.2054437998
  - # 10
    frequency:    4.2731950870
  - # 11
    frequency:    4.7209498233
  - # 12
    frequency:    5.0434978312
  - # 13
    frequency:    6.5885236123
  - # 14
    frequency:    6.7095861699
  - # 15
    frequency:    7.1104835502
  - # 16
    frequency:    7.7820669302
  - # 17
    frequency:    8.6754264205
  - # 18
    frequency:    9.9519136282
  - # 19
    frequency:   10.4386795995
  - # 20
    frequency:   10.4997937221
  - # 21
    frequency:   14.7874600071
  - # 22
    frequency:   21.0322202162
  - # 23
    frequency:   62.2480297977
  - # 24
    frequency:   65.1580544199

- q-position: [    0.0909091,    0.0000000,    0.0000000 ]
  distance:    0.0278304
  band:
  - # 1
    frequency:   -3.1508065010
  - # 2
    frequency:   -3.1113535339
  - # 3
    frequency:   -0.6020575120
  - # 4
    frequency:    0.3654806158
  - # 5
    frequency:    0.3819969970
  - # 6
    frequency:    0.8640536097
  - # 7
    frequency:    1.5793610857
  - # 8
    frequency:    3.0130881673
  - # 9
    frequency:    3.2289067450
  - # 10
    frequency:    4.2645058801
  - # 11
    frequency:    4.7228643712
  - # 12
    frequency:    5.0706496779
  - # 13
    frequency:    6.5889971921
  - # 14
    frequency:    6.7057377196
  - # 15
    frequency:    7.1374542463
  - # 16
    frequency:    7.7633117179
  - # 17
    frequency:    8.6681482528
  - # 18
    frequency:   10.0842057778
  - # 19
    frequency:   10.4400511700
  - # 20
    frequency:   10.5190150072
  - # 21
    frequency:   14.7505034458
  - # 22
    frequency:   21.0307541096
  - # 23
    frequency:   62.2466325493
  - # 24
    frequency:   65.1560447433

- q-position: [    0.0959596,    0.0000000,    0.0000000 ]
  distance:    0.0293765
  band:
  - # 1
    frequency:   -3.1505863814
  - # 2
    frequency:   -3.1071605786
  - # 3
    frequency:   -0.5947709965
  - # 4
    frequency:    0.4095422221
  - # 5
    frequency:    0.4482223303
  - # 6
    frequency:    0.9077317018
  - # 7
    frequency:    1.6637507346
  - # 8
    frequency:    3.0167850680
  - # 9
    frequency:    3.2529857258
  - # 10
    frequency:    4.2562112255
  - # 11
    frequency:    4.7247939825
  - # 12
    frequency:    5.0979658267
  - # 13
    frequency:    6.5896704667
  - # 14
    frequency:    6.7016987710
  - # 15
    frequency:    7.1617608896
  - # 16
    frequency:    7.7441178692
  - # 17
    frequency:    8.6606027666
  - # 18
    frequency:   10.2094725629
  - # 19
    frequency:   10.4414858590
  - # 20
    frequency:   10.5506596078
  - # 21
    frequency:   14.7118722478
  - # 22
    frequency:   21.0292202218
  - # 23
    frequency:   62.2451723623
  - # 24
    frequency:   65.1539399665

- q-position: [    0.1010101,    0.0000000,    0.0000000 ]
  distance:    0.0309226
  band:
  - # 1
    frequency:   -3.1503645904
  - # 2
    frequency:   -3.1028235126
  - # 3
    frequency:   -0.5868847928
  - # 4
    frequency:    0.4484136194
  - # 5
    frequency:    0.5130499371
  - # 6
    frequency:    0.9510210746
  - # 7
    frequency:    1.7473660072
  - # 8
    frequency:    3.0206325198
  - # 9
    frequency:    3.2776170578
  - # 10
    frequency:    4.2483524896
  - # 11
    frequency:    4.7267261103
  - # 12
    frequency:    5.1254342760
  - # 13
    frequency:    6.5905671871
  - # 14
    frequency:    6.6974756539
  - # 15
    frequency:    7.1834623471
  - # 16
    frequency:    7.7245500995
  - # 17
    frequency:    8.6528120893
  - # 18
    frequency:   10.3135916256
  - # 19
    frequency:   10.4429811536
  - # 20
    frequency:   10.6080022684
  - # 21
    frequency:   14.6716434916
  - # 22
    frequency:   21.0276210267
  - # 23
    frequency:   62.2436518547
  - # 24
    frequency:   65.1517431848

- q-position: [    0.1060606,    0.0000000,    0.0000000 ]
  distance:    0.0324688
  band:
  - # 1
    frequency:   -3.1501414719
  - # 2
    frequency:   -3.0983460157
  - # 3
    frequency:   -0.5784007859
  - # 4
    frequency:    0.4876423444
  - # 5
    frequency:    0.5734138726
  - # 6
    frequency:    0.9939213864
  - # 7
    frequency:    1.8301247267
  - # 8
    frequency:    3.0246239061
  - # 9
    frequency:    3.3027434557
  - # 10
    frequency:    4.2409731371
  - # 11
    frequency:    4.7286484923
  - # 12
    frequency:    5.1530452416
  - # 13
    frequency:    6.5917109627
  - # 14
    frequency:    6.6930751488
  - # 15
    frequency:    7.2026414195
  - # 16
    frequency:    7.7046833883
  - # 17
    frequency:    8.6447988563
  - # 18
    frequency:   10.3825615577
  - # 19
    frequency:   10.4445344193
  - # 20
    frequency:   10.7041947580
  - # 21
    frequency:   14.6299006675
  - # 22
    frequency:   21.0259590818
  - # 23
    frequency:   62.2420737339
  - # 24
    frequency:   65.1494576107

- q-position: [    0.1111111,    0.0000000,    0.0000000 ]
  distance:    0.0340149
  band:
  - # 1
    frequency:   -3.1499171389
  - # 2
    frequency:   -3.0937311676
  - # 3
    frequency:   -0.5693186412
  - # 4
    frequency:    0.5274864087
  - # 5
    frequency:    0.6303768558
  - # 6
    frequency:    1.0364309122
  - # 7
    frequency:    1.9119386575
  - # 8
    frequency:    3.0287526306
  - # 9
    frequency:    3.3283142566
  - # 10
    frequency:    4.2341190702
  - # 11
    frequency:    4.7305493194
  - # 12
    frequency:    5.1807898485
  - # 13
    frequency:    6.5931250267
  - # 14
    frequency:    6.6885045480
  - # 15
    frequency:    7.2193880385
  - # 16
    frequency:    7.6846062077
  - # 17
    frequency:    8.6365861134
  - # 18
    frequency:   10.4216177717
  - # 19
    frequency:   10.4461429045
  - # 20
    frequency:   10.8331634108
  - # 21
    frequency:   14.5867346545
  - # 22
    frequency:   21.0242370218
  - # 23
    frequency:   62.2404407899
  - # 24
    frequency:   65.1470865661

- q-position: [    0.1161616,    0.0000000,    0.0000000 ]
  distance:    0.0355610
  band:
  - # 1
    frequency:   -3.1496914582
  - # 2
    frequency:   -3.0889815452
  - # 3
    frequency:   -0.5596352527
  - # 4
    frequency:    0.5679121053
  - # 5
    frequency:    0.6847501198
  - # 6
    frequency:    1.0785468817
  - # 7
    frequency:    1.9927130909
  - # 8
    frequency:    3.0330121867
  - # 9
    frequency:    3.3542855057
  - # 10
    frequency:    4.2278389604
  - # 11
    frequency:    4.7324174079
  - # 12
    frequency:    5.2086591776
  - # 13
    frequency:    6.5948319965
  - # 14
    frequency:    6.6837717068
  - # 15
    frequency:    7.2337850372
  - # 16
    frequency:    7.6644243457
  - # 17
    frequency:    8.6281972182
  - # 18
    frequency:   10.4449648009
  - # 19
    frequency:   10.4478037449
  - # 20
    frequency:   10.9798859803
  - # 21
    frequency:   14.5422450606
  - # 22
    frequency:   21.0224575508
  - # 23
    frequency:   62.2387558874
  - # 24
    frequency:   65.1446334748

- q-position: [    0.1212121,    0.0000000,    0.0000000 ]
  distance:    0.0371072
  band:
  - # 1
    frequency:   -3.1494640382
  - # 2
    frequency:   -3.0840993213
  - # 3
    frequency:   -0.5493441925
  - # 4
    frequency:    0.6088337198
  - # 5
    frequency:    0.7371063275
  - # 6
    frequency:    1.1202657760
  - # 7
    frequency:    2.0723464695
  - # 8
    frequency:    3.0373962307
  - # 9
    frequency:    3.3806198960
  - # 10
    frequency:    4.2221846038
  - # 11
    frequency:    4.7342423720
  - # 12
    frequency:    5.2366435875
  - # 13
    frequency:    6.5968536282
  - # 14
    frequency:    6.6788850867
  - # 15
    frequency:    7.2458960923
  - # 16
    frequency:    7.6442653911
  - # 17
    frequency:    8.6196557405
  - # 18
    frequency:   10.4495139690
  - # 19
    frequency:   10.4609998293
  - # 20
    frequency:   11.1351733665
  - # 21
    frequency:   14.4965420755
  - # 22
    frequency:   21.0206234355
  - # 23
    frequency:   62.2370219584
  - # 24
    frequency:   65.1421018558

- q-position: [    0.1262626,    0.0000000,    0.0000000 ]
  distance:    0.0386533
  band:
  - # 1
    frequency:   -3.1492342200
  - # 2
    frequency:   -3.0790863589
  - # 3
    frequency:   -0.5384351267
  - # 4
    frequency:    0.6501503293
  - # 5
    frequency:    0.7878634346
  - # 6
    frequency:    1.1615835806
  - # 7
    frequency:    2.1507300716
  - # 8
    frequency:    3.0418986584
  - # 9
    frequency:    3.4072865373
  - # 10
    frequency:    4.2172113249
  - # 11
    frequency:    4.7360147937
  - # 12
    frequency:    5.2647322458
  - # 13
    frequency:    6.5992105717
  - # 14
    frequency:    6.6738537941
  - # 15
    frequency:    7.2557554670
  - # 16
    frequency:    7.6242837705
  - # 17
    frequency:    8.6109853638
  - # 18
    frequency:   10.4512705039
  - # 19
    frequency:   10.4734124451
  - # 20
    frequency:   11.2945716375
  - # 21
    frequency:   14.4497490550
  - # 22
    frequency:   21.0187374973
  - # 23
    frequency:   62.2352419939
  - # 24
    frequency:   65.1394953143

- q-position: [    0.1313131,    0.0000000,    0.0000000 ]
  distance:    0.0401994
  band:
  - # 1
    frequency:   -3.1490010710
  - # 2
    frequency:   -3.0739443042
  - # 3
    frequency:   -0.5268931630
  - # 4
    frequency:    0.6917551073
  - # 5
    frequency:    0.8373394776
  - # 6
    frequency:    1.2024960013
  - # 7
    frequency:    2.2277477967
  - # 8
    frequency:    3.0465136846
  - # 9
    frequency:    3.4342605203
  - # 10
    frequency:    4.2129784454
  - # 11
    frequency:    4.7377263853
  - # 12
    frequency:    5.2929128160
  - # 13
    frequency:    6.6019221274
  - # 14
    frequency:    6.6686876163
  - # 15
    frequency:    7.2633595539
  - # 16
    frequency:    7.6046658309
  - # 17
    frequency:    8.6022097871
  - # 18
    frequency:   10.4530701815
  - # 19
    frequency:   10.4838583649
  - # 20
    frequency:   11.4556868993
  - # 21
    frequency:   14.4020061647
  - # 22
    frequency:   21.0168026056
  - # 23
    frequency:   62.2334190365
  - # 24
    frequency:   65.1368175349

- q-position: [    0.1363636,    0.0000000,    0.0000000 ]
  distance:    0.0417456
  band:
  - # 1
    frequency:   -3.1487633817
  - # 2
    frequency:   -3.0686746732
  - # 3
    frequency:   -0.5146980885
  - # 4
    frequency:    0.7335384948
  - # 5
    frequency:    0.8857861970
  - # 6
    frequency:    1.2429986437
  - # 7