nqpoint: 300    
npath: 3      
segment_nqpoint:
- 100
- 100
- 100
labels:
- [ 'G', 'M' ]
- [ 'M', 'K' ]
- [ 'K', 'G' ]
reciprocal_lattice:
- [   0.29746244,   0.17174002,   0.00000000 ] # a*
- [   0.00000000,   0.34348004,   0.00000000 ] # b*
- [   0.00000000,   0.00000000,   0.04270482 ] # c*
natom: 5      
lattice:
- [     3.361768945760736,     0.000000000000000,     0.000000000000000 ] # a
- [    -1.680884472880368,     2.911377308678715,     0.000000000000000 ] # b
- [     0.000000000000000,     0.000000000000000,    23.416560977988340 ] # c
points:
- symbol: C # 1
  coordinates: [  0.000000000000000,  0.000000000000000,  0.514611095857493 ]
  mass: 12.010700
- symbol: Cl # 2
  coordinates: [  0.666666984744048,  0.333332985985145,  0.384343371704327 ]
  mass: 35.453000
- symbol: O # 3
  coordinates: [  0.333332985432215,  0.666666983183674,  0.615656628295673 ]
  mass: 15.999400
- symbol: Zr # 4
  coordinates: [  0.333332985432215,  0.666666983183674,  0.461732339957576 ]
  mass: 91.224000
- symbol: Zr # 5
  coordinates: [  0.666666984744048,  0.333332985985145,  0.575379518779508 ]
  mass: 91.224000

phonon:
- q-position: [    0.0000000,    0.0000000,    0.0000000 ]
  distance:    0.0000000
  band:
  - # 1
    frequency:   -0.0000115217
  - # 2
    frequency:    0.0000001147
  - # 3
    frequency:    0.0000095318
  - # 4
    frequency:    2.1299828701
  - # 5
    frequency:    2.1299828702
  - # 6
    frequency:    5.1286941672
  - # 7
    frequency:    5.1286941672
  - # 8
    frequency:    6.0253925049
  - # 9
    frequency:    9.2724069372
  - # 10
    frequency:    9.4796422002
  - # 11
    frequency:    9.4796422002
  - # 12
    frequency:   14.2333335823
  - # 13
    frequency:   14.2333335824
  - # 14
    frequency:   14.7029164629
  - # 15
    frequency:   17.7112110071

- q-position: [    0.0050505,    0.0000000,    0.0000000 ]
  distance:    0.0017347
  band:
  - # 1
    frequency:   -0.0370453376
  - # 2
    frequency:    0.0010769309
  - # 3
    frequency:    0.0483578781
  - # 4
    frequency:    2.1327254961
  - # 5
    frequency:    2.1349107477
  - # 6
    frequency:    5.1287203878
  - # 7
    frequency:    5.1294917303
  - # 8
    frequency:    6.0254116869
  - # 9
    frequency:    9.2713847677
  - # 10
    frequency:    9.4782197655
  - # 11
    frequency:    9.4782400797
  - # 12
    frequency:   14.2301992315
  - # 13
    frequency:   14.2325201756
  - # 14
    frequency:   14.7025933869
  - # 15
    frequency:   17.7105714822

- q-position: [    0.0101010,    0.0000000,    0.0000000 ]
  distance:    0.0034695
  band:
  - # 1
    frequency:   -0.0731960840
  - # 2
    frequency:    0.0041942256
  - # 3
    frequency:    0.0981063159
  - # 4
    frequency:    2.1408966872
  - # 5
    frequency:    2.1495486991
  - # 6
    frequency:    5.1288006699
  - # 7
    frequency:    5.1318708064
  - # 8
    frequency:    6.0254775152
  - # 9
    frequency:    9.2683102910
  - # 10
    frequency:    9.4739608380
  - # 11
    frequency:    9.4740369315
  - # 12
    frequency:   14.2208475122
  - # 13
    frequency:   14.2300840608
  - # 14
    frequency:   14.7015892051
  - # 15
    frequency:   17.7086548594

- q-position: [    0.0151515,    0.0000000,    0.0000000 ]
  distance:    0.0052042
  band:
  - # 1
    frequency:   -0.1075721053
  - # 2
    frequency:    0.0090307777
  - # 3
    frequency:    0.1504641681
  - # 4
    frequency:    2.1543311062
  - # 5
    frequency:    2.1734780445
  - # 6
    frequency:    5.1289398708
  - # 7
    frequency:    5.1357906638
  - # 8
    frequency:    6.0256147767
  - # 9
    frequency:    9.2631589893
  - # 10
    frequency:    9.4668913343
  - # 11
    frequency:    9.4670424235
  - # 12
    frequency:   14.2054256484
  - # 13
    frequency:   14.2260375217
  - # 14
    frequency:   14.6998057601
  - # 15
    frequency:   17.7054670060

- q-position: [    0.0202020,    0.0000000,    0.0000000 ]
  distance:    0.0069390
  band:
  - # 1
    frequency:   -0.1393168811
  - # 2
    frequency:    0.0151457153
  - # 3
    frequency:    0.2063518252
  - # 4
    frequency:    2.1727680090
  - # 5
    frequency:    2.2060569659
  - # 6
    frequency:    5.1291460746
  - # 7
    frequency:    5.1411837928
  - # 8
    frequency:    6.0258645622
  - # 9
    frequency:    9.2558879533
  - # 10
    frequency:    9.4570570799
  - # 11
    frequency:    9.4572727657
  - # 12
    frequency:   14.1841588692
  - # 13
    frequency:   14.2204009224
  - # 14
    frequency:   14.6970993627
  - # 15
    frequency:   17.7010177376

- q-position: [    0.0252525,    0.0000000,    0.0000000 ]
  distance:    0.0086737
  band:
  - # 1
    frequency:   -0.1675965602
  - # 2
    frequency:    0.0220678188
  - # 3
    frequency:    0.2663349398
  - # 4
    frequency:    2.1958705356
  - # 5
    frequency:    2.2464886907
  - # 6
    frequency:    5.1294305744
  - # 7
    frequency:    5.1479565195
  - # 8
    frequency:    6.0262838708
  - # 9
    frequency:    9.2464328280
  - # 10
    frequency:    9.4445277592
  - # 11
    frequency:    9.4447508536
  - # 12
    frequency:   14.1573272751
  - # 13
    frequency:   14.2132025452
  - # 14
    frequency:   14.6933035632
  - # 15
    frequency:   17.6953208690

- q-position: [    0.0303030,    0.0000000,    0.0000000 ]
  distance:    0.0104085
  band:
  - # 1
    frequency:   -0.1915845241
  - # 2
    frequency:    0.0293640388
  - # 3
    frequency:    0.3306364629
  - # 4
    frequency:    2.2232478297
  - # 5
    frequency:    2.2938926753
  - # 6
    frequency:    5.1298078441
  - # 7
    frequency:    5.1559899682
  - # 8
    frequency:    6.0269449229
  - # 9
    frequency:    9.2347036767
  - # 10
    frequency:    9.4294023469
  - # 11
    frequency:    9.4295064669
  - # 12
    frequency:   14.1252436303
  - # 13
    frequency:   14.2044783656
  - # 14
    frequency:   14.6882508434
  - # 15
    frequency:   17.6883942758

- q-position: [    0.0353535,    0.0000000,    0.0000000 ]
  distance:    0.0121432
  band:
  - # 1
    frequency:   -0.2104261165
  - # 2
    frequency:    0.0366751458
  - # 3
    frequency:    0.3991940557
  - # 4
    frequency:    2.2544769050
  - # 5
    frequency:    2.3473667145
  - # 6
    frequency:    5.1302954997
  - # 7
    frequency:    5.1651414786
  - # 8
    frequency:    6.0279340444
  - # 9
    frequency:    9.2205801843
  - # 10
    frequency:    9.4115765226
  - # 11
    frequency:    9.4118156346
  - # 12
    frequency:   14.0882360990
  - # 13
    frequency:   14.1942717666
  - # 14
    frequency:   14.6817891989
  - # 15
    frequency:   17.6802599601

- q-position: [    0.0404040,    0.0000000,    0.0000000 ]
  distance:    0.0138780
  band:
  - # 1
    frequency:   -0.2231737527
  - # 2
    frequency:    0.0437249664
  - # 3
    frequency:    0.4717345813
  - # 4
    frequency:    2.2891219603
  - # 5
    frequency:    2.4060336532
  - # 6
    frequency:    5.1309142444
  - # 7
    frequency:    5.1752466186
  - # 8
    frequency:    6.0293499493
  - # 9
    frequency:    9.2039072286
  - # 10
    frequency:    9.3910053771
  - # 11
    frequency:    9.3919448761
  - # 12
    frequency:   14.0466371832
  - # 13
    frequency:   14.1826331947
  - # 14
    frequency:   14.6737923438
  - # 15
    frequency:   17.6709441092

- q-position: [    0.0454545,    0.0000000,    0.0000000 ]
  distance:    0.0156127
  band:
  - # 1
    frequency:   -0.2286696273
  - # 2
    frequency:    0.0503152511
  - # 3
    frequency:    0.5478442623
  - # 4
    frequency:    2.3267498745
  - # 5
    frequency:    2.4690716779
  - # 6
    frequency:    5.1316877972
  - # 7
    frequency:    5.1861219597
  - # 8
    frequency:    6.0313012095
  - # 9
    frequency:    9.1844928473
  - # 10
    frequency:    9.3678451767
  - # 11
    frequency:    9.3700145773
  - # 12
    frequency:   14.0007781327
  - # 13
    frequency:   14.1696197609
  - # 14
    frequency:   14.6641642516
  - # 15
    frequency:   17.6604771384

- q-position: [    0.0505051,    0.0000000,    0.0000000 ]
  distance:    0.0173475
  band:
  - # 1
    frequency:   -0.2253158995
  - # 2
    frequency:    0.0563160025
  - # 3
    frequency:    0.6270237678
  - # 4
    frequency:    2.3669415498
  - # 5
    frequency:    2.5357305167
  - # 6
    frequency:    5.1326427977
  - # 7
    frequency:    5.1975687976
  - # 8
    frequency:    6.0339026893
  - # 9
    frequency:    9.1621119137
  - # 10
    frequency:    9.3421562505
  - # 11
    frequency:    9.3462961842
  - # 12
    frequency:   13.9509872354
  - # 13
    frequency:   14.1552947910
  - # 14
    frequency:   14.6528396060
  - # 15
    frequency:   17.6488937070

- q-position: [    0.0555556,    0.0000000,    0.0000000 ]
  distance:    0.0190822
  band:
  - # 1
    frequency:   -0.2105471641
  - # 2
    frequency:    0.0616567712
  - # 3
    frequency:    0.7087259063
  - # 4
    frequency:    2.4092994278
  - # 5
    frequency:    2.6053372189
  - # 6
    frequency:    5.1338086849
  - # 7
    frequency:    5.2093779835
  - # 8
    frequency:    6.0372707308
  - # 9
    frequency:    9.1365196855
  - # 10
    frequency:    9.3140075411
  - # 11
    frequency:    9.3210985676
  - # 12
    frequency:   13.8975903670
  - # 13
    frequency:   14.1397273296
  - # 14
    frequency:   14.6397817671
  - # 15
    frequency:   17.6362326993

- q-position: [    0.0606061,    0.0000000,    0.0000000 ]
  distance:    0.0208170
  band:
  - # 1
    frequency:   -0.1792569714
  - # 2
    frequency:    0.0663209631
  - # 3
    frequency:    0.7923780893
  - # 4
    frequency:    2.4534518548
  - # 5
    frequency:    2.6772951582
  - # 6
    frequency:    5.1352175426
  - # 7
    frequency:    5.2213359760
  - # 8
    frequency:    6.0415169401
  - # 9
    frequency:    9.1074783188
  - # 10
    frequency:    9.2834770680
  - # 11
    frequency:    9.2947462805
  - # 12
    frequency:   13.8409125227
  - # 13
    frequency:   14.1229916018
  - # 14
    frequency:   14.6249795132
  - # 15
    frequency:   17.6225371607

- q-position: [    0.0656566,    0.0000000,    0.0000000 ]
  distance:    0.0225517
  band:
  - # 1
    frequency:   -0.1157567384
  - # 2
    frequency:    0.0703431026
  - # 3
    frequency:    0.8773932004
  - # 4
    frequency:    2.4990550803
  - # 5
    frequency:    2.7510792271
  - # 6
    frequency:    5.1369039078
  - # 7
    frequency:    5.2332321038
  - # 8
    frequency:    6.0467405445
  - # 9
    frequency:    9.0747949575
  - # 10
    frequency:    9.2506524168
  - # 11
    frequency:    9.2675470312
  - # 12
    frequency:   13.7812794791
  - # 13
    frequency:   14.1051664408
  - # 14
    frequency:   14.6084433956
  - # 15
    frequency:   17.6078541827

- q-position: [    0.0707071,    0.0000000,    0.0000000 ]
  distance:    0.0242865
  band:
  - # 1
    frequency:    0.0738077344
  - # 2
    frequency:    0.1121428435
  - # 3
    frequency:    0.9631723545
  - # 4
    frequency:    2.5457936212
  - # 5
    frequency:    2.8262293624
  - # 6
    frequency:    5.1389045336
  - # 7
    frequency:    5.2448668514
  - # 8
    frequency:    6.0530194808
  - # 9
    frequency:    9.0383630687
  - # 10
    frequency:    9.2156312463
  - # 11
    frequency:    9.2397567372
  - # 12
    frequency:   13.7190190907
  - # 13
    frequency:   14.0863346855
  - # 14
    frequency:   14.5902021968
  - # 15
    frequency:   17.5922347330

- q-position: [    0.0757576,    0.0000000,    0.0000000 ]
  distance:    0.0260212
  band:
  - # 1
    frequency:    0.0768476150
  - # 2
    frequency:    0.2154740354
  - # 3
    frequency:    1.0491023002
  - # 4
    frequency:    2.5933796024
  - # 5
    frequency:    2.9023438008
  - # 6
    frequency:    5.1412581016
  - # 7
    frequency:    5.2560607473
  - # 8
    frequency:    6.0604006245
  - # 9
    frequency:    8.9981943235
  - # 10
    frequency:    9.1785218065
  - # 11
    frequency:    9.2115548618
  - # 12
    frequency:   13.6544619809
  - # 13
    frequency:   14.0665825549
  - # 14
    frequency:   14.5702997330
  - # 15
    frequency:   17.5757334260

- q-position: [    0.0808081,    0.0000000,    0.0000000 ]
  distance:    0.0277560
  band:
  - # 1
    frequency:    0.0796377114
  - # 2
    frequency:    0.2978674538
  - # 3
    frequency:    1.1345494361
  - # 4
    frequency:    2.6415515383
  - # 5
    frequency:    2.9790729095
  - # 6
    frequency:    5.1440048770
  - # 7
    frequency:    5.2666631941
  - # 8
    frequency:    6.0688898409
  - # 9
    frequency:    8.9544317800
  - # 10
    frequency:    9.1394434577
  - # 11
    frequency:    9.1830392204
  - # 12
    frequency:   13.5879415483
  - # 13
    frequency:   14.0459990090
  - # 14
    frequency:   14.5487920933
  - # 15
    frequency:   17.5584082347

- q-position: [    0.0858586,    0.0000000,    0.0000000 ]
  distance:    0.0294907
  band:
  - # 1
    frequency:    0.0823803960
  - # 2
    frequency:    0.3741132120
  - # 3
    frequency:    1.2188517924
  - # 4
    frequency:    2.6900728874
  - # 5
    frequency:    3.0561140411
  - # 6
    frequency:    5.1471862992
  - # 7
    frequency:    5.2765603854
  - # 8
    frequency:    6.0784427757
  - # 9
    frequency:    8.9073448993
  - # 10
    frequency:    9.0985271808
  - # 11
    frequency:    9.1542395860
  - # 12
    frequency:   13.5197933141
  - # 13
    frequency:   14.0246750998
  - # 14
    frequency:   14.5257453182
  - # 15
    frequency:   17.5403201440

- q-position: [    0.0909091,    0.0000000,    0.0000000 ]
  distance:    0.0312255
  band:
  - # 1
    frequency:    0.0852767613
  - # 2
    frequency:    0.4478444861
  - # 3
    frequency:    1.3013099360
  - # 4
    frequency:    2.7387305982
  - # 5
    frequency:    3.1332076056
  - # 6
    frequency:    5.1508445031
  - # 7
    frequency:    5.2856813740
  - # 8
    frequency:    6.0889574545
  - # 9
    frequency:    8.8573149798
  - # 10
    frequency:    9.0559160695
  - # 11
    frequency:    9.1251412424
  - # 12
    frequency:   13.4503536937
  - # 13
    frequency:   14.0027033236
  - # 14
    frequency:   14.5012334813
  - # 15
    frequency:   17.5215327503

- q-position: [    0.0959596,    0.0000000,    0.0000000 ]
  distance:    0.0329602
  band:
  - # 1
    frequency:    0.0884800825
  - # 2
    frequency:    0.5204778153
  - # 3
    frequency:    1.3811775730
  - # 4
    frequency:    2.7873337847
  - # 5
    frequency:    3.2101343673
  - # 6
    frequency:    5.1550217651
  - # 7
    frequency:    5.2940014430
  - # 8
    frequency:    6.1002697753
  - # 9
    frequency:    8.8048205080
  - # 10
    frequency:    9.0117657913
  - # 11
    frequency:    9.0957085513
  - # 12
    frequency:   13.3799583102
  - # 13
    frequency:   13.9801769801
  - # 14
    frequency:   14.4753371178
  - # 15
    frequency:   17.5021118110

- q-position: [    0.1010101,    0.0000000,    0.0000000 ]
  distance:    0.0346950
  band:
  - # 1
    frequency:    0.0920301295
  - # 2
    frequency:    0.5926624336
  - # 3
    frequency:    1.4576526366
  - # 4
    frequency:    2.8357126040
  - # 5
    frequency:    3.2867138339
  - # 6
    frequency:    5.1597598705
  - # 7
    frequency:    5.3015421678
  - # 8
    frequency:    6.1121528838
  - # 9
    frequency:    8.7504275383
  - # 10
    frequency:    8.9662450069
  - # 11
    frequency:    9.0659027476
  - # 12
    frequency:   13.3089399892
  - # 13
    frequency:   13.9571895462
  - # 14
    frequency:   14.4481419412
  - # 15
    frequency:   17.4821247517

- q-position: [    0.1060606,    0.0000000,    0.0000000 ]
  distance:    0.0364297
  band:
  - # 1
    frequency:    0.0957684573
  - # 2
    frequency:    0.6647094422
  - # 3
    frequency:    1.5298698596
  - # 4
    frequency:    2.8837173656
  - # 5
    frequency:    3.3628034742
  - # 6
    frequency:    5.1650994011
  - # 7
    frequency:    5.3083679035
  - # 8
    frequency:    6.1243212659
  - # 9
    frequency:    8.6947852994
  - # 10
    frequency:    8.9195357343
  - # 11
    frequency:    9.0356927983
  - # 12
    frequency:   13.2376265843
  - # 13
    frequency:   13.9338340722
  - # 14
    frequency:   14.4197377943
  - # 15
    frequency:   17.4616401394

- q-position: [    0.1111111,    0.0000000,    0.0000000 ]
  distance:    0.0381644
  band:
  - # 1
    frequency:    0.0992283949
  - # 2
    frequency:    0.7367575414
  - # 3
    frequency:    1.5968962378
  - # 4
    frequency:    2.9312178737
  - # 5
    frequency:    3.4382983520
  - # 6
    frequency:    5.1710789441
  - # 7
    frequency:    5.3145787868
  - # 8
    frequency:    6.1364402641
  - # 9
    frequency:    8.6386243009
  - # 10
    frequency:    8.8718336439
  - # 11
    frequency:    9.0050607292
  - # 12
    frequency:   13.1663387848
  - # 13
    frequency:   13.9102026073
  - # 14
    frequency:   14.3902177850
  - # 15
    frequency:   17.4407271294

- q-position: [    0.1161616,    0.0000000,    0.0000000 ]
  distance:    0.0398992
  band:
  - # 1
    frequency:    0.1014681756
  - # 2
    frequency:    0.8088479616
  - # 3
    frequency:    1.6577314369
  - # 4
    frequency:    2.9781029793
  - # 5
    frequency:    3.5131306087
  - # 6
    frequency:    5.1777342263
  - # 7
    frequency:    5.3203006311
  - # 8
    frequency:    6.1481416753
  - # 9
    frequency:    8.5827532312
  - # 10
    frequency:    8.8233482705
  - # 11
    frequency:    8.9740034467
  - # 12
    frequency:   13.0953880546
  - # 13
    frequency:   13.8863856602
  - # 14
    frequency:   14.3596775690
  - # 15
    frequency:   17.4194548981

- q-position: [    0.1212121,    0.0000000,    0.0000000 ]
  distance:    0.0416339
  band:
  - # 1
    frequency:    0.1007418655
  - # 2
    frequency:    0.8809621347
  - # 3
    frequency:    1.7113161308
  - # 4
    frequency:    3.0242803055
  - # 5
    frequency:    3.5872680687
  - # 6
    frequency:    5.1850971834
  - # 7
    frequency:    5.3256722878
  - # 8
    frequency:    6.1590460624
  - # 9
    frequency:    8.5280509822
  - # 10
    frequency:    8.7743031266
  - # 11
    frequency:    8.9425327464
  - # 12
    frequency:   13.0250748351
  - # 13
    frequency:   13.8624717003
  - # 14
    frequency:   14.3282147445
  - # 15
    frequency:   17.3978920695

- q-position: [    0.1262626,    0.0000000,    0.0000000 ]
  distance:    0.0433687
  band:
  - # 1
    frequency:    0.0936275786
  - # 2
    frequency:    0.9530421758
  - # 3
    frequency:    1.7565525883
  - # 4
    frequency:    3.0696760968
  - # 5
    frequency:    3.6607111402
  - # 6
    frequency:    5.1931949772
  - # 7
    frequency:    5.3308311711
  - # 8
    frequency:    6.1687922627
  - # 9
    frequency:    8.4754506299
  - # 10
    frequency:    8.7249356985
  - # 11
    frequency:    8.9106746557
  - # 12
    frequency:   12.9556871304
  - # 13
    frequency:   13.8385467052
  - # 14
    frequency:   14.2959283355
  - # 15
    frequency:   17.3761061485

- q-position: [    0.1313131,    0.0000000,    0.0000000 ]
  distance:    0.0451034
  band:
  - # 1
    frequency:    0.0714074564
  - # 2
    frequency:    1.0250027661
  - # 3
    frequency:    1.7923437339
  - # 4
    frequency:    3.1142351336
  - # 5
    frequency:    3.7334871886
  - # 6
    frequency:    5.2020489799
  - # 7
    frequency:    5.3358978022
  - # 8
    frequency:    6.1770740116
  - # 9
    frequency:    8.4259130432
  - # 10
    frequency:    8.6754973088
  - # 11
    frequency:    8.8784688252
  - # 12
    frequency:   12.8874995613
  - # 13
    frequency:   13.8146937576
  - # 14
    frequency:   14.2629183429
  - # 15
    frequency:   17.3541629697

- q-position: [    0.1363636,    0.0000000,    0.0000000 ]
  distance:    0.0468382
  band:
  - # 1
    frequency:   -0.0501785104
  - # 2
    frequency:    1.0967384982
  - # 3
    frequency:    1.8176597119
  - # 4
    frequency:    3.1579206443
  - # 5
    frequency:    3.8056417611
  - # 6
    frequency:    5.2116737513
  - # 7
    frequency:    5.3409604968
  - # 8
    frequency:    6.1836823421
  - # 9
    frequency:    8.3803891387
  - # 10
    frequency:    8.6262528231
  - # 11
    frequency:    8.8459684270
  - # 12
    frequency:   12.8207729455
  - # 13
    frequency:   13.7909926954
  - # 14
    frequency:   14.2292853495
  - # 15
    frequency:   17.3321261726

- q-position: [    0.1414141,    0.0000000,    0.0000000 ]
  distance:    0.0485729
  band:
  - # 1
    frequency:   -0.1291312420
  - # 2
    frequency:    1.1681287622
  - # 3
    frequency:    1.8316450720
  - # 4
    frequency:    3.2007141426
  - # 5
    frequency:    3.8772264663
  - # 6
    frequency:    5.2220760374
  - # 7
    frequency:    5.3460617956
  - # 8
    frequency:    6.1885503176
  - # 9
    frequency:    8.3397717953
  - # 10
    frequency:    8.5774801779
  - # 11
    frequency:    8.8132409332
  - # 12
    frequency:   12.7557544241
  - # 13
    frequency:   13.7675198166
  - # 14
    frequency:   14.1951301710
  - # 15
    frequency:   17.3100567132

- q-position: [    0.1464646,    0.0000000,    0.0000000 ]
  distance:    0.0503077
  band:
  - # 1
    frequency:   -0.2033056581
  - # 2
    frequency:    1.2390413118
  - # 3
    frequency:    1.8337850515
  - # 4
    frequency:    3.2426151099
  - # 5
    frequency:    3.9482839351
  - # 6
    frequency:    5.2332538296
  - # 7
    frequency:    5.3511888933
  - # 8
    frequency:    6.1917939318
  - # 9
    frequency:    8.3048409017
  - # 10
    frequency:    8.5294697051
  - # 11
    frequency:    8.7803702077
  - # 12
    frequency:   12.6926781173
  - # 13
    frequency:   13.7443476402
  - # 14
    frequency:   14.1605535450
  - # 15
    frequency:   17.2880124199

- q-position: [    0.1515152,    0.0000000,    0.0000000 ]
  distance:    0.0520424
  band:
  - # 1
    frequency:   -0.2871278557
  - # 2
    frequency:    1.3093351742
  - # 3
    frequency:    1.8241536759
  - # 4
    frequency:    3.2836404431
  - # 5
    frequency:    4.0188309656
  - # 6
    frequency:    5.2451955233
  - # 7
    frequency:    5.3562710363
  - # 8
    frequency:    6.1937404453
  - # 9
    frequency:    8.2762072919
  - # 10
    frequency:    8.4825232224
  - # 11
    frequency:    8.7474605624
  - # 12
    frequency:   12.6317662594
  - # 13
    frequency:   13.7215447246
  - # 14
    frequency:   14.1256558588
  - # 15
    frequency:   17.2660476029

- q-position: [    0.1565657,    0.0000000,    0.0000000 ]
  distance:    0.0537772
  band:
  - # 1
    frequency:   -0.3856213362
  - # 2
    frequency:    1.3788633066
  - # 3
    frequency:    1.8037593645
  - # 4
    frequency:    3.3238235886
  - # 5
    frequency:    4.0888414635
  - # 6
    frequency:    5.2578792243
  - # 7
    frequency:    5.3611873109
  - # 8
    frequency:    6.1949343181
  - # 9
    frequency:    8.2542623217
  - # 10
    frequency:    8.4369528592
  - # 11
    frequency:    8.7146438779
  - # 12
    frequency:   12.5732307282
  - # 13
    frequency:   13.6991755414
  - # 14
    frequency:   14.0905369155
  - # 15
    frequency:   17.2442127220

- q-position: [    0.1616162,    0.0000000,    0.0000000 ]
  distance:    0.0555119
  band:
  - # 1
    frequency:   -0.5022630009
  - # 2
    frequency:    1.4474752606
  - # 3
    frequency:    1.7749575080
  - # 4
    frequency:    3.3632132894
  - # 5
    frequency:    4.1582309150
  - # 6
    frequency:    5.2712722515
  - # 7
    frequency:    5.3657879128
  - # 8
    frequency:    6.1961126161
  - # 9
    frequency:    8.2391384320
  - # 10
    frequency:    8.3930795801
  - # 11
    frequency:    8.6820917377
  - # 12
    frequency:   12.5172748619
  - # 13
    frequency:   13.6773004043
  - # 14
    frequency:   14.0552957429
  - # 15
    frequency:   17.2225541199

- q-position: [    0.1666667,    0.0000000,    0.0000000 ]
  distance:    0.0572467
  band:
  - # 1
    frequency:   -0.6393448647
  - # 2
    frequency:    1.5150200153
  - # 3
    frequency:    1.7417687606
  - # 4
    frequency:    3.4018718855
  - # 5
    frequency:    4.2268437856
  - # 6
    frequency:    5.2853308880
  - # 7
    frequency:    5.3699302651
  - # 8
    frequency:    6.1981470529
  - # 9
    frequency:    8.2306816208
  - # 10
    frequency:    8.3512313704
  - # 11
    frequency:    8.6500360949
  - # 12
    frequency:   12.4640954355
  - # 13
    frequency:   13.6559754515
  - # 14
    frequency:   14.0200304519
  - # 15
    frequency:   17.2011138248

- q-position: [    0.1717172,    0.0000000,    0.0000000 ]
  distance:    0.0589814
  band:
  - # 1
    frequency:   -0.7972500346
  - # 2
    frequency:    1.5813490798
  - # 3
    frequency:    1.7097375209
  - # 4
    frequency:    3.4398731294
  - # 5
    frequency:    4.2944445395
  - # 6
    frequency:    5.3000004312
  - # 7
    frequency:    5.3735278545
  - # 8
    frequency:    6.2019580015
  - # 9
    frequency:    8.2284294926
  - # 10
    frequency:    8.3117410416
  - # 11
    frequency:    8.6188049094
  - # 12
    frequency:   12.4138846542
  - # 13
    frequency:   13.6352526784
  - # 14
    frequency:   13.9848381534
  - # 15
    frequency:   17.1799294239

- q-position: [    0.1767677,    0.0000000,    0.0000000 ]
  distance:    0.0607162
  band:
  - # 1
    frequency:   -0.9736441798
  - # 2
    frequency:    1.6463199032
  - # 3
    frequency:    1.6849450396
  - # 4
    frequency:    3.4772995054
  - # 5
    frequency:    4.3607122445
  - # 6
    frequency:    5.3152155943
  - # 7
    frequency:    5.3766048967
  - # 8
    frequency:    6.2084145657
  - # 9
    frequency:    8.2315791524
  - # 10
    frequency:    8.2749436213
  - # 11
    frequency:    8.5888843591
  - # 12
    frequency:   12.3668320145
  - # 13
    frequency:   13.6151800171
  - # 14
    frequency:   13.9498149441
  - # 15
    frequency:   17.1590340103

- q-position: [    0.1818182,    0.0000000,    0.0000000 ]
  distance:    0.0624509
  band:
  - # 1
    frequency:   -1.1635213712
  - # 2
    frequency:    1.6723757553
  - # 3
    frequency:    1.7097995799
  - # 4
    frequency:    3.5142390803
  - # 5
    frequency:    4.4252383589
  - # 6
    frequency:    5.3309012988
  - # 7
    frequency:    5.3793456752
  - # 8
    frequency:    6.2182406340
  - # 9
    frequency:    8.2389189137
  - # 10
    frequency:    8.2411732932
  - # 11
    frequency:    8.5610268967
  - # 12
    frequency:   12.3231258795
  - # 13
    frequency:   13.5958014613
  - # 14
    frequency:   13.9150559769
  - # 15
    frequency:   17.1384562036

- q-position: [    0.1868687,    0.0000000,    0.0000000 ]
  distance:    0.0641857
  band:
  - # 1
    frequency:   -1.3604521837
  - # 2
    frequency:    1.6746653025
  - # 3
    frequency:    1.7716687837
  - # 4
    frequency:    3.5507819569
  - # 5
    frequency:    4.4875276871
  - # 6
    frequency:    5.3469738967
  - # 7
    frequency:    5.3821260917
  - # 8
    frequency:    6.2319465203
  - # 9
    frequency:    8.2107598655
  - # 10
    frequency:    8.2486938560
  - # 11
    frequency:    8.5364279837
  - # 12
    frequency:   12.2829546110
  - # 13
    frequency:   13.5771572300
  - # 14
    frequency:   13.8806556296
  - # 15
    frequency:   17.1182202419

- q-position: [    0.1919192,    0.0000000,    0.0000000 ]
  distance:    0.0659204
  band:
  - # 1
    frequency:   -1.5582212136
  - # 2
    frequency:    1.6920589381
  - # 3
    frequency:    1.8318258063
  - # 4
    frequency:    3.5870164502
  - # 5
    frequency:    4.5470039072
  - # 6
    frequency:    5.3633428369
  - # 7
    frequency:    5.3855178740
  - # 8
    frequency:    6.2497984808
  - # 9
    frequency:    8.1840247655
  - # 10
    frequency:    8.2584162538
  - # 11
    frequency:    8.5169548032
  - # 12
    frequency:   12.2465071044
  - # 13
    frequency:   13.5592839682
  - # 14
    frequency:   13.8467077938
  - # 15
    frequency:   17.0983461436

- q-position: [    0.1969697,    0.0000000,    0.0000000 ]
  distance:    0.0676552
  band:
  - # 1
    frequency:   -1.7518287353
  - # 2
    frequency:    1.7232682467
  - # 3
    frequency:    1.8901905250
  - # 4
    frequency:    3.6230251538
  - # 5
    frequency:    4.6030235632
  - # 6
    frequency:    5.3799127742
  - # 7
    frequency:    5.3902613831
  - # 8
    frequency:    6.2718269152
  - # 9
    frequency:    8.1612765809
  - # 10
    frequency:    8.2648357046
  - # 11
    frequency:    8.5052087767
  - # 12
    frequency:   12.2139725725
  - # 13
    frequency:   13.5422149783
  - # 14
    frequency:   13.8133063057
  - # 15
    frequency:   17.0788499356

- q-position: [    0.2020202,    0.0000000,    0.0000000 ]
  distance:    0.0693899
  band:
  - # 1
    frequency:   -1.9376654747
  - # 2
    frequency:    1.7664036927
  - # 3
    frequency:    1.9467080800
  - # 4
    frequency:    3.6588811049
  - # 5
    frequency:    4.6549053636
  - # 6
    frequency:    5.3965860862
  - # 7
    frequency:    5.3972074853
  - # 8
    frequency:    6.2978636968
  - # 9
    frequency:    8.1428062076
  - # 10
    frequency:    8.2646664292
  - # 11
    frequency:    8.5038232964
  - # 12
    frequency:   12.1855394293
  - # 13
    frequency:   13.5259804800
  - # 14
    frequency:   13.7805455469
  - # 15
    frequency:   17.0597439445

- q-position: [    0.2070707,    0.0000000,    0.0000000 ]
  distance:    0.0711247
  band:
  - # 1
    frequency:   -2.1132525501
  - # 2
    frequency:    1.8195564700
  - # 3
    frequency:    2.0013520120
  - # 4
    frequency:    3.6946442809
  - # 5
    frequency:    4.7019830791
  - # 6
    frequency:    5.4072308236
  - # 7
    frequency:    5.4132657278
  - # 8
    frequency:    6.3275941144
  - # 9
    frequency:    8.1288817054
  - # 10
    frequency:    8.2562416913
  - # 11
    frequency:    8.5138272315
  - # 12
    frequency:   12.1613931347
  - # 13
    frequency:   13.5106078911
  - # 14
    frequency:   13.7485212496
  - # 15
    frequency:   17.0410371447

- q-position: [    0.2121212,    0.0000000,    0.0000000 ]
  distance:    0.0728594
  band:
  - # 1
    frequency:   -2.2769041425