nqpoint: 300    
npath: 3      
segment_nqpoint:
- 100
- 100
- 100
labels:
- [ 'G', 'M' ]
- [ 'M', 'K' ]
- [ 'K', 'G' ]
reciprocal_lattice:
- [   0.29746244,   0.17174002,   0.00000000 ] # a*
- [   0.00000000,   0.34348004,   0.00000000 ] # b*
- [   0.00000000,   0.00000000,   0.04270482 ] # c*
natom: 5      
lattice:
- [     3.361768945760736,     0.000000000000000,     0.000000000000000 ] # a
- [    -1.680884472880368,     2.911377308678715,     0.000000000000000 ] # b
- [     0.000000000000000,     0.000000000000000,    23.416560977988340 ] # c
points:
- symbol: C # 1
  coordinates: [  0.000000000000000,  0.000000000000000,  0.514611095857493 ]
  mass: 12.010700
- symbol: Cl # 2
  coordinates: [  0.666666984744048,  0.333332985985145,  0.384343371704327 ]
  mass: 35.453000
- symbol: O # 3
  coordinates: [  0.333332985432215,  0.666666983183674,  0.615656628295673 ]
  mass: 15.999400
- symbol: Zr # 4
  coordinates: [  0.333332985432215,  0.666666983183674,  0.461732339957576 ]
  mass: 91.224000
- symbol: Zr # 5
  coordinates: [  0.666666984744048,  0.333332985985145,  0.575379518779508 ]
  mass: 91.224000

phonon:
- q-position: [    0.0000000,    0.0000000,    0.0000000 ]
  distance:    0.0000000
  band:
  - # 1
    frequency:   -0.0000014013
  - # 2
    frequency:    0.0000003051
  - # 3
    frequency:    0.0000013513
  - # 4
    frequency:    3.3378921249
  - # 5
    frequency:    3.3378921249
  - # 6
    frequency:    5.2170871468
  - # 7
    frequency:    5.2170871468
  - # 8
    frequency:    5.9202614786
  - # 9
    frequency:    9.3164062217
  - # 10
    frequency:    9.6829712764
  - # 11
    frequency:    9.6829712764
  - # 12
    frequency:   14.7134530139
  - # 13
    frequency:   15.0220908609
  - # 14
    frequency:   15.0220908609
  - # 15
    frequency:   17.7394671803

- q-position: [    0.0050505,    0.0000000,    0.0000000 ]
  distance:    0.0017347
  band:
  - # 1
    frequency:   -0.2932998263
  - # 2
    frequency:    0.0760860933
  - # 3
    frequency:    0.3194645702
  - # 4
    frequency:    3.3382275258
  - # 5
    frequency:    3.3402730645
  - # 6
    frequency:    5.2174399467
  - # 7
    frequency:    5.2175715613
  - # 8
    frequency:    5.9206634060
  - # 9
    frequency:    9.3152868378
  - # 10
    frequency:    9.6814482137
  - # 11
    frequency:    9.6818076508
  - # 12
    frequency:   14.7108008762
  - # 13
    frequency:   15.0205558172
  - # 14
    frequency:   15.0211686363
  - # 15
    frequency:   17.7388931074

- q-position: [    0.0101010,    0.0000000,    0.0000000 ]
  distance:    0.0034695
  band:
  - # 1
    frequency:   -0.3962974503
  - # 2
    frequency:    0.1521107828
  - # 3
    frequency:    0.4702913629
  - # 4
    frequency:    3.3392332402
  - # 5
    frequency:    3.3473855149
  - # 6
    frequency:    5.2184966231
  - # 7
    frequency:    5.2190154766
  - # 8
    frequency:    5.9218733354
  - # 9
    frequency:    9.3119293499
  - # 10
    frequency:    9.6768749578
  - # 11
    frequency:    9.6783189511
  - # 12
    frequency:   14.7028785904
  - # 13
    frequency:   15.0159585600
  - # 14
    frequency:   15.0183853507
  - # 15
    frequency:   17.7371728242

- q-position: [    0.0151515,    0.0000000,    0.0000000 ]
  distance:    0.0052042
  band:
  - # 1
    frequency:   -0.4626704498
  - # 2
    frequency:    0.2280119605
  - # 3
    frequency:    0.5985823242
  - # 4
    frequency:    3.3409078169
  - # 5
    frequency:    3.3591397265
  - # 6
    frequency:    5.2202520510
  - # 7
    frequency:    5.2213910798
  - # 8
    frequency:    5.9239035117
  - # 9
    frequency:    9.3063355598
  - # 10
    frequency:    9.6692396896
  - # 11
    frequency:    9.6725117256
  - # 12
    frequency:   14.6897848298
  - # 13
    frequency:   15.0083226777
  - # 14
    frequency:   15.0136948423
  - # 15
    frequency:   17.7343120949

- q-position: [    0.0202020,    0.0000000,    0.0000000 ]
  distance:    0.0069390
  band:
  - # 1
    frequency:   -0.5078816551
  - # 2
    frequency:    0.3037261332
  - # 3
    frequency:    0.7171142147
  - # 4
    frequency:    3.3432488833
  - # 5
    frequency:    3.3753905043
  - # 6
    frequency:    5.2226978364
  - # 7
    frequency:    5.2246526002
  - # 8
    frequency:    5.9267736742
  - # 9
    frequency:    9.2985078246
  - # 10
    frequency:    9.6585240138
  - # 11
    frequency:    9.6643969462
  - # 12
    frequency:   14.6716729538
  - # 13
    frequency:   14.9976873745
  - # 14
    frequency:   15.0070311476
  - # 15
    frequency:   17.7303203871

- q-position: [    0.0252525,    0.0000000,    0.0000000 ]
  distance:    0.0086737
  band:
  - # 1
    frequency:   -0.5379947319
  - # 2
    frequency:    0.3791877861
  - # 3
    frequency:    0.8304533397
  - # 4
    frequency:    3.3462532128
  - # 5
    frequency:    3.3959433442
  - # 6
    frequency:    5.2258225323
  - # 7
    frequency:    5.2287372175
  - # 8
    frequency:    5.9305100207
  - # 9
    frequency:    9.2884480414
  - # 10
    frequency:    9.6447049801
  - # 11
    frequency:    9.6539900964
  - # 12
    frequency:   14.6487380807
  - # 13
    frequency:   14.9841073036
  - # 14
    frequency:   14.9983212217
  - # 15
    frequency:   17.7252106724

- q-position: [    0.0303030,    0.0000000,    0.0000000 ]
  distance:    0.0104085
  band:
  - # 1
    frequency:   -0.5560066823
  - # 2
    frequency:    0.4543288116
  - # 3
    frequency:    0.9406849210
  - # 4
    frequency:    3.3499168165
  - # 5
    frequency:    3.4205622148
  - # 6
    frequency:    5.2296119279
  - # 7
    frequency:    5.2335663915
  - # 8
    frequency:    5.9351436924
  - # 9
    frequency:    9.2761561291
  - # 10
    frequency:    9.6277580538
  - # 11
    frequency:    9.6413112992
  - # 12
    frequency:   14.6212044200
  - # 13
    frequency:   14.9676523314
  - # 14
    frequency:   14.9874972779
  - # 15
    frequency:   17.7189991617

- q-position: [    0.0353535,    0.0000000,    0.0000000 ]
  distance:    0.0121432
  band:
  - # 1
    frequency:   -0.5634746143
  - # 2
    frequency:    0.5290780222
  - # 3
    frequency:    1.0488469316
  - # 4
    frequency:    3.3542350564
  - # 5
    frequency:    3.4489783332
  - # 6
    frequency:    5.2340494000
  - # 7
    frequency:    5.2390476616
  - # 8
    frequency:    5.9407087312
  - # 9
    frequency:    9.2616278989
  - # 10
    frequency:    9.6076611851
  - # 11
    frequency:    9.6263854858
  - # 12
    frequency:   14.5893151371
  - # 13
    frequency:   14.9484072287
  - # 14
    frequency:   14.9745064338
  - # 15
    frequency:   17.7117049930

- q-position: [    0.0404040,    0.0000000,    0.0000000 ]
  distance:    0.0138780
  band:
  - # 1
    frequency:   -0.5610933380
  - # 2
    frequency:    0.6033607625
  - # 3
    frequency:    1.1554489785
  - # 4
    frequency:    3.3592027774
  - # 5
    frequency:    3.4808992836
  - # 6
    frequency:    5.2391163124
  - # 7
    frequency:    5.2450769556
  - # 8
    frequency:    5.9472394611
  - # 9
    frequency:    9.2448521591
  - # 10
    frequency:    9.5844001862
  - # 11
    frequency:    9.6092426110
  - # 12
    frequency:   14.5533255691
  - # 13
    frequency:   14.9264712858
  - # 14
    frequency:   14.9593168011
  - # 15
    frequency:   17.7033498858

- q-position: [    0.0454545,    0.0000000,    0.0000000 ]
  distance:    0.0156127
  band:
  - # 1
    frequency:   -0.5489092075
  - # 2
    frequency:    0.6770986328
  - # 3
    frequency:    1.2607026966
  - # 4
    frequency:    3.3648144526
  - # 5
    frequency:    3.5160178977
  - # 6
    frequency:    5.2447924478
  - # 7
    frequency:    5.2515414349
  - # 8
    frequency:    5.9547672616
  - # 9
    frequency:    9.2258068508
  - # 10
    frequency:    9.5579756845
  - # 11
    frequency:    9.5899179192
  - # 12
    frequency:   14.5134994933
  - # 13
    frequency:   14.9019578481
  - # 14
    frequency:   14.9419202699
  - # 15
    frequency:   17.6939577802

- q-position: [    0.0505051,    0.0000000,    0.0000000 ]
  distance:    0.0173475
  band:
  - # 1
    frequency:   -0.5263405721
  - # 2
    frequency:    0.7502093348
  - # 3
    frequency:    1.3646382342
  - # 4
    frequency:    3.3710643399
  - # 5
    frequency:    3.5540204374
  - # 6
    frequency:    5.2510564538
  - # 7
    frequency:    5.2583228635
  - # 8
    frequency:    5.9633167367
  - # 9
    frequency:    9.2044539643
  - # 10
    frequency:    9.5284119758
  - # 11
    frequency:    9.5684522642
  - # 12
    frequency:   14.4701076059
  - # 13
    frequency:   14.8749937667
  - # 14
    frequency:   14.9223327785
  - # 15
    frequency:   17.6835544789

- q-position: [    0.0555556,    0.0000000,    0.0000000 ]
  distance:    0.0190822
  band:
  - # 1
    frequency:   -0.4920063193
  - # 2
    frequency:    0.8226066447
  - # 3
    frequency:    1.4671682308
  - # 4
    frequency:    3.3779466429
  - # 5
    frequency:    3.5945937573
  - # 6
    frequency:    5.2578862871
  - # 7
    frequency:    5.2653014489
  - # 8
    frequency:    5.9729013230
  - # 9
    frequency:    9.1807329791
  - # 10
    frequency:    9.4957681180
  - # 11
    frequency:    9.5448924899
  - # 12
    frequency:   14.4234272831
  - # 13
    frequency:   14.8457187603
  - # 14
    frequency:   14.9005929504
  - # 15
    frequency:   17.6721673049

- q-position: [    0.0606061,    0.0000000,    0.0000000 ]
  distance:    0.0208170
  band:
  - # 1
    frequency:   -0.4431959873
  - # 2
    frequency:    0.8942005182
  - # 3
    frequency:    1.5681246272
  - # 4
    frequency:    3.3854556720
  - # 5
    frequency:    3.6374312576
  - # 6
    frequency:    5.2652596388
  - # 7
    frequency:    5.2723600408
  - # 8
    frequency:    5.9835184423
  - # 9
    frequency:    9.1545526671
  - # 10
    frequency:    9.4601515096
  - # 11
    frequency:    9.5192918736
  - # 12
    frequency:   14.3737428510
  - # 13
    frequency:   14.8142846845
  - # 14
    frequency:   14.8767598309
  - # 15
    frequency:   17.6598247903

- q-position: [    0.0656566,    0.0000000,    0.0000000 ]
  distance:    0.0225517
  band:
  - # 1
    frequency:   -0.3742974915
  - # 2
    frequency:    0.9648973277
  - # 3
    frequency:    1.6672801214
  - # 4
    frequency:    3.3935860001
  - # 5
    frequency:    3.6822375480
  - # 6
    frequency:    5.2731543226
  - # 7
    frequency:    5.2793885215
  - # 8
    frequency:    5.9951443571
  - # 9
    frequency:    9.1257814589
  - # 10
    frequency:    9.4217338392
  - # 11
    frequency:    9.4917106371
  - # 12
    frequency:   14.3213458172
  - # 13
    frequency:   14.7808547036
  - # 14
    frequency:   14.8509102408
  - # 15
    frequency:   17.6465564026

- q-position: [    0.0707071,    0.0000000,    0.0000000 ]
  distance:    0.0242865
  band:
  - # 1
    frequency:   -0.2704032933
  - # 2
    frequency:    1.0346002320
  - # 3
    frequency:    1.7643603292
  - # 4
    frequency:    3.4023326061
  - # 5
    frequency:    3.7287318202
  - # 6
    frequency:    5.2815486143
  - # 7
    frequency:    5.2862881732
  - # 8
    frequency:    6.0077289409
  - # 9
    frequency:    9.0942374604
  - # 10
    frequency:    9.3807683982
  - # 11
    frequency:    9.4622165264
  - # 12
    frequency:   14.2665347244
  - # 13
    frequency:   14.7456023641
  - # 14
    frequency:   14.8231360727
  - # 15
    frequency:   17.6323923182

- q-position: [    0.0757576,    0.0000000,    0.0000000 ]
  distance:    0.0260212
  band:
  - # 1
    frequency:    0.0668609618
  - # 2
    frequency:    1.1032096749
  - # 3
    frequency:    1.8590500037
  - # 4
    frequency:    3.4116910011
  - # 5
    frequency:    3.7766499771
  - # 6
    frequency:    5.2904215281
  - # 7
    frequency:    5.2929757890
  - # 8
    frequency:    6.0211906042
  - # 9
    frequency:    9.0596810201
  - # 10
    frequency:    9.3376059141
  - # 11
    frequency:    9.4308854594
  - # 12
    frequency:   14.2096144517
  - # 13
    frequency:   14.7087105661
  - # 14
    frequency:   14.7935417098
  - # 15
    frequency:   17.6173632424

- q-position: [    0.0808081,    0.0000000,    0.0000000 ]
  distance:    0.0277560
  band:
  - # 1
    frequency:    0.3042641535
  - # 2
    frequency:    1.1706240108
  - # 3
    frequency:    1.9509952761
  - # 4
    frequency:    3.4216573298
  - # 5
    frequency:    3.8257455852
  - # 6
    frequency:    5.2993872995
  - # 7
    frequency:    5.2997530204
  - # 8
    frequency:    6.0354116295
  - # 9
    frequency:    9.0218157624
  - # 10
    frequency:    9.2927030222
  - # 11
    frequency:    9.3978022411
  - # 12
    frequency:   14.1508949032
  - # 13
    frequency:   14.6703704353
  - # 14
    frequency:   14.7622416556
  - # 15
    frequency:   17.6015002777

- q-position: [    0.0858586,    0.0000000,    0.0000000 ]
  distance:    0.0294907
  band:
  - # 1
    frequency:    0.4371068688
  - # 2
    frequency:    1.2367402515
  - # 3
    frequency:    2.0398031127
  - # 4
    frequency:    3.4322284414
  - # 5
    frequency:    3.8757897199
  - # 6
    frequency:    5.3054807355
  - # 7
    frequency:    5.3095241139
  - # 8
    frequency:    6.0502341531
  - # 9
    frequency:    8.9803075587
  - # 10
    frequency:    9.2466138776
  - # 11
    frequency:    9.3630613379
  - # 12
    frequency:   14.0906891095
  - # 13
    frequency:   14.6307800953
  - # 14
    frequency:   14.7293584042
  - # 15
    frequency:   17.5848348360

- q-position: [    0.0909091,    0.0000000,    0.0000000 ]
  distance:    0.0312255
  band:
  - # 1
    frequency:    0.5474809590
  - # 2
    frequency:    1.3014549329
  - # 3
    frequency:    2.1250387348
  - # 4
    frequency:    3.4434019221
  - # 5
    frequency:    3.9265697646
  - # 6
    frequency:    5.3112384113
  - # 7
    frequency:    5.3197169377
  - # 8
    frequency:    6.0654570216
  - # 9
    frequency:    8.9348319935
  - # 10
    frequency:    9.1999542501
  - # 11
    frequency:    9.3267677038
  - # 12
    frequency:   14.0293108234
  - # 13
    frequency:   14.5901433477
  - # 14
    frequency:   14.6950205502
  - # 15
    frequency:   17.5673985901

- q-position: [    0.0959596,    0.0000000,    0.0000000 ]
  distance:    0.0329602
  band:
  - # 1
    frequency:    0.6467977873
  - # 2
    frequency:    1.3646650950
  - # 3
    frequency:    2.2062214766
  - # 4
    frequency:    3.4551760849
  - # 5
    frequency:    3.9778872139
  - # 6
    frequency:    5.3166682948
  - # 7
    frequency:    5.3303146827
  - # 8
    frequency:    6.0808337558
  - # 9
    frequency:    8.8851538466
  - # 10
    frequency:    9.1533343520
  - # 11
    frequency:    9.2890376423
  - # 12
    frequency:   13.9670717337
  - # 13
    frequency:   14.5486682655
  - # 14
    frequency:   14.6593611239
  - # 15
    frequency:   17.5492234572

- q-position: [    0.1010101,    0.0000000,    0.0000000 ]
  distance:    0.0346950
  band:
  - # 1
    frequency:    0.7393197264
  - # 2
    frequency:    1.4262693748
  - # 3
    frequency:    2.2828193915
  - # 4
    frequency:    3.4675499090
  - # 5
    frequency:    4.0295545307
  - # 6
    frequency:    5.3218045929
  - # 7
    frequency:    5.3413014743
  - # 8
    frequency:    6.0960719210
  - # 9
    frequency:    8.8312240575
  - # 10
    frequency:    9.1072745172
  - # 11
    frequency:    9.2499996871
  - # 12
    frequency:   13.9042784480
  - # 13
    frequency:   14.5065657121
  - # 14
    frequency:   14.6225161271
  - # 15
    frequency:   17.5303416067

- q-position: [    0.1060606,    0.0000000,    0.0000000 ]
  distance:    0.0364297
  band:
  - # 1
    frequency:    0.8271119229
  - # 2
    frequency:    1.4861692065
  - # 3
    frequency:    2.3542428201
  - # 4
    frequency:    3.4805229254
  - # 5
    frequency:    4.0813911249
  - # 6
    frequency:    5.3267076126
  - # 7
    frequency:    5.3526621676
  - # 8
    frequency:    6.1108343647
  - # 9
    frequency:    8.7732606927
  - # 10
    frequency:    9.0621365295
  - # 11
    frequency:    9.2097954760
  - # 12
    frequency:   13.8412294136
  - # 13
    frequency:   14.4640477989
  - # 14
    frequency:   14.5846232495
  - # 15
    frequency:   17.5107854854

- q-position: [    0.1111111,    0.0000000,    0.0000000 ]
  distance:    0.0381644
  band:
  - # 1
    frequency:    0.9113150691
  - # 2
    frequency:    1.5442701271
  - # 3
    frequency:    2.4198370938
  - # 4
    frequency:    3.4940950464
  - # 5
    frequency:    4.1332185682
  - # 6
    frequency:    5.3314629395
  - # 7
    frequency:    5.3643820727
  - # 8
    frequency:    6.1247430571
  - # 9
    frequency:    8.7117814568
  - # 10
    frequency:    9.0181019960
  - # 11
    frequency:    9.1685805888
  - # 12
    frequency:   13.7782119506
  - # 13
    frequency:   14.4213262998
  - # 14
    frequency:   14.5458207415
  - # 15
    frequency:   17.4905878513

- q-position: [    0.1161616,    0.0000000,    0.0000000 ]
  distance:    0.0398992
  band:
  - # 1
    frequency:    0.9926085575
  - # 2
    frequency:    1.6004831845
  - # 3
    frequency:    2.4788745590
  - # 4
    frequency:    3.5082663358
  - # 5
    frequency:    4.1848552496
  - # 6
    frequency:    5.3361798900
  - # 7
    frequency:    5.3764466224
  - # 8
    frequency:    6.1373866799
  - # 9
    frequency:    8.6475816174
  - # 10
    frequency:    8.9752023301
  - # 11
    frequency:    9.1265253141
  - # 12
    frequency:   13.7154995638
  - # 13
    frequency:   14.3786110419
  - # 14
    frequency:   14.5062464260
  - # 15
    frequency:   17.4697818093

- q-position: [    0.1212121,    0.0000000,    0.0000000 ]
  distance:    0.0416339
  band:
  - # 1
    frequency:    1.0714147513
  - # 2
    frequency:    1.6547264410
  - # 3
    frequency:    2.5305461828
  - # 4
    frequency:    3.5230367251
  - # 5
    frequency:    4.2361108104
  - # 6
    frequency:    5.3409890496
  - # 7
    frequency:    5.3888409947
  - # 8
    frequency:    6.1483335953
  - # 9
    frequency:    8.5816786990
  - # 10
    frequency:    8.9333768189
  - # 11
    frequency:    9.0838153051
  - # 12
    frequency:   13.6533496851
  - # 13
    frequency:   14.3361082964
  - # 14
    frequency:   14.4660368331
  - # 15
    frequency:   17.4484008438

- q-position: [    0.1262626,    0.0000000,    0.0000000 ]
  distance:    0.0433687
  band:
  - # 1
    frequency:    1.1480008240
  - # 2
    frequency:    1.7069265689
  - # 3
    frequency:    2.5739531658
  - # 4
    frequency:    3.5384056774
  - # 5
    frequency:    4.2867808809
  - # 6
    frequency:    5.3460385085
  - # 7
    frequency:    5.4015497055
  - # 8
    frequency:    6.1571522904
  - # 9
    frequency:    8.5152501937
  - # 10
    frequency:    8.8925297273
  - # 11
    frequency:    9.0406520781
  - # 12
    frequency:   13.5920019654
  - # 13
    frequency:   14.2940191941
  - # 14
    frequency:   14.4253264444
  - # 15
    frequency:   17.4264788414

- q-position: [    0.1313131,    0.0000000,    0.0000000 ]
  distance:    0.0451034
  band:
  - # 1
    frequency:    1.2225336678
  - # 2
    frequency:    1.7570205250
  - # 3
    frequency:    2.6080992582
  - # 4
    frequency:    3.5543718111
  - # 5
    frequency:    4.3366428605
  - # 6
    frequency:    5.3514881636
  - # 7
    frequency:    5.4145561909
  - # 8
    frequency:    6.1634415709
  - # 9
    frequency:    8.4495769340
  - # 10
    frequency:    8.8525705565
  - # 11
    frequency:    8.9972533069
  - # 12
    frequency:   13.5316772007
  - # 13
    frequency:   14.2525381921
  - # 14
    frequency:   14.3842470387
  - # 15
    frequency:   17.4040501020

- q-position: [    0.1363636,    0.0000000,    0.0000000 ]
  distance:    0.0468382
  band:
  - # 1
    frequency:    1.2951105271
  - # 2
    frequency:    1.8049572927
  - # 3
    frequency:    2.6318849040
  - # 4
    frequency:    3.5709324940
  - # 5
    frequency:    4.3854536943
  - # 6
    frequency:    5.3575012410
  - # 7
    frequency:    5.4278423967
  - # 8
    frequency:    6.1668722954
  - # 9
    frequency:    8.3859904615
  - # 10
    frequency:    8.8134360016
  - # 11
    frequency:    8.9538528625
  - # 12
    frequency:   13.4725769320
  - # 13
    frequency:   14.2118516196
  - # 14
    frequency:   14.3429271299
  - # 15
    frequency:   17.3811493343

- q-position: [    0.1414141,    0.0000000,    0.0000000 ]
  distance:    0.0485729
  band:
  - # 1
    frequency:    1.3657752440
  - # 2
    frequency:    1.8506996714
  - # 3
    frequency:    2.6441049309
  - # 4
    frequency:    3.5880834258
  - # 5
    frequency:    4.4329507445
  - # 6
    frequency:    5.3642320858
  - # 7
    frequency:    5.4413883972
  - # 8
    frequency:    6.1672407758
  - # 9
    frequency:    8.3258170118
  - # 10
    frequency:    8.7750990381
  - # 11
    frequency:    8.9107005462
  - # 12
    frequency:   13.4148837146
  - # 13
    frequency:   14.1721363274
  - # 14
    frequency:   14.3014914945
  - # 15
    frequency:   17.3578116356

- q-position: [    0.1464646,    0.0000000,    0.0000000 ]
  distance:    0.0503077
  band:
  - # 1
    frequency:    1.4345239579
  - # 2
    frequency:    1.8942260872
  - # 3
    frequency:    2.6434523371
  - # 4
    frequency:    3.6058182277
  - # 5
    frequency:    4.4788568144
  - # 6
    frequency:    5.3718094562
  - # 7
    frequency:    5.4551720632
  - # 8
    frequency:    6.1645307333
  - # 9
    frequency:    8.2703126743
  - # 10
    frequency:    8.7375712780
  - # 11
    frequency:    8.8680614676
  - # 12
    frequency:   13.3587620105
  - # 13
    frequency:   14.1335584676
  - # 14
    frequency:   14.2600607863
  - # 15
    frequency:   17.3340724548

- q-position: [    0.1515152,    0.0000000,    0.0000000 ]
  distance:    0.0520424
  band:
  - # 1
    frequency:    1.5012999675
  - # 2
    frequency:    1.9355323926
  - # 3
    frequency:    2.6285320142
  - # 4
    frequency:    3.6241280636
  - # 5
    frequency:    4.5228900240
  - # 6
    frequency:    5.3803152975
  - # 7
    frequency:    5.4691688036
  - # 8
    frequency:    6.1589759666
  - # 9
    frequency:    8.2205900235
  - # 10
    frequency:    8.7009031234
  - # 11
    frequency:    8.8262150238
  - # 12
    frequency:   13.3043596193
  - # 13
    frequency:   14.0962724250
  - # 14
    frequency:   14.2187512375
  - # 15
    frequency:   17.3099675405

- q-position: [    0.1565657,    0.0000000,    0.0000000 ]
  distance:    0.0537772
  band:
  - # 1
    frequency:    1.5659722026
  - # 2
    frequency:    1.9746336139
  - # 3
    frequency:    2.5978909427
  - # 4
    frequency:    3.6430013137
  - # 5
    frequency:    4.5647784480
  - # 6
    frequency:    5.3897605430
  - # 7
    frequency:    5.4833513992
  - # 8
    frequency:    6.1511107528
  - # 9
    frequency:    8.1775428194
  - # 10
    frequency:    8.6651845956
  - # 11
    frequency:    8.7854534403
  - # 12
    frequency:   13.2518095369
  - # 13
    frequency:   14.0604199181
  - # 14
    frequency:   14.1776744508
  - # 15
    frequency:   17.2855328746

- q-position: [    0.1616162,    0.0000000,    0.0000000 ]
  distance:    0.0555119
  band:
  - # 1
    frequency:    1.6282803825
  - # 2
    frequency:    2.0115655954
  - # 3
    frequency:    2.5500791252
  - # 4
    frequency:    3.6624233272
  - # 5
    frequency:    4.6042782074
  - # 6
    frequency:    5.4000620528
  - # 7
    frequency:    5.4976899525
  - # 8
    frequency:    6.1417915436
  - # 9
    frequency:    8.1417796149
  - # 10
    frequency:    8.6305487349
  - # 11
    frequency:    8.7460798470
  - # 12
    frequency:   13.2012321086
  - # 13
    frequency:   14.0261292853
  - # 14
    frequency:   14.1369372857
  - # 15
    frequency:   17.2608045963

- q-position: [    0.1666667,    0.0000000,    0.0000000 ]
  distance:    0.0572467
  band:
  - # 1
    frequency:    1.6876973148
  - # 2
    frequency:    2.0463864811
  - # 3
    frequency:    2.4837822253
  - # 4
    frequency:    3.6823762717
  - # 5
    frequency:    4.6411923099
  - # 6
    frequency:    5.4110280460
  - # 7
    frequency:    5.5121519688
  - # 8
    frequency:    6.1321741751
  - # 9
    frequency:    8.1135771111
  - # 10
    frequency:    8.5971791581
  - # 11
    frequency:    8.7084058754
  - # 12
    frequency:   13.1527373390
  - # 13
    frequency:   13.9935149644
  - # 14
    frequency:   14.0966418484
  - # 15
    frequency:   17.2358189158

- q-position: [    0.1717172,    0.0000000,    0.0000000 ]
  distance:    0.0589814
  band:
  - # 1
    frequency:    1.7430451521
  - # 2
    frequency:    2.0791779668
  - # 3
    frequency:    2.3981707348
  - # 4
    frequency:    3.7028390996
  - # 5
    frequency:    4.6753865096
  - # 6
    frequency:    5.4223620872
  - # 7
    frequency:    5.5267025858
  - # 8
    frequency:    6.1236369569
  - # 9
    frequency:    8.0928591389
  - # 10
    frequency:    8.5653235332
  - # 11
    frequency:    8.6727487769
  - # 12
    frequency:   13.1064272143
  - # 13
    frequency:   13.9626771703
  - # 14
    frequency:   14.0568855941
  - # 15
    frequency:   17.2106120254

- q-position: [    0.1767677,    0.0000000,    0.0000000 ]
  distance:    0.0607162
  band:
  - # 1
    frequency:    1.7912189608
  - # 2
    frequency:    2.1100462445
  - # 3
    frequency:    2.2940772600
  - # 4
    frequency:    3.7237876418
  - # 5
    frequency:    4.7067984793
  - # 6
    frequency:    5.4336954283
  - # 7
    frequency:    5.5413049598
  - # 8
    frequency:    6.1176511475
  - # 9
    frequency:    8.0791988962
  - # 10
    frequency:    8.5353151749
  - # 11
    frequency:    8.6394280844
  - # 12
    frequency:   13.0623979025
  - # 13
    frequency:   13.9337017697
  - # 14
    frequency:   14.0177615571
  - # 15
    frequency:   17.1852200086

- q-position: [    0.1818182,    0.0000000,    0.0000000 ]
  distance:    0.0624509
  band:
  - # 1
    frequency:    1.8218973967
  - # 2
    frequency:    2.1391225575
  - # 3
    frequency:    2.1790549008
  - # 4
    frequency:    3.7451948343
  - # 5
    frequency:    4.7354380329
  - # 6
    frequency:    5.4446512326
  - # 7
    frequency:    5.5559208131
  - # 8
    frequency:    6.1156146030
  - # 9
    frequency:    8.0718343148
  - # 10
    frequency:    8.5076051826
  - # 11
    frequency:    8.6087618588
  - # 12
    frequency:   13.0207417056
  - # 13
    frequency:   13.9066603473
  - # 14
    frequency:   13.9793587250
  - # 15
    frequency:   17.1596787524

- q-position: [    0.1868687,    0.0000000,    0.0000000 ]
  distance:    0.0641857
  band:
  - # 1
    frequency:    1.7970469223
  - # 2
    frequency:    2.0873683488
  - # 3
    frequency:    2.1665632790
  - # 4
    frequency:    3.7670310756
  - # 5
    frequency:    4.7613786714
  - # 6
    frequency:    5.4549307219
  - # 7
    frequency:    5.5705111343
  - # 8
    frequency:    6.1186790447
  - # 9
    frequency:    8.0696835363
  - # 10
    frequency:    8.4828062665
  - # 11
    frequency:    8.5810625847
  - # 12
    frequency:   12.9815486489
  - # 13
    frequency:   13.8816104520
  - # 14
    frequency:   13.9417625779
  - # 15
    frequency:   17.1340238669

- q-position: [    0.1919192,    0.0000000,    0.0000000 ]
  distance:    0.0659204
  band:
  - # 1
    frequency:    1.6604745852
  - # 2
    frequency:    2.0693089157
  - # 3
    frequency:    2.1925494271
  - # 4
    frequency:    3.7892647068
  - # 5
    frequency:    4.7847432798
  - # 6
    frequency:    5.4643953672
  - # 7
    frequency:    5.5850370167
  - # 8
    frequency:    6.1276113853
  - # 9
    frequency:    8.0713537085
  - # 10
    frequency:    8.4617433628
  - # 11
    frequency:    8.5566328039
  - # 12
    frequency:   12.9449076055
  - # 13
    frequency:   13.8585960114
  - # 14
    frequency:   13.9050558223
  - # 15
    frequency:   17.1082906156

- q-position: [    0.1969697,    0.0000000,    0.0000000 ]
  distance:    0.0676552
  band:
  - # 1
    frequency:    1.4292404840
  - # 2
    frequency:    2.0969223391
  - # 3
    frequency:    2.2172855354
  - # 4
    frequency:    3.8118625958
  - # 5
    frequency:    4.8056882146
  - # 6
    frequency:    5.4731125155
  - # 7
    frequency:    5.5994606060
  - # 8
    frequency:    6.1427265060
  - # 9
    frequency:    8.0751566356
  - # 10
    frequency:    8.4454891726
  - # 11
    frequency:    8.5357605957
  - # 12
    frequency:   12.9109068654
  - # 13
    frequency:   13.8376478950
  - # 14
    frequency:   13.8693193486
  - # 15
    frequency:   17.0825138608

- q-position: [    0.2020202,    0.0000000,    0.0000000 ]
  distance:    0.0693899
  band:
  - # 1
    frequency:    1.1101637949
  - # 2
    frequency:    2.1382053896
  - # 3
    frequency:    2.2409978120
  - # 4
    frequency:    3.8347908058
  - # 5
    frequency:    4.8243897276
  - # 6
    frequency:    5.4813442478
  - # 7
    frequency:    5.6137461156
  - # 8
    frequency:    6.1639073976
  - # 9
    frequency:    8.0791815164
  - # 10
    frequency:    8.4353303911
  - # 11
    frequency:    8.5187150342
  - # 12
    frequency:   12.8796340617
  - # 13
    frequency:   13.8187846095
  - # 14
    frequency:   13.8346334570
  - # 15
    frequency:   17.0567280265

- q-position: [    0.2070707,    0.0000000,    0.0000000 ]
  distance:    0.0711247
  band:
  - # 1
    frequency:    0.6182186097
  - # 2
    frequency:    2.1836169941
  - # 3
    frequency:    2.2639315375
  - # 4
    frequency:    3.8580153183
  - # 5
    frequency:    4.8410350403
  - # 6
    frequency:    5.4894857523
  - # 7
    frequency:    5.6278608600
  - # 8
    frequency:    6.1906967736
  - # 9
    frequency:    8.0815056469
  - # 10
    frequency:    8.4325833643
  - # 11
    frequency:    8.5057417642
  - # 12
    frequency:   12.8511753755
  - # 13
    frequency:   13.8010793979
  - # 14
    frequency:   13.8020131043
  - # 15
    frequency:   17.0309670846

- q-position: [    0.2121212,    0.0000000,    0.0000000 ]
  distance:    0.0728594
  band:
  - # 1
    frequency:   -0.6915065596