nqpoint: 300    
npath: 3      
segment_nqpoint:
- 100
- 100
- 100
labels:
- [ 'G', 'M' ]
- [ 'M', 'K' ]
- [ 'K', 'G' ]
reciprocal_lattice:
- [   0.28828354,   0.16644058,   0.00000000 ] # a*
- [   0.00000000,   0.33288116,   0.00000000 ] # b*
- [   0.00000000,   0.00000000,   0.04161348 ] # c*
natom: 5      
lattice:
- [     3.468807140985591,     0.000000000000000,     0.000000000000000 ] # a
- [    -1.734403570492795,     3.004075104915254,     0.000000000000000 ] # b
- [     0.000000000000000,     0.000000000000000,    24.030672669765064 ] # c
points:
- symbol: Br # 1
  coordinates: [  0.333332985432215,  0.666666983183674,  0.625478648738634 ]
  mass: 79.904000
- symbol: Br # 2
  coordinates: [  0.666666984744047,  0.333332985985145,  0.374521351261366 ]
  mass: 79.904000
- symbol: Hf # 3
  coordinates: [  0.333332985432215,  0.666666983183674,  0.454785268795552 ]
  mass: 178.490000
- symbol: Hf # 4
  coordinates: [  0.666666984744047,  0.333332985985145,  0.545214730722244 ]
  mass: 178.490000
- symbol: N # 5
  coordinates: [  0.000000000000000,  0.000000000000000,  0.500000032307039 ]
  mass: 14.006700

phonon:
- q-position: [    0.0000000,    0.0000000,    0.0000000 ]
  distance:    0.0000000
  band:
  - # 1
    frequency:   -0.0000133700
  - # 2
    frequency:   -0.0000001271
  - # 3
    frequency:    0.0000056592
  - # 4
    frequency:    2.3331758339
  - # 5
    frequency:    2.3331758339
  - # 6
    frequency:    3.7015115445
  - # 7
    frequency:    3.7015115445
  - # 8
    frequency:    3.9764996096
  - # 9
    frequency:    4.2556049027
  - # 10
    frequency:    4.2556049027
  - # 11
    frequency:    5.6582779580
  - # 12
    frequency:    6.9591520336
  - # 13
    frequency:   13.1573809737
  - # 14
    frequency:   15.1585846832
  - # 15
    frequency:   15.1585846832

- q-position: [    0.0050505,    0.0000000,    0.0000000 ]
  distance:    0.0016812
  band:
  - # 1
    frequency:    0.0013262477
  - # 2
    frequency:    0.0373797931
  - # 3
    frequency:    0.0582833344
  - # 4
    frequency:    2.3333962604
  - # 5
    frequency:    2.3342448210
  - # 6
    frequency:    3.7000218994
  - # 7
    frequency:    3.7014826996
  - # 8
    frequency:    3.9782719980
  - # 9
    frequency:    4.2553889808
  - # 10
    frequency:    4.2557742202
  - # 11
    frequency:    5.6580449000
  - # 12
    frequency:    6.9583758985
  - # 13
    frequency:   13.1570028342
  - # 14
    frequency:   15.1585749531
  - # 15
    frequency:   15.1586839271

- q-position: [    0.0101010,    0.0000000,    0.0000000 ]
  distance:    0.0033624
  band:
  - # 1
    frequency:    0.0052968456
  - # 2
    frequency:    0.0747289908
  - # 3
    frequency:    0.1165590289
  - # 4
    frequency:    2.3340567307
  - # 5
    frequency:    2.3374430980
  - # 6
    frequency:    3.6956871199
  - # 7
    frequency:    3.7013964274
  - # 8
    frequency:    3.9834458551
  - # 9
    frequency:    4.2547410574
  - # 10
    frequency:    4.2562928355
  - # 11
    frequency:    5.6573463055
  - # 12
    frequency:    6.9560490881
  - # 13
    frequency:   13.1558678261
  - # 14
    frequency:   15.1585453310
  - # 15
    frequency:   15.1589812848

- q-position: [    0.0151515,    0.0000000,    0.0000000 ]
  distance:    0.0050437
  band:
  - # 1
    frequency:    0.0118876063
  - # 2
    frequency:    0.1120171397
  - # 3
    frequency:    0.1748193123
  - # 4
    frequency:    2.3351548198
  - # 5
    frequency:    2.3427448720
  - # 6
    frequency:    3.6888669100
  - # 7
    frequency:    3.7012535115
  - # 8
    frequency:    3.9916337190
  - # 9
    frequency:    4.2536606727
  - # 10
    frequency:    4.2571930038
  - # 11
    frequency:    5.6561839150
  - # 12
    frequency:    6.9521763817
  - # 13
    frequency:   13.1539742106
  - # 14
    frequency:   15.1584945211
  - # 15
    frequency:   15.1594756192

- q-position: [    0.0202020,    0.0000000,    0.0000000 ]
  distance:    0.0067249
  band:
  - # 1
    frequency:    0.0210590245
  - # 2
    frequency:    0.1492140722
  - # 3
    frequency:    0.2330561616
  - # 4
    frequency:    2.3366864924
  - # 5
    frequency:    2.3501079999
  - # 6
    frequency:    3.6800469509
  - # 7
    frequency:    3.7010552459
  - # 8
    frequency:    4.0023026963
  - # 9
    frequency:    4.2521471024
  - # 10
    frequency:    4.2585293242
  - # 11
    frequency:    5.6545606362
  - # 12
    frequency:    6.9467657269
  - # 13
    frequency:   13.1513191887
  - # 14
    frequency:   15.1584203610
  - # 15
    frequency:   15.1601649848

- q-position: [    0.0252525,    0.0000000,    0.0000000 ]
  distance:    0.0084061
  band:
  - # 1
    frequency:    0.0327574285
  - # 2
    frequency:    0.1862900456
  - # 3
    frequency:    0.2912611744
  - # 4
    frequency:    2.3386461124
  - # 5
    frequency:    2.3594751955
  - # 6
    frequency:    3.6697383958
  - # 7
    frequency:    3.7008034178
  - # 8
    frequency:    4.0148737493
  - # 9
    frequency:    4.2501994205
  - # 10
    frequency:    4.2603797954
  - # 11
    frequency:    5.6524805537
  - # 12
    frequency:    6.9398282125
  - # 13
    frequency:   13.1478990459
  - # 14
    frequency:   15.1583198180
  - # 15
    frequency:   15.1610465552

- q-position: [    0.0303030,    0.0000000,    0.0000000 ]
  distance:    0.0100873
  band:
  - # 1
    frequency:    0.0469164760
  - # 2
    frequency:    0.2232158790
  - # 3
    frequency:    0.3494254468
  - # 4
    frequency:    2.3410264568
  - # 5
    frequency:    2.3707756032
  - # 6
    frequency:    3.6584117635
  - # 7
    frequency:    3.7005002837
  - # 8
    frequency:    4.0287866225
  - # 9
    frequency:    4.2478165861
  - # 10
    frequency:    4.2628467730
  - # 11
    frequency:    5.6499489423
  - # 12
    frequency:    6.9313780323
  - # 13
    frequency:   13.1437093490
  - # 14
    frequency:   15.1581889835
  - # 15
    frequency:   15.1621165253

- q-position: [    0.0353535,    0.0000000,    0.0000000 ]
  distance:    0.0117685
  band:
  - # 1
    frequency:    0.0634588994
  - # 2
    frequency:    0.2599630857
  - # 3
    frequency:    0.4075394541
  - # 4
    frequency:    2.3438187341
  - # 5
    frequency:    2.3839266406
  - # 6
    frequency:    3.6464683710
  - # 7
    frequency:    3.7001485407
  - # 8
    frequency:    4.0435280495
  - # 9
    frequency:    4.2449975522
  - # 10
    frequency:    4.2660570487
  - # 11
    frequency:    5.6469722834
  - # 12
    frequency:    6.9214324384
  - # 13
    frequency:   13.1387451898
  - # 14
    frequency:   15.1580230668
  - # 15
    frequency:   15.1633699928

- q-position: [    0.0404040,    0.0000000,    0.0000000 ]
  distance:    0.0134497
  band:
  - # 1
    frequency:    0.0822983946
  - # 2
    frequency:    0.2965040008
  - # 3
    frequency:    0.4655929367
  - # 4
    frequency:    2.3470126067
  - # 5
    frequency:    2.3988360034
  - # 6
    frequency:    3.6342366028
  - # 7
    frequency:    3.6997512930
  - # 8
    frequency:    4.0586372864
  - # 9
    frequency:    4.2417413967
  - # 10
    frequency:    4.2701597125
  - # 11
    frequency:    5.6435582840
  - # 12
    frequency:    6.9100116868
  - # 13
    frequency:   13.1330014663
  - # 14
    frequency:   15.1578163878
  - # 15
    frequency:   15.1648008256

- q-position: [    0.0454545,    0.0000000,    0.0000000 ]
  distance:    0.0151310
  band:
  - # 1
    frequency:    0.1033415533
  - # 2
    frequency:    0.3328119023
  - # 3
    frequency:    0.5235747897
  - # 4
    frequency:    2.3505962185
  - # 5
    frequency:    2.4154037299
  - # 6
    frequency:    3.6219798968
  - # 7
    frequency:    3.6993120150
  - # 8
    frequency:    4.0737040730
  - # 9
    frequency:    4.2380474716
  - # 10
    frequency:    4.2753198232
  - # 11
    frequency:    5.6397158967
  - # 12
    frequency:    6.8971389742
  - # 13
    frequency:   13.1264731962
  - # 14
    frequency:   15.1575623681
  - # 15
    frequency:   15.1664015182

- q-position: [    0.0505051,    0.0000000,    0.0000000 ]
  distance:    0.0168122
  band:
  - # 1
    frequency:    0.1264897469
  - # 2
    frequency:    0.3688611263
  - # 3
    frequency:    0.5814729595
  - # 4
    frequency:    2.3545562281
  - # 5
    frequency:    2.4335242326
  - # 6
    frequency:    3.6099082014
  - # 7
    frequency:    3.6988345136
  - # 8
    frequency:    4.0883695147
  - # 9
    frequency:    4.2339155699
  - # 10
    frequency:    4.2817056433
  - # 11
    frequency:    5.6354553416
  - # 12
    frequency:    6.8828403690
  - # 13
    frequency:   13.1191558511
  - # 14
    frequency:   15.1572535230
  - # 15
    frequency:   15.1681630460

- q-position: [    0.0555556,    0.0000000,    0.0000000 ]
  distance:    0.0184934
  band:
  - # 1
    frequency:    0.1516408914
  - # 2
    frequency:    0.4046271730
  - # 3
    frequency:    0.6392743457
  - # 4
    frequency:    2.3588778473
  - # 5
    frequency:    2.4530882205
  - # 6
    frequency:    3.5981890082
  - # 7
    frequency:    3.6983228880
  - # 8
    frequency:    4.1023350761
  - # 9
    frequency:    4.2293461075
  - # 10
    frequency:    4.2894681516
  - # 11
    frequency:    5.6307881270
  - # 12
    frequency:    6.8671447354
  - # 13
    frequency:   13.1110457044
  - # 14
    frequency:   15.1568814523
  - # 15
    frequency:   15.1700747230

- q-position: [    0.0606061,    0.0000000,    0.0000000 ]
  distance:    0.0201746
  band:
  - # 1
    frequency:    0.1786910380
  - # 2
    frequency:    0.4400868055
  - # 3
    frequency:    0.6969647116
  - # 4
    frequency:    2.3635448857
  - # 5
    frequency:    2.4739844569
  - # 6
    frequency:    3.5869566024
  - # 7
    frequency:    3.6977814914
  - # 8
    frequency:    4.1153792544
  - # 9
    frequency:    4.2243403170
  - # 10
    frequency:    4.2987146296
  - # 11
    frequency:    5.6257270687
  - # 12
    frequency:    6.8500836539
  - # 13
    frequency:   13.1021401808
  - # 14
    frequency:   15.1564368322
  - # 15
    frequency:   15.1721240693

- q-position: [    0.0656566,    0.0000000,    0.0000000 ]
  distance:    0.0218558
  band:
  - # 1
    frequency:    0.2075357581
  - # 2
    frequency:    0.4752181398
  - # 3
    frequency:    0.7545286012
  - # 4
    frequency:    2.3685398019
  - # 5
    frequency:    2.4961013149
  - # 6
    frequency:    3.5763193523
  - # 7
    frequency:    3.6972148947
  - # 8
    frequency:    4.1273756157
  - # 9
    frequency:    4.2189004509
  - # 10
    frequency:    4.3094828264
  - # 11
    frequency:    5.6202863068
  - # 12
    frequency:    6.8316913375
  - # 13
    frequency:   13.0924382008
  - # 14
    frequency:   15.1559094071
  - # 15
    frequency:   15.1742966950

- q-position: [    0.0707071,    0.0000000,    0.0000000 ]
  distance:    0.0235371
  band:
  - # 1
    frequency:    0.2380713062
  - # 2
    frequency:    0.5100007245
  - # 3
    frequency:    0.8119492655
  - # 4
    frequency:    2.3738437622
  - # 5
    frequency:    2.5193281123
  - # 6
    frequency:    3.5663652944
  - # 7
    frequency:    3.6966278528
  - # 8
    frequency:    4.1383022436
  - # 9
    frequency:    4.2130299910
  - # 10
    frequency:    4.3217254045
  - # 11
    frequency:    5.6144813165
  - # 12
    frequency:    6.8120045452
  - # 13
    frequency:   13.0819405088
  - # 14
    frequency:   15.1552879838
  - # 15
    frequency:   15.1765762072

- q-position: [    0.0757576,    0.0000000,    0.0000000 ]
  distance:    0.0252183
  band:
  - # 1
    frequency:    0.2701955621
  - # 2
    frequency:    0.5444156122
  - # 3
    frequency:    0.8692085981
  - # 4
    frequency:    2.3794367053
  - # 5
    frequency:    2.5435562204
  - # 6
    frequency:    3.5571663709
  - # 7
    frequency:    3.6960252763
  - # 8
    frequency:    4.1482349365
  - # 9
    frequency:    4.2067338611
  - # 10
    frequency:    4.3353119831
  - # 11
    frequency:    5.6083289130
  - # 12
    frequency:    6.7910624948
  - # 13
    frequency:   13.0706499792
  - # 14
    frequency:   15.1545604262
  - # 15
    frequency:   15.1789441429

- q-position: [    0.0808081,    0.0000000,    0.0000000 ]
  distance:    0.0268995
  band:
  - # 1
    frequency:    0.3038087627
  - # 2
    frequency:    0.5784454202
  - # 3
    frequency:    0.9262870799
  - # 4
    frequency:    2.3852974172
  - # 5
    frequency:    2.5686799544
  - # 6
    frequency:    3.5487816488
  - # 7
    frequency:    3.6954122085
  - # 8
    frequency:    4.1573244305
  - # 9
    frequency:    4.2000186385
  - # 10
    frequency:    4.3500481833
  - # 11
    frequency:    5.6018472463
  - # 12
    frequency:    6.7689067752
  - # 13
    frequency:   13.0585718908
  - # 14
    frequency:   15.1537136535
  - # 15
    frequency:   15.1813799346

- q-position: [    0.0858586,    0.0000000,    0.0000000 ]
  distance:    0.0285807
  band:
  - # 1
    frequency:    0.3388140440
  - # 2
    frequency:    0.6120743830
  - # 3
    frequency:    0.9831637347
  - # 4
    frequency:    2.3914036123
  - # 5
    frequency:    2.5945972585
  - # 6
    frequency:    3.5412597850
  - # 7
    frequency:    3.6947938098
  - # 8
    frequency:    4.1657656152
  - # 9
    frequency:    4.1928927617
  - # 10
    frequency:    4.3657034530
  - # 11
    frequency:    5.5950557836
  - # 12
    frequency:    6.7455812587
  - # 13
    frequency:   13.0457141666
  - # 14
    frequency:   15.1527336403
  - # 15
    frequency:   15.1838609093

- q-position: [    0.0909091,    0.0000000,    0.0000000 ]
  distance:    0.0302619
  band:
  - # 1
    frequency:    0.3751178162
  - # 2
    frequency:    0.6452883944
  - # 3
    frequency:    1.0398160956
  - # 4
    frequency:    2.3977320254
  - # 5
    frequency:    2.6212102036
  - # 6
    frequency:    3.5346409388
  - # 7
    frequency:    3.6941753491
  - # 8
    frequency:    4.1737685030
  - # 9
    frequency:    4.1853667294
  - # 10
    frequency:    4.3820377238
  - # 11
    frequency:    5.5879752762
  - # 12
    frequency:    6.7211320161
  - # 13
    frequency:   13.0320875713
  - # 14
    frequency:   15.1516054211
  - # 15
    frequency:   15.1863623243

- q-position: [    0.0959596,    0.0000000,    0.0000000 ]
  distance:    0.0319431
  band:
  - # 1
    frequency:    0.4126299985
  - # 2
    frequency:    0.6780750416
  - # 3
    frequency:    1.0962201831
  - # 4
    frequency:    2.4042585124
  - # 5
    frequency:    2.6484253197
  - # 6
    frequency:    3.5289582763
  - # 7
    frequency:    3.6935622048
  - # 8
    frequency:    4.1774532875
  - # 9
    frequency:    4.1815369832
  - # 10
    frequency:    4.3988207317
  - # 11
    frequency:    5.5806277072
  - # 12
    frequency:    6.6956072343
  - # 13
    frequency:   13.0177058655
  - # 14
    frequency:   15.1503130982
  - # 15
    frequency:   15.1888574410

- q-position: [    0.1010101,    0.0000000,    0.0000000 ]
  distance:    0.0336244
  band:
  - # 1
    frequency:    0.4512641397
  - # 2
    frequency:    0.7104236319
  - # 3
    frequency:    1.1523504954
  - # 4
    frequency:    2.4109581618
  - # 5
    frequency:    2.6761537801
  - # 6
    frequency:    3.5242391727
  - # 7
    frequency:    3.6929598735
  - # 8
    frequency:    4.1691675983
  - # 9
    frequency:    4.1892564750
  - # 10
    frequency:    4.4158427967
  - # 11
    frequency:    5.5730362145
  - # 12
    frequency:    6.6690571371
  - # 13
    frequency:   13.0025859138
  - # 14
    frequency:   15.1488398551
  - # 15
    frequency:   15.1913176336

- q-position: [    0.1060606,    0.0000000,    0.0000000 ]
  distance:    0.0353056
  band:
  - # 1
    frequency:    0.4909374483
  - # 2
    frequency:    0.7423252119
  - # 3
    frequency:    1.2081800117
  - # 4
    frequency:    2.4178054173
  - # 5
    frequency:    2.7043114588
  - # 6
    frequency:    3.5205061868
  - # 7
    frequency:    3.6923739901
  - # 8
    frequency:    4.1605273887
  - # 9
    frequency:    4.1970886056
  - # 10
    frequency:    4.4329188719
  - # 11
    frequency:    5.5652249864
  - # 12
    frequency:    6.6415339119
  - # 13
    frequency:   12.9867477463
  - # 14
    frequency:   15.1471679749
  - # 15
    frequency:   15.1937125354

- q-position: [    0.1111111,    0.0000000,    0.0000000 ]
  distance:    0.0369868
  band:
  - # 1
    frequency:    0.5315707552
  - # 2
    frequency:    0.7737725807
  - # 3
    frequency:    1.2636802100
  - # 4
    frequency:    2.4247742126
  - # 5
    frequency:    2.7328188758
  - # 6
    frequency:    3.5177778593
  - # 7
    frequency:    3.6918103558
  - # 8
    frequency:    4.1515530717
  - # 9
    frequency:    4.2051702974
  - # 10
    frequency:    4.4498884382
  - # 11
    frequency:    5.5572191222
  - # 12
    frequency:    6.6130916414
  - # 13
    frequency:   12.9702145731
  - # 14
    frequency:   15.1452788646
  - # 15
    frequency:   15.1960102169

- q-position: [    0.1161616,    0.0000000,    0.0000000 ]
  distance:    0.0386680
  band:
  - # 1
    frequency:    0.5730884273
  - # 2
    frequency:    0.8047602999
  - # 3
    frequency:    1.3188210992
  - # 4
    frequency:    2.4318381189
  - # 5
    frequency:    2.7616010462
  - # 6
    frequency:    3.5160693708
  - # 7
    frequency:    3.6912749775
  - # 8
    frequency:    4.1422678367
  - # 9
    frequency:    4.2136151230
  - # 10
    frequency:    4.4666133605
  - # 11
    frequency:    5.5490444532
  - # 12
    frequency:    6.5837862433
  - # 13
    frequency:   12.9530127551
  - # 14
    frequency:   15.1431530865
  - # 15
    frequency:   15.1981773936

- q-position: [    0.1212121,    0.0000000,    0.0000000 ]
  distance:    0.0403492
  band:
  - # 1
    frequency:    0.6154182481
  - # 2
    frequency:    0.8352846996
  - # 3
    frequency:    1.3735712670
  - # 4
    frequency:    2.4389705064
  - # 5
    frequency:    2.7905872441
  - # 6
    frequency:    3.5153930862
  - # 7
    frequency:    3.6907741152
  - # 8
    frequency:    4.1326977023
  - # 9
    frequency:    4.2225155575
  - # 10
    frequency:    4.4829750624
  - # 11
    frequency:    5.5407273194
  - # 12
    frequency:    6.5536754177
  - # 13
    frequency:   12.9351717313
  - # 14
    frequency:   15.1407703968
  - # 15
    frequency:   15.2001796615

- q-position: [    0.1262626,    0.0000000,    0.0000000 ]
  distance:    0.0420304
  band:
  - # 1
    frequency:    0.6584912800
  - # 2
    frequency:    0.8653438835
  - # 3
    frequency:    1.4278979462
  - # 4
    frequency:    2.4461447211
  - # 5
    frequency:    2.8197106927
  - # 6
    frequency:    3.5157590012
  - # 7
    frequency:    3.6903143392
  - # 8
    frequency:    4.1228715291
  - # 9
    frequency:    4.2319453880
  - # 10
    frequency:    4.4988717481
  - # 11
    frequency:    5.5322942929
  - # 12
    frequency:    6.5228186050
  - # 13
    frequency:   12.9167239072
  - # 14
    frequency:   15.1381097913
  - # 15
    frequency:   15.2019817529

- q-position: [    0.1313131,    0.0000000,    0.0000000 ]
  distance:    0.0437117
  band:
  - # 1
    frequency:    0.7022417169
  - # 2
    frequency:    0.8949377342
  - # 3
    frequency:    1.4817670973
  - # 4
    frequency:    2.4533342766
  - # 5
    frequency:    2.8489081905
  - # 6
    frequency:    3.5171751051
  - # 7
    frequency:    3.6899025946
  - # 8
    frequency:    4.1128209845
  - # 9
    frequency:    4.2419619513
  - # 10
    frequency:    4.5142159979
  - # 11
    frequency:    5.5237718458
  - # 12
    frequency:    6.4912769542
  - # 13
    frequency:   12.8977045069
  - # 14
    frequency:   15.1351495603
  - # 15
    frequency:   15.2035478111

- q-position: [    0.1363636,    0.0000000,    0.0000000 ]
  distance:    0.0453929
  band:
  - # 1
    frequency:    0.7466067355
  - # 2
    frequency:    0.9240679211
  - # 3
    frequency:    1.5351435131
  - # 4
    frequency:    2.4605130635
  - # 5
    frequency:    2.8781196812
  - # 6
    frequency:    3.5196476677
  - # 7
    frequency:    3.6895462732
  - # 8
    frequency:    4.1025804575
  - # 9
    frequency:    4.2526080900
  - # 10
    frequency:    4.5289328379
  - # 11
    frequency:    5.5151859555
  - # 12
    frequency:    6.4591133061
  - # 13
    frequency:   12.8781513921
  - # 14
    frequency:   15.1318673513
  - # 15
    frequency:   15.2048416777

- q-position: [    0.1414141,    0.0000000,    0.0000000 ]
  distance:    0.0470741
  band:
  - # 1
    frequency:    0.7915263515
  - # 2
    frequency:    0.9527379113
  - # 3
    frequency:    1.5879909427
  - # 4
    frequency:    2.4676555754
  - # 5
    frequency:    2.9072877780
  - # 6
    frequency:    3.5231814570
  - # 7
    frequency:    3.6892532890
  - # 8
    frequency:    4.0921869181
  - # 9
    frequency:    4.2639138284
  - # 10
    frequency:    4.5429582784
  - # 11
    frequency:    5.5065616451
  - # 12
    frequency:    6.4263921900
  - # 13
    frequency:   12.8581048531
  - # 14
    frequency:   15.1282402414
  - # 15
    frequency:   15.2058271883

- q-position: [    0.1464646,    0.0000000,    0.0000000 ]
  distance:    0.0487553
  band:
  - # 1
    frequency:    0.8369432842
  - # 2
    frequency:    0.9809529861
  - # 3
    frequency:    1.6402722390
  - # 4
    frequency:    2.4747371525
  - # 5
    frequency:    2.9363572507
  - # 6
    frequency:    3.5277798922
  - # 7
    frequency:    3.6890321571
  - # 8
    frequency:    4.0816797192
  - # 9
    frequency:    4.2758978091
  - # 10
    frequency:    4.5562382687
  - # 11
    frequency:    5.4979224574
  - # 12
    frequency:    6.3931798393
  - # 13
    frequency:   12.8376073743
  - # 14
    frequency:   15.1242448178
  - # 15
    frequency:   15.2064684732

- q-position: [    0.1515152,    0.0000000,    0.0000000 ]
  distance:    0.0504365
  band:
  - # 1
    frequency:    0.8828028305
  - # 2
    frequency:    1.0087202639
  - # 3
    frequency:    1.6919495293
  - # 4
    frequency:    2.4817342426
  - # 5
    frequency:    2.9652744886
  - # 6
    frequency:    3.5334451352
  - # 7
    frequency:    3.6888920716
  - # 8
    frequency:    4.0711003385
  - # 9
    frequency:    4.2885685414
  - # 10
    frequency:    4.5687280013
  - # 11
    frequency:    5.4892898631
  - # 12
    frequency:    6.3595442266
  - # 13
    frequency:   12.8167033787
  - # 14
    frequency:   15.1198572693
  - # 15
    frequency:   15.2067302575

- q-position: [    0.1565657,    0.0000000,    0.0000000 ]
  distance:    0.0521178
  band:
  - # 1
    frequency:    0.9290527513
  - # 2
    frequency:    1.0360487314
  - # 3
    frequency:    1.7429844107
  - # 4
    frequency:    2.4886246776
  - # 5
    frequency:    2.9939869524
  - # 6
    frequency:    3.5401781214
  - # 7
    frequency:    3.6888429792
  - # 8
    frequency:    4.0604920605
  - # 9
    frequency:    4.3019255093
  - # 10
    frequency:    4.5803915008
  - # 11
    frequency:    5.4806826083
  - # 12
    frequency:    6.3255551224
  - # 13
    frequency:   12.7954389538
  - # 14
    frequency:   15.1150534855
  - # 15
    frequency:   15.2065781589

- q-position: [    0.1616162,    0.0000000,    0.0000000 ]
  distance:    0.0537990
  band:
  - # 1
    frequency:    0.9756431678
  - # 2
    frequency:    1.0629492814
  - # 3
    frequency:    1.7933381702
  - # 4
    frequency:    2.4953879635
  - # 5
    frequency:    3.0224426325
  - # 6
    frequency:    3.5479785294
  - # 7
    frequency:    3.6888956440
  - # 8
    frequency:    4.0498996009
  - # 9
    frequency:    4.3159601738
  - # 10
    frequency:    4.5912014321
  - # 11
    frequency:    5.4721160105
  - # 12
    frequency:    6.2912841787
  - # 13
    frequency:   12.7738615637
  - # 14
    frequency:   15.1098091665
  - # 15
    frequency:   15.2059789781

- q-position: [    0.1666667,    0.0000000,    0.0000000 ]
  distance:    0.0554802
  band:
  - # 1
    frequency:    1.0225264683
  - # 2
    frequency:    1.0894347612
  - # 3
    frequency:    1.8429720306
  - # 4
    frequency:    2.5020055815
  - # 5
    frequency:    3.0505895324
  - # 6
    frequency:    3.5568446871
  - # 7
    frequency:    3.6890616991
  - # 8
    frequency:    4.0393686758
  - # 9
    frequency:    4.3306568969
  - # 10
    frequency:    4.6011390739
  - # 11
    frequency:    5.4636012145
  - # 12
    frequency:    6.2568050418
  - # 13
    frequency:   12.7520197485
  - # 14
    frequency:   15.1040999415
  - # 15
    frequency:   15.2049009805

- q-position: [    0.1717172,    0.0000000,    0.0000000 ]
  distance:    0.0571614
  band:
  - # 1
    frequency:    1.0696572235
  - # 2
    frequency:    1.1155200271
  - # 3
    frequency:    1.8918474195
  - # 4
    frequency:    2.5084612942
  - # 5
    frequency:    3.0783752013
  - # 6
    frequency:    3.5667734081
  - # 7
    frequency:    3.6893536774
  - # 8
    frequency:    4.0289455253
  - # 9
    frequency:    4.3459938028
  - # 10
    frequency:    4.6101944002
  - # 11
    frequency:    5.4551444278
  - # 12
    frequency:    6.2221934955
  - # 13
    frequency:   12.7299628154
  - # 14
    frequency:   15.0979014960
  - # 15
    frequency:   15.2033141653

- q-position: [    0.1767677,    0.0000000,    0.0000000 ]
  distance:    0.0588426
  band:
  - # 1
    frequency:    1.1169921076
  - # 2
    frequency:    1.1412220065
  - # 3
    frequency:    1.9399262611
  - # 4
    frequency:    2.5147414502
  - # 5
    frequency:    3.1057463424
  - # 6
    frequency:    3.5777597544
  - # 7
    frequency:    3.6897850162
  - # 8
    frequency:    4.0186763982
  - # 9
    frequency:    4.3619435845
  - # 10
    frequency:    4.6183662215
  - # 11
    frequency:    5.4467461562
  - # 12
    frequency:    6.1875276368
  - # 13
    frequency:   12.7077405224
  - # 14
    frequency:   15.0911897078
  - # 15
    frequency:   15.2011905216

- q-position: [    0.1818182,    0.0000000,    0.0000000 ]
  distance:    0.0605238
  band:
  - # 1
    frequency:    1.1644898248
  - # 2
    frequency:    1.1665597644
  - # 3
    frequency:    1.9871712872
  - # 4
    frequency:    2.5208352809
  - # 5
    frequency:    3.1326485219
  - # 6
    frequency:    3.5897967148
  - # 7
    frequency:    3.6903700289
  - # 8
    frequency:    4.0086070128
  - # 9
    frequency:    4.3784742587
  - # 10
    frequency:    4.6256623372
  - # 11
    frequency:    5.4384004681
  - # 12
    frequency:    6.1528880831
  - # 13
    frequency:   12.6854027582
  - # 14
    frequency:   15.0839407911
  - # 15
    frequency:   15.1985042682

- q-position: [    0.1868687,    0.0000000,    0.0000000 ]
  distance:    0.0622051
  band:
  - # 1
    frequency:    1.1915545720
  - # 2
    frequency:    1.2121110373
  - # 3
    frequency:    2.0335463637
  - # 4
    frequency:    2.5267351766
  - # 5
    frequency:    3.1590260092
  - # 6
    frequency:    3.6028747968
  - # 7
    frequency:    3.6911238353
  - # 8
    frequency:    3.9987820077
  - # 9
    frequency:    4.3955498666
  - # 10
    frequency:    4.6320996548
  - # 11
    frequency:    5.4300943175
  - # 12
    frequency:    6.1183582068
  - # 13
    frequency:   12.6629992198
  - # 14
    frequency:   15.0761314474
  - # 15
    frequency:   15.1952320775

- q-position: [    0.1919192,    0.0000000,    0.0000000 ]
  distance:    0.0638863
  band:
  - # 1
    frequency:    1.2162299719
  - # 2
    frequency:    1.2598182933
  - # 3
    frequency:    2.0790168260
  - # 4
    frequency:    2.5324369335
  - # 5
    frequency:    3.1848217686
  - # 6
    frequency:    3.6169815261
  - # 7
    frequency:    3.6920622450
  - # 8
    frequency:    3.9892444019
  - # 9
    frequency:    4.4131311136
  - # 10
    frequency:    4.6377042360
  - # 11
    frequency:    5.4218069598
  - # 12
    frequency:    6.0840243902
  - # 13
    frequency:   12.6405790893
  - # 14
    frequency:   15.0677390240
  - # 15
    frequency:   15.1913532808

- q-position: [    0.1969697,    0.0000000,    0.0000000 ]
  distance:    0.0655675
  band:
  - # 1
    frequency:    1.2406118364
  - # 2
    frequency:    1.3075759538
  - # 3
    frequency:    2.1235498183
  - # 4
    frequency:    2.5379399571
  - # 5
    frequency:    3.2099776214
  - # 6
    frequency:    3.6321008624
  - # 7
    frequency:    3.6932015874
  - # 8
    frequency:    3.9800350822
  - # 9
    frequency:    4.4311759388
  - # 10
    frequency:    4.6425112392
  - # 11
    frequency:    5.4135095016
  - # 12
    frequency:    6.0499762836
  - # 13
    frequency:   12.6181907131
  - # 14
    frequency:   15.0587416770
  - # 15
    frequency:   15.1868500552

- q-position: [    0.2020202,    0.0000000,    0.0000000 ]
  distance:    0.0672487
  band:
  - # 1
    frequency:    1.2647284119
  - # 2
    frequency:    1.3553501150
  - # 3
    frequency:    2.1671146266
  - # 4
    frequency:    2.5432474088
  - # 5
    frequency:    3.2344345829
  - # 6
    frequency:    3.6482125459
  - # 7
    frequency:    3.6945584839
  - # 8
    frequency:    3.9711923398
  - # 9
    frequency:    4.4496399994
  - # 10
    frequency:    4.6465647338
  - # 11
    frequency:    5.4051646283
  - # 12
    frequency:    6.0163070408
  - # 13
    frequency:   12.5958812850
  - # 14
    frequency:   15.0491185407
  - # 15
    frequency:   15.1817075917

- q-position: [    0.2070707,    0.0000000,    0.0000000 ]
  distance:    0.0689299
  band:
  - # 1
    frequency:    1.2886103414
  - # 2
    frequency:    1.4031085258
  - # 3
    frequency:    2.2096829993
  - # 4
    frequency:    2.5483662844
  - # 5
    frequency:    3.2581333660
  - # 6
    frequency:    3.6652914059
  - # 7
    frequency:    3.6961495602
  - # 8
    frequency:    3.9627514754
  - # 9
    frequency:    4.4684770448
  - # 10
    frequency:    4.6499173830
  - # 11
    frequency:    5.3967265615
  - # 12
    frequency:    5.9831134886
  - # 13
    frequency:   12.5736965349
  - # 14
    frequency:   15.0388498993
  - # 15
    frequency:   15.1759142433

- q-position: [    0.2121212,    0.0000000,    0.0000000 ]
  distance:    0.0706112
  band:
  - # 1
    frequency:    1.3122906578