nqpoint: 300    
npath: 3      
segment_nqpoint:
- 100
- 100
- 100
labels:
- [ 'G', 'M' ]
- [ 'M', 'K' ]
- [ 'K', 'G' ]
reciprocal_lattice:
- [   0.31025951,   0.17912841,   0.00000000 ] # a*
- [   0.00000000,   0.35825682,   0.00000000 ] # b*
- [   0.00000000,   0.00000000,   0.04057967 ] # c*
natom: 6      
lattice:
- [     3.223108283190591,     0.000000000000000,     0.000000000000000 ] # a
- [    -1.611554141595295,     2.791293652391087,     0.000000000000000 ] # b
- [     0.000000000000000,     0.000000000000000,    24.642878904005322 ] # c
points:
- symbol: F # 1
  coordinates: [  0.666666984744047,  0.333332985985145,  0.365217068795367 ]
  mass: 18.998403
- symbol: N # 2
  coordinates: [  0.000000000000000,  0.000000000000000,  0.454884165553139 ]
  mass: 14.006700
- symbol: O # 3
  coordinates: [  0.333332985432215,  0.666666983183674,  0.634782931204633 ]
  mass: 15.999400
- symbol: P # 4
  coordinates: [  0.333332985432215,  0.666666983183674,  0.574186470673821 ]
  mass: 30.973762
- symbol: Ti # 5
  coordinates: [  0.333332985432215,  0.666666983183674,  0.414359762290113 ]
  mass: 47.867000
- symbol: Ti # 6
  coordinates: [  0.666666984744047,  0.333332985985145,  0.499294648663588 ]
  mass: 47.867000

phonon:
- q-position: [    0.0000000,    0.0000000,    0.0000000 ]
  distance:    0.0000000
  band:
  - # 1
    frequency:   -1.1001879111
  - # 2
    frequency:   -1.1001879111
  - # 3
    frequency:   -0.0000004973
  - # 4
    frequency:    0.0000002267
  - # 5
    frequency:    0.0000002428
  - # 6
    frequency:    4.6408656458
  - # 7
    frequency:    4.6408656458
  - # 8
    frequency:    5.3417633093
  - # 9
    frequency:    5.3417633093
  - # 10
    frequency:    5.9331685293
  - # 11
    frequency:    6.8148316337
  - # 12
    frequency:    6.8148316337
  - # 13
    frequency:   10.4792063898
  - # 14
    frequency:   13.1860699844
  - # 15
    frequency:   14.7042052473
  - # 16
    frequency:   15.7408372983
  - # 17
    frequency:   15.7408372983
  - # 18
    frequency:   34.2192293077

- q-position: [    0.0050505,    0.0000000,    0.0000000 ]
  distance:    0.0018094
  band:
  - # 1
    frequency:   -1.1018942307
  - # 2
    frequency:   -1.1003180346
  - # 3
    frequency:   -0.2418762505
  - # 4
    frequency:   -0.0197024558
  - # 5
    frequency:    0.2681381380
  - # 6
    frequency:    4.6409023506
  - # 7
    frequency:    4.6412037651
  - # 8
    frequency:    5.3392361908
  - # 9
    frequency:    5.3422837308
  - # 10
    frequency:    5.9359210349
  - # 11
    frequency:    6.8147846586
  - # 12
    frequency:    6.8154222319
  - # 13
    frequency:   10.4785467711
  - # 14
    frequency:   13.1850063575
  - # 15
    frequency:   14.7030045182
  - # 16
    frequency:   15.7410106331
  - # 17
    frequency:   15.7412617834
  - # 18
    frequency:   34.2190005989

- q-position: [    0.0101010,    0.0000000,    0.0000000 ]
  distance:    0.0036188
  band:
  - # 1
    frequency:   -1.1068219438
  - # 2
    frequency:   -1.1008290439
  - # 3
    frequency:   -0.3195143167
  - # 4
    frequency:   -0.0344423488
  - # 5
    frequency:    0.3939978750
  - # 6
    frequency:    4.6410086912
  - # 7
    frequency:    4.6422168345
  - # 8
    frequency:    5.3318246539
  - # 9
    frequency:    5.3438422724
  - # 10
    frequency:    5.9440175689
  - # 11
    frequency:    6.8146418490
  - # 12
    frequency:    6.8171954902
  - # 13
    frequency:   10.4765675738
  - # 14
    frequency:   13.1818177127
  - # 15
    frequency:   14.6994169770
  - # 16
    frequency:   15.7415210592
  - # 17
    frequency:   15.7425298211
  - # 18
    frequency:   34.2183148585

- q-position: [    0.0151515,    0.0000000,    0.0000000 ]
  distance:    0.0054281
  band:
  - # 1
    frequency:   -1.1144251896
  - # 2
    frequency:   -1.1020778456
  - # 3
    frequency:   -0.3603005797
  - # 4
    frequency:   -0.0361397744
  - # 5
    frequency:    0.4978182942
  - # 6
    frequency:    4.6411736619
  - # 7
    frequency:    4.6439009384
  - # 8
    frequency:    5.3199981138
  - # 9
    frequency:    5.3464305177
  - # 10
    frequency:    5.9570151376
  - # 11
    frequency:    6.8143976186
  - # 12
    frequency:    6.8201556140
  - # 13
    frequency:   10.4732677887
  - # 14
    frequency:   13.1765107471
  - # 15
    frequency:   14.6934860710
  - # 16
    frequency:   15.7423403279
  - # 17
    frequency:   15.7446252146
  - # 18
    frequency:   34.2171732433

- q-position: [    0.0202020,    0.0000000,    0.0000000 ]
  distance:    0.0072375
  band:
  - # 1
    frequency:   -1.1238861487
  - # 2
    frequency:   -1.1046368611
  - # 3
    frequency:   -0.3759875373
  - # 4
    frequency:    0.0319028879
  - # 5
    frequency:    0.5894308909
  - # 6
    frequency:    4.6413799357
  - # 7
    frequency:    4.6462493676
  - # 8
    frequency:    5.3044267543
  - # 9
    frequency:    5.3500336429
  - # 10
    frequency:    5.9742873059
  - # 11
    frequency:    6.8140428780
  - # 12
    frequency:    6.8243090077
  - # 13
    frequency:   10.4686457830
  - # 14
    frequency:   13.1690965900
  - # 15
    frequency:   14.6852826284
  - # 16
    frequency:   15.7434229255
  - # 17
    frequency:   15.7475211504
  - # 18
    frequency:   34.2155776795

- q-position: [    0.0252525,    0.0000000,    0.0000000 ]
  distance:    0.0090469
  band:
  - # 1
    frequency:   -1.1342398536
  - # 2
    frequency:   -1.1092424878
  - # 3
    frequency:   -0.3700454429
  - # 4
    frequency:    0.0901198067
  - # 5
    frequency:    0.6722336219
  - # 6
    frequency:    4.6416052801
  - # 7
    frequency:    4.6492522982
  - # 8
    frequency:    5.2858695106
  - # 9
    frequency:    5.3546293262
  - # 10
    frequency:    5.9951357970
  - # 11
    frequency:    6.8135653576
  - # 12
    frequency:    6.8296634127
  - # 13
    frequency:   10.4626993729
  - # 14
    frequency:   13.1595907547
  - # 15
    frequency:   14.6749026468
  - # 16
    frequency:   15.7447082550
  - # 17
    frequency:   15.7511804696
  - # 18
    frequency:   34.2135308596

- q-position: [    0.0303030,    0.0000000,    0.0000000 ]
  distance:    0.0108563
  band:
  - # 1
    frequency:   -1.1445087306
  - # 2
    frequency:   -1.1166967220
  - # 3
    frequency:   -0.3420913577
  - # 4
    frequency:    0.1507053297
  - # 5
    frequency:    0.7478283297
  - # 6
    frequency:    4.6418243317
  - # 7
    frequency:    4.6528962488
  - # 8
    frequency:    5.2650856896
  - # 9
    frequency:    5.3601864130
  - # 10
    frequency:    6.0188783187
  - # 11
    frequency:    6.8129500441
  - # 12
    frequency:    6.8362267890
  - # 13
    frequency:   10.4554259244
  - # 14
    frequency:   13.1480130763
  - # 15
    frequency:   14.6624644964
  - # 16
    frequency:   15.7461233821
  - # 17
    frequency:   15.7555560398
  - # 18
    frequency:   34.2110362377

- q-position: [    0.0353535,    0.0000000,    0.0000000 ]
  distance:    0.0126656
  band:
  - # 1
    frequency:   -1.1538102155
  - # 2
    frequency:   -1.1277211878
  - # 3
    frequency:   -0.2868292561
  - # 4
    frequency:    0.2180985664
  - # 5
    frequency:    0.8171437357
  - # 6
    frequency:    4.6420105567
  - # 7
    frequency:    4.6571632195
  - # 8
    frequency:    5.2427829575
  - # 9
    frequency:    5.3666635031
  - # 10
    frequency:    6.0448999311
  - # 11
    frequency:    6.8121797161
  - # 12
    frequency:    6.8440060195
  - # 13
    frequency:   10.4468224800
  - # 14
    frequency:   13.1343876350
  - # 15
    frequency:   14.6481057690
  - # 16
    frequency:   15.7475861064
  - # 17
    frequency:   15.7605912257
  - # 18
    frequency:   34.2080980247

- q-position: [    0.0404040,    0.0000000,    0.0000000 ]
  distance:    0.0144750
  band:
  - # 1
    frequency:   -1.1614187845
  - # 2
    frequency:   -1.1427944554
  - # 3
    frequency:   -0.1824174700
  - # 4
    frequency:    0.2918676697
  - # 5
    frequency:    0.8808289039
  - # 6
    frequency:    4.6421382098
  - # 7
    frequency:    4.6620293942
  - # 8
    frequency:    5.2195964072
  - # 9
    frequency:    5.3740076337
  - # 10
    frequency:    6.0726733208
  - # 11
    frequency:    6.8112355610
  - # 12
    frequency:    6.8530055315
  - # 13
    frequency:   10.4368859109
  - # 14
    frequency:   13.1187426737
  - # 15
    frequency:   14.6319799963
  - # 16
    frequency:   15.7490081216
  - # 17
    frequency:   15.7662204494
  - # 18
    frequency:   34.2047211804

- q-position: [    0.0454545,    0.0000000,    0.0000000 ]
  distance:    0.0162844
  band:
  - # 1
    frequency:   -1.1667862188
  - # 2
    frequency:   -1.1620308157
  - # 3
    frequency:    0.1715109963
  - # 4
    frequency:    0.3708143849
  - # 5
    frequency:    0.9394288236
  - # 6
    frequency:    4.6421841169
  - # 7
    frequency:    4.6674632622
  - # 8
    frequency:    5.1960874399
  - # 9
    frequency:    5.3821532209
  - # 10
    frequency:    6.1017593632
  - # 11
    frequency:    6.8100978529
  - # 12
    frequency:    6.8632259331
  - # 13
    frequency:   10.4256130933
  - # 14
    frequency:   13.1011105100
  - # 15
    frequency:   14.6142534275
  - # 16
    frequency:   15.7502980659
  - # 17
    frequency:   15.7723698345
  - # 18
    frequency:   34.2009114060

- q-position: [    0.0505051,    0.0000000,    0.0000000 ]
  distance:    0.0180938
  band:
  - # 1
    frequency:   -1.1851506953
  - # 2
    frequency:   -1.1695353362
  - # 3
    frequency:    0.3245112480
  - # 4
    frequency:    0.4535899961
  - # 5
    frequency:    0.9934829054
  - # 6
    frequency:    4.6421291385
  - # 7
    frequency:    4.6734230039
  - # 8
    frequency:    5.1727526788
  - # 9
    frequency:    5.3910213933
  - # 10
    frequency:    6.1317979090
  - # 11
    frequency:    6.8087466740
  - # 12
    frequency:    6.8746627618
  - # 13
    frequency:   10.4130011088
  - # 14
    frequency:   13.0815274523
  - # 15
    frequency:   14.5951019996
  - # 16
    frequency:   15.7513643128
  - # 17
    frequency:   15.7789579239
  - # 18
    frequency:   34.1966751337

- q-position: [    0.0555556,    0.0000000,    0.0000000 ]
  distance:    0.0199032
  band:
  - # 1
    frequency:   -1.2115469072
  - # 2
    frequency:   -1.1694423257
  - # 3
    frequency:    0.4403041847
  - # 4
    frequency:    0.5389548543
  - # 5
    frequency:    1.0435953356
  - # 6
    frequency:    4.6419592169
  - # 7
    frequency:    4.6798530045
  - # 8
    frequency:    5.1500367264
  - # 9
    frequency:    5.4005198069
  - # 10
    frequency:    6.1624951712
  - # 11
    frequency:    6.8071626544
  - # 12
    frequency:    6.8873054288
  - # 13
    frequency:   10.3990474678
  - # 14
    frequency:   13.0600337228
  - # 15
    frequency:   14.5747085832
  - # 16
    frequency:   15.7521174092
  - # 17
    frequency:   15.7858964634
  - # 18
    frequency:   34.1920195159

- q-position: [    0.0606061,    0.0000000,    0.0000000 ]
  distance:    0.0217125
  band:
  - # 1
    frequency:   -1.2404049798
  - # 2
    frequency:   -1.1664177775
  - # 3
    frequency:    0.5425982723
  - # 4
    frequency:    0.6258970409
  - # 5
    frequency:    1.0904974854
  - # 6
    frequency:    4.6416659611
  - # 7
    frequency:    4.6866794201
  - # 8
    frequency:    5.1283455854
  - # 9
    frequency:    5.4105429802
  - # 10
    frequency:    6.1936110525
  - # 11
    frequency:    6.8053277122
  - # 12
    frequency:    6.9011364267
  - # 13
    frequency:   10.3837503576
  - # 14
    frequency:   13.0366733934
  - # 15
    frequency:   14.5532605341
  - # 16
    frequency:   15.7524721186
  - # 17
    frequency:   15.7930912408
  - # 18
    frequency:   34.1869524123

- q-position: [    0.0656566,    0.0000000,    0.0000000 ]
  distance:    0.0235219
  band:
  - # 1
    frequency:   -1.2708250230
  - # 2
    frequency:   -1.1604914312
  - # 3
    frequency:    0.6371381928
  - # 4
    frequency:    0.7136572301
  - # 5
    frequency:    1.1351111094
  - # 6
    frequency:    4.6412467774
  - # 7
    frequency:    4.6938048975
  - # 8
    frequency:    5.1080593537
  - # 9
    frequency:    5.4209731400
  - # 10
    frequency:    6.2249478512
  - # 11
    frequency:    6.8032257716
  - # 12
    frequency:    6.9161308405
  - # 13
    frequency:   10.3671089158
  - # 14
    frequency:   13.0114943395
  - # 15
    frequency:   14.5309475420
  - # 16
    frequency:   15.7523490665
  - # 17
    frequency:   15.8004429700
  - # 18
    frequency:   34.1814823750

- q-position: [    0.0707071,    0.0000000,    0.0000000 ]
  distance:    0.0253313
  band:
  - # 1
    frequency:   -1.3019127752
  - # 2
    frequency:   -1.1518021458
  - # 3
    frequency:    0.7259160201
  - # 4
    frequency:    0.8016987907
  - # 5
    frequency:    1.1786123528
  - # 6
    frequency:    4.6407045967
  - # 7
    frequency:    4.7011028939
  - # 8
    frequency:    5.0895435034
  - # 9
    frequency:    5.4316815279
  - # 10
    frequency:    6.2563407753
  - # 11
    frequency:    6.8008434373
  - # 12
    frequency:    6.9322561747
  - # 13
    frequency:   10.3491235297
  - # 14
    frequency:   12.9845482153
  - # 15
    frequency:   14.5079597446
  - # 16
    frequency:   15.7516760134
  - # 17
    frequency:   15.8078482113
  - # 18
    frequency:   34.1756186331

- q-position: [    0.0757576,    0.0000000,    0.0000000 ]
  distance:    0.0271407
  band:
  - # 1
    frequency:   -1.3328328752
  - # 2
    frequency:   -1.1405923732
  - # 3
    frequency:    0.8094491209
  - # 4
    frequency:    0.8896568789
  - # 5
    frequency:    1.2224813119
  - # 6
    frequency:    4.6400472787
  - # 7
    frequency:    4.7084126782
  - # 8
    frequency:    5.0731579044
  - # 9
    frequency:    5.4425300898
  - # 10
    frequency:    6.2876502453
  - # 11
    frequency:    6.7981706050
  - # 12
    frequency:    6.9494724813
  - # 13
    frequency:   10.3297961649
  - # 14
    frequency:   12.9558904501
  - # 15
    frequency:   14.4844860620
  - # 16
    frequency:   15.7503887967
  - # 17
    frequency:   15.8152003167
  - # 18
    frequency:   34.1693710742

- q-position: [    0.0808081,    0.0000000,    0.0000000 ]
  distance:    0.0289500
  band:
  - # 1
    frequency:   -1.3628320380
  - # 2
    frequency:   -1.1272048257
  - # 3
    frequency:    0.8874873258
  - # 4
    frequency:    0.9772876333
  - # 5
    frequency:    1.2684910516
  - # 6
    frequency:    4.6392867913
  - # 7
    frequency:    4.7155370763
  - # 8
    frequency:    5.0592619450
  - # 9
    frequency:    5.4533734580
  - # 10
    frequency:    6.3187557998
  - # 11
    frequency:    6.7952009870
  - # 12
    frequency:    6.9677327460
  - # 13
    frequency:   10.3091307232
  - # 14
    frequency:   12.9255802669
  - # 15
    frequency:   14.4607127045
  - # 16
    frequency:   15.7484319911
  - # 17
    frequency:   15.8223903915
  - # 18
    frequency:   34.1627502253

- q-position: [    0.0858586,    0.0000000,    0.0000000 ]
  distance:    0.0307594
  band:
  - # 1
    frequency:   -1.3912433142
  - # 2
    frequency:   -1.1120775783
  - # 3
    frequency:    0.9594369591
  - # 4
    frequency:    1.0644266200
  - # 5
    frequency:    1.3185491659
  - # 6
    frequency:    4.6384382648
  - # 7
    frequency:    4.7222462051
  - # 8
    frequency:    5.0482129390
  - # 9
    frequency:    5.4640611335
  - # 10
    frequency:    6.3495513890
  - # 11
    frequency:    6.7919325309
  - # 12
    frequency:    6.9869834748
  - # 13
    frequency:   10.2871334309
  - # 14
    frequency:   12.8936807165
  - # 15
    frequency:   14.4368218130
  - # 16
    frequency:   15.7457593319
  - # 17
    frequency:   15.8293082619
  - # 18
    frequency:   34.1557672313

- q-position: [    0.0909091,    0.0000000,    0.0000000 ]
  distance:    0.0325688
  band:
  - # 1
    frequency:   -1.4174805507
  - # 2
    frequency:   -1.0957324791
  - # 3
    frequency:    1.0248459275
  - # 4
    frequency:    1.1509583105
  - # 5
    frequency:    1.3743180259
  - # 6
    frequency:    4.6375190104
  - # 7
    frequency:    4.7282911518
  - # 8
    frequency:    5.0403542403
  - # 9
    frequency:    5.4744397907
  - # 10
    frequency:    6.3799418536
  - # 11
    frequency:    6.7883677106
  - # 12
    frequency:    7.0071654091
  - # 13
    frequency:   10.2638132583
  - # 14
    frequency:   12.8602587221
  - # 15
    frequency:   14.4129902009
  - # 16
    frequency:   15.7423339482
  - # 17
    frequency:   15.8358434410
  - # 18
    frequency:   34.1484338319

- q-position: [    0.0959596,    0.0000000,    0.0000000 ]
  distance:    0.0343782
  band:
  - # 1
    frequency:   -1.4410288784
  - # 2
    frequency:   -1.0787509399
  - # 3
    frequency:    1.0839265283
  - # 4
    frequency:    1.2367951233
  - # 5
    frequency:    1.4367187522
  - # 6
    frequency:    4.6365475797
  - # 7
    frequency:    4.7334303261
  - # 8
    frequency:    5.0359906247
  - # 9
    frequency:    5.4843556381
  - # 10
    frequency:    6.4098404159
  - # 11
    frequency:    6.7845136699
  - # 12
    frequency:    7.0282143004
  - # 13
    frequency:   10.2391823674
  - # 14
    frequency:   12.8253851226
  - # 15
    frequency:   14.3893881794
  - # 16
    frequency:   15.7381284391
  - # 17
    frequency:   15.8418860833
  - # 18
    frequency:   34.1407623366

- q-position: [    0.1010101,    0.0000000,    0.0000000 ]
  distance:    0.0361876
  band:
  - # 1
    frequency:   -1.4614343865
  - # 2
    frequency:   -1.0617319379
  - # 3
    frequency:    1.1377970087
  - # 4
    frequency:    1.3218637050
  - # 5
    frequency:    1.5056694031
  - # 6
    frequency:    4.6355429170
  - # 7
    frequency:    4.7374664831
  - # 8
    frequency:    5.0353531330
  - # 9
    frequency:    5.4936567925
  - # 10
    frequency:    6.4391670278
  - # 11
    frequency:    6.7803821988
  - # 12
    frequency:    7.0500616829
  - # 13
    frequency:   10.2132565860
  - # 14
    frequency:   12.7891347016
  - # 15
    frequency:   14.3661784585
  - # 16
    frequency:   15.7331248253
  - # 17
    frequency:   15.8473279216
  - # 18
    frequency:   34.1327655983

- q-position: [    0.1060606,    0.0000000,    0.0000000 ]
  distance:    0.0379969
  band:
  - # 1
    frequency:   -1.4782944392
  - # 2
    frequency:   -1.0452305601
  - # 3
    frequency:    1.1882224319
  - # 4
    frequency:    1.4060962970
  - # 5
    frequency:    1.5802954865
  - # 6
    frequency:    4.6345236419
  - # 7
    frequency:    4.7402848092
  - # 8
    frequency:    5.0385630799
  - # 9
    frequency:    5.5021956389
  - # 10
    frequency:    6.4678474356
  - # 11
    frequency:    6.7759895269
  - # 12
    frequency:    7.0726355989
  - # 13
    frequency:   10.1860559014
  - # 14
    frequency:   12.7515861876
  - # 15
    frequency:   14.3435151300
  - # 16
    frequency:   15.7273143961
  - # 17
    frequency:   15.8520631782
  - # 18
    frequency:   34.1244569847

- q-position: [    0.1111111,    0.0000000,    0.0000000 ]
  distance:    0.0398063
  band:
  - # 1
    frequency:   -1.4912491351
  - # 2
    frequency:   -1.0296819616
  - # 3
    frequency:    1.2370834742
  - # 4
    frequency:    1.4894255210
  - # 5
    frequency:    1.6594020740
  - # 6
    frequency:    4.6335074768
  - # 7
    frequency:    4.7418770931
  - # 8
    frequency:    5.0456102267
  - # 9
    frequency:    5.5098311620
  - # 10
    frequency:    6.4958128234
  - # 11
    frequency:    6.7713559241
  - # 12
    frequency:    7.0958612492
  - # 13
    frequency:   10.1576049676
  - # 14
    frequency:   12.7128222094
  - # 15
    frequency:   14.3215427442
  - # 16
    frequency:   15.7206974694
  - # 17
    frequency:   15.8559894442
  - # 18
    frequency:   34.1158503484

- q-position: [    0.1161616,    0.0000000,    0.0000000 ]
  distance:    0.0416157
  band:
  - # 1
    frequency:   -1.4999739304
  - # 2
    frequency:   -1.0153234377
  - # 3
    frequency:    1.2859498943
  - # 4
    frequency:    1.5717813943
  - # 5
    frequency:    1.7418500038
  - # 6
    frequency:    4.6325108213
  - # 7
    frequency:    4.7423405339
  - # 8
    frequency:    5.0563565250
  - # 9
    frequency:    5.5164312451
  - # 10
    frequency:    6.5229999042
  - # 11
    frequency:    6.7665051032
  - # 12
    frequency:    7.1196615638
  - # 13
    frequency:   10.1279336143
  - # 14
    frequency:   12.6729291903
  - # 15
    frequency:   14.3003954994
  - # 16
    frequency:   15.7132830775
  - # 17
    frequency:   15.8590085203
  - # 18
    frequency:   34.1069599954

- q-position: [    0.1212121,    0.0000000,    0.0000000 ]
  distance:    0.0434251
  band:
  - # 1
    frequency:   -1.5041732289
  - # 2
    frequency:   -1.0021323870
  - # 3
    frequency:    1.3358954341
  - # 4
    frequency:    1.6530897642
  - # 5
    frequency:    1.8267162751
  - # 6
    frequency:    4.6315484640
  - # 7
    frequency:    4.7418520040
  - # 8
    frequency:    5.0705645380
  - # 9
    frequency:    5.5218749301
  - # 10
    frequency:    6.5493513269
  - # 11
    frequency:    6.7614634311
  - # 12
    frequency:    7.1439577034
  - # 13
    frequency:   10.0970773468
  - # 14
    frequency:   12.6319971681
  - # 15
    frequency:   14.2801965654
  - # 16
    frequency:   15.7050885841
  - # 17
    frequency:   15.8610272158
  - # 18
    frequency:   34.0978006518

- q-position: [    0.1262626,    0.0000000,    0.0000000 ]
  distance:    0.0452344
  band:
  - # 1
    frequency:   -1.5035746497
  - # 2
    frequency:   -0.9897961380
  - # 3
    frequency:    1.3874917466
  - # 4
    frequency:    1.7332716283
  - # 5
    frequency:    1.9133098144
  - # 6
    frequency:    4.6306334133
  - # 7
    frequency:    4.7406301649
  - # 8
    frequency:    5.0879380499
  - # 9
    frequency:    5.5260546322
  - # 10
    frequency:    6.5748162797
  - # 11
    frequency:    6.7562589675
  - # 12
    frequency:    7.1686695130
  - # 13
    frequency:   10.0650778227
  - # 14
    frequency:   12.5901195301
  - # 15
    frequency:   14.2610575618
  - # 16
    frequency:   15.6961392410
  - # 17
    frequency:   15.8619580978
  - # 18
    frequency:   34.0883874293

- q-position: [    0.1313131,    0.0000000,    0.0000000 ]
  distance:    0.0470438
  band:
  - # 1
    frequency:   -1.4979236484
  - # 2
    frequency:   -0.9777202757
  - # 3
    frequency:    1.4408895549
  - # 4
    frequency:    1.8122429936
  - # 5
    frequency:    2.0011319298
  - # 6
    frequency:    4.6297768254
  - # 7
    frequency:    4.7389000865
  - # 8
    frequency:    5.1081601232
  - # 9
    frequency:    5.5288782903
  - # 10
    frequency:    6.5993511801
  - # 11
    frequency:    6.7509203586
  - # 12
    frequency:    7.1937159562
  - # 13
    frequency:   10.0319832883
  - # 14
    frequency:   12.5473926556
  - # 15
    frequency:   14.2430782074
  - # 16
    frequency:   15.6864676868
  - # 17
    frequency:   15.8617201896
  - # 18
    frequency:   34.0787357897

- q-position: [    0.1363636,    0.0000000,    0.0000000 ]
  distance:    0.0488532
  band:
  - # 1
    frequency:   -1.4869781357
  - # 2
    frequency:   -0.9650695252
  - # 3
    frequency:    1.4959280069
  - # 4
    frequency:    1.8899150542
  - # 5
    frequency:    2.0898287829
  - # 6
    frequency:    4.6289880049
  - # 7
    frequency:    4.7368690074
  - # 8
    frequency:    5.1309198969
  - # 9
    frequency:    5.5302714236
  - # 10
    frequency:    6.6229203640
  - # 11
    frequency:    6.7454756342
  - # 12
    frequency:    7.2190155552
  - # 13
    frequency:    9.9978489595
  - # 14
    frequency:   12.5039154647
  - # 15
    frequency:   14.2263461541
  - # 16
    frequency:   15.6761133915
  - # 17
    frequency:   15.8602396115
  - # 18
    frequency:   34.0688615076

- q-position: [    0.1414141,    0.0000000,    0.0000000 ]
  distance:    0.0506626
  band:
  - # 1
    frequency:   -1.4705026937
  - # 2
    frequency:   -0.9508257520
  - # 3
    frequency:    1.5522414327
  - # 4
    frequency:    1.9661945504
  - # 5
    frequency:    2.1791516907
  - # 6
    frequency:    4.6282744533
  - # 7
    frequency:    4.7347144763
  - # 8
    frequency:    5.1559268359
  - # 9
    frequency:    5.5301790508
  - # 10
    frequency:    6.6454967063
  - # 11
    frequency:    6.7399509627
  - # 12
    frequency:    7.2444868532
  - # 13
    frequency:    9.9627373291
  - # 14
    frequency:   12.4597888765
  - # 15
    frequency:   14.2109370079
  - # 16
    frequency:   15.6651220503
  - # 17
    frequency:   15.8574501626
  - # 18
    frequency:   34.0587806328

- q-position: [    0.1464646,    0.0000000,    0.0000000 ]
  distance:    0.0524720
  band:
  - # 1
    frequency:   -1.4482618987
  - # 2
    frequency:   -0.9338448679
  - # 3
    frequency:    1.6093490099
  - # 4
    frequency:    2.0409842288
  - # 5
    frequency:    2.2689274273
  - # 6
    frequency:    4.6276419426
  - # 7
    frequency:    4.7325818776
  - # 8
    frequency:    5.1829154103
  - # 9
    frequency:    5.5285674166
  - # 10
    frequency:    6.6670621304
  - # 11
    frequency:    6.7343694299
  - # 12
    frequency:    7.2700489085
  - # 13
    frequency:    9.9267183833
  - # 14
    frequency:   12.4151151850
  - # 15
    frequency:   14.1969145357
  - # 16
    frequency:   15.6535449307
  - # 17
    frequency:   15.8532938395
  - # 18
    frequency:   34.0485094511

- q-position: [    0.1515152,    0.0000000,    0.0000000 ]
  distance:    0.0542813
  band:
  - # 1
    frequency:   -1.4200121023
  - # 2
    frequency:   -0.9128973178
  - # 3
    frequency:    1.6667225547
  - # 4
    frequency:    2.1141833553
  - # 5
    frequency:    2.3590366323
  - # 6
    frequency:    4.6270945944
  - # 7
    frequency:    4.7305874764
  - # 8
    frequency:    5.2116440737
  - # 9
    frequency:    5.5254254612
  - # 10
    frequency:    6.6876079876
  - # 11
    frequency:    6.7287499145
  - # 12
    frequency:    7.2956218128
  - # 13
    frequency:    9.8898697113
  - # 14
    frequency:   12.3699973657
  - # 15
    frequency:   14.1843310464
  - # 16
    frequency:   15.6414381767
  - # 17
    frequency:   15.8477212887
  - # 18
    frequency:   34.0380644454

- q-position: [    0.1565657,    0.0000000,    0.0000000 ]
  distance:    0.0560907
  band:
  - # 1
    frequency:   -1.3854907420
  - # 2
    frequency:   -0.8866813196
  - # 3
    frequency:    1.7238335332
  - # 4
    frequency:    2.1856882630
  - # 5
    frequency:    2.4493979546
  - # 6
    frequency:    4.6266349470
  - # 7
    frequency:    4.7288239451
  - # 8
    frequency:    5.2418916033
  - # 9
    frequency:    5.5207659657
  - # 10
    frequency:    6.7071353039
  - # 11
    frequency:    6.7231061256
  - # 12
    frequency:    7.3211272204
  - # 13
    frequency:    9.8522764933
  - # 14
    frequency:   12.3245383287
  - # 15
    frequency:   14.1732279269
  - # 16
    frequency:   15.6288620775
  - # 17
    frequency:   15.8406921912
  - # 18
    frequency:   34.0274622548

- q-position: [    0.1616162,    0.0000000,    0.0000000 ]
  distance:    0.0579001
  band:
  - # 1
    frequency:   -1.3444017650
  - # 2
    frequency:   -0.8537998765
  - # 3
    frequency:    1.7801833188
  - # 4
    frequency:    2.2553929282
  - # 5
    frequency:    2.5399560620
  - # 6
    frequency:    4.6262640010
  - # 7
    frequency:    4.7273665095
  - # 8
    frequency:    5.2734527036
  - # 9
    frequency:    5.5146263066
  - # 10
    frequency:    6.7174458655
  - # 11
    frequency:    6.7256549046
  - # 12
    frequency:    7.3464888663
  - # 13
    frequency:    9.8140313533
  - # 14
    frequency:   12.2788401380
  - # 15
    frequency:   14.1636363098
  - # 16
    frequency:   15.6158803056
  - # 17
    frequency:   15.8321755763
  - # 18
    frequency:   34.0167196351

- q-position: [    0.1666667,    0.0000000,    0.0000000 ]
  distance:    0.0597095
  band:
  - # 1
    frequency:   -1.2963948845
  - # 2
    frequency:   -0.8126878559
  - # 3
    frequency:    1.8353214950
  - # 4
    frequency:    2.3231895817
  - # 5
    frequency:    2.6306722485
  - # 6
    frequency:    4.6259812372
  - # 7
    frequency:    4.7262787668
  - # 8
    frequency:    5.3061338676
  - # 9
    frequency:    5.5070687620
  - # 10
    frequency:    6.7117705606
  - # 11
    frequency:    6.7431874341
  - # 12
    frequency:    7.3716330471
  - # 13
    frequency:    9.7752340672
  - # 14
    frequency:   12.2330032177
  - # 15
    frequency:   14.1555778420
  - # 16
    frequency:   15.6025591358
  - # 17
    frequency:   15.8221500634
  - # 18
    frequency:   34.0058534173

- q-position: [    0.1717172,    0.0000000,    0.0000000 ]
  distance:    0.0615188
  band:
  - # 1
    frequency:   -1.2410347919
  - # 2
    frequency:   -0.7614576997
  - # 3
    frequency:    1.8888565106
  - # 4
    frequency:    2.3889693707
  - # 5
    frequency:    2.7215168424
  - # 6
    frequency:    4.6257846111
  - # 7
    frequency:    4.7256177969
  - # 8
    frequency:    5.3397499187
  - # 9
    frequency:    5.4981803220
  - # 10
    frequency:    6.7060750854
  - # 11
    frequency:    6.7597632855
  - # 12
    frequency:    7.3964890444
  - # 13
    frequency:    9.7359911181
  - # 14
    frequency:   12.1871255648
  - # 15
    frequency:   14.1490655209
  - # 16
    frequency:   15.5889666510
  - # 17
    frequency:   15.8106040287
  - # 18
    frequency:   33.9948804675

- q-position: [    0.1767677,    0.0000000,    0.0000000 ]
  distance:    0.0633282
  band:
  - # 1
    frequency:   -1.1777533547
  - # 2
    frequency:   -0.6975821981
  - # 3
    frequency:    1.9404620344
  - # 4
    frequency:    2.4526230900
  - # 5
    frequency:    2.8124629335
  - # 6
    frequency:    4.6256705362
  - # 7
    frequency:    4.7254384844
  - # 8
    frequency:    5.3741213568
  - # 9
    frequency:    5.4880719680
  - # 10
    frequency:    6.7003478846
  - # 11
    frequency:    6.7754224472
  - # 12
    frequency:    7.4209894698
  - # 13
    frequency:    9.6964150954
  - # 14