nqpoint: 300    
npath: 3      
segment_nqpoint:
- 100
- 100
- 100
labels:
- [ 'G', 'M' ]
- [ 'M', 'K' ]
- [ 'K', 'G' ]
reciprocal_lattice:
- [   0.30964513,   0.17877370,   0.00000000 ] # a*
- [   0.00000000,   0.35754740,   0.00000000 ] # b*
- [   0.00000000,   0.00000000,   0.04421683 ] # c*
natom: 5      
lattice:
- [     3.229503424864987,     0.000000000000000,     0.000000000000000 ] # a
- [    -1.614751712432493,     2.796832007503561,     0.000000000000000 ] # b
- [     0.000000000000000,     0.000000000000000,    22.615822600212116 ] # c
points:
- symbol: Hf # 1
  coordinates: [  0.333332985432215,  0.666666983183674,  0.441038118282717 ]
  mass: 178.490000
- symbol: Hf # 2
  coordinates: [  0.666666984744047,  0.333332985985145,  0.558961881126167 ]
  mass: 178.490000
- symbol: N # 3
  coordinates: [  0.000000000000000,  0.000000000000000,  0.500000039604042 ]
  mass: 14.006700
- symbol: O # 4
  coordinates: [  0.333332985432215,  0.666666983183674,  0.602048523323861 ]
  mass: 15.999400
- symbol: O # 5
  coordinates: [  0.666666984744047,  0.333332985985145,  0.397951476676139 ]
  mass: 15.999400

phonon:
- q-position: [    0.0000000,    0.0000000,    0.0000000 ]
  distance:    0.0000000
  band:
  - # 1
    frequency:   -0.0000376400
  - # 2
    frequency:   -0.0000001817
  - # 3
    frequency:    0.0000248127
  - # 4
    frequency:    2.3182118383
  - # 5
    frequency:    2.3182118385
  - # 6
    frequency:    5.4020226567
  - # 7
    frequency:    9.5036280681
  - # 8
    frequency:    9.5036280682
  - # 9
    frequency:   11.8343343407
  - # 10
    frequency:   11.8343343409
  - # 11
    frequency:   14.6595297950
  - # 12
    frequency:   14.6595297952
  - # 13
    frequency:   15.3186613559
  - # 14
    frequency:   15.3200444596
  - # 15
    frequency:   17.6393552107

- q-position: [    0.0050505,    0.0000000,    0.0000000 ]
  distance:    0.0018058
  band:
  - # 1
    frequency:    0.0017764590
  - # 2
    frequency:    0.0749852050
  - # 3
    frequency:    0.0930068023
  - # 4
    frequency:    2.3183941702
  - # 5
    frequency:    2.3194926381
  - # 6
    frequency:    5.4011487081
  - # 7
    frequency:    9.5032969745
  - # 8
    frequency:    9.5056116191
  - # 9
    frequency:   11.8320019563
  - # 10
    frequency:   11.8338608416
  - # 11
    frequency:   14.6574995158
  - # 12
    frequency:   14.6588248002
  - # 13
    frequency:   15.3175759975
  - # 14
    frequency:   15.3192125464
  - # 15
    frequency:   17.6389734858

- q-position: [    0.0101010,    0.0000000,    0.0000000 ]
  distance:    0.0036116
  band:
  - # 1
    frequency:    0.0070944561
  - # 2
    frequency:    0.1498846530
  - # 3
    frequency:    0.1859853456
  - # 4
    frequency:    2.3189411853
  - # 5
    frequency:    2.3233257462
  - # 6
    frequency:    5.3985277146
  - # 7
    frequency:    9.5023068482
  - # 8
    frequency:    9.5115527457
  - # 9
    frequency:   11.8250024245
  - # 10
    frequency:   11.8324425520
  - # 11
    frequency:   14.6514141451
  - # 12
    frequency:   14.6567122413
  - # 13
    frequency:   15.3143254442
  - # 14
    frequency:   15.3167213454
  - # 15
    frequency:   17.6378299787

- q-position: [    0.0151515,    0.0000000,    0.0000000 ]
  distance:    0.0054174
  band:
  - # 1
    frequency:    0.0159202002
  - # 2
    frequency:    0.2246127383
  - # 3
    frequency:    0.2789064437
  - # 4
    frequency:    2.3198529528
  - # 5
    frequency:    2.3296836676
  - # 6
    frequency:    5.3941621930
  - # 7
    frequency:    9.5006671405
  - # 8
    frequency:    9.5214229565
  - # 9
    frequency:   11.8133287053
  - # 10
    frequency:   11.8300860948
  - # 11
    frequency:   14.6412901420
  - # 12
    frequency:   14.6531993828
  - # 13
    frequency:   15.3089259484
  - # 14
    frequency:   15.3125846505
  - # 15
    frequency:   17.6359296858

- q-position: [    0.0202020,    0.0000000,    0.0000000 ]
  distance:    0.0072232
  band:
  - # 1
    frequency:    0.0281985031
  - # 2
    frequency:    0.2990842378
  - # 3
    frequency:    0.3717390212
  - # 4
    frequency:    2.3211296245
  - # 5
    frequency:    2.3385218037
  - # 6
    frequency:    5.3880562049
  - # 7
    frequency:    9.4983935642
  - # 8
    frequency:    9.5351750529
  - # 9
    frequency:   11.7969693873
  - # 10
    frequency:   11.8268025021
  - # 11
    frequency:   14.6271551222
  - # 12
    frequency:   14.6482982828
  - # 13
    frequency:   15.3014043827
  - # 14
    frequency:   15.3068252286
  - # 15
    frequency:   17.6332809145

- q-position: [    0.0252525,    0.0000000,    0.0000000 ]
  distance:    0.0090290
  band:
  - # 1
    frequency:    0.0438543784
  - # 2
    frequency:    0.3732144664
  - # 3
    frequency:    0.4644491658
  - # 4
    frequency:    2.3227714897
  - # 5
    frequency:    2.3497801913
  - # 6
    frequency:    5.3802151499
  - # 7
    frequency:    9.4955080351
  - # 8
    frequency:    9.5527435545
  - # 9
    frequency:   11.7759091799
  - # 10
    frequency:   11.8226072059
  - # 11
    frequency:   14.6090480990
  - # 12
    frequency:   14.6420257196
  - # 13
    frequency:   15.2917983434
  - # 14
    frequency:   15.2994740877
  - # 15
    frequency:   17.6298952524

- q-position: [    0.0303030,    0.0000000,    0.0000000 ]
  distance:    0.0108348
  band:
  - # 1
    frequency:    0.0627951026
  - # 2
    frequency:    0.4469194485
  - # 3
    frequency:    0.5569991533
  - # 4
    frequency:    2.3247790505
  - # 5
    frequency:    2.3633857490
  - # 6
    frequency:    5.3706454660
  - # 7
    frequency:    9.4920385925
  - # 8
    frequency:    9.5740452816
  - # 9
    frequency:   11.7501296232
  - # 10
    frequency:   11.8175200235
  - # 11
    frequency:   14.5870197566
  - # 12
    frequency:   14.6344030897
  - # 13
    frequency:   15.2801561332
  - # 14
    frequency:   15.2905696687
  - # 15
    frequency:   17.6257875253

- q-position: [    0.0353535,    0.0000000,    0.0000000 ]
  distance:    0.0126406
  band:
  - # 1
    frequency:    0.0849125888
  - # 2
    frequency:    0.5201160816
  - # 3
    frequency:    0.6493464474
  - # 4
    frequency:    2.3271531196
  - # 5
    frequency:    2.3792548758
  - # 6
    frequency:    5.3593542253
  - # 7
    frequency:    9.4880192989
  - # 8
    frequency:    9.5989800832
  - # 9
    frequency:   11.7196100348
  - # 10
    frequency:   11.8115651374
  - # 11
    frequency:   14.5611327022
  - # 12
    frequency:   14.6254562748
  - # 13
    frequency:   15.2665366223
  - # 14
    frequency:   15.2801570022
  - # 15
    frequency:   17.6209757414

- q-position: [    0.0404040,    0.0000000,    0.0000000 ]
  distance:    0.0144464
  band:
  - # 1
    frequency:    0.1100859217
  - # 2
    frequency:    0.5927222885
  - # 3
    frequency:    0.7414426600
  - # 4
    frequency:    2.3298949373
  - # 5
    frequency:    2.3972962369
  - # 6
    frequency:    5.3463486125
  - # 7
    frequency:    9.4834901225
  - # 8
    frequency:    9.6274316964
  - # 9
    frequency:   11.6843287177
  - # 10
    frequency:   11.8047710670
  - # 11
    frequency:   14.5314616452
  - # 12
    frequency:   14.6152154807
  - # 13
    frequency:   15.2510089835
  - # 14
    frequency:   15.2682868780
  - # 15
    frequency:   17.6154810230

- q-position: [    0.0454545,    0.0000000,    0.0000000 ]
  distance:    0.0162522
  band:
  - # 1
    frequency:    0.1381839098
  - # 2
    frequency:    0.6646571605
  - # 3
    frequency:    0.8332324625
  - # 4
    frequency:    2.3330063086
  - # 5
    frequency:    2.4174135836
  - # 6
    frequency:    5.3316352714
  - # 7
    frequency:    9.4784968036
  - # 8
    frequency:    9.6592687174
  - # 9
    frequency:   11.6442644590
  - # 10
    frequency:   11.7971706315
  - # 11
    frequency:   14.4980934534
  - # 12
    frequency:   14.6037150463
  - # 13
    frequency:   15.2336522771
  - # 14
    frequency:   15.2550150864
  - # 15
    frequency:   17.6093275247

- q-position: [    0.0505051,    0.0000000,    0.0000000 ]
  distance:    0.0180579
  band:
  - # 1
    frequency:    0.1690675345
  - # 2
    frequency:    0.7358410873
  - # 3
    frequency:    0.9246524273
  - # 4
    frequency:    2.3364897597
  - # 5
    frequency:    2.4395084742
  - # 6
    frequency:    5.3152195048
  - # 7
    frequency:    9.4730907068
  - # 8
    frequency:    9.6943456636
  - # 9
    frequency:   11.5993983527
  - # 10
    frequency:   11.7888009017
  - # 11
    frequency:   14.4611270477
  - # 12
    frequency:   14.5909932240
  - # 13
    frequency:   15.2145548624
  - # 14
    frequency:   15.2404017804
  - # 15
    frequency:   17.6025423381

- q-position: [    0.0555556,    0.0000000,    0.0000000 ]
  distance:    0.0198637
  band:
  - # 1
    frequency:    0.2025922072
  - # 2
    frequency:    0.8061958749
  - # 3
    frequency:    1.0156297795
  - # 4
    frequency:    2.3403487116
  - # 5
    frequency:    2.4634827927
  - # 6
    frequency:    5.2971043130
  - # 7
    frequency:    9.4673286621
  - # 8
    frequency:    9.7325041024
  - # 9
    frequency:   11.5497159851
  - # 10
    frequency:   11.7797031395
  - # 11
    frequency:   14.4206731078
  - # 12
    frequency:   14.5770919313
  - # 13
    frequency:   15.1938136305
  - # 14
    frequency:   15.2245109842
  - # 15
    frequency:   17.5951553814

- q-position: [    0.0606061,    0.0000000,    0.0000000 ]
  distance:    0.0216695
  band:
  - # 1
    frequency:    0.2386097721
  - # 2
    frequency:    0.8756448506
  - # 3
    frequency:    1.1060810292
  - # 4
    frequency:    2.3445876707
  - # 5
    frequency:    2.4892409950
  - # 6
    frequency:    5.2772892556
  - # 7
    frequency:    9.4612727963
  - # 8
    frequency:    9.7735738139
  - # 9
    frequency:   11.4952100245
  - # 10
    frequency:   11.7699227215
  - # 11
    frequency:   14.3768535716
  - # 12
    frequency:   14.5620564745
  - # 13
    frequency:   15.1715330570
  - # 14
    frequency:   15.2074102558
  - # 15
    frequency:   17.5871992743

- q-position: [    0.0656566,    0.0000000,    0.0000000 ]
  distance:    0.0234753
  band:
  - # 1
    frequency:    0.2769702267
  - # 2
    frequency:    0.9441129548
  - # 3
    frequency:    1.1959104467
  - # 4
    frequency:    2.3492124337
  - # 5
    frequency:    2.5166920394
  - # 6
    frequency:    5.2557691276
  - # 7
    frequency:    9.4549903555
  - # 8
    frequency:    9.8173739505
  - # 9
    frequency:   11.4358832662
  - # 10
    frequency:   11.7595090473
  - # 11
    frequency:   14.3298009239
  - # 12
    frequency:   14.5459352462
  - # 13
    frequency:   15.1478240880
  - # 14
    frequency:   15.1891704953
  - # 15
    frequency:   17.5787091975

- q-position: [    0.0707071,    0.0000000,    0.0000000 ]
  distance:    0.0252811
  band:
  - # 1
    frequency:    0.3175231520
  - # 2
    frequency:    1.0115268225
  - # 3
    frequency:    1.2850083318
  - # 4
    frequency:    2.3542303050
  - # 5
    frequency:    2.5457509842
  - # 6
    frequency:    5.2325324414
  - # 7
    frequency:    9.4485535204
  - # 8
    frequency:    9.8637141355
  - # 9
    frequency:   11.3717521977
  - # 10
    frequency:   11.7485154279
  - # 11
    frequency:   14.2796572775
  - # 12
    frequency:   14.5287793959
  - # 13
    frequency:   15.1228028777
  - # 14
    frequency:   15.1698658801
  - # 15
    frequency:   17.5697227351

- q-position: [    0.0757576,    0.0000000,    0.0000000 ]
  distance:    0.0270869
  band:
  - # 1
    frequency:    0.3601188624
  - # 2
    frequency:    1.0778148546
  - # 3
    frequency:    1.3732490132
  - # 4
    frequency:    2.3596503244
  - # 5
    frequency:    2.5763402533
  - # 6
    frequency:    5.2075597201
  - # 7
    frequency:    9.4420392151
  - # 8
    frequency:    9.9123954124
  - # 9
    frequency:   11.3028511763
  - # 10
    frequency:   11.7369989549
  - # 11
    frequency:   14.2265732600
  - # 12
    frequency:   14.5106424783
  - # 13
    frequency:   15.0965894036
  - # 14
    frequency:   15.1495739016
  - # 15
    frequency:   17.5602797009

- q-position: [    0.0808081,    0.0000000,    0.0000000 ]
  distance:    0.0288927
  band:
  - # 1
    frequency:    0.4046093002
  - # 2
    frequency:    1.1429072831
  - # 3
    frequency:    1.4604884927
  - # 4
    frequency:    2.3654834987
  - # 5
    frequency:    2.6083905848
  - # 6
    frequency:    5.1808216146
  - # 7
    frequency:    9.4355289065
  - # 8
    frequency:    9.9632108860
  - # 9
    frequency:   11.2292373760
  - # 10
    frequency:   11.7250203471
  - # 11
    frequency:   14.1707067250
  - # 12
    frequency:   14.4915800787
  - # 13
    frequency:   15.0693059864
  - # 14
    frequency:   15.1283754772
  - # 15
    frequency:   17.5504219461

- q-position: [    0.0858586,    0.0000000,    0.0000000 ]
  distance:    0.0306985
  band:
  - # 1
    frequency:    0.4508487014
  - # 2
    frequency:    1.2067362358
  - # 3
    frequency:    1.5465616215
  - # 4
    frequency:    2.3717430354
  - # 5
    frequency:    2.6418416822
  - # 6
    frequency:    5.1522768822
  - # 7
    frequency:    9.4291083959
  - # 8
    frequency:   10.0159457423
  - # 9
    frequency:   11.1509968077
  - # 10
    frequency:   11.7126437748
  - # 11
    frequency:   14.1122213147
  - # 12
    frequency:   14.4716494197
  - # 13
    frequency:   15.0410757486
  - # 14
    frequency:   15.1063551087
  - # 15
    frequency:   17.5401931494

- q-position: [    0.0909091,    0.0000000,    0.0000000 ]
  distance:    0.0325043
  band:
  - # 1
    frequency:    0.4986940659
  - # 2
    frequency:    1.2692358053
  - # 3
    frequency:    1.6312786570
  - # 4
    frequency:    2.3784445677
  - # 5
    frequency:    2.6766425931
  - # 6
    frequency:    5.1218702932
  - # 7
    frequency:    9.4228675979
  - # 8
    frequency:   10.0703759586
  - # 9
    frequency:   11.0682520815
  - # 10
    frequency:   11.6999366600
  - # 11
    frequency:   14.0512849066
  - # 12
    frequency:   14.4509089518
  - # 13
    frequency:   15.0120210431
  - # 14
    frequency:   15.0836010621
  - # 15
    frequency:   17.5296385886

- q-position: [    0.0959596,    0.0000000,    0.0000000 ]
  distance:    0.0343101
  band:
  - # 1
    frequency:    0.5480054606
  - # 2
    frequency:    1.3303421344
  - # 3
    frequency:    1.7144209986
  - # 4
    frequency:    2.3856063636
  - # 5
    frequency:    2.7127518371
  - # 6
    frequency:    5.0895305782
  - # 7
    frequency:    9.4169003045
  - # 8
    frequency:   10.1262640119
  - # 9
    frequency:   10.9811735697
  - # 10
    frequency:   11.6869694519
  - # 11
    frequency:   13.9880679836
  - # 12
    frequency:   14.4294179313
  - # 13
    frequency:   14.9822618891
  - # 14
    frequency:   15.0602055416
  - # 15
    frequency:   17.5188048924

- q-position: [    0.1010101,    0.0000000,    0.0000000 ]
  distance:    0.0361159
  band:
  - # 1
    frequency:    0.5986461845
  - # 2
    frequency:    1.3899935279
  - # 3
    frequency:    1.7957358248
  - # 4
    frequency:    2.3932495049
  - # 5
    frequency:    2.7501373015
  - # 6
    frequency:    5.0551685981
  - # 7
    frequency:    9.4113039292
  - # 8
    frequency:   10.1833468547
  - # 9
    frequency:   10.8899986506
  - # 10
    frequency:   11.6738153791
  - # 11
    frequency:   13.9227419712
  - # 12
    frequency:   14.4072359898
  - # 13
    frequency:   14.9519144542
  - # 14
    frequency:   15.0362648308
  - # 15
    frequency:   17.5077397741

- q-position: [    0.1060606,    0.0000000,    0.0000000 ]
  distance:    0.0379217
  band:
  - # 1
    frequency:    0.6504828148
  - # 2
    frequency:    1.4481306093
  - # 3
    frequency:    1.8749292550
  - # 4
    frequency:    2.4013980195
  - # 5
    frequency:    2.7887759130
  - # 6
    frequency:    5.0186760210
  - # 7
    frequency:    9.4061792267
  - # 8
    frequency:   10.2413004389
  - # 9
    frequency:   10.7950746802
  - # 10
    frequency:   11.6605501762
  - # 11
    frequency:   13.8554775878
  - # 12
    frequency:   14.3844226998
  - # 13
    frequency:   14.9210896230
  - # 14
    frequency:   15.0118793721
  - # 15
    frequency:   17.4964917459

- q-position: [    0.1111111,    0.0000000,    0.0000000 ]
  distance:    0.0397275
  band:
  - # 1
    frequency:    0.7033851522
  - # 2
    frequency:    1.5046965427
  - # 3
    frequency:    1.9516575176
  - # 4
    frequency:    2.4100789438
  - # 5
    frequency:    2.8286530838
  - # 6
    frequency:    4.9799249325
  - # 7
    frequency:    9.4016299816
  - # 8
    frequency:   10.2996139489
  - # 9
    frequency:   10.6969924229
  - # 10
    frequency:   11.6472517889
  - # 11
    frequency:   13.7864432571
  - # 12
    frequency:   14.3610371411
  - # 13
    frequency:   14.8898917005
  - # 14
    frequency:   14.9871537491
  - # 15
    frequency:   17.4851098153

- q-position: [    0.1161616,    0.0000000,    0.0000000 ]
  distance:    0.0415333
  band:
  - # 1
    frequency:    0.7572260707
  - # 2
    frequency:    1.5596373476
  - # 3
    frequency:    2.0255154027
  - # 4
    frequency:    2.4193222888
  - # 5
    frequency:    2.8697619138
  - # 6
    frequency:    4.9387690207
  - # 7
    frequency:    9.3977626594
  - # 8
    frequency:   10.3569500515
  - # 9
    frequency:   10.5972334842
  - # 10
    frequency:   11.6340000562
  - # 11
    frequency:   13.7158036293
  - # 12
    frequency:   14.3371374738
  - # 13
    frequency:   14.8584173001
  - # 14
    frequency:   14.9621965343
  - # 15
    frequency:   17.4736431641

- q-position: [    0.1212121,    0.0000000,    0.0000000 ]
  distance:    0.0433391
  band:
  - # 1
    frequency:    0.8118812678
  - # 2
    frequency:    1.6129023380
  - # 3
    frequency:    2.0960209940
  - # 4
    frequency:    2.4291608733
  - # 5
    frequency:    2.9121021124
  - # 6
    frequency:    4.8950472642
  - # 7
    frequency:    9.3946860141
  - # 8
    frequency:   10.4041833180
  - # 9
    frequency:   10.5051393807
  - # 10
    frequency:   11.6208763733
  - # 11
    frequency:   13.6437182501
  - # 12
    frequency:   14.3127805221
  - # 13
    frequency:   14.8267544715
  - # 14
    frequency:   14.9371199559
  - # 15
    frequency:   17.4621408115

- q-position: [    0.1262626,    0.0000000,    0.0000000 ]
  distance:    0.0451449
  band:
  - # 1
    frequency:    0.8672288968
  - # 2
    frequency:    1.6644447244
  - # 3
    frequency:    2.1625952704
  - # 4
    frequency:    2.4396299863
  - # 5
    frequency:    2.9556785832
  - # 6
    frequency:    4.8485914572
  - # 7
    frequency:    9.3925106446
  - # 8
    frequency:   10.3630140656
  - # 9
    frequency:   10.4993047070
  - # 10
    frequency:   11.6079633368
  - # 11
    frequency:   13.5703404159
  - # 12
    frequency:   14.2880213770
  - # 13
    frequency:   14.7949821235
  - # 14
    frequency:   14.9120393398
  - # 15
    frequency:   17.4506512628

- q-position: [    0.1313131,    0.0000000,    0.0000000 ]
  distance:    0.0469507
  band:
  - # 1
    frequency:    0.9231490366
  - # 2
    frequency:    1.7142224182
  - # 3
    frequency:    2.2245346084
  - # 4
    frequency:    2.4507668327
  - # 5
    frequency:    3.0004996057
  - # 6
    frequency:    4.7992394280
  - # 7
    frequency:    9.3913484939
  - # 8
    frequency:   10.2607635423
  - # 9
    frequency:   10.5527880823
  - # 10
    frequency:   11.5953443754
  - # 11
    frequency:   13.4958162368
  - # 12
    frequency:   14.2629130213
  - # 13
    frequency:   14.7631697939
  - # 14
    frequency:   14.8870722811
  - # 15
    frequency:   17.4392221470

- q-position: [    0.1363636,    0.0000000,    0.0000000 ]
  distance:    0.0487565
  band:
  - # 1
    frequency:    0.9795229160
  - # 2
    frequency:    1.7621990778
  - # 3
    frequency:    2.2809734617
  - # 4
    frequency:    2.4626097206
  - # 5
    frequency:    3.0465745512
  - # 6
    frequency:    4.7468564533
  - # 7
    frequency:    9.3913122854
  - # 8
    frequency:   10.1517271936
  - # 9
    frequency:   10.6117636172
  - # 10
    frequency:   11.5831033689
  - # 11
    frequency:   13.4202839247
  - # 12
    frequency:   14.2375059845
  - # 13
    frequency:   14.7313778052
  - # 14
    frequency:   14.8623375138
  - # 15
    frequency:   17.4278998455

- q-position: [    0.1414141,    0.0000000,    0.0000000 ]
  distance:    0.0505623
  band:
  - # 1
    frequency:    1.0362317405
  - # 2
    frequency:    1.8083454247
  - # 3
    frequency:    2.3308335692
  - # 4
    frequency:    2.4751969530
  - # 5
    frequency:    3.0939111114
  - # 6
    frequency:    4.6913680506
  - # 7
    frequency:    9.3925148920
  - # 8
    frequency:   10.0410082424
  - # 9
    frequency:   10.6716900041
  - # 10
    frequency:   11.5713242600
  - # 11
    frequency:   13.3438733094
  - # 12
    frequency:   14.2118480317
  - # 13
    frequency:   14.6996578237
  - # 14
    frequency:   14.8379534662
  - # 15
    frequency:   17.4167291158

- q-position: [    0.1464646,    0.0000000,    0.0000000 ]
  distance:    0.0523681
  band:
  - # 1
    frequency:    1.0931548379
  - # 2
    frequency:    1.8526408407
  - # 3
    frequency:    2.3727550871
  - # 4
    frequency:    2.4885654095
  - # 5
    frequency:    3.1425120961
  - # 6
    frequency:    4.6328077939
  - # 7
    frequency:    9.3950686344
  - # 8
    frequency:    9.9301566261
  - # 9
    frequency:   10.7316713899
  - # 10
    frequency:   11.5600906613
  - # 11
    frequency:   13.2667055771
  - # 12
    frequency:   14.1859838940
  - # 13
    frequency:   14.6680538093
  - # 14
    frequency:   14.8140365208
  - # 15
    frequency:   17.4057527142

- q-position: [    0.1515152,    0.0000000,    0.0000000 ]
  distance:    0.0541738
  band:
  - # 1
    frequency:    1.1501665761
  - # 2
    frequency:    1.8950752187
  - # 3
    frequency:    2.4050045336
  - # 4
    frequency:    2.5027488340
  - # 5
    frequency:    3.1923719778
  - # 6
    frequency:    4.5713834300
  - # 7
    frequency:    9.3990845078
  - # 8
    frequency:    9.8202842925
  - # 9
    frequency:   10.7913381199
  - # 10
    frequency:   11.5494854638
  - # 11
    frequency:   13.1888932171
  - # 12
    frequency:   14.1599550427
  - # 13
    frequency:   14.6366033024
  - # 14
    frequency:   14.7906990365
  - # 15
    frequency:   17.3950110219

- q-position: [    0.1565657,    0.0000000,    0.0000000 ]
  distance:    0.0559796
  band:
  - # 1
    frequency:    1.2071309472
  - # 2
    frequency:    1.9356509920
  - # 3
    frequency:    2.4253554759
  - # 4
    frequency:    2.5177758946
  - # 5
    frequency:    3.2434734708
  - # 6
    frequency:    4.5075620743
  - # 7
    frequency:    9.4046713372
  - # 8
    frequency:    9.7124371436
  - # 9
    frequency:   10.8504661366
  - # 10
    frequency:   11.5395904487
  - # 11
    frequency:   13.1105401552
  - # 12
    frequency:   14.1337995146
  - # 13
    frequency:   14.6053389588
  - # 14
    frequency:   14.7680472287
  - # 15
    frequency:   17.3845416808

- q-position: [    0.1616162,    0.0000000,    0.0000000 ]
  distance:    0.0577854
  band:
  - # 1
    frequency:    1.2638914101
  - # 2
    frequency:    1.9743852062
  - # 3
    frequency:    2.4309424501
  - # 4
    frequency:    2.5336681429
  - # 5
    frequency:    3.2957844698
  - # 6
    frequency:    4.4421684000
  - # 7
    frequency:    9.4119348656
  - # 8
    frequency:    9.6076665336
  - # 9
    frequency:   10.9088913200
  - # 10
    frequency:   11.5304859094
  - # 11
    frequency:   13.0317420506
  - # 12
    frequency:   14.1075517896
  - # 13
    frequency:   14.5742902080
  - # 14
    frequency:   14.7461790353
  - # 15
    frequency:   17.3743792425

- q-position: [    0.1666667,    0.0000000,    0.0000000 ]
  distance:    0.0595912
  band:
  - # 1
    frequency:    1.3202502768
  - # 2
    frequency:    2.0113114299
  - # 3
    frequency:    2.4180993214
  - # 4
    frequency:    2.5504380631
  - # 5
    frequency:    3.3492555545
  - # 6
    frequency:    4.3764756731
  - # 7
    frequency:    9.4209767784
  - # 8
    frequency:    9.5070355002
  - # 9
    frequency:   10.9664831066
  - # 10
    frequency:   11.5222502859
  - # 11
    frequency:   12.9525867311
  - # 12
    frequency:   14.0812427263
  - # 13
    frequency:   14.5434848987
  - # 14
    frequency:   14.7251821148
  - # 15
    frequency:   17.3645548384

- q-position: [    0.1717172,    0.0000000,    0.0000000 ]
  distance:    0.0613970
  band:
  - # 1
    frequency:    1.3759224885
  - # 2
    frequency:    2.0464812563
  - # 3
    frequency:    2.3822115007
  - # 4
    frequency:    2.5680874489
  - # 5
    frequency:    3.4038179313
  - # 6
    frequency:    4.3122476443
  - # 7
    frequency:    9.4116025451
  - # 8
    frequency:    9.4318936738
  - # 9
    frequency:   11.0231346517
  - # 10
    frequency:   11.5149598174
  - # 11
    frequency:   12.8731547442
  - # 12
    frequency:   14.0548995559
  - # 13
    frequency:   14.5129507962
  - # 14
    frequency:   14.7051321138
  - # 15
    frequency:   17.3550958756

- q-position: [    0.1767677,    0.0000000,    0.0000000 ]
  distance:    0.0632028
  band:
  - # 1
    frequency:    1.4304172395
  - # 2
    frequency:    2.0799651274
  - # 3
    frequency:    2.3176357346
  - # 4
    frequency:    2.5866063645
  - # 5
    frequency:    3.4593811660
  - # 6
    frequency:    4.2516686421
  - # 7
    frequency:    9.3223947583
  - # 8
    frequency:    9.4447759885
  - # 9
    frequency:   11.0787586065
  - # 10
    frequency:   11.5086882159
  - # 11
    frequency:   12.7935200083
  - # 12
    frequency:   14.0285459382
  - # 13
    frequency:   14.4827168281
  - # 14
    frequency:   14.6860913192
  - # 15
    frequency:   17.3460257648

- q-position: [    0.1818182,    0.0000000,    0.0000000 ]
  distance:    0.0650086
  band:
  - # 1
    frequency:    1.4826725527
  - # 2
    frequency:    2.1118522554
  - # 3
    frequency:    2.2177973970
  - # 4
    frequency:    2.6059729061
  - # 5
    frequency:    3.5158293790
  - # 6
    frequency:    4.1971065187
  - # 7
    frequency:    9.2403755567
  - # 8
    frequency:    9.4597068904
  - # 9
    frequency:   11.1332850160
  - # 10
    frequency:   11.5035063657
  - # 11
    frequency:   12.7137505608
  - # 12
    frequency:   14.0022020786
  - # 13
    frequency:   14.4528140086
  - # 14
    frequency:   14.6681077663
  - # 15
    frequency:   17.3373636867

- q-position: [    0.1868687,    0.0000000,    0.0000000 ]
  distance:    0.0668144
  band:
  - # 1
    frequency:    1.5295562989
  - # 2
    frequency:    2.0760463853
  - # 3
    frequency:    2.1422495049
  - # 4
    frequency:    2.6261538900
  - # 5
    frequency:    3.5730136715
  - # 6
    frequency:    4.1507220334
  - # 7
    frequency:    9.1664109829
  - # 8
    frequency:    9.4767611518
  - # 9
    frequency:   11.1866600055
  - # 10
    frequency:   11.4994820511
  - # 11
    frequency:   12.6339094139
  - # 12
    frequency:   13.9758849078
  - # 13
    frequency:   14.4232760265
  - # 14
    frequency:   14.6512148270
  - # 15
    frequency:   17.3291244008

- q-position: [    0.1919192,    0.0000000,    0.0000000 ]
  distance:    0.0686202
  band:
  - # 1
    frequency:    1.5560624577
  - # 2
    frequency:    1.8934803124
  - # 3
    frequency:    2.1712792407
  - # 4
    frequency:    2.6471064568
  - # 5
    frequency:    3.6307370449
  - # 6
    frequency:    4.1140573646
  - # 7
    frequency:    9.1012383062
  - # 8
    frequency:    9.4960040185
  - # 9
    frequency:   11.2388446482
  - # 10
    frequency:   11.4966797157
  - # 11
    frequency:   12.5540555672
  - # 12
    frequency:   13.9496083225
  - # 13
    frequency:   14.3941395163
  - # 14
    frequency:   14.6354312593
  - # 15
    frequency:   17.3213181032

- q-position: [    0.1969697,    0.0000000,    0.0000000 ]
  distance:    0.0704260
  band:
  - # 1
    frequency:    1.4542874060
  - # 2
    frequency:    1.7534380673
  - # 3
    frequency:    2.1990762938
  - # 4
    frequency:    2.6687804359
  - # 5
    frequency:    3.6887249957
  - # 6
    frequency:    4.0878074435
  - # 7
    frequency:    9.0454403982
  - # 8
    frequency:    9.5174900896
  - # 9
    frequency:   11.2898136481
  - # 10
    frequency:   11.4951602562
  - # 11
    frequency:   12.4742452757
  - # 12
    frequency:   13.9233834875
  - # 13
    frequency:   14.3654440675
  - # 14
    frequency:   14.6207616648
  - # 15
    frequency:   17.3139503360

- q-position: [    0.2020202,    0.0000000,    0.0000000 ]
  distance:    0.0722318
  band:
  - # 1
    frequency:    1.0607541283
  - # 2
    frequency:    1.7560188994
  - # 3
    frequency:    2.2257843228
  - # 4
    frequency:    2.6911211916
  - # 5
    frequency:    3.7465683602
  - # 6
    frequency:    4.0719041138
  - # 7
    frequency:    8.9994286310
  - # 8
    frequency:    9.5412622238
  - # 9
    frequency:   11.3395534936
  - # 10
    frequency:   11.4949808515
  - # 11
    frequency:   12.3945337906
  - # 12
    frequency:   13.8972191952
  - # 13
    frequency:   14.3372320378
  - # 14
    frequency:   14.6071972861
  - # 15
    frequency:   17.3070219531

- q-position: [    0.2070707,    0.0000000,    0.0000000 ]
  distance:    0.0740376
  band:
  - # 1
    frequency:   -0.3806177458
  - # 2
    frequency:    1.7963597814
  - # 3
    frequency:    2.2515519124
  - # 4
    frequency:    2.7140726133
  - # 5
    frequency:    3.8036120675
  - # 6
    frequency:    4.0658835450
  - # 7
    frequency:    8.9634358529
  - # 8
    frequency:    9.5673504866
  - # 9
    frequency:   11.3880595619
  - # 10
    frequency:   11.4961948282
  - # 11
    frequency:   12.3149780250
  - # 12
    frequency:   13.8711222821
  - # 13
    frequency:   14.3095482398
  - # 14
    frequency:   14.5947170664
  - # 15
    frequency:   17.3005291423

- q-position: [    0.2121212,    0.0000000,    0.0000000 ]
  distance:    0.0758434
  band:
  - # 1
    frequency:   -1.2524707256