nqpoint: 300    
npath: 3      
segment_nqpoint:
- 100
- 100
- 100
labels:
- [ 'G', 'M' ]
- [ 'M', 'K' ]
- [ 'K', 'G' ]
reciprocal_lattice:
- [   0.32132533,   0.18551727,   0.00000000 ] # a*
- [   0.00000000,   0.37103453,   0.00000000 ] # b*
- [   0.00000000,   0.00000000,   0.03971519 ] # c*
natom: 7      
lattice:
- [     3.112110713753479,     0.000000000000000,     0.000000000000000 ] # a
- [    -1.556055356876739,     2.695166937505940,     0.000000000000000 ] # b
- [     0.000000000000000,     0.000000000000000,    25.179282576151781 ] # c
points:
- symbol: C # 1
  coordinates: [  0.000000000000000,  0.000000000000000,  0.553964629493177 ]
  mass: 12.010700
- symbol: C # 2
  coordinates: [  0.666666984744047,  0.333332985985145,  0.404605287124594 ]
  mass: 12.010700
- symbol: N # 3
  coordinates: [  0.666666984744047,  0.333332985985145,  0.357436713011205 ]
  mass: 14.006700
- symbol: O # 4
  coordinates: [  0.333332985432215,  0.666666983183674,  0.642563286988795 ]
  mass: 15.999400
- symbol: O # 5
  coordinates: [  0.666666984744047,  0.333332985985145,  0.457680681629620 ]
  mass: 15.999400
- symbol: Ti # 6
  coordinates: [  0.333332985432215,  0.666666983183674,  0.509459723707818 ]
  mass: 47.867000
- symbol: Ti # 7
  coordinates: [  0.666666984744047,  0.333332985985145,  0.607022122535314 ]
  mass: 47.867000

phonon:
- q-position: [    0.0000000,    0.0000000,    0.0000000 ]
  distance:    0.0000000
  band:
  - # 1
    frequency:   -1.7068652663
  - # 2
    frequency:   -1.7068652662
  - # 3
    frequency:   -0.0000117926
  - # 4
    frequency:    0.0000005643
  - # 5
    frequency:    0.0000198346
  - # 6
    frequency:    3.8764706892
  - # 7
    frequency:    3.8764706892
  - # 8
    frequency:    5.8926338179
  - # 9
    frequency:    5.8926338179
  - # 10
    frequency:    7.1302441513
  - # 11
    frequency:    9.2287001129
  - # 12
    frequency:    9.2287001130
  - # 13
    frequency:   11.5637922232
  - # 14
    frequency:   13.8168647879
  - # 15
    frequency:   13.8168647879
  - # 16
    frequency:   15.2212357080
  - # 17
    frequency:   15.2212357080
  - # 18
    frequency:   16.3229924539
  - # 19
    frequency:   19.3566439834
  - # 20
    frequency:   31.8213384161
  - # 21
    frequency:   67.6883747097

- q-position: [    0.0050505,    0.0000000,    0.0000000 ]
  distance:    0.0018739
  band:
  - # 1
    frequency:   -1.7057142173
  - # 2
    frequency:   -1.7032157375
  - # 3
    frequency:    0.0029354507
  - # 4
    frequency:    0.0642759747
  - # 5
    frequency:    0.1056159068
  - # 6
    frequency:    3.8762870675
  - # 7
    frequency:    3.8784878104
  - # 8
    frequency:    5.8926041819
  - # 9
    frequency:    5.8939310800
  - # 10
    frequency:    7.1299905856
  - # 11
    frequency:    9.2257401131
  - # 12
    frequency:    9.2264872694
  - # 13
    frequency:   11.5627355699
  - # 14
    frequency:   13.8169181637
  - # 15
    frequency:   13.8172052004
  - # 16
    frequency:   15.2194454972
  - # 17
    frequency:   15.2208376078
  - # 18
    frequency:   16.3225488561
  - # 19
    frequency:   19.3560816355
  - # 20
    frequency:   31.8209071895
  - # 21
    frequency:   67.6881544053

- q-position: [    0.0101010,    0.0000000,    0.0000000 ]
  distance:    0.0037478
  band:
  - # 1
    frequency:   -1.7022633227
  - # 2
    frequency:   -1.6922529558
  - # 3
    frequency:    0.0117466094
  - # 4
    frequency:    0.1283007588
  - # 5
    frequency:    0.2112503240
  - # 6
    frequency:    3.8757427518
  - # 7
    frequency:    3.8845128630
  - # 8
    frequency:    5.8925134852
  - # 9
    frequency:    5.8978083574
  - # 10
    frequency:    7.1292389827
  - # 11
    frequency:    9.2168648273
  - # 12
    frequency:    9.2198610095
  - # 13
    frequency:   11.5595686300
  - # 14
    frequency:   13.8170782081
  - # 15
    frequency:   13.8182252172
  - # 16
    frequency:   15.2140950631
  - # 17
    frequency:   15.2196446282
  - # 18
    frequency:   16.3212108458
  - # 19
    frequency:   19.3543960035
  - # 20
    frequency:   31.8196145790
  - # 21
    frequency:   67.6874939145

- q-position: [    0.0151515,    0.0000000,    0.0000000 ]
  distance:    0.0056217
  band:
  - # 1
    frequency:   -1.6965195553
  - # 2
    frequency:   -1.6739350792
  - # 3
    frequency:    0.0264511426
  - # 4
    frequency:    0.1918205573
  - # 5
    frequency:    0.3169158229
  - # 6
    frequency:    3.8748574908
  - # 7
    frequency:    3.8944679908
  - # 8
    frequency:    5.8923564339
  - # 9
    frequency:    5.9042220960
  - # 10
    frequency:    7.1280167776
  - # 11
    frequency:    9.2020887694
  - # 12
    frequency:    9.2088581564
  - # 13
    frequency:   11.5543004493
  - # 14
    frequency:   13.8173446722
  - # 15
    frequency:   13.8199211855
  - # 16
    frequency:   15.2052443546
  - # 17
    frequency:   15.2176607228
  - # 18
    frequency:   16.3189572748
  - # 19
    frequency:   19.3515913191
  - # 20
    frequency:   31.8174637889
  - # 21
    frequency:   67.6863945030

- q-position: [    0.0202020,    0.0000000,    0.0000000 ]
  distance:    0.0074956
  band:
  - # 1
    frequency:   -1.6884952794
  - # 2
    frequency:   -1.6481950895
  - # 3
    frequency:    0.0470875296
  - # 4
    frequency:    0.2545764327
  - # 5
    frequency:    0.4226129616
  - # 6
    frequency:    3.8736645333
  - # 7
    frequency:    3.9082269372
  - # 8
    frequency:    5.8921244457
  - # 9
    frequency:    5.9130996156
  - # 10
    frequency:    7.1263702012
  - # 11
    frequency:    9.1814373761
  - # 12
    frequency:    9.1935401131
  - # 13
    frequency:   11.5469460555
  - # 14
    frequency:   13.8177171392
  - # 15
    frequency:   13.8222870467
  - # 16
    frequency:   15.1929911892
  - # 17
    frequency:   15.2148924491
  - # 18
    frequency:   16.3157545127
  - # 19
    frequency:   19.3476746219
  - # 20
    frequency:   31.8144601462
  - # 21
    frequency:   67.6848582762

- q-position: [    0.0252525,    0.0000000,    0.0000000 ]
  distance:    0.0093696
  band:
  - # 1
    frequency:   -1.6782094379
  - # 2
    frequency:   -1.6149457870
  - # 3
    frequency:    0.0737291046
  - # 4
    frequency:    0.3163019129
  - # 5
    frequency:    0.5283239787
  - # 6
    frequency:    3.8722111268
  - # 7
    frequency:    3.9256200068
  - # 8
    frequency:    5.8918060123
  - # 9
    frequency:    5.9243389822
  - # 10
    frequency:    7.1243650251
  - # 11
    frequency:    9.1549488974
  - # 12
    frequency:    9.1739928990
  - # 13
    frequency:   11.5375263863
  - # 14
    frequency:   13.8181950231
  - # 15
    frequency:   13.8253143799
  - # 16
    frequency:   15.1774683052
  - # 17
    frequency:   15.2113489208
  - # 18
    frequency:   16.3115586825
  - # 19
    frequency:   19.3426557394
  - # 20
    frequency:   31.8106110802
  - # 21
    frequency:   67.6828881730

- q-position: [    0.0303030,    0.0000000,    0.0000000 ]
  distance:    0.0112435
  band:
  - # 1
    frequency:   -1.6656893722
  - # 2
    frequency:   -1.5740889860
  - # 3
    frequency:    0.1065042311
  - # 4
    frequency:    0.3767208644
  - # 5
    frequency:    0.6340061515
  - # 6
    frequency:    3.8705592118
  - # 7
    frequency:    3.9464404764
  - # 8
    frequency:    5.8913872065
  - # 9
    frequency:    5.9378088448
  - # 10
    frequency:    7.1220875715
  - # 11
    frequency:    9.1226770829
  - # 12
    frequency:    9.1503271787
  - # 13
    frequency:   11.5260681873
  - # 14
    frequency:   13.8187775654
  - # 15
    frequency:   13.8289924553
  - # 16
    frequency:   15.1588395935
  - # 17
    frequency:   15.2070417451
  - # 18
    frequency:   16.3063184474
  - # 19
    frequency:   19.3365472576
  - # 20
    frequency:   31.8059260945
  - # 21
    frequency:   67.6804879572

- q-position: [    0.0353535,    0.0000000,    0.0000000 ]
  distance:    0.0131174
  band:
  - # 1
    frequency:   -1.6509734510
  - # 2
    frequency:   -1.5255320919
  - # 3
    frequency:    0.1456230781
  - # 4
    frequency:    0.4355458024
  - # 5
    frequency:    0.7395847879
  - # 6
    frequency:    3.8687862976
  - # 7
    frequency:    3.9704520241
  - # 8
    frequency:    5.8908523370
  - # 9
    frequency:    5.9533482700
  - # 10
    frequency:    7.1196459406
  - # 11
    frequency:    9.0846947015
  - # 12
    frequency:    9.1226782619
  - # 13
    frequency:   11.5126038829
  - # 14
    frequency:   13.8194638317
  - # 15
    frequency:   13.8333082963
  - # 16
    frequency:   15.1372957917
  - # 17
    frequency:   15.2019849433
  - # 18
    frequency:   16.2999780831
  - # 19
    frequency:   19.3293644801
  - # 20
    frequency:   31.8004167310
  - # 21
    frequency:   67.6776622063

- q-position: [    0.0404040,    0.0000000,    0.0000000 ]
  distance:    0.0149913
  band:
  - # 1
    frequency:   -1.6341147710
  - # 2
    frequency:   -1.4692178628
  - # 3
    frequency:    0.1914107450
  - # 4
    frequency:    0.4924769028
  - # 5
    frequency:    0.8449459296
  - # 6
    frequency:    3.8669864969
  - # 7
    frequency:    3.9973967422
  - # 8
    frequency:    5.8901847496
  - # 9
    frequency:    5.9707666297
  - # 10
    frequency:    7.1171713774
  - # 11
    frequency:    9.0410979411
  - # 12
    frequency:    9.0912060453
  - # 13
    frequency:   11.4971714177
  - # 14
    frequency:   13.8202527069
  - # 15
    frequency:   13.8382467421
  - # 16
    frequency:   15.1130499234
  - # 17
    frequency:   15.1961948608
  - # 18
    frequency:   16.2924805751
  - # 19
    frequency:   19.3211253762
  - # 20
    frequency:   31.7940965263
  - # 21
    frequency:   67.6744162983

- q-position: [    0.0454545,    0.0000000,    0.0000000 ]
  distance:    0.0168652
  band:
  - # 1
    frequency:   -1.6151863029
  - # 2
    frequency:   -1.4051774569
  - # 3
    frequency:    0.2443438543
  - # 4
    frequency:    0.5472021068
  - # 5
    frequency:    0.9499290427
  - # 6
    frequency:    3.8652716760
  - # 7
    frequency:    4.0270033567
  - # 8
    frequency:    5.8893677766
  - # 9
    frequency:    5.9898436484
  - # 10
    frequency:    7.1148196432
  - # 11
    frequency:    8.9920117413
  - # 12
    frequency:    9.0560948609
  - # 13
    frequency:   11.4798140716
  - # 14
    frequency:   13.8211428904
  - # 15
    frequency:   13.8437905047
  - # 16
    frequency:   15.0863327290
  - # 17
    frequency:   15.1896900663
  - # 18
    frequency:   16.2837705248
  - # 19
    frequency:   19.3118505142
  - # 20
    frequency:   31.7869809608
  - # 21
    frequency:   67.6707563959

- q-position: [    0.0505051,    0.0000000,    0.0000000 ]
  distance:    0.0187391
  band:
  - # 1
    frequency:   -1.5942880115
  - # 2
    frequency:   -1.3336228509
  - # 3
    frequency:    0.3050800780
  - # 4
    frequency:    0.5993988963
  - # 5
    frequency:    1.0543202839
  - # 6
    frequency:    3.8637726497
  - # 7
    frequency:    4.0589953598
  - # 8
    frequency:    5.8883858332
  - # 9
    frequency:    6.0103297820
  - # 10
    frequency:    7.1127721844
  - # 11
    frequency:    8.9375961157
  - # 12
    frequency:    9.0175531883
  - # 13
    frequency:   11.4605802483
  - # 14
    frequency:   13.8221328901
  - # 15
    frequency:   13.8499202124
  - # 16
    frequency:   15.0573882831
  - # 17
    frequency:   15.1824912447
  - # 18
    frequency:   16.2737967026
  - # 19
    frequency:   19.3015629794
  - # 20
    frequency:   31.7790874004
  - # 21
    frequency:   67.6666894283

- q-position: [    0.0555556,    0.0000000,    0.0000000 ]
  distance:    0.0206130
  band:
  - # 1
    frequency:   -1.5715566816
  - # 2
    frequency:   -1.2550991209
  - # 3
    frequency:    0.3744513520
  - # 4
    frequency:    0.6487385752
  - # 5
    frequency:    1.1578473911
  - # 6
    frequency:    3.8626403130
  - # 7
    frequency:    4.0930988754
  - # 8
    frequency:    5.8872256584
  - # 9
    frequency:    6.0319471980
  - # 10
    frequency:    7.1112367813
  - # 11
    frequency:    8.8780535174
  - # 12
    frequency:    8.9758131825
  - # 13
    frequency:   11.4395232398
  - # 14
    frequency:   13.8232210161
  - # 15
    frequency:   13.8566144298
  - # 16
    frequency:   15.0264699362
  - # 17
    frequency:   15.1746210859
  - # 18
    frequency:   16.2625141541
  - # 19
    frequency:   19.2902882754
  - # 20
    frequency:   31.7704350319
  - # 21
    frequency:   67.6622230715

- q-position: [    0.0606061,    0.0000000,    0.0000000 ]
  distance:    0.0224869
  band:
  - # 1
    frequency:   -1.5471794474
  - # 2
    frequency:   -1.1707057564
  - # 3
    frequency:    0.4533544612
  - # 4
    frequency:    0.6948942458
  - # 5
    frequency:    1.2601778878
  - # 6
    frequency:    3.8620465559
  - # 7
    frequency:    4.1290501701
  - # 8
    frequency:    5.8858776958
  - # 9
    frequency:    6.0543917530
  - # 10
    frequency:    7.1104472210
  - # 11
    frequency:    8.8136372929
  - # 12
    frequency:    8.9311299631
  - # 13
    frequency:   11.4167009683
  - # 14
    frequency:   13.8244053739
  - # 15
    frequency:   13.8638496468
  - # 16
    frequency:   14.9938366679
  - # 17
    frequency:   15.1661041722
  - # 18
    frequency:   16.2498858202
  - # 19
    frequency:   19.2780542070
  - # 20
    frequency:   31.7610447916
  - # 21
    frequency:   67.6573657256

- q-position: [    0.0656566,    0.0000000,    0.0000000 ]
  distance:    0.0243609
  band:
  - # 1
    frequency:   -1.5214123465
  - # 2
    frequency:   -1.0823324500
  - # 3
    frequency:    0.5424264819
  - # 4
    frequency:    0.7375541267
  - # 5
    frequency:    1.3609231403
  - # 6
    frequency:    3.8621847557
  - # 7
    frequency:    4.1666027990
  - # 8
    frequency:    5.8843376026
  - # 9
    frequency:    6.0773365077
  - # 10
    frequency:    7.1106613665
  - # 11
    frequency:    8.7446612527
  - # 12
    frequency:    8.8837806048
  - # 13
    frequency:   11.3921757106
  - # 14
    frequency:   13.8256838573
  - # 15
    frequency:   13.8716002216
  - # 16
    frequency:   14.9597498974
  - # 17
    frequency:   15.1569668672
  - # 18
    frequency:   16.2358836817
  - # 19
    frequency:   19.2648907431
  - # 20
    frequency:   31.7509392872
  - # 21
    frequency:   67.6521264903

- q-position: [    0.0707071,    0.0000000,    0.0000000 ]
  distance:    0.0262348
  band:
  - # 1
    frequency:   -1.4946055507
  - # 2
    frequency:   -0.9926993016
  - # 3
    frequency:    0.6414175126
  - # 4
    frequency:    0.7764424131
  - # 5
    frequency:    1.4596518806
  - # 6
    frequency:    3.8632695864
  - # 7
    frequency:    4.2055343975
  - # 8
    frequency:    5.8826078710
  - # 9
    frequency:    6.1004374588
  - # 10
    frequency:    7.1121568237
  - # 11
    frequency:    8.6715103513
  - # 12
    frequency:    8.8340627715
  - # 13
    frequency:   11.3660138058
  - # 14
    frequency:   13.8270541415
  - # 15
    frequency:   13.8798382680
  - # 16
    frequency:   14.9244707714
  - # 17
    frequency:   15.1472372078
  - # 18
    frequency:   16.2204894675
  - # 19
    frequency:   19.2508298599
  - # 20
    frequency:   31.7401427155
  - # 21
    frequency:   67.6465151395

- q-position: [    0.0757576,    0.0000000,    0.0000000 ]
  distance:    0.0281087
  band:
  - # 1
    frequency:   -1.4672371349
  - # 2
    frequency:   -0.9048531156
  - # 3
    frequency:    0.7484394623
  - # 4
    frequency:    0.8113504400
  - # 5
    frequency:    1.5559180737
  - # 6
    frequency:    3.8655358446
  - # 7
    frequency:    4.2456530802
  - # 8
    frequency:    5.8806995352
  - # 9
    frequency:    6.1233422457
  - # 10
    frequency:    7.1152232593
  - # 11
    frequency:    8.5946524296
  - # 12
    frequency:    8.7822929336
  - # 13
    frequency:   11.3382853541
  - # 14
    frequency:   13.8285136759
  - # 15
    frequency:   13.8885334692
  - # 16
    frequency:   14.8882579370
  - # 17
    frequency:   15.1369448024
  - # 18
    frequency:   16.2036949862
  - # 19
    frequency:   19.2359053637
  - # 20
    frequency:   31.7286807727
  - # 21
    frequency:   67.6405420921

- q-position: [    0.0808081,    0.0000000,    0.0000000 ]
  distance:    0.0299826
  band:
  - # 1
    frequency:   -1.4399569906
  - # 2
    frequency:   -0.8210616641
  - # 3
    frequency:    0.8421812216
  - # 4
    frequency:    0.8597028652
  - # 5
    frequency:    1.6493091446
  - # 6
    frequency:    3.8692359696
  - # 7
    frequency:    4.2868032708
  - # 8
    frequency:    5.8786339258
  - # 9
    frequency:    6.1457025236
  - # 10
    frequency:    7.1201503872
  - # 11
    frequency:    8.5146509120
  - # 12
    frequency:    8.7288041187
  - # 13
    frequency:   11.3090639092
  - # 14
    frequency:   13.8300596781
  - # 15
    frequency:   13.8976527994
  - # 16
    frequency:   14.8513658012
  - # 17
    frequency:   15.1261207349
  - # 18
    frequency:   16.1855021480
  - # 19
    frequency:   19.2201526926
  - # 20
    frequency:   31.7165805620
  - # 21
    frequency:   67.6342183829

- q-position: [    0.0858586,    0.0000000,    0.0000000 ]
  distance:    0.0318565
  band:
  - # 1
    frequency:   -1.4136410460
  - # 2
    frequency:   -0.7418213337
  - # 3
    frequency:    0.8690098794
  - # 4
    frequency:    0.9701988714
  - # 5
    frequency:    1.7395205278
  - # 6
    frequency:    3.8746359648
  - # 7
    frequency:    4.3288705380
  - # 8
    frequency:    5.8764444217
  - # 9
    frequency:    6.1671903868
  - # 10
    frequency:    7.1272107632
  - # 11
    frequency:    8.4321783083
  - # 12
    frequency:    8.6739431558
  - # 13
    frequency:   11.2784261716
  - # 14
    frequency:   13.8316891281
  - # 15
    frequency:   13.9071601303
  - # 16
    frequency:   14.8140432838
  - # 17
    frequency:   15.1147974773
  - # 18
    frequency:   16.1659227425
  - # 19
    frequency:   19.2036087000
  - # 20
    frequency:   31.7038704949
  - # 21
    frequency:   67.6275556308

- q-position: [    0.0909091,    0.0000000,    0.0000000 ]
  distance:    0.0337304
  band:
  - # 1
    frequency:   -1.3894520125
  - # 2
    frequency:   -0.6658103895
  - # 3
    frequency:    0.8921597792
  - # 4
    frequency:    1.0747927478
  - # 5
    frequency:    1.8264584488
  - # 6
    frequency:    3.8820095160
  - # 7
    frequency:    4.3717846527
  - # 8
    frequency:    5.8741781313
  - # 9
    frequency:    6.1875185925
  - # 10
    frequency:    7.1366368520
  - # 11
    frequency:    8.3480303644
  - # 12
    frequency:    8.6180673959
  - # 13
    frequency:   11.2464516874
  - # 14
    frequency:   13.8333987644
  - # 15
    frequency:   13.9170156919
  - # 16
    frequency:   14.7765330768
  - # 17
    frequency:   15.1030088103
  - # 18
    frequency:   16.1449780339
  - # 19
    frequency:   19.1863114179
  - # 20
    frequency:   31.6905801897
  - # 21
    frequency:   67.6205660060

- q-position: [    0.0959596,    0.0000000,    0.0000000 ]
  distance:    0.0356043
  band:
  - # 1
    frequency:   -1.3688945190
  - # 2
    frequency:   -0.5906558987
  - # 3
    frequency:    0.9122872812
  - # 4
    frequency:    1.1688169032
  - # 5
    frequency:    1.9103594601
  - # 6
    frequency:    3.8916302668
  - # 7
    frequency:    4.4155196653
  - # 8
    frequency:    5.8718974224
  - # 9
    frequency:    6.2064634006
  - # 10
    frequency:    7.1485922443
  - # 11
    frequency:    8.2631408458
  - # 12
    frequency:    8.5615409170
  - # 13
    frequency:   11.2132225604
  - # 14
    frequency:   13.8351850815
  - # 15
    frequency:   13.9271753498
  - # 16
    frequency:   14.7390714326
  - # 17
    frequency:   15.0907897518
  - # 18
    frequency:   16.1226982267
  - # 19
    frequency:   19.1682998054
  - # 20
    frequency:   31.6767403662
  - # 21
    frequency:   67.6132621956

- q-position: [    0.1010101,    0.0000000,    0.0000000 ]
  distance:    0.0374782
  band:
  - # 1
    frequency:   -1.3538382630
  - # 2
    frequency:   -0.5138781587
  - # 3
    frequency:    0.9304545555
  - # 4
    frequency:    1.2480237792
  - # 5
    frequency:    1.9918871584
  - # 6
    frequency:    3.9037624516
  - # 7
    frequency:    4.4600894124
  - # 8
    frequency:    5.8696812056
  - # 9
    frequency:    6.2238877873
  - # 10
    frequency:    7.1631370939
  - # 11
    frequency:    8.1785973652
  - # 12
    frequency:    8.5047302587
  - # 13
    frequency:   11.1788231806
  - # 14
    frequency:   13.8370443295
  - # 15
    frequency:   13.9375896523
  - # 16
    frequency:   14.7018885157
  - # 17
    frequency:   15.0781764942
  - # 18
    frequency:   16.0991218450
  - # 19
    frequency:   19.1496134811
  - # 20
    frequency:   31.6623827371
  - # 21
    frequency:   67.6056573675

- q-position: [    0.1060606,    0.0000000,    0.0000000 ]
  distance:    0.0393521
  band:
  - # 1
    frequency:   -1.3464652721
  - # 2
    frequency:   -0.4339934518
  - # 3
    frequency:    0.9481504338
  - # 4
    frequency:    1.3083949977
  - # 5
    frequency:    2.0721309914
  - # 6
    frequency:    3.9186503717
  - # 7
    frequency:    4.5055367373
  - # 8
    frequency:    5.8676258667
  - # 9
    frequency:    6.2397619681
  - # 10
    frequency:    7.1801873106
  - # 11
    frequency:    8.0956596362
  - # 12
    frequency:    8.4479997727
  - # 13
    frequency:   11.1433399768
  - # 14
    frequency:   13.8389725169
  - # 15
    frequency:   13.9482025872
  - # 16
    frequency:   14.6652093599
  - # 17
    frequency:   15.0652063478
  - # 18
    frequency:   16.0742950633
  - # 19
    frequency:   19.1302924443
  - # 20
    frequency:   31.6475398979
  - # 21
    frequency:   67.5977651345

- q-position: [    0.1111111,    0.0000000,    0.0000000 ]
  distance:    0.0412261
  band:
  - # 1
    frequency:   -1.3490895615
  - # 2
    frequency:   -0.3531373134
  - # 3
    frequency:    0.9672038491
  - # 4
    frequency:    1.3463096640
  - # 5
    frequency:    2.1524301507
  - # 6
    frequency:    3.9365074758
  - # 7
    frequency:    4.5519150934
  - # 8
    frequency:    5.8658457430
  - # 9
    frequency:    6.2541779572
  - # 10
    frequency:    7.1994652839
  - # 11
    frequency:    8.0157832760
  - # 12
    frequency:    8.3917067184
  - # 13
    frequency:   11.1068611982
  - # 14
    frequency:   13.8409654168
  - # 15
    frequency:   13.9589499797
  - # 16
    frequency:   14.6292554852
  - # 17
    frequency:   15.0519176909
  - # 18
    frequency:   16.0482710144
  - # 19
    frequency:   19.1103767879
  - # 20
    frequency:   31.6322452137
  - # 21
    frequency:   67.5895995156

- q-position: [    0.1161616,    0.0000000,    0.0000000 ]
  distance:    0.0431000
  band:
  - # 1
    frequency:   -1.3638251854
  - # 2
    frequency:   -0.2860723034
  - # 3
    frequency:    0.9895479855
  - # 4
    frequency:    1.3594160894
  - # 5
    frequency:    2.2340354246
  - # 6
    frequency:    3.9575060092
  - # 7
    frequency:    4.5992623746
  - # 8
    frequency:    5.8644730443
  - # 9
    frequency:    6.2673554991
  - # 10
    frequency:    7.2204372008
  - # 11
    frequency:    7.9406545479
  - # 12
    frequency:    8.3361962783
  - # 13
    frequency:   11.0694767281
  - # 14
    frequency:   13.8430185769
  - # 15
    frequency:   13.9697574540
  - # 16
    frequency:   14.5942472264
  - # 17
    frequency:   15.0383499234
  - # 18
    frequency:   16.0211090985
  - # 19
    frequency:   19.0899064046
  - # 20
    frequency:   31.6165327050
  - # 21
    frequency:   67.5811748981

- q-position: [    0.1212121,    0.0000000,    0.0000000 ]
  distance:    0.0449739
  band:
  - # 1
    frequency:   -1.3921599656
  - # 2
    frequency:   -0.2801905300
  - # 3
    frequency:    1.0168607801
  - # 4
    frequency:    1.3485624896
  - # 5
    frequency:    2.3177709590
  - # 6
    frequency:    3.9817682483
  - # 7
    frequency:    4.6475688016
  - # 8
    frequency:    5.8636571394
  - # 9
    frequency:    6.2796379611
  - # 10
    frequency:    7.2422312638
  - # 11
    frequency:    7.8722416904
  - # 12
    frequency:    8.2817967036
  - # 13
    frequency:   11.0312779356
  - # 14
    frequency:   13.8451273342
  - # 15
    frequency:   13.9805378906
  - # 16
    frequency:   14.5604068185
  - # 17
    frequency:   15.0245434245
  - # 18
    frequency:   15.9928743080
  - # 19
    frequency:   19.0689206920
  - # 20
    frequency:   31.6004369334
  - # 21
    frequency:   67.5725059977

- q-position: [    0.1262626,    0.0000000,    0.0000000 ]
  distance:    0.0468478
  band:
  - # 1
    frequency:   -1.4345908440
  - # 2
    frequency:   -0.3876834384
  - # 3
    frequency:    1.0502074908
  - # 4
    frequency:    1.3210781675
  - # 5
    frequency:    2.4038932348
  - # 6
    frequency:    4.0093602061
  - # 7
    frequency:    4.6967431108
  - # 8
    frequency:    5.8635631592
  - # 9
    frequency:    6.2914781960
  - # 10
    frequency:    7.2635430545
  - # 11
    frequency:    7.8128565957
  - # 12
    frequency:    8.2288148233
  - # 13
    frequency:   10.9923575689
  - # 14
    frequency:   13.8472868361
  - # 15
    frequency:   13.9911883520
  - # 16
    frequency:   14.5279622314
  - # 17
    frequency:   15.0105395096
  - # 18
    frequency:   15.9636365838
  - # 19
    frequency:   19.0474582597
  - # 20
    frequency:   31.5839928853
  - # 21
    frequency:   67.5636078188

- q-position: [    0.1313131,    0.0000000,    0.0000000 ]
  distance:    0.0487217
  band:
  - # 1
    frequency:   -1.4904950588
  - # 2
    frequency:   -0.5932517007
  - # 3
    frequency:    1.0898533060
  - # 4
    frequency:    1.2932863497
  - # 5
    frequency:    2.4921876105
  - # 6
    frequency:    4.0402883965
  - # 7
    frequency:    4.7465833043
  - # 8
    frequency:    5.8643699068
  - # 9
    frequency:    6.3034154922
  - # 10
    frequency:    7.2825868272
  - # 11
    frequency:    7.7651690419
  - # 12
    frequency:    8.1775321587
  - # 13
    frequency:   10.9528096929
  - # 14
    frequency:   13.8494920669
  - # 15
    frequency:   14.0015865650
  - # 16
    frequency:   14.4971516302
  - # 17
    frequency:   14.9963803871
  - # 18
    frequency:   15.9334702104
  - # 19
    frequency:   19.0255566414
  - # 20
    frequency:   31.5672358570
  - # 21
    frequency:   67.5544956140

- q-position: [    0.1363636,    0.0000000,    0.0000000 ]
  distance:    0.0505956
  band:
  - # 1
    frequency:   -1.5582946675
  - # 2
    frequency:   -0.8589412018
  - # 3
    frequency:    1.1353278930
  - # 4
    frequency:    1.2844609046
  - # 5
    frequency:    2.5821772599
  - # 6
    frequency:    4.0744998309
  - # 7
    frequency:    4.7967588472
  - # 8
    frequency:    5.8662671089
  - # 9
    frequency:    6.3160453348
  - # 10
    frequency:    7.2972787477
  - # 11
    frequency:    7.7319901193
  - # 12
    frequency:    8.1282018680
  - # 13
    frequency:   10.9127296768
  - # 14
    frequency:   13.8517378816
  - # 15
    frequency:   14.0115873044
  - # 16
    frequency:   14.4682280753
  - # 17
    frequency:   14.9821091118
  - # 18
    frequency:   15.9024532608
  - # 19
    frequency:   19.0032520181
  - # 20
    frequency:   31.5502013397
  - # 21
    frequency:   67.5451848436

- q-position: [    0.1414141,    0.0000000,    0.0000000 ]
  distance:    0.0524695
  band:
  - # 1
    frequency:   -1.6358105199
  - # 2
    frequency:   -1.1531017853
  - # 3
    frequency:    1.1856742853
  - # 4
    frequency:    1.3032841508
  - # 5
    frequency:    2.6733089904
  - # 6
    frequency:    4.1118850061
  - # 7
    frequency:    4.8468098689
  - # 8
    frequency:    5.8694520859
  - # 9
    frequency:    6.3299839475
  - # 10
    frequency:    7.3059369538
  - # 11
    frequency:    7.7155440968
  - # 12
    frequency:    8.0810467092
  - # 13
    frequency:   10.8722142351
  - # 14
    frequency:   13.8540190480
  - # 15
    frequency:   14.0210195282
  - # 16
    frequency:   14.4414635665
  - # 17
    frequency:   14.9677695324
  - # 18
    frequency:   15.8706670982
  - # 19
    frequency:   18.9805789536
  - # 20
    frequency:   31.5329249058
  - # 21
    frequency:   67.5356911344

- q-position: [    0.1464646,    0.0000000,    0.0000000 ]
  distance:    0.0543434
  band:
  - # 1
    frequency:   -1.7206362543
  - # 2
    frequency:   -1.4548636137
  - # 3
    frequency:    1.2397379005
  - # 4
    frequency:    1.3461704960
  - # 5
    frequency:    2.7650633890
  - # 6
    frequency:    4.1522833077
  - # 7
    frequency:    4.8961658967
  - # 8
    frequency:    5.8741259523
  - # 9
    frequency:    6.3458297643
  - # 10
    frequency:    7.3083858761
  - # 11
    frequency:    7.7163456774
  - # 12
    frequency:    8.0362581533
  - # 13
    frequency:   10.8313615277
  - # 14
    frequency:   13.8563302972
  - # 15
    frequency:   14.0296859900
  - # 16
    frequency:   14.4171506588
  - # 17
    frequency:   14.9534062323
  - # 18
    frequency:   15.8381959419
  - # 19
    frequency:   18.9575701483
  - # 20
    frequency:   31.5154420964
  - # 21
    frequency:   67.5260302391

- q-position: [    0.1515152,    0.0000000,    0.0000000 ]
  distance:    0.0562174
  band:
  - # 1
    frequency:   -1.8104163481
  - # 2
    frequency:   -1.7539377697
  - # 3
    frequency:    1.2963871250
  - # 4
    frequency:    1.4060630937
  - # 5
    frequency:    2.8569997145
  - # 6
    frequency:    4.1954900675
  - # 7
    frequency:    4.9441828559
  - # 8
    frequency:    5.8804894755
  - # 9
    frequency:    6.3641243013
  - # 10
    frequency:    7.3064405206
  - # 11
    frequency:    7.7327099059
  - # 12
    frequency:    7.9939967089
  - # 13
    frequency:   10.7902713248
  - # 14
    frequency:   13.8586663838
  - # 15
    frequency:   14.0373683230
  - # 16
    frequency:   14.3955986052
  - # 17
    frequency:   14.9390644609
  - # 18
    frequency:   15.8051265068
  - # 19
    frequency:   18.9342562146
  - # 20
    frequency:   31.4977883111
  - # 21
    frequency:   67.5162179955