nqpoint: 300    
npath: 3      
segment_nqpoint:
- 100
- 100
- 100
labels:
- [ 'G', 'M' ]
- [ 'M', 'K' ]
- [ 'K', 'G' ]
reciprocal_lattice:
- [   0.32246815,   0.18617707,   0.00000000 ] # a*
- [   0.00000000,   0.37235414,   0.00000000 ] # b*
- [   0.00000000,   0.00000000,   0.03297943 ] # c*
natom: 8      
lattice:
- [     3.101081488398858,     0.000000000000000,     0.000000000000000 ] # a
- [    -1.550540744199428,     2.685615348158991,     0.000000000000000 ] # b
- [     0.000000000000000,     0.000000000000000,    30.321935230270924 ] # c
points:
- symbol: C # 1
  coordinates: [  0.000000000000000,  0.000000000000000,  0.460250017383632 ]
  mass: 12.010700
- symbol: C # 2
  coordinates: [  0.666666984744047,  0.333332985985144,  0.335981747290910 ]
  mass: 12.010700
- symbol: Cl # 3
  coordinates: [  0.333332985432215,  0.666666983183674,  0.703185171670206 ]
  mass: 35.453000
- symbol: N # 4
  coordinates: [  0.666666984744047,  0.333332985985144,  0.296814828329794 ]
  mass: 14.006700
- symbol: O # 5
  coordinates: [  0.333332985432215,  0.666666983183674,  0.533908057516230 ]
  mass: 15.999400
- symbol: O # 6
  coordinates: [  0.666666984744047,  0.333332985985144,  0.380099183182549 ]
  mass: 15.999400
- symbol: Ti # 7
  coordinates: [  0.333332985432215,  0.666666983183674,  0.423266794235004 ]
  mass: 47.867000
- symbol: Ti # 8
  coordinates: [  0.666666984744047,  0.333332985985144,  0.504565766783223 ]
  mass: 47.867000

phonon:
- q-position: [    0.0000000,    0.0000000,    0.0000000 ]
  distance:    0.0000000
  band:
  - # 1
    frequency:   -1.1563462276
  - # 2
    frequency:   -1.1563462276
  - # 3
    frequency:   -0.9513397907
  - # 4
    frequency:   -0.9513397907
  - # 5
    frequency:   -0.0000021402
  - # 6
    frequency:    0.0000004285
  - # 7
    frequency:    0.0000011945
  - # 8
    frequency:    0.6517942991
  - # 9
    frequency:    4.0043255100
  - # 10
    frequency:    4.0043255100
  - # 11
    frequency:    6.6148124908
  - # 12
    frequency:    6.6148124908
  - # 13
    frequency:    7.1016804544
  - # 14
    frequency:    9.4689204828
  - # 15
    frequency:    9.4689204828
  - # 16
    frequency:   11.6038217213
  - # 17
    frequency:   13.7499329511
  - # 18
    frequency:   13.7499329511
  - # 19
    frequency:   15.1112564707
  - # 20
    frequency:   15.1112564707
  - # 21
    frequency:   16.0922296137
  - # 22
    frequency:   19.4793831153
  - # 23
    frequency:   31.7100330824
  - # 24
    frequency:   67.6423065773

- q-position: [    0.0050505,    0.0000000,    0.0000000 ]
  distance:    0.0018806
  band:
  - # 1
    frequency:   -1.1651032675
  - # 2
    frequency:   -1.1604818575
  - # 3
    frequency:   -0.9492902046
  - # 4
    frequency:   -0.9450633371
  - # 5
    frequency:   -0.0102072161
  - # 6
    frequency:    0.0625974890
  - # 7
    frequency:    0.0627725599
  - # 8
    frequency:    0.6541242197
  - # 9
    frequency:    4.0042189587
  - # 10
    frequency:    4.0065748650
  - # 11
    frequency:    6.6143280942
  - # 12
    frequency:    6.6149975879
  - # 13
    frequency:    7.1019304381
  - # 14
    frequency:    9.4653902582
  - # 15
    frequency:    9.4664184024
  - # 16
    frequency:   11.6028380052
  - # 17
    frequency:   13.7500004281
  - # 18
    frequency:   13.7502632370
  - # 19
    frequency:   15.1092976925
  - # 20
    frequency:   15.1109485759
  - # 21
    frequency:   16.0925159003
  - # 22
    frequency:   19.4793425818
  - # 23
    frequency:   31.7096096688
  - # 24
    frequency:   67.6420878773

- q-position: [    0.0101010,    0.0000000,    0.0000000 ]
  distance:    0.0037612
  band:
  - # 1
    frequency:   -1.1914167434
  - # 2
    frequency:   -1.1728792600
  - # 3
    frequency:   -0.9431375163
  - # 4
    frequency:   -0.9259086281
  - # 5
    frequency:   -0.0368242010
  - # 6
    frequency:    0.1262706504
  - # 7
    frequency:    0.1328620823
  - # 8
    frequency:    0.6610346343
  - # 9
    frequency:    4.0039050979
  - # 10
    frequency:    4.0132905541
  - # 11
    frequency:    6.6128749061
  - # 12
    frequency:    6.6155257043
  - # 13
    frequency:    7.1027054457
  - # 14
    frequency:    9.4548128508
  - # 15
    frequency:    9.4589258376
  - # 16
    frequency:   11.5998893541
  - # 17
    frequency:   13.7502026585
  - # 18
    frequency:   13.7512526122
  - # 19
    frequency:   15.1034621187
  - # 20
    frequency:   15.1100256516
  - # 21
    frequency:   16.0933479713
  - # 22
    frequency:   19.4792169518
  - # 23
    frequency:   31.7083404439
  - # 24
    frequency:   67.6414321908

- q-position: [    0.0151515,    0.0000000,    0.0000000 ]
  distance:    0.0056417
  band:
  - # 1
    frequency:   -1.2350374752
  - # 2
    frequency:   -1.1934856227
  - # 3
    frequency:   -0.9328619254
  - # 4
    frequency:   -0.8930640735
  - # 5
    frequency:   -0.0722387238
  - # 6
    frequency:    0.1910078079
  - # 7
    frequency:    0.2124946829
  - # 8
    frequency:    0.6723921729
  - # 9
    frequency:    4.0034013803
  - # 10
    frequency:    4.0243768690
  - # 11
    frequency:    6.6104529601
  - # 12
    frequency:    6.6163160605
  - # 13
    frequency:    7.1040799735
  - # 14
    frequency:    9.4372285571
  - # 15
    frequency:    9.4464838185
  - # 16
    frequency:   11.5949832509
  - # 17
    frequency:   13.7505390430
  - # 18
    frequency:   13.7528966346
  - # 19
    frequency:   15.0938692400
  - # 20
    frequency:   15.1084899886
  - # 21
    frequency:   16.0946479507
  - # 22
    frequency:   19.4789942321
  - # 23
    frequency:   31.7062284526
  - # 24
    frequency:   67.6403407565

- q-position: [    0.0202020,    0.0000000,    0.0000000 ]
  distance:    0.0075223
  band:
  - # 1
    frequency:   -1.2949022857
  - # 2
    frequency:   -1.2221443242
  - # 3
    frequency:   -0.9184110169
  - # 4
    frequency:   -0.8453914927
  - # 5
    frequency:   -0.1097050242
  - # 6
    frequency:    0.2571555664
  - # 7
    frequency:    0.2989126418
  - # 8
    frequency:    0.6883060038
  - # 9
    frequency:    4.0027371414
  - # 10
    frequency:    4.0396789022
  - # 11
    frequency:    6.6070624072
  - # 12
    frequency:    6.6172366870
  - # 13
    frequency:    7.1061757587
  - # 14
    frequency:    9.4127061928
  - # 15
    frequency:    9.4291607270
  - # 16
    frequency:   11.5881321360
  - # 17
    frequency:   13.7510085935
  - # 18
    frequency:   13.7551879200
  - # 19
    frequency:   15.0807093849
  - # 20
    frequency:   15.1063454406
  - # 21
    frequency:   16.0962938770
  - # 22
    frequency:   19.4786547477
  - # 23
    frequency:   31.7032787568
  - # 24
    frequency:   67.6388156351

- q-position: [    0.0252525,    0.0000000,    0.0000000 ]
  distance:    0.0094029
  band:
  - # 1
    frequency:   -1.3691198675
  - # 2
    frequency:   -1.2585327738
  - # 3
    frequency:   -0.8996849686
  - # 4
    frequency:   -0.7814112081
  - # 5
    frequency:   -0.1430215303
  - # 6
    frequency:    0.3245301424
  - # 7
    frequency:    0.3878909545
  - # 8
    frequency:    0.7096079139
  - # 9
    frequency:    4.0019539659
  - # 10
    frequency:    4.0589890356
  - # 11
    frequency:    6.6027036639
  - # 12
    frequency:    6.6181090138
  - # 13
    frequency:    7.1091575463
  - # 14
    frequency:    9.3813455657
  - # 15
    frequency:    9.4070522878
  - # 16
    frequency:   11.5793533587
  - # 17
    frequency:   13.7516099467
  - # 18
    frequency:   13.7581161686
  - # 19
    frequency:   15.0642320215
  - # 20
    frequency:   15.1035974748
  - # 21
    frequency:   16.0981299587
  - # 22
    frequency:   19.4781716006
  - # 23
    frequency:   31.6994984171
  - # 24
    frequency:   67.6368597034

- q-position: [    0.0303030,    0.0000000,    0.0000000 ]
  distance:    0.0112835
  band:
  - # 1
    frequency:   -1.4553519597
  - # 2
    frequency:   -1.3021358819
  - # 3
    frequency:   -0.8765251262
  - # 4
    frequency:   -0.6996866200
  - # 5
    frequency:   -0.1627679113
  - # 6
    frequency:    0.3926714375
  - # 7
    frequency:    0.4742924848
  - # 8
    frequency:    0.7385688869
  - # 9
    frequency:    4.0011061914
  - # 10
    frequency:    4.0820552589
  - # 11
    frequency:    6.5973776303
  - # 12
    frequency:    6.6187153380
  - # 13
    frequency:    7.1132261197
  - # 14
    frequency:    9.3432809212
  - # 15
    frequency:    9.3802815411
  - # 16
    frequency:   11.5686691089
  - # 17
    frequency:   13.7523413846
  - # 18
    frequency:   13.7616681986
  - # 19
    frequency:   15.0447319763
  - # 20
    frequency:   15.1002532411
  - # 21
    frequency:   16.0999784222
  - # 22
    frequency:   19.4775112875
  - # 23
    frequency:   31.6948964669
  - # 24
    frequency:   67.6344766454

- q-position: [    0.0353535,    0.0000000,    0.0000000 ]
  distance:    0.0131640
  band:
  - # 1
    frequency:   -1.5512339273
  - # 2
    frequency:   -1.3522690694
  - # 3
    frequency:   -0.8487009264
  - # 4
    frequency:   -0.6021915010
  - # 5
    frequency:   -0.1390494626
  - # 6
    frequency:    0.4609583353
  - # 7
    frequency:    0.5517808045
  - # 8
    frequency:    0.7795642720
  - # 9
    frequency:    4.0002615358
  - # 10
    frequency:    4.1085907012
  - # 11
    frequency:    6.5910859895
  - # 12
    frequency:    6.6188098276
  - # 13
    frequency:    7.1186079284
  - # 14
    frequency:    9.2986853413
  - # 15
    frequency:    9.3489987818
  - # 16
    frequency:   11.5561063250
  - # 17
    frequency:   13.7532008577
  - # 18
    frequency:   13.7658279837
  - # 19
    frequency:   15.0225352755
  - # 20
    frequency:   15.0963216549
  - # 21
    frequency:   16.1016513250
  - # 22
    frequency:   19.4766344548
  - # 23
    frequency:   31.6894838787
  - # 24
    frequency:   67.6316709423

- q-position: [    0.0404040,    0.0000000,    0.0000000 ]
  distance:    0.0150446
  band:
  - # 1
    frequency:   -1.6546364748
  - # 2
    frequency:   -1.4081363280
  - # 3
    frequency:   -0.8158896208
  - # 4
    frequency:   -0.5100183836
  - # 5
    frequency:    0.1752961090
  - # 6
    frequency:    0.5287109507
  - # 7
    frequency:    0.6143721633
  - # 8
    frequency:    0.8374821810
  - # 9
    frequency:    3.9995018260
  - # 10
    frequency:    4.1382837622
  - # 11
    frequency:    6.5838316025
  - # 12
    frequency:    6.6181333316
  - # 13
    frequency:    7.1255410361
  - # 14
    frequency:    9.2477760738
  - # 15
    frequency:    9.3133814426
  - # 16
    frequency:   11.5416965802
  - # 17
    frequency:   13.7541860119
  - # 18
    frequency:   13.7705766895
  - # 19
    frequency:   14.9979859648
  - # 20
    frequency:   15.0918134911
  - # 21
    frequency:   16.1029610801
  - # 22
    frequency:   19.4754967645
  - # 23
    frequency:   31.6832735247
  - # 24
    frequency:   67.6284478592

- q-position: [    0.0454545,    0.0000000,    0.0000000 ]
  distance:    0.0169252
  band:
  - # 1
    frequency:   -1.7637598489
  - # 2
    frequency:   -1.4688974083
  - # 3
    frequency:   -0.7776430829
  - # 4
    frequency:   -0.4646221278
  - # 5
    frequency:    0.3950314516
  - # 6
    frequency:    0.5952571291
  - # 7
    frequency:    0.6618172874
  - # 8
    frequency:    0.9123953660
  - # 9
    frequency:    3.9989237927
  - # 10
    frequency:    4.1708083073
  - # 11
    frequency:    6.5756190150
  - # 12
    frequency:    6.6164314823
  - # 13
    frequency:    7.1342578869
  - # 14
    frequency:    9.1908207602
  - # 15
    frequency:    9.2736338942
  - # 16
    frequency:   11.5254759441
  - # 17
    frequency:   13.7552942184
  - # 18
    frequency:   13.7758927048
  - # 19
    frequency:   14.9714347592
  - # 20
    frequency:   15.0867414851
  - # 21
    frequency:   16.1037289436
  - # 22
    frequency:   19.4740498405
  - # 23
    frequency:   31.6762801287
  - # 24
    frequency:   67.6248134298

- q-position: [    0.0505051,    0.0000000,    0.0000000 ]
  distance:    0.0188058
  band:
  - # 1
    frequency:   -1.8771276294
  - # 2
    frequency:   -1.5337242403
  - # 3
    frequency:   -0.7333324322
  - # 4
    frequency:   -0.4586846266
  - # 5
    frequency:    0.5759468784
  - # 6
    frequency:    0.6599639886
  - # 7
    frequency:    0.7019275161
  - # 8
    frequency:    0.9989582569
  - # 9
    frequency:    3.9986398766
  - # 10
    frequency:    4.2058335159
  - # 11
    frequency:    6.5664550972
  - # 12
    frequency:    6.6134745632
  - # 13
    frequency:    7.1449663865
  - # 14
    frequency:    9.1281445203
  - # 15
    frequency:    9.2299871249
  - # 16
    frequency:   11.5074848223
  - # 17
    frequency:   13.7565226038
  - # 18
    frequency:   13.7817516623
  - # 19
    frequency:   14.9432298962
  - # 20
    frequency:   15.0811204359
  - # 21
    frequency:   16.1037912118
  - # 22
    frequency:   19.4722422675
  - # 23
    frequency:   31.6685202134
  - # 24
    frequency:   67.6207744394

- q-position: [    0.0555556,    0.0000000,    0.0000000 ]
  distance:    0.0206863
  band:
  - # 1
    frequency:   -1.9935400588
  - # 2
    frequency:   -1.6018385582
  - # 3
    frequency:   -0.6820512070
  - # 4
    frequency:   -0.4665600391
  - # 5
    frequency:    0.6966774937
  - # 6
    frequency:    0.7222461032
  - # 7
    frequency:    0.7687956851
  - # 8
    frequency:    1.0918595856
  - # 9
    frequency:    3.9987789691
  - # 10
    frequency:    4.2430331208
  - # 11
    frequency:    6.5563498367
  - # 12
    frequency:    6.6090767308
  - # 13
    frequency:    7.1578316593
  - # 14
    frequency:    9.0601378400
  - # 15
    frequency:    9.1826982557
  - # 16
    frequency:   11.4877677748
  - # 17
    frequency:   13.7578680818
  - # 18
    frequency:   13.7881264439
  - # 19
    frequency:   14.9137101998
  - # 20
    frequency:   15.0749673078
  - # 21
    frequency:   16.1030032327
  - # 22
    frequency:   19.4700206092
  - # 23
    frequency:   31.6600120396
  - # 24
    frequency:   67.6163384050

- q-position: [    0.0606061,    0.0000000,    0.0000000 ]
  distance:    0.0225669
  band:
  - # 1
    frequency:   -2.1120198792
  - # 2
    frequency:   -1.6725315779
  - # 3
    frequency:   -0.6224323341
  - # 4
    frequency:   -0.4769453031
  - # 5
    frequency:    0.7384486989
  - # 6
    frequency:    0.7815627967
  - # 7
    frequency:    0.8916987717
  - # 8
    frequency:    1.1880067611
  - # 9
    frequency:    3.9994869806
  - # 10
    frequency:    4.2820939043
  - # 11
    frequency:    6.5453173083
  - # 12
    frequency:    6.6031119138
  - # 13
    frequency:    7.1729610666
  - # 14
    frequency:    8.9872651906
  - # 15
    frequency:    9.1320498380
  - # 16
    frequency:   11.4663733172
  - # 17
    frequency:   13.7593273846
  - # 18
    frequency:   13.7949871647
  - # 19
    frequency:   14.8832001495
  - # 20
    frequency:   15.0683013261
  - # 21
    frequency:   16.1012415501
  - # 22
    frequency:   19.4673304197
  - # 23
    frequency:   31.6507755408
  - # 24
    frequency:   67.6115135540

- q-position: [    0.0656566,    0.0000000,    0.0000000 ]
  distance:    0.0244475
  band:
  - # 1
    frequency:   -2.2317640037
  - # 2
    frequency:   -1.7451703996
  - # 3
    frequency:   -0.5522608752
  - # 4
    frequency:   -0.4854014004
  - # 5
    frequency:    0.7661625170
  - # 6
    frequency:    0.8374140039
  - # 7
    frequency:    1.0115759741
  - # 8
    frequency:    1.2859117880
  - # 9
    frequency:    4.0009270928
  - # 10
    frequency:    4.3227234109
  - # 11
    frequency:    6.5333768412
  - # 12
    frequency:    6.5955243282
  - # 13
    frequency:    7.1903943893
  - # 14
    frequency:    8.9100742895
  - # 15
    frequency:    9.0783488704
  - # 16
    frequency:   11.4433537068
  - # 17
    frequency:   13.7608970933
  - # 18
    frequency:   13.8023011328
  - # 19
    frequency:   14.8520066479
  - # 20
    frequency:   15.0611440615
  - # 21
    frequency:   16.0984045840
  - # 22
    frequency:   19.4641172202
  - # 23
    frequency:   31.6408322510
  - # 24
    frequency:   67.6063088006

- q-position: [    0.0707071,    0.0000000,    0.0000000 ]
  distance:    0.0263281
  band:
  - # 1
    frequency:   -2.3521044859
  - # 2
    frequency:   -1.8191961665
  - # 3
    frequency:   -0.4898039647
  - # 4
    frequency:   -0.4675058456
  - # 5
    frequency:    0.7916211144
  - # 6
    frequency:    0.8893412860
  - # 7
    frequency:    1.1193462171
  - # 8
    frequency:    1.3849285603
  - # 9
    frequency:    4.0032795197
  - # 10
    frequency:    4.3646568577
  - # 11
    frequency:    6.5205544009
  - # 12
    frequency:    6.5863329074
  - # 13
    frequency:    7.2100996047
  - # 14
    frequency:    8.8292058994
  - # 15
    frequency:    9.0219254675
  - # 16
    frequency:   11.4187647205
  - # 17
    frequency:   13.7625736685
  - # 18
    frequency:   13.8100327804
  - # 19
    frequency:   14.8204171750
  - # 20
    frequency:   15.0535195014
  - # 21
    frequency:   16.0944122447
  - # 22
    frequency:   19.4603274191
  - # 23
    frequency:   31.6302052278
  - # 24
    frequency:   67.6007337205

- q-position: [    0.0757576,    0.0000000,    0.0000000 ]
  distance:    0.0282086
  band:
  - # 1
    frequency:   -2.4724783389
  - # 2
    frequency:   -1.8941179022
  - # 3
    frequency:   -0.4888666967
  - # 4
    frequency:   -0.3591260989
  - # 5
    frequency:    0.8166054038
  - # 6
    frequency:    0.9369393949
  - # 7
    frequency:    1.2142038315
  - # 8
    frequency:    1.4847779909
  - # 9
    frequency:    4.0067405686
  - # 10
    frequency:    4.4076631657
  - # 11
    frequency:    6.5068841971
  - # 12
    frequency:    6.5756304579
  - # 13
    frequency:    7.2319729863
  - # 14
    frequency:    8.7454040690
  - # 15
    frequency:    8.9631311066
  - # 16
    frequency:   11.3926654279
  - # 17
    frequency:   13.7643534797
  - # 18
    frequency:   13.8181435651
  - # 19
    frequency:   14.7886990398
  - # 20
    frequency:   15.0454541025
  - # 21
    frequency:   16.0892048302
  - # 22
    frequency:   19.4559091569
  - # 23
    frequency:   31.6189189703
  - # 24
    frequency:   67.5947985236

- q-position: [    0.0808081,    0.0000000,    0.0000000 ]
  distance:    0.0300892
  band:
  - # 1
    frequency:   -2.5924046122
  - # 2
    frequency:   -1.9695046121
  - # 3
    frequency:   -0.4816193003
  - # 4
    frequency:   -0.1932189051
  - # 5
    frequency:    0.8417138947
  - # 6
    frequency:    0.9798845630
  - # 7
    frequency:    1.2955492687
  - # 8
    frequency:    1.5852650206
  - # 9
    frequency:    4.0115207744
  - # 10
    frequency:    4.4515498801
  - # 11
    frequency:    6.4924105141
  - # 12
    frequency:    6.5635793949
  - # 13
    frequency:    7.2558409068
  - # 14
    frequency:    8.6595267882
  - # 15
    frequency:    8.9023363797
  - # 16
    frequency:   11.3651179659
  - # 17
    frequency:   13.7662328339
  - # 18
    frequency:   13.8265918433
  - # 19
    frequency:   14.7570994949
  - # 20
    frequency:   15.0369768227
  - # 21
    frequency:   16.0827414868
  - # 22
    frequency:   19.4508130600
  - # 23
    frequency:   31.6069993322
  - # 24
    frequency:   67.5885140251

- q-position: [    0.0858586,    0.0000000,    0.0000000 ]
  distance:    0.0319698
  band:
  - # 1
    frequency:   -2.7114670693
  - # 2
    frequency:   -2.0449771537
  - # 3
    frequency:   -0.4671977913
  - # 4
    frequency:    0.2341570593
  - # 5
    frequency:    0.8672159722
  - # 6
    frequency:    1.0179883080
  - # 7
    frequency:    1.3625133059
  - # 8
    frequency:    1.6861493250
  - # 9
    frequency:    4.0178418889
  - # 10
    frequency:    4.4961665015
  - # 11
    frequency:    6.4771897428
  - # 12
    frequency:    6.5504061488
  - # 13
    frequency:    7.2814600046
  - # 14
    frequency:    8.5725572130
  - # 15
    frequency:    8.8399281856
  - # 16
    frequency:   11.3361873195
  - # 17
    frequency:   13.7682080042
  - # 18
    frequency:   13.8353327203
  - # 19
    frequency:   14.7258465168
  - # 20
    frequency:   15.0281191294
  - # 21
    frequency:   16.0749984415
  - # 22
    frequency:   19.4449928945
  - # 23
    frequency:   31.5944734314
  - # 24
    frequency:   67.5818916153

- q-position: [    0.0909091,    0.0000000,    0.0000000 ]
  distance:    0.0338504
  band:
  - # 1
    frequency:   -2.8293010781
  - # 2
    frequency:   -2.1202006478
  - # 3
    frequency:   -0.4447716955
  - # 4
    frequency:    0.3812686875
  - # 5
    frequency:    0.8932370382
  - # 6
    frequency:    1.0512892081
  - # 7
    frequency:    1.4139072245
  - # 8
    frequency:    1.7871427109
  - # 9
    frequency:    4.0259325542
  - # 10
    frequency:    4.5414054300
  - # 11
    frequency:    6.4612925715
  - # 12
    frequency:    6.5363958577
  - # 13
    frequency:    7.3085121255
  - # 14
    frequency:    8.4856160242
  - # 15
    frequency:    8.7763063118
  - # 16
    frequency:   11.3059411135
  - # 17
    frequency:   13.7702752590
  - # 18
    frequency:   13.8443178904
  - # 19
    frequency:   14.6951500939
  - # 20
    frequency:   15.0189149827
  - # 21
    frequency:   16.0659671577
  - # 22
    frequency:   19.4384061134
  - # 23
    frequency:   31.5813695549
  - # 24
    frequency:   67.5749432273

- q-position: [    0.0959596,    0.0000000,    0.0000000 ]
  distance:    0.0357310
  band:
  - # 1
    frequency:   -2.9455836388
  - # 2
    frequency:   -2.1948777629
  - # 3
    frequency:   -0.4136019489
  - # 4
    frequency:    0.4807987524
  - # 5
    frequency:    0.9198156261
  - # 6
    frequency:    1.0801960543
  - # 7
    frequency:    1.4481996622
  - # 8
    frequency:    1.8879620789
  - # 9
    frequency:    4.0360225820
  - # 10
    frequency:    4.5871994175
  - # 11
    frequency:    6.4448062568
  - # 12
    frequency:    6.5218880872
  - # 13
    frequency:    7.3365903112
  - # 14
    frequency:    8.3999762024
  - # 15
    frequency:    8.7118793837
  - # 16
    frequency:   11.2744494197
  - # 17
    frequency:   13.7724308909
  - # 18
    frequency:   13.8534954864
  - # 19
    frequency:   14.6652038851
  - # 20
    frequency:   15.0094007901
  - # 21
    frequency:   16.0556525157
  - # 22
    frequency:   19.4310142941
  - # 23
    frequency:   31.5677170614
  - # 24
    frequency:   67.5676813040

- q-position: [    0.1010101,    0.0000000,    0.0000000 ]
  distance:    0.0376115
  band:
  - # 1
    frequency:   -3.0600257501
  - # 2
    frequency:   -2.2687429549
  - # 3
    frequency:   -0.3733996138
  - # 4
    frequency:    0.5547408656
  - # 5
    frequency:    0.9469167764
  - # 6
    frequency:    1.1056806388
  - # 7
    frequency:    1.4635577833
  - # 8
    frequency:    1.9883719016
  - # 9
    frequency:    4.0483359161
  - # 10
    frequency:    4.6335142412
  - # 11
    frequency:    6.4278368639
  - # 12
    frequency:    6.5072734074
  - # 13
    frequency:    7.3651718698
  - # 14
    frequency:    8.3170825135
  - # 15
    frequency:    8.6470601967
  - # 16
    frequency:   11.2417845830
  - # 17
    frequency:   13.7746712484
  - # 18
    frequency:   13.8628099747
  - # 19
    frequency:   14.6361871193
  - # 20
    frequency:   14.9996153340
  - # 21
    frequency:   16.0440710811
  - # 22
    frequency:   19.4227834674
  - # 23
    frequency:   31.5535462799
  - # 24
    frequency:   67.5601187636

- q-position: [    0.1060606,    0.0000000,    0.0000000 ]
  distance:    0.0394921
  band:
  - # 1
    frequency:   -3.1723665241
  - # 2
    frequency:   -2.3415576199
  - # 3
    frequency:   -0.3256582528
  - # 4
    frequency:    0.6072817367
  - # 5
    frequency:    0.9744158856
  - # 6
    frequency:    1.1294551016
  - # 7
    frequency:    1.4580441511
  - # 8
    frequency:    2.0881964797
  - # 9
    frequency:    4.0630825486
  - # 10
    frequency:    4.6803354590
  - # 11
    frequency:    6.4105113242
  - # 12
    frequency:    6.4929899123
  - # 13
    frequency:    7.3935747699
  - # 14
    frequency:    8.2385786853
  - # 15
    frequency:    8.5822604987
  - # 16
    frequency:   11.2080210683
  - # 17
    frequency:   13.7769927682
  - # 18
    frequency:   13.8722021466
  - # 19
    frequency:   14.6082666061
  - # 20
    frequency:   14.9895996698
  - # 21
    frequency:   16.0312495020
  - # 22
    frequency:   19.4136843422
  - # 23
    frequency:   31.5388884074
  - # 24
    frequency:   67.5522689638

- q-position: [    0.1111111,    0.0000000,    0.0000000 ]
  distance:    0.0413727
  band:
  - # 1
    frequency:   -3.2823686165
  - # 2
    frequency:   -2.4131060662
  - # 3
    frequency:   -0.2783744746
  - # 4
    frequency:    0.6374503742
  - # 5
    frequency:    1.0020402973
  - # 6
    frequency:    1.1539305769
  - # 7
    frequency:    1.4301759382
  - # 8
    frequency:    2.1873122374
  - # 9
    frequency:    4.0804498746
  - # 10
    frequency:    4.7276487659
  - # 11
    frequency:    6.3929791231
  - # 12
    frequency:    6.4795183493
  - # 13
    frequency:    7.4208967891
  - # 14
    frequency:    8.1663431028
  - # 15
    frequency:    8.5178853478
  - # 16
    frequency:   11.1732353324
  - # 17
    frequency:   13.7793920111
  - # 18
    frequency:   13.8816092834
  - # 19
    frequency:   14.5815987135
  - # 20
    frequency:   14.9793969942
  - # 21
    frequency:   16.0172230517
  - # 22
    frequency:   19.4036924309
  - # 23
    frequency:   31.5237754031
  - # 24
    frequency:   67.5441456653

- q-position: [    0.1161616,    0.0000000,    0.0000000 ]
  distance:    0.0432533
  band:
  - # 1
    frequency:   -3.3898146561
  - # 2
    frequency:   -2.4831921918
  - # 3
    frequency:   -0.2595263351
  - # 4
    frequency:    0.6418316534
  - # 5
    frequency:    1.0292206739
  - # 6
    frequency:    1.1816716636
  - # 7
    frequency:    1.3804229584
  - # 8
    frequency:    2.2856337081
  - # 9
    frequency:    4.1005941610
  - # 10
    frequency:    4.7754147358
  - # 11
    frequency:    6.3754134046
  - # 12
    frequency:    6.4673744759
  - # 13
    frequency:    7.4459503659
  - # 14
    frequency:    8.1025215516
  - # 15
    frequency:    8.4543272378
  - # 16
    frequency:   11.1375057206
  - # 17
    frequency:   13.7818657003
  - # 18
    frequency:   13.8909656015
  - # 19
    frequency:   14.5563311475
  - # 20
    frequency:   14.9690524860
  - # 21
    frequency:   16.0020343269
  - # 22
    frequency:   19.3927880837
  - # 23
    frequency:   31.5082398823
  - # 24
    frequency:   67.5357629945

- q-position: [    0.1212121,    0.0000000,    0.0000000 ]
  distance:    0.0451338
  band:
  - # 1
    frequency:   -3.4945044360
  - # 2
    frequency:   -2.5516367591
  - # 3
    frequency:   -0.3221707221
  - # 4
    frequency:    0.6156471516
  - # 5
    frequency:    1.0547479257
  - # 6
    frequency:    1.2144273308
  - # 7
    frequency:    1.3149653885
  - # 8
    frequency:    2.3831006377
  - # 9
    frequency:    4.1236329107
  - # 10
    frequency:    4.8235404706
  - # 11
    frequency:    6.3580112660
  - # 12
    frequency:    6.4570976303
  - # 13
    frequency:    7.4672449351
  - # 14
    frequency:    8.0495079909
  - # 15
    frequency:    8.3919602419
  - # 16
    frequency:   11.1009123910
  - # 17
    frequency:   13.7844107635
  - # 18
    frequency:   13.9002031201
  - # 19
    frequency:   14.5326043379
  - # 20
    frequency:   14.9586131176
  - # 21
    frequency:   15.9857320996
  - # 22
    frequency:   19.3809564408
  - # 23
    frequency:   31.4923150090
  - # 24
    frequency:   67.5271354050

- q-position: [    0.1262626,    0.0000000,    0.0000000 ]
  distance:    0.0470144
  band:
  - # 1
    frequency:   -3.5962526918
  - # 2
    frequency:   -2.6182751686
  - # 3
    frequency:   -0.4889505586
  - # 4
    frequency:    0.5519068795
  - # 5
    frequency:    1.0763907865
  - # 6
    frequency:    1.2521700011
  - # 7
    frequency:    1.2525062121
  - # 8
    frequency:    2.4796684510
  - # 9
    frequency:    4.1496388957
  - # 10
    frequency:    4.8718524319
  - # 11
    frequency:    6.3409930361
  - # 12
    frequency:    6.4492352251
  - # 13
    frequency:    7.4831422180
  - # 14
    frequency:    8.0097517238
  - # 15
    frequency:    8.3311344761
  - # 16
    frequency:   11.0635372678
  - # 17
    frequency:   13.7870243781
  - # 18
    frequency:   13.9092531275
  - # 19
    frequency:   14.5105522078
  - # 20
    frequency:   14.9481274406
  - # 21
    frequency:   15.9683703179
  - # 22
    frequency:   19.3681873124
  - # 23
    frequency:   31.4760343873
  - # 24
    frequency:   67.5182776391

- q-position: [    0.1313131,    0.0000000,    0.0000000 ]
  distance:    0.0488950
  band:
  - # 1
    frequency:   -3.6948873318
  - # 2
    frequency:   -2.6829556488
  - # 3
    frequency:   -0.7343532178
  - # 4
    frequency:    0.4349087285
  - # 5
    frequency:    1.0938886478
  - # 6
    frequency:    1.2193802287
  - # 7
    frequency:    1.2950583152
  - # 8
    frequency:    2.5753019376
  - # 9
    frequency:    4.1786364749
  - # 10
    frequency:    4.9200758697
  - # 11
    frequency:    6.3246003698
  - # 12
    frequency:    6.4443237509
  - # 13
    frequency:    7.4923484834
  - # 14
    frequency:    7.9852312587
  - # 15
    frequency:    8.2721712050
  - # 16
    frequency:   11.0254640250
  - # 17
    frequency:   13.7897040198
  - # 18
    frequency:   13.9180484485
  - # 19
    frequency:   14.4903020834
  - # 20
    frequency:   14.9376453464
  - # 21
    frequency:   15.9500072497
  - # 22
    frequency:   19.3544749967
  - # 23
    frequency:   31.4594319541
  - # 24
    frequency:   67.5092046884

- q-position: [    0.1363636,    0.0000000,    0.0000000 ]
  distance:    0.0507756
  band:
  - # 1
    frequency:   -3.7902480170
  - # 2
    frequency:   -2.7455377923
  - # 3
    frequency:   -1.0177975449
  - # 4
    frequency:    0.1874873379
  - # 5
    frequency:    1.1180436134
  - # 6
    frequency:    1.2228927603
  - # 7