nqpoint: 300    
npath: 3      
segment_nqpoint:
- 100
- 100
- 100
labels:
- [ 'G', 'M' ]
- [ 'M', 'K' ]
- [ 'K', 'G' ]
reciprocal_lattice:
- [   0.32246815,   0.18617707,   0.00000000 ] # a*
- [   0.00000000,   0.37235414,   0.00000000 ] # b*
- [   0.00000000,   0.00000000,   0.03297943 ] # c*
natom: 8      
lattice:
- [     3.101081488398858,     0.000000000000000,     0.000000000000000 ] # a
- [    -1.550540744199428,     2.685615348158991,     0.000000000000000 ] # b
- [     0.000000000000000,     0.000000000000000,    30.321935230270924 ] # c
points:
- symbol: C # 1
  coordinates: [  0.000000000000000,  0.000000000000000,  0.460250017383632 ]
  mass: 12.010700
- symbol: C # 2
  coordinates: [  0.666666984744047,  0.333332985985144,  0.335981747290910 ]
  mass: 12.010700
- symbol: Cl # 3
  coordinates: [  0.333332985432215,  0.666666983183674,  0.703185171670206 ]
  mass: 35.453000
- symbol: N # 4
  coordinates: [  0.666666984744047,  0.333332985985144,  0.296814828329794 ]
  mass: 14.006700
- symbol: O # 5
  coordinates: [  0.333332985432215,  0.666666983183674,  0.533908057516230 ]
  mass: 15.999400
- symbol: O # 6
  coordinates: [  0.666666984744047,  0.333332985985144,  0.380099183182549 ]
  mass: 15.999400
- symbol: Ti # 7
  coordinates: [  0.333332985432215,  0.666666983183674,  0.423266794235004 ]
  mass: 47.867000
- symbol: Ti # 8
  coordinates: [  0.666666984744047,  0.333332985985144,  0.504565766783223 ]
  mass: 47.867000

phonon:
- q-position: [    0.0000000,    0.0000000,    0.0000000 ]
  distance:    0.0000000
  band:
  - # 1
    frequency:   -0.2159537812
  - # 2
    frequency:   -0.0000003062
  - # 3
    frequency:    0.0000003299
  - # 4
    frequency:    0.0000015498
  - # 5
    frequency:    0.0913229386
  - # 6
    frequency:    0.0913229386
  - # 7
    frequency:    0.6626233027
  - # 8
    frequency:    0.6626233027
  - # 9
    frequency:    4.0176195927
  - # 10
    frequency:    4.0176195927
  - # 11
    frequency:    6.8236835091
  - # 12
    frequency:    6.8236835091
  - # 13
    frequency:    6.8693273874
  - # 14
    frequency:   10.0923249837
  - # 15
    frequency:   10.0923249837
  - # 16
    frequency:   11.6170990228
  - # 17
    frequency:   13.7894602531
  - # 18
    frequency:   13.7894602531
  - # 19
    frequency:   16.0511308158
  - # 20
    frequency:   16.0511308158
  - # 21
    frequency:   16.0772092675
  - # 22
    frequency:   19.5687615500
  - # 23
    frequency:   31.7871201063
  - # 24
    frequency:   67.6534585617

- q-position: [    0.0050505,    0.0000000,    0.0000000 ]
  distance:    0.0018806
  band:
  - # 1
    frequency:   -0.3553520097
  - # 2
    frequency:   -0.1913364369
  - # 3
    frequency:   -0.1632273396
  - # 4
    frequency:   -0.0937889896
  - # 5
    frequency:    0.0953022647
  - # 6
    frequency:    0.3582737389
  - # 7
    frequency:    0.6653422923
  - # 8
    frequency:    0.6793628879
  - # 9
    frequency:    4.0171942091
  - # 10
    frequency:    4.0198967712
  - # 11
    frequency:    6.8112422493
  - # 12
    frequency:    6.8232321203
  - # 13
    frequency:    6.8819671853
  - # 14
    frequency:   10.0880717388
  - # 15
    frequency:   10.0880981590
  - # 16
    frequency:   11.6161301541
  - # 17
    frequency:   13.7895281398
  - # 18
    frequency:   13.7897701431
  - # 19
    frequency:   16.0309862602
  - # 20
    frequency:   16.0500792842
  - # 21
    frequency:   16.0949264845
  - # 22
    frequency:   19.5686086642
  - # 23
    frequency:   31.7865332453
  - # 24
    frequency:   67.6532150261

- q-position: [    0.0101010,    0.0000000,    0.0000000 ]
  distance:    0.0037612
  band:
  - # 1
    frequency:   -0.4812850794
  - # 2
    frequency:   -0.3616405687
  - # 3
    frequency:   -0.2313082747
  - # 4
    frequency:   -0.1809514945
  - # 5
    frequency:    0.1718627894
  - # 6
    frequency:    0.5080531292
  - # 7
    frequency:    0.6734997236
  - # 8
    frequency:    0.7323309962
  - # 9
    frequency:    4.0159153335
  - # 10
    frequency:    4.0266855338
  - # 11
    frequency:    6.7883063474
  - # 12
    frequency:    6.8218735360
  - # 13
    frequency:    6.9055031702
  - # 14
    frequency:   10.0753179745
  - # 15
    frequency:   10.0754397934
  - # 16
    frequency:   11.6132255738
  - # 17
    frequency:   13.7897317000
  - # 18
    frequency:   13.7906989840
  - # 19
    frequency:   15.9996348104
  - # 20
    frequency:   16.0469321085
  - # 21
    frequency:   16.1190244083
  - # 22
    frequency:   19.5681431718
  - # 23
    frequency:   31.7847747744
  - # 24
    frequency:   67.6524850062

- q-position: [    0.0151515,    0.0000000,    0.0000000 ]
  distance:    0.0056417
  band:
  - # 1
    frequency:   -0.5692736949
  - # 2
    frequency:   -0.5487948530
  - # 3
    frequency:   -0.3584229431
  - # 4
    frequency:   -0.1654538606
  - # 5
    frequency:    0.2524946402
  - # 6
    frequency:    0.6117143777
  - # 7
    frequency:    0.6871097698
  - # 8
    frequency:    0.8223394207
  - # 9
    frequency:    4.0137748109
  - # 10
    frequency:    4.0378595320
  - # 11
    frequency:    6.7634274962
  - # 12
    frequency:    6.8195945413
  - # 13
    frequency:    6.9313970323
  - # 14
    frequency:   10.0540823919
  - # 15
    frequency:   10.0544164702
  - # 16
    frequency:   11.6083913394
  - # 17
    frequency:   13.7900706335
  - # 18
    frequency:   13.7922443092
  - # 19
    frequency:   15.9652985225
  - # 20
    frequency:   16.0417114489
  - # 21
    frequency:   16.1413656686
  - # 22
    frequency:   19.5673448461
  - # 23
    frequency:   31.7818510168
  - # 24
    frequency:   67.6512702607

- q-position: [    0.0202020,    0.0000000,    0.0000000 ]
  distance:    0.0075223
  band:
  - # 1
    frequency:   -0.7348509423
  - # 2
    frequency:   -0.6339691686
  - # 3
    frequency:   -0.4826663817
  - # 4
    frequency:   -0.1400492331
  - # 5
    frequency:    0.3323452632
  - # 6
    frequency:    0.6942801142
  - # 7
    frequency:    0.7062371506
  - # 8
    frequency:    0.9359805786
  - # 9
    frequency:    4.0107591265
  - # 10
    frequency:    4.0532145773
  - # 11
    frequency:    6.7382262766
  - # 12
    frequency:    6.8163732414
  - # 13
    frequency:    6.9580504137
  - # 14
    frequency:   10.0243987845
  - # 15
    frequency:   10.0251400157
  - # 16
    frequency:   11.6016374781
  - # 17
    frequency:   13.7905444404
  - # 18
    frequency:   13.7944020767
  - # 19
    frequency:   15.9288077044
  - # 20
    frequency:   16.0344539206
  - # 21
    frequency:   16.1612585204
  - # 22
    frequency:   19.5661808879
  - # 23
    frequency:   31.7777724699
  - # 24
    frequency:   67.6495737117

- q-position: [    0.0252525,    0.0000000,    0.0000000 ]
  distance:    0.0094029
  band:
  - # 1
    frequency:   -0.9185752368
  - # 2
    frequency:   -0.6842438107
  - # 3
    frequency:   -0.6053512231
  - # 4
    frequency:   -0.0975056978
  - # 5
    frequency:    0.4100688537
  - # 6
    frequency:    0.7310503150
  - # 7
    frequency:    0.7724182089
  - # 8
    frequency:    1.0587606182
  - # 9
    frequency:    4.0068495679
  - # 10
    frequency:    4.0724776656
  - # 11
    frequency:    6.7131767390
  - # 12
    frequency:    6.8121792657
  - # 13
    frequency:    6.9850201783
  - # 14
    frequency:    9.9863199591
  - # 15
    frequency:    9.9877687615
  - # 16
    frequency:   11.5929778967
  - # 17
    frequency:   13.7911524216
  - # 18
    frequency:   13.7971667690
  - # 19
    frequency:   15.8905201017
  - # 20
    frequency:   16.0252101250
  - # 21
    frequency:   16.1785339008
  - # 22
    frequency:   19.5646072341
  - # 23
    frequency:   31.7725537429
  - # 24
    frequency:   67.6473994319

- q-position: [    0.0303030,    0.0000000,    0.0000000 ]
  distance:    0.0112835
  band:
  - # 1
    frequency:   -1.1007827041
  - # 2
    frequency:   -0.7268055655
  - # 3
    frequency:   -0.7230243518
  - # 4
    frequency:    0.0546062035
  - # 5
    frequency:    0.4845375092
  - # 6
    frequency:    0.7618647304
  - # 7
    frequency:    0.8522474778
  - # 8
    frequency:    1.1842412325
  - # 9
    frequency:    4.0020225515
  - # 10
    frequency:    4.0953186049
  - # 11
    frequency:    6.6885017692
  - # 12
    frequency:    6.8069740723
  - # 13
    frequency:    7.0121227826
  - # 14
    frequency:    9.9399231919
  - # 15
    frequency:    9.9425092754
  - # 16
    frequency:   11.5824302730
  - # 17
    frequency:   13.7918936786
  - # 18
    frequency:   13.8005315267
  - # 19
    frequency:   15.8507233483
  - # 20
    frequency:   16.0140440142
  - # 21
    frequency:   16.1931379362
  - # 22
    frequency:   19.5625702812
  - # 23
    frequency:   31.7662134704
  - # 24
    frequency:   67.6447526261

- q-position: [    0.0353535,    0.0000000,    0.0000000 ]
  distance:    0.0131640
  band:
  - # 1
    frequency:   -1.2813180902
  - # 2
    frequency:   -0.8470836953
  - # 3
    frequency:   -0.7524480260
  - # 4
    frequency:    0.1338514409
  - # 5
    frequency:    0.5545872313
  - # 6
    frequency:    0.7991065263
  - # 7
    frequency:    0.9350845100
  - # 8
    frequency:    1.3100395191
  - # 9
    frequency:    3.9962502191
  - # 10
    frequency:    4.1213635045
  - # 11
    frequency:    6.6643499992
  - # 12
    frequency:    6.8007113778
  - # 13
    frequency:    7.0392569287
  - # 14
    frequency:    9.8853171936
  - # 15
    frequency:    9.8896185155
  - # 16
    frequency:   11.5700159448
  - # 17
    frequency:   13.7927671142
  - # 18
    frequency:   13.8044883090
  - # 19
    frequency:   15.8096953104
  - # 20
    frequency:   16.0010321053
  - # 21
    frequency:   16.2050654786
  - # 22
    frequency:   19.5600089243
  - # 23
    frequency:   31.7587742031
  - # 24
    frequency:   67.6416396083

- q-position: [    0.0404040,    0.0000000,    0.0000000 ]
  distance:    0.0150446
  band:
  - # 1
    frequency:   -1.4599942395
  - # 2
    frequency:   -0.9661394832
  - # 3
    frequency:   -0.7737216040
  - # 4
    frequency:    0.1880772721
  - # 5
    frequency:    0.6191919050
  - # 6
    frequency:    0.8430796114
  - # 7
    frequency:    1.0207944904
  - # 8
    frequency:    1.4350311479
  - # 9
    frequency:    3.9895014565
  - # 10
    frequency:    4.1502094579
  - # 11
    frequency:    6.6408452475
  - # 12
    frequency:    6.7933377462
  - # 13
    frequency:    7.0663534276
  - # 14
    frequency:    9.8226505587
  - # 15
    frequency:    9.8294063419
  - # 16
    frequency:   11.5557598111
  - # 17
    frequency:   13.7937714322
  - # 18
    frequency:   13.8090280754
  - # 19
    frequency:   15.7677161012
  - # 20
    frequency:   15.9862625674
  - # 21
    frequency:   16.2143411397
  - # 22
    frequency:   19.5568568033
  - # 23
    frequency:   31.7502622755
  - # 24
    frequency:   67.6380677735

- q-position: [    0.0454545,    0.0000000,    0.0000000 ]
  distance:    0.0169252
  band:
  - # 1
    frequency:   -1.6366030037
  - # 2
    frequency:   -1.0838836231
  - # 3
    frequency:   -0.7874814504
  - # 4
    frequency:    0.2354605083
  - # 5
    frequency:    0.6778964089
  - # 6
    frequency:    0.8935136926
  - # 7
    frequency:    1.1088895932
  - # 8
    frequency:    1.5584267448
  - # 9
    frequency:    3.9817435373
  - # 10
    frequency:    4.1814399466
  - # 11
    frequency:    6.6181039287
  - # 12
    frequency:    6.7847933912
  - # 13
    frequency:    7.0933567131
  - # 14
    frequency:    9.7521216823
  - # 15
    frequency:    9.7622382920
  - # 16
    frequency:   11.5396902547
  - # 17
    frequency:   13.7949051372
  - # 18
    frequency:   13.8141409802
  - # 19
    frequency:   15.7250686430
  - # 20
    frequency:   15.9698342050
  - # 21
    frequency:   16.2210112223
  - # 22
    frequency:   19.5530446461
  - # 23
    frequency:   31.7407076523
  - # 24
    frequency:   67.6340455648

- q-position: [    0.0505051,    0.0000000,    0.0000000 ]
  distance:    0.0188058
  band:
  - # 1
    frequency:   -1.8109268176
  - # 2
    frequency:   -1.2002065134
  - # 3
    frequency:   -0.7939793158
  - # 4
    frequency:    0.2796815357
  - # 5
    frequency:    0.7311505414
  - # 6
    frequency:    0.9492185512
  - # 7
    frequency:    1.1988535568
  - # 8
    frequency:    1.6794874256
  - # 9
    frequency:    3.9729446618
  - # 10
    frequency:    4.2146407360
  - # 11
    frequency:    6.5962421462
  - # 12
    frequency:    6.7750132670
  - # 13
    frequency:    7.1202161292
  - # 14
    frequency:    9.6739901403
  - # 15
    frequency:    9.6885384822
  - # 16
    frequency:   11.5218390944
  - # 17
    frequency:   13.7961665345
  - # 18
    frequency:   13.8198165729
  - # 19
    frequency:   15.6820355956
  - # 20
    frequency:   15.9518553629
  - # 21
    frequency:   16.2251390224
  - # 22
    frequency:   19.5485026004
  - # 23
    frequency:   31.7301437543
  - # 24
    frequency:   67.6295824367

- q-position: [    0.0555556,    0.0000000,    0.0000000 ]
  distance:    0.0206863
  band:
  - # 1
    frequency:   -1.9827448623
  - # 2
    frequency:   -1.3149887449
  - # 3
    frequency:   -0.7931873307
  - # 4
    frequency:    0.3222152810
  - # 5
    frequency:    0.7801128770
  - # 6
    frequency:    1.0082672429
  - # 7
    frequency:    1.2902279387
  - # 8
    frequency:    1.7974291904
  - # 9
    frequency:    3.9630777309
  - # 10
    frequency:    4.2494162793
  - # 11
    frequency:    6.5753787286
  - # 12
    frequency:    6.7639285497
  - # 13
    frequency:    7.1468805104
  - # 14
    frequency:    9.5885895560
  - # 15
    frequency:    9.6087924432
  - # 16
    frequency:   11.5022415656
  - # 17
    frequency:   13.7975537282
  - # 18
    frequency:   13.8260439973
  - # 19
    frequency:   15.6388949817
  - # 20
    frequency:   15.9324427783
  - # 21
    frequency:   16.2268014627
  - # 22
    frequency:   19.5431624617
  - # 23
    frequency:   31.7186072656
  - # 24
    frequency:   67.6246888133

- q-position: [    0.0606061,    0.0000000,    0.0000000 ]
  distance:    0.0225669
  band:
  - # 1
    frequency:   -2.1518364796
  - # 2
    frequency:   -1.4281064496
  - # 3
    frequency:   -0.7848543374
  - # 4
    frequency:    0.3638163761
  - # 5
    frequency:    0.8260918214
  - # 6
    frequency:    1.0685384351
  - # 7
    frequency:    1.3826247681
  - # 8
    frequency:    1.9113825221
  - # 9
    frequency:    3.9521257800
  - # 10
    frequency:    4.2854068131
  - # 11
    frequency:    6.5556363126
  - # 12
    frequency:    6.7514686475
  - # 13
    frequency:    7.1732936578
  - # 14
    frequency:    9.4963420047
  - # 15
    frequency:    9.5235496244
  - # 16
    frequency:   11.4809363299
  - # 17
    frequency:   13.7990646215
  - # 18
    frequency:   13.8328121833
  - # 19
    frequency:   15.5959154436
  - # 20
    frequency:   15.9117204034
  - # 21
    frequency:   16.2260864049
  - # 22
    frequency:   19.5369597190
  - # 23
    frequency:   31.7061379237
  - # 24
    frequency:   67.6193760430

- q-position: [    0.0656566,    0.0000000,    0.0000000 ]
  distance:    0.0244475
  band:
  - # 1
    frequency:   -2.3179832256
  - # 2
    frequency:   -1.5394342829
  - # 3
    frequency:   -0.7685262239
  - # 4
    frequency:    0.4049277632
  - # 5
    frequency:    0.8701367992
  - # 6
    frequency:    1.1281039277
  - # 7
    frequency:    1.4757173168
  - # 8
    frequency:    2.0203669205
  - # 9
    frequency:    3.9400895659
  - # 10
    frequency:    4.3223063382
  - # 11
    frequency:    6.5371412369
  - # 12
    frequency:    6.7375639127
  - # 13
    frequency:    7.1993895572
  - # 14
    frequency:    9.3977740463
  - # 15
    frequency:    9.4334252079
  - # 16
    frequency:   11.4579655032
  - # 17
    frequency:   13.8006969150
  - # 18
    frequency:   13.8401100247
  - # 19
    frequency:   15.5533516204
  - # 20
    frequency:   15.8898182221
  - # 21
    frequency:   16.2230904026
  - # 22
    frequency:   19.5298353587
  - # 23
    frequency:   31.6927782933
  - # 24
    frequency:   67.6136563502

- q-position: [    0.0707071,    0.0000000,    0.0000000 ]
  distance:    0.0263281
  band:
  - # 1
    frequency:   -2.4809702179
  - # 2
    frequency:   -1.6488472224
  - # 3
    frequency:   -0.7435323719
  - # 4
    frequency:    0.4458338773
  - # 5
    frequency:    0.9129306398
  - # 6
    frequency:    1.1853095434
  - # 7
    frequency:    1.5692252776
  - # 8
    frequency:    2.1232686538
  - # 9
    frequency:    3.9269978391
  - # 10
    frequency:    4.3598814342
  - # 11
    frequency:    6.5200225230
  - # 12
    frequency:    6.7221492633
  - # 13
    frequency:    7.2250865544
  - # 14
    frequency:    9.2935345158
  - # 15
    frequency:    9.3391007622
  - # 16
    frequency:   11.4333746960
  - # 17
    frequency:   13.8024481068
  - # 18
    frequency:   13.8479265404
  - # 19
    frequency:   15.5114399540
  - # 20
    frequency:   15.8668710787
  - # 21
    frequency:   16.2179167997
  - # 22
    frequency:   19.5217373871
  - # 23
    frequency:   31.6785735262
  - # 24
    frequency:   67.6075427822

- q-position: [    0.0757576,    0.0000000,    0.0000000 ]
  distance:    0.0282086
  band:
  - # 1
    frequency:   -2.6405870929
  - # 2
    frequency:   -1.7562217324
  - # 3
    frequency:   -0.7089298876
  - # 4
    frequency:    0.4867293588
  - # 5
    frequency:    0.9548364164
  - # 6
    frequency:    1.2386952544
  - # 7
    frequency:    1.6628986704
  - # 8
    frequency:    2.2188201851
  - # 9
    frequency:    3.9129207876
  - # 10
    frequency:    4.3979902420
  - # 11
    frequency:    6.5044100314
  - # 12
    frequency:    6.7051689485
  - # 13
    frequency:    7.2502797318
  - # 14
    frequency:    9.1844142379
  - # 15
    frequency:    9.2413231414
  - # 16
    frequency:   11.4072130546
  - # 17
    frequency:   13.8043154930
  - # 18
    frequency:   13.8562510137
  - # 19
    frequency:   15.4703951369
  - # 20
    frequency:   15.8430175365
  - # 21
    frequency:   16.2106741270
  - # 22
    frequency:   19.5126220482
  - # 23
    frequency:   31.6635711091
  - # 24
    frequency:   67.6010491545

- q-position: [    0.0808081,    0.0000000,    0.0000000 ]
  distance:    0.0300892
  band:
  - # 1
    frequency:   -2.7966287357
  - # 2
    frequency:   -1.8614365696
  - # 3
    frequency:   -0.6633788959
  - # 4
    frequency:    0.5277538590
  - # 5
    frequency:    0.9959634788
  - # 6
    frequency:    1.2868886547
  - # 7
    frequency:    1.7565000548
  - # 8
    frequency:    2.3055851094
  - # 9
    frequency:    3.8979869201
  - # 10
    frequency:    4.4365998505
  - # 11
    frequency:    6.4904318373
  - # 12
    frequency:    6.6865826858
  - # 13
    frequency:    7.2748305899
  - # 14
    frequency:    9.0713678550
  - # 15
    frequency:    9.1409009191
  - # 16
    frequency:   11.3795332945
  - # 17
    frequency:   13.8062961697
  - # 18
    frequency:   13.8650731090
  - # 19
    frequency:   15.4304073415
  - # 20
    frequency:   15.8183987784
  - # 21
    frequency:   16.2014747634
  - # 22
    frequency:   19.5024547319
  - # 23
    frequency:   31.6478206010
  - # 24
    frequency:   67.5941899931

- q-position: [    0.0858586,    0.0000000,    0.0000000 ]
  distance:    0.0319698
  band:
  - # 1
    frequency:   -2.9488958675
  - # 2
    frequency:   -1.9643733729
  - # 3
    frequency:   -0.6048764469
  - # 4
    frequency:    0.5690113401
  - # 5
    frequency:    1.0361941439
  - # 6
    frequency:    1.3285287907
  - # 7
    frequency:    1.8497813660
  - # 8
    frequency:    2.3819578343
  - # 9
    frequency:    3.8824031544
  - # 10
    frequency:    4.4757987326
  - # 11
    frequency:    6.4782109041
  - # 12
    frequency:    6.6663733444
  - # 13
    frequency:    7.2985528871
  - # 14
    frequency:    8.9555379450
  - # 15
    frequency:    9.0386975600
  - # 16
    frequency:   11.3503917182
  - # 17
    frequency:   13.8083870378
  - # 18
    frequency:   13.8743829631
  - # 19
    frequency:   15.3916403111
  - # 20
    frequency:   15.7931575595
  - # 21
    frequency:   16.1904338360
  - # 22
    frequency:   19.4912105772
  - # 23
    frequency:   31.6313733615
  - # 24
    frequency:   67.5869804738

- q-position: [    0.0909091,    0.0000000,    0.0000000 ]
  distance:    0.0338504
  band:
  - # 1
    frequency:   -3.0971955402
  - # 2
    frequency:   -2.0649171190
  - # 3
    frequency:   -0.5301322228
  - # 4
    frequency:    0.6105815241
  - # 5
    frequency:    1.0751402409
  - # 6
    frequency:    1.3622490171
  - # 7
    frequency:    1.9424463586
  - # 8
    frequency:    2.4461958240
  - # 9
    frequency:    3.8664769258
  - # 10
    frequency:    4.5157990418
  - # 11
    frequency:    6.4678612335
  - # 12
    frequency:    6.6445562151
  - # 13
    frequency:    7.3211932053
  - # 14
    frequency:    8.8382814955
  - # 15
    frequency:    8.9356205343
  - # 16
    frequency:   11.3198482100
  - # 17
    frequency:   13.8105848094
  - # 18
    frequency:   13.8841712519
  - # 19
    frequency:   15.3542303330
  - # 20
    frequency:   15.7674372193
  - # 21
    frequency:   16.1776683315
  - # 22
    frequency:   19.4788747875
  - # 23
    frequency:   31.6142822733
  - # 24
    frequency:   67.5794363605

- q-position: [    0.0959596,    0.0000000,    0.0000000 ]
  distance:    0.0357310
  band:
  - # 1
    frequency:   -3.2413415641
  - # 2
    frequency:   -2.1629564890
  - # 3
    frequency:   -0.4327685121
  - # 4
    frequency:    0.6525268283
  - # 5
    frequency:    1.1119727920
  - # 6
    frequency:    1.3867720445
  - # 7
    frequency:    2.0340758541
  - # 8
    frequency:    2.4965200547
  - # 9
    frequency:    3.8506376171
  - # 10
    frequency:    4.5569222533
  - # 11
    frequency:    6.4594838350
  - # 12
    frequency:    6.6211896565
  - # 13
    frequency:    7.3424046984
  - # 14
    frequency:    8.7211984226
  - # 15
    frequency:    8.8326057208
  - # 16
    frequency:   11.2879662057
  - # 17
    frequency:   13.8128860193
  - # 18
    frequency:   13.8944292327
  - # 19
    frequency:   15.3182860715
  - # 20
    frequency:   15.7413807552
  - # 21
    frequency:   16.1632963915
  - # 22
    frequency:   19.4654426810
  - # 23
    frequency:   31.5966014590
  - # 24
    frequency:   67.5715739417

- q-position: [    0.1010101,    0.0000000,    0.0000000 ]
  distance:    0.0376115
  band:
  - # 1
    frequency:   -3.3811548869
  - # 2
    frequency:   -2.2583841742
  - # 3
    frequency:   -0.2955071509
  - # 4
    frequency:    0.6948958191
  - # 5
    frequency:    1.1449688410
  - # 6
    frequency:    1.4012658862
  - # 7
    frequency:    2.1239501155
  - # 8
    frequency:    2.5313667606
  - # 9
    frequency:    3.8354525707
  - # 10
    frequency:    4.5995621343
  - # 11
    frequency:    6.4531630561
  - # 12
    frequency:    6.5963865311
  - # 13
    frequency:    7.3617131285
  - # 14
    frequency:    8.6061606550
  - # 15
    frequency:    8.7305967957
  - # 16
    frequency:   11.2548126348
  - # 17
    frequency:   13.8152870399
  - # 18
    frequency:   13.9051487624
  - # 19
    frequency:   15.2838891905
  - # 20
    frequency:   15.7151299615
  - # 21
    frequency:   16.1474367660
  - # 22
    frequency:   19.4509195042
  - # 23
    frequency:   31.5783859965
  - # 24
    frequency:   67.5634099654

- q-position: [    0.1060606,    0.0000000,    0.0000000 ]
  distance:    0.0394921
  band:
  - # 1
    frequency:   -3.5164639322
  - # 2
    frequency:   -2.3510971363
  - # 3
    frequency:    0.1211344692
  - # 4
    frequency:    0.7377221540
  - # 5
    frequency:    1.1703784705
  - # 6
    frequency:    1.4063404798
  - # 7
    frequency:    2.2105478109
  - # 8
    frequency:    2.5500343048
  - # 9
    frequency:    3.8216307967
  - # 10
    frequency:    4.6441228630
  - # 11
    frequency:    6.4489640369
  - # 12
    frequency:    6.5703253490
  - # 13
    frequency:    7.3784772085
  - # 14
    frequency:    8.4953370040
  - # 15
    frequency:    8.6305199114
  - # 16
    frequency:   11.2204578354
  - # 17
    frequency:   13.8177841023
  - # 18
    frequency:   13.9163222959
  - # 19
    frequency:   15.2510956723
  - # 20
    frequency:   15.6888246313
  - # 21
    frequency:   16.1302083973
  - # 22
    frequency:   19.4353200380
  - # 23
    frequency:   31.5596916319
  - # 24
    frequency:   67.5549615741

- q-position: [    0.1111111,    0.0000000,    0.0000000 ]
  distance:    0.0413727
  band:
  - # 1
    frequency:   -3.6471049047
  - # 2
    frequency:   -2.4409968356
  - # 3
    frequency:    0.3350021942
  - # 4
    frequency:    0.7810155443
  - # 5
    frequency:    1.1800395522
  - # 6
    frequency:    1.4062143542
  - # 7
    frequency:    2.2898624197
  - # 8
    frequency:    2.5546191551
  - # 9
    frequency:    3.8100063298
  - # 10
    frequency:    4.6909376853
  - # 11
    frequency:    6.4469322229
  - # 12
    frequency:    6.5432595043
  - # 13
    frequency:    7.3918537311
  - # 14
    frequency:    8.3912005768
  - # 15
    frequency:    8.5332548130
  - # 16
    frequency:   11.1849754461
  - # 17
    frequency:   13.8203733228
  - # 18
    frequency:   13.9279428647
  - # 19
    frequency:   15.2199377149
  - # 20
    frequency:   15.6626018215
  - # 21
    frequency:   16.1117301125
  - # 22
    frequency:   19.4186680283
  - # 23
    frequency:   31.5405744948
  - # 24
    frequency:   67.5462462384

- q-position: [    0.1161616,    0.0000000,    0.0000000 ]
  distance:    0.0432533
  band:
  - # 1
    frequency:   -3.7729220652
  - # 2
    frequency:   -2.5279894302
  - # 3
    frequency:    0.4417537900
  - # 4
    frequency:    0.8247416546
  - # 5
    frequency:    1.1595602220
  - # 6
    frequency:    1.4101193627
  - # 7
    frequency:    2.3494542788
  - # 8
    frequency:    2.5563854724
  - # 9
    frequency:    3.8014946773
  - # 10
    frequency:    4.7401825841
  - # 11
    frequency:    6.4470959369
  - # 12
    frequency:    6.5155225745
  - # 13
    frequency:    7.4007973373
  - # 14
    frequency:    8.2964868047
  - # 15
    frequency:    8.4396045105
  - # 16
    frequency:   11.1484422783
  - # 17
    frequency:   13.8230507365
  - # 18
    frequency:   13.9400040402
  - # 19
    frequency:   15.1904260840
  - # 20
    frequency:   15.6365951769
  - # 21
    frequency:   16.0921203998
  - # 22
    frequency:   19.4009954710
  - # 23
    frequency:   31.5210908156
  - # 24
    frequency:   67.5372816917

- q-position: [    0.1212121,    0.0000000,    0.0000000 ]
  distance:    0.0451338
  band:
  - # 1
    frequency:   -3.8937679777
  - # 2
    frequency:   -2.6119859545
  - # 3
    frequency:    0.4971101937
  - # 4
    frequency:    0.8688050036
  - # 5
    frequency:    1.0939779588
  - # 6
    frequency:    1.4257232285
  - # 7
    frequency:    2.3616554965
  - # 8
    frequency:    2.5832720596
  - # 9
    frequency:    3.7970214823
  - # 10
    frequency:    4.7918051847
  - # 11
    frequency:    6.4494728481
  - # 12
    frequency:    6.4875275730
  - # 13
    frequency:    7.4041573722
  - # 14
    frequency:    8.2140392210
  - # 15
    frequency:    8.3502664904
  - # 16
    frequency:   11.1109381740
  - # 17
    frequency:   13.8258123385
  - # 18
    frequency:   13.9524998864
  - # 19
    frequency:   15.1625527912
  - # 20
    frequency:   15.6109343122
  - # 21
    frequency:   16.0714972523
  - # 22
    frequency:   19.3823417808
  - # 23
    frequency:   31.5012966477
  - # 24
    frequency:   67.5280858641

- q-position: [    0.1262626,    0.0000000,    0.0000000 ]
  distance:    0.0470144
  band:
  - # 1
    frequency:   -4.0095037305
  - # 2
    frequency:   -2.6929024769
  - # 3
    frequency:    0.4916972531
  - # 4
    frequency:    0.9130888127
  - # 5
    frequency:    0.9724019651
  - # 6
    frequency:    1.4520564129
  - # 7
    frequency:    2.3199226038
  - # 8
    frequency:    2.6447323731
  - # 9
    frequency:    3.7974320953
  - # 10
    frequency:    4.8454869807
  - # 11
    frequency:    6.4540806833
  - # 12
    frequency:    6.4597585102
  - # 13
    frequency:    7.4009579301
  - # 14
    frequency:    8.1464591297
  - # 15
    frequency:    8.2658089030
  - # 16
    frequency:   11.0725458575
  - # 17
    frequency:   13.8286541320
  - # 18
    frequency:   13.9654249028
  - # 19
    frequency:   15.1362939821
  - # 20
    frequency:   15.5857442474
  - # 21
    frequency:   16.0499780622
  - # 22
    frequency:   19.3627528715
  - # 23
    frequency:   31.4812475961
  - # 24
    frequency:   67.5186768180

- q-position: [    0.1313131,    0.0000000,    0.0000000 ]
  distance:    0.0488950
  band:
  - # 1
    frequency:   -4.1199991314
  - # 2
    frequency:   -2.7706602404
  - # 3
    frequency:    0.3711661180
  - # 4
    frequency:    0.7742928992
  - # 5
    frequency:    0.9575712092
  - # 6
    frequency:    1.4848634437
  - # 7
    frequency:    2.2500645186
  - # 8
    frequency:    2.7222422911
  - # 9
    frequency:    3.8034006091
  - # 10
    frequency:    4.9006469964
  - # 11
    frequency:    6.4327537075
  - # 12
    frequency:    6.4609515696
  - # 13
    frequency:    7.3908839335
  - # 14
    frequency:    8.0955418555
  - # 15
    frequency:    8.1866549334
  - # 16
    frequency:   11.0333507868
  - # 17
    frequency:   13.8315721842
  - # 18
    frequency:   13.9787739649
  - # 19
    frequency:   15.1116129190
  - # 20
    frequency:   15.5611448962
  - # 21
    frequency:   16.0276795549
  - # 22
    frequency:   19.3422801744
  - # 23
    frequency:   31.4609985535
  - # 24
    frequency:   67.5090726843

- q-position: [    0.1363636,    0.0000000,    0.0000000 ]
  distance:    0.0507756
  band:
  - # 1
    frequency:   -4.2251328779
  - # 2
    frequency:   -2.8451857872
  - # 3
    frequency:   -0.3490841214
  - # 4
    frequency:    0.4094316792
  - # 5
    frequency:    1.0023649931
  - # 6
    frequency:    1.5211743319
  - # 7