nqpoint: 300    
npath: 3      
segment_nqpoint:
- 100
- 100
- 100
labels:
- [ 'G', 'M' ]
- [ 'M', 'K' ]
- [ 'K', 'G' ]
reciprocal_lattice:
- [   0.29948217,   0.17290611,   0.00000000 ] # a*
- [   0.00000000,   0.34581222,   0.00000000 ] # b*
- [   0.00000000,   0.00000000,   0.03954161 ] # c*
natom: 7      
lattice:
- [     3.339096943875505,     0.000000000000000,     0.000000000000000 ] # a
- [    -1.669548471937753,     2.891742779070875,     0.000000000000000 ] # b
- [     0.000000000000000,     0.000000000000000,    25.289817771750229 ] # c
points:
- symbol: C # 1
  coordinates: [  0.333332985432215,  0.666666983183674,  0.596469231288382 ]
  mass: 12.010700
- symbol: H # 2
  coordinates: [  0.666666984744047,  0.333332985985145,  0.355874450390598 ]
  mass: 1.007940
- symbol: N # 3
  coordinates: [  0.000000000000000,  0.000000000000000,  0.443179566790368 ]
  mass: 14.006700
- symbol: N # 4
  coordinates: [  0.333332985432215,  0.666666983183674,  0.547150558308665 ]
  mass: 14.006700
- symbol: O # 5
  coordinates: [  0.333332985432215,  0.666666983183674,  0.644125549609402 ]
  mass: 15.999400
- symbol: Zr # 6
  coordinates: [  0.333332985432215,  0.666666983183674,  0.396171604475814 ]
  mass: 91.224000
- symbol: Zr # 7
  coordinates: [  0.666666984744047,  0.333332985985145,  0.489512443695176 ]
  mass: 91.224000

phonon:
- q-position: [    0.0000000,    0.0000000,    0.0000000 ]
  distance:    0.0000000
  band:
  - # 1
    frequency:   -1.3340861253
  - # 2
    frequency:   -1.3340861251
  - # 3
    frequency:   -0.0000297880
  - # 4
    frequency:   -0.0000004738
  - # 5
    frequency:    0.0000235192
  - # 6
    frequency:    3.0357519634
  - # 7
    frequency:    3.0357519635
  - # 8
    frequency:    5.2972345188
  - # 9
    frequency:    6.4951660266
  - # 10
    frequency:    6.4951660266
  - # 11
    frequency:    8.6017406740
  - # 12
    frequency:   12.8162504590
  - # 13
    frequency:   15.2406387265
  - # 14
    frequency:   15.2406387267
  - # 15
    frequency:   17.2076090233
  - # 16
    frequency:   17.2076090234
  - # 17
    frequency:   27.1919107895
  - # 18
    frequency:   29.5217410618
  - # 19
    frequency:   29.5217410620
  - # 20
    frequency:   38.2541467894
  - # 21
    frequency:   68.9110399251

- q-position: [    0.0050505,    0.0000000,    0.0000000 ]
  distance:    0.0017465
  band:
  - # 1
    frequency:   -1.3365856431
  - # 2
    frequency:   -1.3353842801
  - # 3
    frequency:   -0.0009253873
  - # 4
    frequency:    0.0753997437
  - # 5
    frequency:    0.1235836084
  - # 6
    frequency:    3.0340949740
  - # 7
    frequency:    3.0344662437
  - # 8
    frequency:    5.2963804968
  - # 9
    frequency:    6.4954707249
  - # 10
    frequency:    6.4964471351
  - # 11
    frequency:    8.6011169395
  - # 12
    frequency:   12.8165253141
  - # 13
    frequency:   15.2407126872
  - # 14
    frequency:   15.2413208993
  - # 15
    frequency:   17.2076950503
  - # 16
    frequency:   17.2077888555
  - # 17
    frequency:   27.1914993068
  - # 18
    frequency:   29.5208742889
  - # 19
    frequency:   29.5209477957
  - # 20
    frequency:   38.2541398524
  - # 21
    frequency:   68.9098450920

- q-position: [    0.0101010,    0.0000000,    0.0000000 ]
  distance:    0.0034931
  band:
  - # 1
    frequency:   -1.3439616975
  - # 2
    frequency:   -1.3391154521
  - # 3
    frequency:   -0.0037008100
  - # 4
    frequency:    0.1500283593
  - # 5
    frequency:    0.2461211434
  - # 6
    frequency:    3.0291482752
  - # 7
    frequency:    3.0306082456
  - # 8
    frequency:    5.2938405478
  - # 9
    frequency:    6.4963833292
  - # 10
    frequency:    6.5002720316
  - # 11
    frequency:    8.5992462097
  - # 12
    frequency:   12.8173492637
  - # 13
    frequency:   15.2409341110
  - # 14
    frequency:   15.2433599218
  - # 15
    frequency:   17.2079529489
  - # 16
    frequency:   17.2083281103
  - # 17
    frequency:   27.1902666339
  - # 18
    frequency:   29.5182767489
  - # 19
    frequency:   29.5185717233
  - # 20
    frequency:   38.2541190957
  - # 21
    frequency:   68.9062631131

- q-position: [    0.0151515,    0.0000000,    0.0000000 ]
  distance:    0.0052396
  band:
  - # 1
    frequency:   -1.3558708542
  - # 2
    frequency:   -1.3448400310
  - # 3
    frequency:   -0.0083169433
  - # 4
    frequency:    0.2232062425
  - # 5
    frequency:    0.3667205170
  - # 6
    frequency:    3.0209846692
  - # 7
    frequency:    3.0241755075
  - # 8
    frequency:    5.2896800133
  - # 9
    frequency:    6.4978993824
  - # 10
    frequency:    6.5065864298
  - # 11
    frequency:    8.5961299255
  - # 12
    frequency:   12.8187204461
  - # 13
    frequency:   15.2413016259
  - # 14
    frequency:   15.2467334126
  - # 15
    frequency:   17.2083821740
  - # 16
    frequency:   17.2092260623
  - # 17
    frequency:   27.1882180748
  - # 18
    frequency:   29.5139567695
  - # 19
    frequency:   29.5146240157
  - # 20
    frequency:   38.2540846820
  - # 21
    frequency:   68.9003015423

- q-position: [    0.0202020,    0.0000000,    0.0000000 ]
  distance:    0.0069861
  band:
  - # 1
    frequency:   -1.3718108495
  - # 2
    frequency:   -1.3519630307
  - # 3
    frequency:   -0.0147574923
  - # 4
    frequency:    0.2944100737
  - # 5
    frequency:    0.4847325842
  - # 6
    frequency:    3.0097254641
  - # 7
    frequency:    3.0151641147
  - # 8
    frequency:    5.2840045617
  - # 9
    frequency:    6.5000115077
  - # 10
    frequency:    6.5153030532
  - # 11
    frequency:    8.5917705542
  - # 12
    frequency:   12.8206357107
  - # 13
    frequency:   15.2418129474
  - # 14
    frequency:   15.2514044191
  - # 15
    frequency:   17.2089818178
  - # 16
    frequency:   17.2104815017
  - # 17
    frequency:   27.1853623985
  - # 18
    frequency:   29.5079281967
  - # 19
    frequency:   29.5091232703
  - # 20
    frequency:   38.2540368816
  - # 21
    frequency:   68.8919729457

- q-position: [    0.0252525,    0.0000000,    0.0000000 ]
  distance:    0.0087326
  band:
  - # 1
    frequency:   -1.3911974132
  - # 2
    frequency:   -1.3598637196
  - # 3
    frequency:   -0.0229957412
  - # 4
    frequency:    0.3632982063
  - # 5
    frequency:    0.5997564769
  - # 6
    frequency:    2.9955403931
  - # 7
    frequency:    3.0035689846
  - # 8
    frequency:    5.2769557787
  - # 9
    frequency:    6.5027094825
  - # 10
    frequency:    6.5263059940
  - # 11
    frequency:    8.5861716854
  - # 12
    frequency:   12.8230905521
  - # 13
    frequency:   15.2424648840
  - # 14
    frequency:   15.2573219303
  - # 15
    frequency:   17.2097506122
  - # 16
    frequency:   17.2120927333
  - # 17
    frequency:   27.1817117333
  - # 18
    frequency:   29.5002103459
  - # 19
    frequency:   29.5020954775
  - # 20
    frequency:   38.2539760711
  - # 21
    frequency:   68.8812948654

- q-position: [    0.0303030,    0.0000000,    0.0000000 ]
  distance:    0.0104792
  band:
  - # 1
    frequency:   -1.4134333323
  - # 2
    frequency:   -1.3679878832
  - # 3
    frequency:   -0.0329905867
  - # 4
    frequency:    0.4297011102
  - # 5
    frequency:    0.7115880655
  - # 6
    frequency:    2.9786474248
  - # 7
    frequency:    2.9893842801
  - # 8
    frequency:    5.2687057647
  - # 9
    frequency:    6.5059803415
  - # 10
    frequency:    6.5394560367
  - # 11
    frequency:    8.5793381586
  - # 12
    frequency:   12.8260790255
  - # 13
    frequency:   15.2432533432
  - # 14
    frequency:   15.2644215727
  - # 15
    frequency:   17.2106869315
  - # 16
    frequency:   17.2140575746
  - # 17
    frequency:   27.1772814220
  - # 18
    frequency:   29.4908279325
  - # 19
    frequency:   29.4935739732
  - # 20
    frequency:   38.2539027311
  - # 21
    frequency:   68.8682897702

- q-position: [    0.0353535,    0.0000000,    0.0000000 ]
  distance:    0.0122257
  band:
  - # 1
    frequency:   -1.4379575293
  - # 2
    frequency:   -1.3758916041
  - # 3
    frequency:   -0.0446813515
  - # 4
    frequency:    0.4935908578
  - # 5
    frequency:    0.8201503991
  - # 6
    frequency:    2.9593123802
  - # 7
    frequency:    2.9726039584
  - # 8
    frequency:    5.2594513041
  - # 9
    frequency:    6.5098085027
  - # 10
    frequency:    6.5545963775
  - # 11
    frequency:    8.5712762196
  - # 12
    frequency:   12.8295936527
  - # 13
    frequency:   15.2441733407
  - # 14
    frequency:   15.2726264683
  - # 15
    frequency:   17.2117887954
  - # 16
    frequency:   17.2163733538
  - # 17
    frequency:   27.1720898383
  - # 18
    frequency:   29.4798109831
  - # 19
    frequency:   29.4835993760
  - # 20
    frequency:   38.2538174444
  - # 21
    frequency:   68.8529849907

- q-position: [    0.0404040,    0.0000000,    0.0000000 ]
  distance:    0.0139722
  band:
  - # 1
    frequency:   -1.4642726680
  - # 2
    frequency:   -1.3832484056
  - # 3
    frequency:   -0.0579813145
  - # 4
    frequency:    0.5550438358
  - # 5
    frequency:    0.9254323316
  - # 6
    frequency:    2.9378482395
  - # 7
    frequency:    2.9532224747
  - # 8
    frequency:    5.2494081066
  - # 9
    frequency:    6.5141759162
  - # 10
    frequency:    6.5715582274
  - # 11
    frequency:    8.5619936972
  - # 12
    frequency:   12.8336253271
  - # 13
    frequency:   15.2452190117
  - # 14
    frequency:   15.2818482310
  - # 15
    frequency:   17.2130538730
  - # 16
    frequency:   17.2190369070
  - # 17
    frequency:   27.1661581696
  - # 18
    frequency:   29.4671947276
  - # 19
    frequency:   29.4722195056
  - # 20
    frequency:   38.2537208922
  - # 21
    frequency:   68.8354126421

- q-position: [    0.0454545,    0.0000000,    0.0000000 ]
  distance:    0.0157187
  band:
  - # 1
    frequency:   -1.4919559526
  - # 2
    frequency:   -1.3898367860
  - # 3
    frequency:   -0.0727698921
  - # 4
    frequency:    0.6142060818
  - # 5
    frequency:    1.0274449153
  - # 6
    frequency:    2.9146139877
  - # 7
    frequency:    2.9312356588
  - # 8
    frequency:    5.2388054951
  - # 9
    frequency:    6.5190622296
  - # 10
    frequency:    6.5901659115
  - # 11
    frequency:    8.5515001967
  - # 12
    frequency:   12.8381632269
  - # 13
    frequency:   15.2463836252
  - # 14
    frequency:   15.2919880729
  - # 15
    frequency:   17.2144794876
  - # 16
    frequency:   17.2220445751
  - # 17
    frequency:   27.1595101670
  - # 18
    frequency:   29.4530194713
  - # 19
    frequency:   29.4594892828
  - # 20
    frequency:   38.2536138515
  - # 21
    frequency:   68.8156095324

- q-position: [    0.0505051,    0.0000000,    0.0000000 ]
  distance:    0.0174653
  band:
  - # 1
    frequency:   -1.5206593162
  - # 2
    frequency:   -1.3955210094
  - # 3
    frequency:   -0.0888834057
  - # 4
    frequency:    0.6712654429
  - # 5
    frequency:    1.1261949109
  - # 6
    frequency:    2.8900128065
  - # 7
    frequency:    2.9066417921
  - # 8
    frequency:    5.2278817555
  - # 9
    frequency:    6.5244449687
  - # 10
    frequency:    6.6102412259
  - # 11
    frequency:    8.5398073017
  - # 12
    frequency:   12.8431947457
  - # 13
    frequency:   15.2476596017
  - # 14
    frequency:   15.3029379937
  - # 15
    frequency:   17.2160626214
  - # 16
    frequency:   17.2253921996
  - # 17
    frequency:   27.1521718694
  - # 18
    frequency:   29.4373304487
  - # 19
    frequency:   29.4454706070
  - # 20
    frequency:   38.2534971908
  - # 21
    frequency:   68.7936170569

- q-position: [    0.0555556,    0.0000000,    0.0000000 ]
  distance:    0.0192118
  band:
  - # 1
    frequency:   -1.5501041909
  - # 2
    frequency:   -1.4002322906
  - # 3
    frequency:   -0.1061043771
  - # 4
    frequency:    0.7264312281
  - # 5
    frequency:    1.2216710451
  - # 6
    frequency:    2.8644893949
  - # 7
    frequency:    2.8794429160
  - # 8
    frequency:    5.2168802248
  - # 9
    frequency:    6.5302997279
  - # 10
    frequency:    6.6316069578
  - # 11
    frequency:    8.5269287814
  - # 12
    frequency:   12.8487054480
  - # 13
    frequency:   15.2490385338
  - # 14
    frequency:   15.3145820241
  - # 15
    frequency:   17.2177999213
  - # 16
    frequency:   17.2290751189
  - # 17
    frequency:   27.1441713023
  - # 18
    frequency:   29.4201776578
  - # 19
    frequency:   29.4302322102
  - # 20
    frequency:   38.2533718654
  - # 21
    frequency:   68.7694810809

- q-position: [    0.0606061,    0.0000000,    0.0000000 ]
  distance:    0.0209583
  band:
  - # 1
    frequency:   -1.5800743230
  - # 2
    frequency:   -1.4039533271
  - # 3
    frequency:   -0.1241493044
  - # 4
    frequency:    0.7799203131
  - # 5
    frequency:    1.3138384871
  - # 6
    frequency:    2.8385261752
  - # 7
    frequency:    2.8496464137
  - # 8
    frequency:    5.2060460722
  - # 9
    frequency:    6.5366003675
  - # 10
    frequency:    6.6540895801
  - # 11
    frequency:    8.5128807965
  - # 12
    frequency:   12.8546790563
  - # 13
    frequency:   15.2505112113
  - # 14
    frequency:   15.3267974969
  - # 15
    frequency:   17.2196877051
  - # 16
    frequency:   17.2330881636
  - # 17
    frequency:   27.1355381595
  - # 18
    frequency:   29.4016156768
  - # 19
    frequency:   29.4138494831
  - # 20
    frequency:   38.2532389133
  - # 21
    frequency:   68.7432518079

- q-position: [    0.0656566,    0.0000000,    0.0000000 ]
  distance:    0.0227048
  band:
  - # 1
    frequency:   -1.6104085956
  - # 2
    frequency:   -1.4067067871
  - # 3
    frequency:   -0.1426548501
  - # 4
    frequency:    0.8319481380
  - # 5
    frequency:    1.4026380793
  - # 6
    frequency:    2.8126381555
  - # 7
    frequency:    2.8172669152
  - # 8
    frequency:    5.1956236569
  - # 9
    frequency:    6.5433192147
  - # 10
    frequency:    6.6775212080
  - # 11
    frequency:    8.4976821027
  - # 12
    frequency:   12.8610974745
  - # 13
    frequency:   15.2520676503
  - # 14
    frequency:   15.3394563200
  - # 15
    frequency:   17.2217219680
  - # 16
    frequency:   17.2374256527
  - # 17
    frequency:   27.1263034705
  - # 18
    frequency:   29.3817034615
  - # 19
    frequency:   29.3964042735
  - # 20
    frequency:   38.2530994494
  - # 21
    frequency:   68.7149836365

- q-position: [    0.0707071,    0.0000000,    0.0000000 ]
  distance:    0.0244514
  band:
  - # 1
    frequency:   -1.6409947727
  - # 2
    frequency:   -1.4085472641
  - # 3
    frequency:   -0.1611622883
  - # 4
    frequency:    0.8827231085
  - # 5
    frequency:    1.4879880326
  - # 6
    frequency:    2.7823285871
  - # 7
    frequency:    2.7873662556
  - # 8
    frequency:    5.1858543063
  - # 9
    frequency:    6.5504272640
  - # 10
    frequency:    6.7017409398
  - # 11
    frequency:    8.4813542484
  - # 12
    frequency:   12.8679408500
  - # 13
    frequency:   15.2536971270
  - # 14
    frequency:   15.3524262298
  - # 15
    frequency:   17.2238983901
  - # 16
    frequency:   17.2420813894
  - # 17
    frequency:   27.1164992587
  - # 18
    frequency:   29.3605041261
  - # 19
    frequency:   29.3779846509
  - # 20
    frequency:   38.2529546601
  - # 21
    frequency:   68.6847350048

- q-position: [    0.0757576,    0.0000000,    0.0000000 ]
  distance:    0.0261979
  band:
  - # 1
    frequency:   -1.6717644576
  - # 2
    frequency:   -1.4095557634
  - # 3
    frequency:   -0.1790997751
  - # 4
    frequency:    0.9324431887
  - # 5
    frequency:    1.5697867330
  - # 6
    frequency:    2.7448678867
  - # 7
    frequency:    2.7632689915
  - # 8
    frequency:    5.1769743501
  - # 9
    frequency:    6.5578943754
  - # 10
    frequency:    6.7265957138
  - # 11
    frequency:    8.4639217665
  - # 12
    frequency:   12.8751876758
  - # 13
    frequency:   15.2553882156
  - # 14
    frequency:   15.3655720059
  - # 15
    frequency:   17.2262123440
  - # 16
    frequency:   17.2470486590
  - # 17
    frequency:   27.1061581973
  - # 18
    frequency:   29.3380847062
  - # 19
    frequency:   29.3586846381
  - # 20
    frequency:   38.2528057977
  - # 21
    frequency:   68.6525682232

- q-position: [    0.0808081,    0.0000000,    0.0000000 ]
  distance:    0.0279444
  band:
  - # 1
    frequency:   -1.7026892177
  - # 2
    frequency:   -1.4098356402
  - # 3
    frequency:   -0.1957613165
  - # 4
    frequency:    0.9812937574
  - # 5
    frequency:    1.6479159832
  - # 6
    frequency:    2.7049368793
  - # 7
    frequency:    2.7409125282
  - # 8
    frequency:    5.1692132610
  - # 9
    frequency:    6.5656894685
  - # 10
    frequency:    6.7519408050
  - # 11
    frequency:    8.4454123616
  - # 12
    frequency:   12.8828149319
  - # 13
    frequency:   15.2571288319
  - # 14
    frequency:   15.3787566320
  - # 15
    frequency:   17.2286589040
  - # 16
    frequency:   17.2523202277
  - # 17
    frequency:   27.0953132664
  - # 18
    frequency:   29.3145159058
  - # 19
    frequency:   29.3386039046
  - # 20
    frequency:   38.2526541737
  - # 21
    frequency:   68.6185492959

- q-position: [    0.0858586,    0.0000000,    0.0000000 ]
  distance:    0.0296909
  band:
  - # 1
    frequency:   -1.7337776589
  - # 2
    frequency:   -1.4095088610
  - # 3
    frequency:   -0.2102797000
  - # 4
    frequency:    1.0294460287
  - # 5
    frequency:    1.7222445054
  - # 6
    frequency:    2.6626072451
  - # 7
    frequency:    2.7208592314
  - # 8
    frequency:    5.1627917785
  - # 9
    frequency:    6.5737807085
  - # 10
    frequency:    6.7776400640
  - # 11
    frequency:    8.4258570948
  - # 12
    frequency:   12.8907982623
  - # 13
    frequency:   15.2589062816
  - # 14
    frequency:   15.3918423902
  - # 15
    frequency:   17.2312328553
  - # 16
    frequency:   17.2578883439
  - # 17
    frequency:   27.0839974185
  - # 18
    frequency:   29.2898718282
  - # 19
    frequency:   29.3178474218
  - # 20
    frequency:   38.2525011527
  - # 21
    frequency:   68.5827477323

- q-position: [    0.0909091,    0.0000000,    0.0000000 ]
  distance:    0.0314375
  band:
  - # 1
    frequency:   -1.7650731554
  - # 2
    frequency:   -1.4087114633
  - # 3
    frequency:   -0.2215870214
  - # 4
    frequency:    1.0770554749
  - # 5
    frequency:    1.7926319628
  - # 6
    frequency:    2.6179751470
  - # 7
    frequency:    2.7036549097
  - # 8
    frequency:    5.1579199313
  - # 9
    frequency:    6.5821356855
  - # 10
    frequency:    6.8035659796
  - # 11
    frequency:    8.4052905679
  - # 12
    frequency:   12.8991121856
  - # 13
    frequency:   15.2607073136
  - # 14
    frequency:   15.4046918811
  - # 15
    frequency:   17.2339287054
  - # 16
    frequency:   17.2637447428
  - # 17
    frequency:   27.0722432559
  - # 18
    frequency:   29.2642296919
  - # 19
    frequency:   29.2965250764
  - # 20
    frequency:   38.2523481452
  - # 21
    frequency:   68.5452363472

- q-position: [    0.0959596,    0.0000000,    0.0000000 ]
  distance:    0.0331840
  band:
  - # 1
    frequency:   -1.7966519010
  - # 2
    frequency:   -1.4075871676
  - # 3
    frequency:   -0.2283478981
  - # 4
    frequency:    1.1242597439
  - # 5
    frequency:    1.8589341833
  - # 6
    frequency:    2.5711671914
  - # 7
    frequency:    2.6898148805
  - # 8
    frequency:    5.1547949146
  - # 9
    frequency:    6.5907215837
  - # 10
    frequency:    6.8295996231
  - # 11
    frequency:    8.3837511143
  - # 12
    frequency:   12.9077303332
  - # 13
    frequency:   15.2625181784
  - # 14
    frequency:   15.4171689630
  - # 15
    frequency:   17.2367406957
  - # 16
    frequency:   17.2698806550
  - # 17
    frequency:   27.0600827269
  - # 18
    frequency:   29.2376695324
  - # 19
    frequency:   29.2747512421
  - # 20
    frequency:   38.2521966012
  - # 21
    frequency:   68.5060910531

- q-position: [    0.1010101,    0.0000000,    0.0000000 ]
  distance:    0.0349305
  band:
  - # 1
    frequency:   -1.8286209291
  - # 2
    frequency:   -1.4062783303
  - # 3
    frequency:   -0.2288286628
  - # 4
    frequency:    1.1711755165
  - # 5
    frequency:    1.9210107067
  - # 6
    frequency:    2.5223478227
  - # 7
    frequency:    2.6798087690
  - # 8
    frequency:    5.1535988210
  - # 9
    frequency:    6.5995053420
  - # 10
    frequency:    6.8556305098
  - # 11
    frequency:    8.3612809994
  - # 12
    frequency:   12.9166257109
  - # 13
    frequency:   15.2643246912
  - # 14
    frequency:   15.4291396085
  - # 15
    frequency:   17.2396628154
  - # 16
    frequency:   17.2762868194
  - # 17
    frequency:   27.0475468441
  - # 18
    frequency:   29.2102738911
  - # 19
    frequency:   29.2526443073
  - # 20
    frequency:   38.2520480026
  - # 21
    frequency:   68.4653906416

- q-position: [    0.1060606,    0.0000000,    0.0000000 ]
  distance:    0.0366771
  band:
  - # 1
    frequency:   -1.8611157325
  - # 2
    frequency:   -1.4049139319
  - # 3
    frequency:   -0.2206014024
  - # 4
    frequency:    1.2178935781
  - # 5
    frequency:    1.9787360882
  - # 6
    frequency:    2.4717286800
  - # 7
    frequency:    2.6740436491
  - # 8
    frequency:    5.1544962666
  - # 9
    frequency:    6.6084538034
  - # 10
    frequency:    6.8815563991
  - # 11
    frequency:    8.3379266376
  - # 12
    frequency:   12.9257709769
  - # 13
    frequency:   15.2661123001
  - # 14
    frequency:   15.4404726764
  - # 15
    frequency:   17.2426888171
  - # 16
    frequency:   17.2829535025
  - # 17
    frequency:   27.0346654308
  - # 18
    frequency:   29.1821274923
  - # 19
    frequency:   29.2303261590
  - # 20
    frequency:   38.2519038562
  - # 21
    frequency:   68.4232165585

- q-position: [    0.1111111,    0.0000000,    0.0000000 ]
  distance:    0.0384236
  band:
  - # 1
    frequency:   -1.8942971038
  - # 2
    frequency:   -1.4035951169
  - # 3
    frequency:   -0.1997419734
  - # 4
    frequency:    1.2644710113
  - # 5
    frequency:    2.0320162496
  - # 6
    frequency:    2.4195807826
  - # 7
    frequency:    2.6728450923
  - # 8
    frequency:    5.1576319932
  - # 9
    frequency:    6.6175338559
  - # 10
    frequency:    6.9072830393
  - # 11
    frequency:    8.3137388333
  - # 12
    frequency:   12.9351387315
  - # 13
    frequency:   15.2678661574
  - # 14
    frequency:   15.4510406015
  - # 15
    frequency:   17.2458122342
  - # 16
    frequency:   17.2898705227
  - # 17
    frequency:   27.0214668990
  - # 18
    frequency:   29.1533169091
  - # 19
    frequency:   29.2079216239
  - # 20
    frequency:   38.2517656860
  - # 21
    frequency:   68.3796526700

- q-position: [    0.1161616,    0.0000000,    0.0000000 ]
  distance:    0.0401701
  band:
  - # 1
    frequency:   -1.9283468234
  - # 2
    frequency:   -1.4023798737
  - # 3
    frequency:   -0.1578545016
  - # 4
    frequency:    1.3109187132
  - # 5
    frequency:    2.0808100020
  - # 6
    frequency:    2.3662510534
  - # 7
    frequency:    2.6764364811
  - # 8
    frequency:    5.1631285570
  - # 9
    frequency:    6.6267125625
  - # 10
    frequency:    6.9327238541
  - # 11
    frequency:    8.2887730518
  - # 12
    frequency:   12.9447018120
  - # 13
    frequency:   15.2695711955
  - # 14
    frequency:   15.4607200041
  - # 15
    frequency:   17.2490264007
  - # 16
    frequency:   17.2970272820
  - # 17
    frequency:   27.0079780626
  - # 18
    frequency:   29.1239302209
  - # 19
    frequency:   29.1855578660
  - # 20
    frequency:   38.2516350261
  - # 21
    frequency:   68.3347850225

- q-position: [    0.1212121,    0.0000000,    0.0000000 ]
  distance:    0.0419166
  band:
  - # 1
    frequency:   -1.9634618555
  - # 2
    frequency:   -1.4012694477
  - # 3
    frequency:   -0.0517499840
  - # 4
    frequency:    1.3571811162
  - # 5
    frequency:    2.1251532429
  - # 6
    frequency:    2.3121859248
  - # 7
    frequency:    2.6849190961
  - # 8
    frequency:    5.1710842378
  - # 9
    frequency:    6.6359572818
  - # 10
    frequency:    6.9577995587
  - # 11
    frequency:    8.2630897308
  - # 12
    frequency:   12.9544335864
  - # 13
    frequency:   15.2712122054
  - # 14
    frequency:   15.4693922232
  - # 15
    frequency:   17.2523244733
  - # 16
    frequency:   17.3044128038
  - # 17
    frequency:   26.9942239894
  - # 18
    frequency:   29.0940566616
  - # 19
    frequency:   29.1633637447
  - # 20
    frequency:   38.2515134128
  - # 21
    frequency:   68.2887015964

- q-position: [    0.1262626,    0.0000000,    0.0000000 ]
  distance:    0.0436632
  band:
  - # 1
    frequency:   -1.9998467923
  - # 2
    frequency:   -1.4001995717
  - # 3
    frequency:    0.1664725552
  - # 4
    frequency:    1.4031024906
  - # 5
    frequency:    2.1651797350
  - # 6
    frequency:    2.2579671630
  - # 7
    frequency:    2.6982586097
  - # 8
    frequency:    5.1815713086
  - # 9
    frequency:    6.6452357799
  - # 10
    frequency:    6.9824376932
  - # 11
    frequency:    8.2367546394
  - # 12
    frequency:   12.9643082405
  - # 13
    frequency:   15.2727739180
  - # 14
    frequency:   15.4769437783
  - # 15
    frequency:   17.2556994564
  - # 16
    frequency:   17.3120157781
  - # 17
    frequency:   26.9802278937
  - # 18
    frequency:   29.0637862633
  - # 19
    frequency:   29.1414691346
  - # 20
    frequency:   38.2514023771
  - # 21
    frequency:   68.2414920547

- q-position: [    0.1313131,    0.0000000,    0.0000000 ]
  distance:    0.0454097
  band:
  - # 1
    frequency:   -2.0377044358
  - # 2
    frequency:   -1.3990391582
  - # 3
    frequency:    0.2587105846
  - # 4
    frequency:    1.4483694996
  - # 5
    frequency:    2.2011299893
  - # 6
    frequency:    2.2043696514
  - # 7
    frequency:    2.7162856481
  - # 8
    frequency:    5.1946347975
  - # 9
    frequency:    6.6545163336
  - # 10
    frequency:    7.0065720526
  - # 11
    frequency:    8.2098392963
  - # 12
    frequency:   12.9743010538
  - # 13
    frequency:   15.2742410861
  - # 14
    frequency:   15.4832667653
  - # 15
    frequency:   17.2591442296
  - # 16
    frequency:   17.3198246117
  - # 17
    frequency:   26.9660110725
  - # 18
    frequency:   29.0332094946
  - # 19
    frequency:   29.1200042112
  - # 20
    frequency:   38.2513034374
  - # 21
    frequency:   68.1932474867

- q-position: [    0.1363636,    0.0000000,    0.0000000 ]
  distance:    0.0471562
  band:
  - # 1
    frequency:   -2.0772246354
  - # 2
    frequency:   -1.3975976772
  - # 3
    frequency:    0.3397175892
  - # 4
    frequency:    1.4924111901
  - # 5
    frequency:    2.1524592990
  - # 6
    frequency:    2.2333416380
  - # 7
    frequency:    2.7387160213
  - # 8
    frequency:    5.2102918493
  - # 9
    frequency:    6.6637678247
  - # 10
    frequency:    7.0301419963
  - # 11
    frequency:    8.1824214582
  - # 12
    frequency:   12.9843886555
  - # 13
    frequency:   15.2755985685
  - # 14
    frequency:   15.4882591913
  - # 15
    frequency:   17.2626515782
  - # 16
    frequency:   17.3278274843
  - # 17
    frequency:   26.9515928840
  - # 18
    frequency:   29.0024168959
  - # 19
    frequency:   29.0990987079
  - # 20
    frequency:   38.2512180916
  - # 21
    frequency:   68.1440601483

- q-position: [    0.1414141,    0.0000000,    0.0000000 ]
  distance:    0.0489027
  band:
  - # 1
    frequency:   -2.1185718033
  - # 2
    frequency:   -1.3956405145
  - # 3
    frequency:    0.4163277816
  - # 4
    frequency:    1.5342247835
  - # 5
    frequency:    2.1037620786
  - # 6
    frequency:    2.2622216495
  - # 7
    frequency:    2.7651892519
  - # 8
    frequency:    5.2285317546
  - # 9
    frequency:    6.6729598272
  - # 10
    frequency:    7.0530916158
  - # 11
    frequency:    8.1545856907
  - # 12
    frequency:   12.9945492590
  - # 13
    frequency:   15.2768314129
  - # 14
    frequency:   15.4918252550
  - # 15
    frequency:   17.2662142260
  - # 16
    frequency:   17.3360124091
  - # 17
    frequency:   26.9369907705
  - # 18
    frequency:   28.9714987149
  - # 19
    frequency:   29.0788811498
  - # 20
    frequency:   38.2511478100
  - # 21
    frequency:   68.0940231998

- q-position: [    0.1464646,    0.0000000,    0.0000000 ]
  distance:    0.0506493
  band:
  - # 1
    frequency:   -2.1618718842
  - # 2
    frequency:   -1.3929099287
  - # 3
    frequency:    0.4905623929
  - # 4
    frequency:    1.5720899024
  - # 5
    frequency:    2.0605410778
  - # 6
    frequency:    2.2882090029
  - # 7
    frequency:    2.7953158968
  - # 8
    frequency:    5.2493166652
  - # 9
    frequency:    6.6820626872
  - # 10
    frequency:    7.0753687424
  - # 11
    frequency:    8.1264240366
  - # 12
    frequency:   13.0047628668
  - # 13
    frequency:   15.2779249382
  - # 14
    frequency:   15.4938755775
  - # 15
    frequency:   17.2698248716
  - # 16
    frequency:   17.3443672953
  - # 17
    frequency:   26.9222203238
  - # 18
    frequency:   28.9405445424
  - # 19
    frequency:   29.0594780702
  - # 20
    frequency:   38.2510940278
  - # 21
    frequency:   68.0432304411

- q-position: [    0.1515152,    0.0000000,    0.0000000 ]
  distance:    0.0523958
  band:
  - # 1
    frequency:   -2.2071998881
  - # 2
    frequency:   -1.3891484289
  - # 3
    frequency:    0.5631539433
  - # 4
    frequency:    1.6032059856
  - # 5
    frequency:    2.0261466564
  - # 6
    frequency:    2.3117402047
  - # 7
    frequency:    2.8287206127
  - # 8
    frequency:    5.2725829612
  - # 9
    frequency:    6.6910475952
  - # 10
    frequency:    7.0969237758
  - # 11
    frequency:    8.0980367967
  - # 12
    frequency:   13.0150114410
  - # 13
    frequency:   15.2788648150
  - # 14
    frequency:   15.4943273913
  - # 15
    frequency:   17.2734762263
  - # 16
    frequency:   17.3528800124
  - # 17
    frequency:   26.9072953903
  - # 18
    frequency:   28.9096429519
  - # 19
    frequency:   29.0410132192
  - # 20
    frequency:   38.2510581379
  - # 21
    frequency:   67.9917760467
