nqpoint: 300    
npath: 3      
segment_nqpoint:
- 100
- 100
- 100
labels:
- [ 'G', 'M' ]
- [ 'M', 'K' ]
- [ 'K', 'G' ]
reciprocal_lattice:
- [   0.26281272,   0.15173500,   0.00000000 ] # a*
- [   0.00000000,   0.30346999,   0.00000000 ] # b*
- [   0.00000000,   0.00000000,   0.03987666 ] # c*
natom: 6      
lattice:
- [     3.804990837365076,     0.000000000000000,     0.000000000000000 ] # a
- [    -1.902495418682538,     3.295218726349728,     0.000000000000000 ] # b
- [     0.000000000000000,     0.000000000000000,    25.077324258726588 ] # c
points:
- symbol: Br # 1
  coordinates: [  0.666666984744048,  0.333332985985145,  0.358889963982825 ]
  mass: 79.904000
- symbol: C # 2
  coordinates: [  0.000000000000000,  0.000000000000000,  0.470358576828862 ]
  mass: 12.010700
- symbol: Cl # 3
  coordinates: [  0.333332985432215,  0.666666983183674,  0.641110036017176 ]
  mass: 35.453000
- symbol: O # 4
  coordinates: [  0.333332985432215,  0.666666983183674,  0.535764236407763 ]
  mass: 15.999400
- symbol: Y # 5
  coordinates: [  0.333332985432215,  0.666666983183674,  0.438040270111920 ]
  mass: 88.905850
- symbol: Y # 6
  coordinates: [  0.666666984744048,  0.333332985985145,  0.561246848443644 ]
  mass: 88.905850

phonon:
- q-position: [    0.0000000,    0.0000000,    0.0000000 ]
  distance:    0.0000000
  band:
  - # 1
    frequency:   -4.0480730889
  - # 2
    frequency:   -4.0480730889
  - # 3
    frequency:   -1.2051055639
  - # 4
    frequency:   -1.2051055637
  - # 5
    frequency:   -0.0000089411
  - # 6
    frequency:    0.0000000658
  - # 7
    frequency:    0.0000253914
  - # 8
    frequency:    2.5108537971
  - # 9
    frequency:    2.5108537972
  - # 10
    frequency:    2.7828987050
  - # 11
    frequency:    5.8745485754
  - # 12
    frequency:    6.4043731136
  - # 13
    frequency:    6.6634722539
  - # 14
    frequency:    6.6634722539
  - # 15
    frequency:    9.0489073744
  - # 16
    frequency:   11.0766836807
  - # 17
    frequency:   12.7387709937
  - # 18
    frequency:   12.7387709937

- q-position: [    0.0050505,    0.0000000,    0.0000000 ]
  distance:    0.0015327
  band:
  - # 1
    frequency:   -4.0484791976
  - # 2
    frequency:   -4.0483074250
  - # 3
    frequency:   -1.2048841685
  - # 4
    frequency:   -1.2044814806
  - # 5
    frequency:    0.0014938659
  - # 6
    frequency:    0.0390411502
  - # 7
    frequency:    0.0676971538
  - # 8
    frequency:    2.5111661901
  - # 9
    frequency:    2.5113263376
  - # 10
    frequency:    2.7827229365
  - # 11
    frequency:    5.8740414673
  - # 12
    frequency:    6.3931058660
  - # 13
    frequency:    6.6628093134
  - # 14
    frequency:    6.6717054435
  - # 15
    frequency:    9.0501029899
  - # 16
    frequency:   11.0758119124
  - # 17
    frequency:   12.7388553373
  - # 18
    frequency:   12.7397620513

- q-position: [    0.0101010,    0.0000000,    0.0000000 ]
  distance:    0.0030654
  band:
  - # 1
    frequency:   -4.0497049034
  - # 2
    frequency:   -4.0490118032
  - # 3
    frequency:   -1.2042336035
  - # 4
    frequency:   -1.2026133900
  - # 5
    frequency:    0.0059328403
  - # 6
    frequency:    0.0781444921
  - # 7
    frequency:    0.1353467776
  - # 8
    frequency:    2.5121019320
  - # 9
    frequency:    2.5127346395
  - # 10
    frequency:    2.7822019082
  - # 11
    frequency:    5.8725149021
  - # 12
    frequency:    6.3628438472
  - # 13
    frequency:    6.6608213043
  - # 14
    frequency:    6.6929022464
  - # 15
    frequency:    9.0536725344
  - # 16
    frequency:   11.0732071809
  - # 17
    frequency:   12.7391084627
  - # 18
    frequency:   12.7427266663

- q-position: [    0.0151515,    0.0000000,    0.0000000 ]
  distance:    0.0045980
  band:
  - # 1
    frequency:   -4.0517723094
  - # 2
    frequency:   -4.0501903252
  - # 3
    frequency:   -1.2031945322
  - # 4
    frequency:   -1.1995137211
  - # 5
    frequency:    0.0133100694
  - # 6
    frequency:    0.1173708290
  - # 7
    frequency:    0.2029013909
  - # 8
    frequency:    2.5136567272
  - # 9
    frequency:    2.5150504992
  - # 10
    frequency:    2.7813549044
  - # 11
    frequency:    5.8699515058
  - # 12
    frequency:    6.3199511525
  - # 13
    frequency:    6.6575106642
  - # 14
    frequency:    6.7208106257
  - # 15
    frequency:    9.0595644860
  - # 16
    frequency:   11.0689009084
  - # 17
    frequency:   12.7395306533
  - # 18
    frequency:   12.7476394772

- q-position: [    0.0202020,    0.0000000,    0.0000000 ]
  distance:    0.0061307
  band:
  - # 1
    frequency:   -4.0547181291
  - # 2
    frequency:   -4.0518498007
  - # 3
    frequency:   -1.2018340049
  - # 4
    frequency:   -1.1952030224
  - # 5
    frequency:    0.0235923974
  - # 6
    frequency:    0.1567781654
  - # 7
    frequency:    0.2703135416
  - # 8
    frequency:    2.5158234667
  - # 9
    frequency:    2.5182260734
  - # 10
    frequency:    2.7802155892
  - # 11
    frequency:    5.8663159884
  - # 12
    frequency:    6.2690970972
  - # 13
    frequency:    6.6528814589
  - # 14
    frequency:    6.7509528097
  - # 15
    frequency:    9.0676942460
  - # 16
    frequency:   11.0629444980
  - # 17
    frequency:   12.7401223783
  - # 18
    frequency:   12.7544592274

- q-position: [    0.0252525,    0.0000000,    0.0000000 ]
  distance:    0.0076634
  band:
  - # 1
    frequency:   -4.0585934809
  - # 2
    frequency:   -4.0539997069
  - # 3
    frequency:   -1.2002441811
  - # 4
    frequency:   -1.1897096915
  - # 5
    frequency:    0.0367300840
  - # 6
    frequency:    0.1964202895
  - # 7
    frequency:    0.3375357365
  - # 8
    frequency:    2.5185923016
  - # 9
    frequency:    2.5221925699
  - # 10
    frequency:    2.7788343307
  - # 11
    frequency:    5.8615420416
  - # 12
    frequency:    6.2130206005
  - # 13
    frequency:    6.6469393864
  - # 14
    frequency:    6.7808716971
  - # 15
    frequency:    9.0779460118
  - # 16
    frequency:   11.0554079674
  - # 17
    frequency:   12.7408842896
  - # 18
    frequency:   12.7631301975

- q-position: [    0.0303030,    0.0000000,    0.0000000 ]
  distance:    0.0091961
  band:
  - # 1
    frequency:   -4.0634635646
  - # 2
    frequency:   -4.0566521299
  - # 3
    frequency:   -1.1985401718
  - # 4
    frequency:   -1.1830695620
  - # 5
    frequency:    0.0526537112
  - # 6
    frequency:    0.2363453377
  - # 7
    frequency:    0.4045202572
  - # 8
    frequency:    2.5219507463
  - # 9
    frequency:    2.5268583388
  - # 10
    frequency:    2.7772815043
  - # 11
    frequency:    5.8555033340
  - # 12
    frequency:    6.1534007408
  - # 13
    frequency:    6.6396917828
  - # 14
    frequency:    6.8092861043
  - # 15
    frequency:    9.0901753253
  - # 16
    frequency:   11.0463781905
  - # 17
    frequency:   12.7418172155
  - # 18
    frequency:   12.7735840501

- q-position: [    0.0353535,    0.0000000,    0.0000000 ]
  distance:    0.0107287
  band:
  - # 1
    frequency:   -4.0694071838
  - # 2
    frequency:   -4.0598216878
  - # 3
    frequency:   -1.1968566863
  - # 4
    frequency:   -1.1753253145
  - # 5
    frequency:    0.0712705003
  - # 6
    frequency:    0.2765943588
  - # 7
    frequency:    0.4712188487
  - # 8
    frequency:    2.5258838070
  - # 9
    frequency:    2.5321063682
  - # 10
    frequency:    2.7756517390
  - # 11
    frequency:    5.8479447653
  - # 12
    frequency:    6.0914875709
  - # 13
    frequency:    6.6311476297
  - # 14
    frequency:    6.8355246544
  - # 15
    frequency:    9.1042122129
  - # 16
    frequency:   11.0359568772
  - # 17
    frequency:   12.7429221527
  - # 18
    frequency:   12.7857419539

- q-position: [    0.0404040,    0.0000000,    0.0000000 ]
  distance:    0.0122614
  band:
  - # 1
    frequency:   -4.0765160700
  - # 2
    frequency:   -4.0635254326
  - # 3
    frequency:   -1.1953431725
  - # 4
    frequency:   -1.1665256798
  - # 5
    frequency:    0.0924604085
  - # 6
    frequency:    0.3171999066
  - # 7
    frequency:    0.5375822670
  - # 8
    frequency:    2.5303741351
  - # 9
    frequency:    2.5377913532
  - # 10
    frequency:    2.7740689048
  - # 11
    frequency:    5.8383008853
  - # 12
    frequency:    6.0285641614
  - # 13
    frequency:    6.6213175629
  - # 14
    frequency:    6.8592405095
  - # 15
    frequency:    9.1198648041
  - # 16
    frequency:   11.0242584202
  - # 17
    frequency:   12.7442002567
  - # 18
    frequency:   12.7995168483

- q-position: [    0.0454545,    0.0000000,    0.0000000 ]
  distance:    0.0137941
  band:
  - # 1
    frequency:   -4.0848939560
  - # 2
    frequency:   -4.0677827297
  - # 3
    frequency:   -1.1941572214
  - # 4
    frequency:   -1.1567244043
  - # 5
    frequency:    0.1160725097
  - # 6
    frequency:    0.3581847072
  - # 7
    frequency:    0.6035596758
  - # 8
    frequency:    2.5354022031
  - # 9
    frequency:    2.5437368526
  - # 10
    frequency:    2.7726912805
  - # 11
    frequency:    5.8251574693
  - # 12
    frequency:    5.9666197721
  - # 13
    frequency:    6.6102138819
  - # 14
    frequency:    6.8802711462
  - # 15
    frequency:    9.1369232871
  - # 16
    frequency:   11.0114077322
  - # 17
    frequency:   12.7456528280
  - # 18
    frequency:   12.8148157193

- q-position: [    0.0505051,    0.0000000,    0.0000000 ]
  distance:    0.0153268
  band:
  - # 1
    frequency:   -4.0946553387
  - # 2
    frequency:   -4.0726151148
  - # 3
    frequency:   -1.1934561987
  - # 4
    frequency:   -1.1459789619
  - # 5
    frequency:    0.1419223139
  - # 6
    frequency:    0.3995604647
  - # 7
    frequency:    0.6690978894
  - # 8
    frequency:    2.5409465000
  - # 9
    frequency:    2.5497336760
  - # 10
    frequency:    2.7717157016
  - # 11
    frequency:    5.8046781618
  - # 12
    frequency:    5.9099893538
  - # 13
    frequency:    6.5978505611
  - # 14
    frequency:    6.8985661783
  - # 15
    frequency:    9.1551640428
  - # 16
    frequency:   10.9975381705
  - # 17
    frequency:   12.7472812968
  - # 18
    frequency:   12.8315417749

- q-position: [    0.0555556,    0.0000000,    0.0000000 ]
  distance:    0.0168594
  band:
  - # 1
    frequency:   -4.1059238725
  - # 2
    frequency:   -4.0780461252
  - # 3
    frequency:   -1.1933873616
  - # 4
    frequency:   -1.1343490115
  - # 5
    frequency:    0.1697907519
  - # 6
    frequency:    0.4413268792
  - # 7
    frequency:    0.7341404580
  - # 8
    frequency:    2.5469837428
  - # 9
    frequency:    2.5555415891
  - # 10
    frequency:    2.7713785382
  - # 11
    frequency:    5.7691196172
  - # 12
    frequency:    5.8668717531
  - # 13
    frequency:    6.5842432609
  - # 14
    frequency:    6.9141475426
  - # 15
    frequency:    9.1743537965
  - # 16
    frequency:   10.9827896192
  - # 17
    frequency:   12.7490872033
  - # 18
    frequency:   12.8495964399

- q-position: [    0.0606061,    0.0000000,    0.0000000 ]
  distance:    0.0183921
  band:
  - # 1
    frequency:   -4.1188303344
  - # 2
    frequency:   -4.0841011060
  - # 3
    frequency:   -1.1940770814
  - # 4
    frequency:   -1.1218946269
  - # 5
    frequency:    0.1994254945
  - # 6
    frequency:    0.4834709604
  - # 7
    frequency:    0.7986265949
  - # 8
    frequency:    2.5534891025
  - # 9
    frequency:    2.5608974437
  - # 10
    frequency:    2.7719503153
  - # 11
    frequency:    5.7161929818
  - # 12
    frequency:    5.8399851435
  - # 13
    frequency:    6.5694093396
  - # 14
    frequency:    6.9270858085
  - # 15
    frequency:    9.1942536366
  - # 16
    frequency:   10.9673067659
  - # 17
    frequency:   12.7510721740
  - # 18
    frequency:   12.8688811118

- q-position: [    0.0656566,    0.0000000,    0.0000000 ]
  distance:    0.0199248
  band:
  - # 1
    frequency:   -4.1335101133
  - # 2
    frequency:   -4.0908069915
  - # 3
    frequency:   -1.1956201439
  - # 4
    frequency:   -1.1086743530
  - # 5
    frequency:    0.2305450437
  - # 6
    frequency:    0.5259667120
  - # 7
    frequency:    0.8624899383
  - # 8
    frequency:    2.5604364391
  - # 9
    frequency:    2.5655331425
  - # 10
    frequency:    2.7737204794
  - # 11
    frequency:    5.6539584426
  - # 12
    frequency:    5.8216806756
  - # 13
    frequency:    6.5533678658
  - # 14
    frequency:    6.9374850043
  - # 15
    frequency:    9.2146227772
  - # 16
    frequency:   10.9512375839
  - # 17
    frequency:   12.7532378947
  - # 18
    frequency:   12.8892986511

- q-position: [    0.0707071,    0.0000000,    0.0000000 ]
  distance:    0.0214575
  band:
  - # 1
    frequency:   -4.1501001938
  - # 2
    frequency:   -4.0981920602
  - # 3
    frequency:   -1.1980703317
  - # 4
    frequency:   -1.0947431719
  - # 5
    frequency:    0.2628456250
  - # 6
    frequency:    0.5687752487
  - # 7
    frequency:    0.9256571472
  - # 8
    frequency:    2.5677985447
  - # 9
    frequency:    2.5692050126
  - # 10
    frequency:    2.7769706346
  - # 11
    frequency:    5.5883697651
  - # 12
    frequency:    5.8064012438
  - # 13
    frequency:    6.5361396292
  - # 14
    frequency:    6.9454722557
  - # 15
    frequency:    9.2352219775
  - # 16
    frequency:   10.9347320021
  - # 17
    frequency:   12.7555860783
  - # 18
    frequency:   12.9107545986

- q-position: [    0.0757576,    0.0000000,    0.0000000 ]
  distance:    0.0229902
  band:
  - # 1
    frequency:   -4.1687356339
  - # 2
    frequency:   -4.1062856672
  - # 3
    frequency:   -1.2014334934
  - # 4
    frequency:   -1.0801504803
  - # 5
    frequency:    0.2960104160
  - # 6
    frequency:    0.6118453772
  - # 7
    frequency:    0.9880463227
  - # 8
    frequency:    2.5717311711
  - # 9
    frequency:    2.5755473886
  - # 10
    frequency:    2.7819395636
  - # 11
    frequency:    5.5219269761
  - # 12
    frequency:    5.7920292065
  - # 13
    frequency:    6.5177471527
  - # 14
    frequency:    6.9511903465
  - # 15
    frequency:    9.2558165710
  - # 16
    frequency:   10.9179407280
  - # 17
    frequency:   12.7581184276
  - # 18
    frequency:   12.9331581296

- q-position: [    0.0808081,    0.0000000,    0.0000000 ]
  distance:    0.0245228
  band:
  - # 1
    frequency:   -4.1895455748
  - # 2
    frequency:   -4.1151179542
  - # 3
    frequency:   -1.2056640499
  - # 4
    frequency:   -1.0649381937
  - # 5
    frequency:    0.3297201911
  - # 6
    frequency:    0.6551146349
  - # 7
    frequency:    1.0495652567
  - # 8
    frequency:    2.5730269713
  - # 9
    frequency:    2.5836543635
  - # 10
    frequency:    2.7887898336
  - # 11
    frequency:    5.4558009932
  - # 12
    frequency:    5.7777603870
  - # 13
    frequency:    6.4982147021
  - # 14
    frequency:    6.9547921865
  - # 15
    frequency:    9.2761790994
  - # 16
    frequency:   10.9010141733
  - # 17
    frequency:   12.7608365937
  - # 18
    frequency:   12.9564227669

- q-position: [    0.0858586,    0.0000000,    0.0000000 ]
  distance:    0.0260555
  band:
  - # 1
    frequency:   -4.2126488697
  - # 2
    frequency:   -4.1247195407
  - # 3
    frequency:   -1.2106654116
  - # 4
    frequency:   -1.0491390848
  - # 5
    frequency:    0.3636641913
  - # 6
    frequency:    0.6985107388
  - # 7
    frequency:    1.1101095158
  - # 8
    frequency:    2.5731258346
  - # 9
    frequency:    2.5920905276
  - # 10
    frequency:    2.7975885853
  - # 11
    frequency:    5.3906837140
  - # 12
    frequency:    5.7632515422
  - # 13
    frequency:    6.4775682946
  - # 14
    frequency:    6.9564366057
  - # 15
    frequency:    9.2960915770
  - # 16
    frequency:   10.8841014275
  - # 17
    frequency:   12.7637421290
  - # 18
    frequency:   12.9804668801

- q-position: [    0.0909091,    0.0000000,    0.0000000 ]
  distance:    0.0275882
  band:
  - # 1
    frequency:   -4.2381494739
  - # 2
    frequency:   -4.1351211983
  - # 3
    frequency:   -1.2162942179
  - # 4
    frequency:   -1.0327754399
  - # 5
    frequency:    0.3975500209
  - # 6
    frequency:    0.7419533581
  - # 7
    frequency:    1.1695603863
  - # 8
    frequency:    2.5721780092
  - # 9
    frequency:    2.6008268411
  - # 10
    frequency:    2.8083098689
  - # 11
    frequency:    5.3270641504
  - # 12
    frequency:    5.7483412121
  - # 13
    frequency:    6.4558357059
  - # 14
    frequency:    6.9562851197
  - # 15
    frequency:    9.3153474406
  - # 16
    frequency:   10.8673492199
  - # 17
    frequency:   12.7668364348
  - # 18
    frequency:   13.0052140023

- q-position: [    0.0959596,    0.0000000,    0.0000000 ]
  distance:    0.0291209
  band:
  - # 1
    frequency:   -4.2661317931
  - # 2
    frequency:   -4.1463535139
  - # 3
    frequency:   -1.2223678159
  - # 4
    frequency:   -1.0158580865
  - # 5
    frequency:    0.4311116198
  - # 6
    frequency:    0.7853560980
  - # 7
    frequency:    1.2277827411
  - # 8
    frequency:    2.5704302602
  - # 9
    frequency:    2.6098343922
  - # 10
    frequency:    2.8208554522
  - # 11
    frequency:    5.2653259761
  - # 12
    frequency:    5.7329489777
  - # 13
    frequency:    6.4330464747
  - # 14
    frequency:    6.9544994262
  - # 15
    frequency:    9.3337532536
  - # 16
    frequency:   10.8509008166
  - # 17
    frequency:   12.7701207043
  - # 18
    frequency:   13.0305929946

- q-position: [    0.1010101,    0.0000000,    0.0000000 ]
  distance:    0.0306535
  band:
  - # 1
    frequency:   -4.2966562381
  - # 2
    frequency:   -4.1584465445
  - # 3
    frequency:   -1.2286740726
  - # 4
    frequency:   -0.9983857937
  - # 5
    frequency:    0.4641147557
  - # 6
    frequency:    0.8286285671
  - # 7
    frequency:    1.2846229370
  - # 8
    frequency:    2.5681969199
  - # 9
    frequency:    2.6190846127
  - # 10
    frequency:    2.8350835995
  - # 11
    frequency:    5.2057855949
  - # 12
    frequency:    5.7170343597
  - # 13
    frequency:    6.4092319042
  - # 14
    frequency:    6.9512394615
  - # 15
    frequency:    9.3511302329
  - # 16
    frequency:   10.8348948104
  - # 17
    frequency:   12.7735958602
  - # 18
    frequency:   13.0565380871

- q-position: [    0.1060606,    0.0000000,    0.0000000 ]
  distance:    0.0321862
  band:
  - # 1
    frequency:   -4.3297552631
  - # 2
    frequency:   -4.1714294682
  - # 3
    frequency:   -1.2349824996
  - # 4
    frequency:   -0.9803450115
  - # 5
    frequency:    0.4963599059
  - # 6
    frequency:    0.8716784071
  - # 7
    frequency:    1.3399069353
  - # 8
    frequency:    2.5658325706
  - # 9
    frequency:    2.6285494778
  - # 10
    frequency:    2.8508354691
  - # 11
    frequency:    5.1487081925
  - # 12
    frequency:    5.7005781903
  - # 13
    frequency:    6.3844250604
  - # 14
    frequency:    6.9466618901
  - # 15
    frequency:    9.3673156649
  - # 16
    frequency:   10.8194637738
  - # 17
    frequency:   12.7772624889
  - # 18
    frequency:   13.0829888212

- q-position: [    0.1111111,    0.0000000,    0.0000000 ]
  distance:    0.0337189
  band:
  - # 1
    frequency:   -4.3654301746
  - # 2
    frequency:   -4.1853302370
  - # 3
    frequency:   -1.2410557293
  - # 4
    frequency:   -0.9617098671
  - # 5
    frequency:    0.5276827368
  - # 6
    frequency:    0.9144131794
  - # 7
    frequency:    1.3934389489
  - # 8
    frequency:    2.5637116004
  - # 9
    frequency:    2.6382016908
  - # 10
    frequency:    2.8679537628
  - # 11
    frequency:    5.0943150414
  - # 12
    frequency:    5.6835734376
  - # 13
    frequency:    6.3586607666
  - # 14
    frequency:    6.9409189225
  - # 15
    frequency:    9.3821642538
  - # 16
    frequency:   10.8047327707
  - # 17
    frequency:   12.7811207693
  - # 18
    frequency:   13.1098899166

- q-position: [    0.1161616,    0.0000000,    0.0000000 ]
  distance:    0.0352516
  band:
  - # 1
    frequency:   -4.4036489737
  - # 2
    frequency:   -4.2001752345
  - # 3
    frequency:   -1.2466605356
  - # 4
    frequency:   -0.9424423139
  - # 5
    frequency:    0.5579525976
  - # 6
    frequency:    0.9567420319
  - # 7
    frequency:    1.4450010744
  - # 8
    frequency:    2.5622148790
  - # 9
    frequency:    2.6480148486
  - # 10
    frequency:    2.8862931524
  - # 11
    frequency:    5.0427873242
  - # 12
    frequency:    5.6660203960
  - # 13
    frequency:    6.3319755935
  - # 14
    frequency:    6.9341573853
  - # 15
    frequency:    9.3955494200
  - # 16
    frequency:   10.7908177462
  - # 17
    frequency:   12.7851704001
  - # 18
    frequency:   13.1371910795

- q-position: [    0.1212121,    0.0000000,    0.0000000 ]
  distance:    0.0367842
  band:
  - # 1
    frequency:   -4.4443454340
  - # 2
    frequency:   -4.2159889444
  - # 3
    frequency:   -1.2515777890
  - # 4
    frequency:   -0.9224923062
  - # 5
    frequency:    0.5870695233
  - # 6
    frequency:    0.9985771025
  - # 7
    frequency:    1.4943545460
  - # 8
    frequency:    2.5617211807
  - # 9
    frequency:    2.6579635887
  - # 10
    frequency:    2.9057244857
  - # 11
    frequency:    4.9942687636
  - # 12
    frequency:    5.6479240644
  - # 13
    frequency:    6.3044078447
  - # 14
    frequency:    6.9265179806
  - # 15
    frequency:    9.4073645371
  - # 16
    frequency:   10.7778238436
  - # 17
    frequency:   12.7894105232
  - # 18
    frequency:   13.1648467698

- q-position: [    0.1262626,    0.0000000,    0.0000000 ]
  distance:    0.0383169
  band:
  - # 1
    frequency:   -4.4874195326
  - # 2
    frequency:   -4.2327936327
  - # 3
    frequency:   -1.2556109198
  - # 4
    frequency:   -0.9017978638
  - # 5
    frequency:    0.6149602241
  - # 6
    frequency:    1.0398346421
  - # 7
    frequency:    1.5412434261
  - # 8
    frequency:    2.5626003963
  - # 9
    frequency:    2.6680237154
  - # 10
    frequency:    2.9261351870
  - # 11
    frequency:    4.9488680912
  - # 12
    frequency:    5.6292926966
  - # 13
    frequency:    6.2759975365
  - # 14
    frequency:    6.9181346882
  - # 15
    frequency:    9.4175240595
  - # 16
    frequency:   10.7658437274
  - # 17
    frequency:   12.7938396467
  - # 18
    frequency:   13.1928159361

- q-position: [    0.1313131,    0.0000000,    0.0000000 ]
  distance:    0.0398496
  band:
  - # 1
    frequency:   -4.5327392432
  - # 2
    frequency:   -4.2506090474
  - # 3
    frequency:   -1.2585926305
  - # 4
    frequency:   -0.8802848863
  - # 5
    frequency:    0.6415734686
  - # 6
    frequency:    1.0804358674
  - # 7
    frequency:    1.5854016397
  - # 8
    frequency:    2.5652059834
  - # 9
    frequency:    2.6781723045
  - # 10
    frequency:    2.9474277398
  - # 11
    frequency:    4.9066617949
  - # 12
    frequency:    5.6101370233
  - # 13
    frequency:    6.2467863722
  - # 14
    frequency:    6.9091342773
  - # 15
    frequency:    9.4259644652
  - # 16
    frequency:   10.7549560161
  - # 17
    frequency:   12.7984555668
  - # 18
    frequency:   13.2210617312

- q-position: [    0.1363636,    0.0000000,    0.0000000 ]
  distance:    0.0413823
  band:
  - # 1
    frequency:   -4.5801435887
  - # 2
    frequency:   -4.2694521395
  - # 3
    frequency:   -1.2603897375
  - # 4
    frequency:   -0.8578665664
  - # 5
    frequency:    0.6668751788
  - # 6
    frequency:    1.1203075707
  - # 7
    frequency:    1.6265641468
  - # 8
    frequency:    2.5698648502
  - # 9
    frequency:    2.6883877867
  - # 10
    frequency:    2.9695174487
  - # 11
    frequency:    4.8676972702
  - # 12
    frequency:    5.5904698747
  - # 13
    frequency:    6.2168177101
  - # 14
    frequency:    6.8996359060
  - # 15
    frequency:    9.4326449164
  - # 16
    frequency:   10.7452239452
  - # 17
    frequency:   12.8032552913
  - # 18
    frequency:   13.2495512142

- q-position: [    0.1414141,    0.0000000,    0.0000000 ]
  distance:    0.0429149
  band:
  - # 1
    frequency:   -4.6294467496
  - # 2
    frequency:   -4.2893368078
  - # 3
    frequency:   -1.2609061413
  - # 4
    frequency:   -0.8344422373
  - # 5
    frequency:    0.6908434768
  - # 6
    frequency:    1.1593825205
  - # 7
    frequency:    1.6644825765
  - # 8
    frequency:    2.5768638134
  - # 9
    frequency:    2.6986500097
  - # 10
    frequency:    2.9923301345
  - # 11
    frequency:    4.8319963302
  - # 12
    frequency:    5.5703060544
  - # 13
    frequency:    6.1861365248
  - # 14
    frequency:    6.8897507942
  - # 15
    frequency:    9.4375475354
  - # 16
    frequency:   10.7366943817
  - # 17
    frequency:   12.8082349647
  - # 18
    frequency:   13.2782550443

- q-position: [    0.1464646,    0.0000000,    0.0000000 ]
  distance:    0.0444476
  band:
  - # 1
    frequency:   -4.6804429504
  - # 2
    frequency:   -4.3102736688
  - # 3
    frequency:   -1.2600840287
  - # 4
    frequency:   -0.8098954502
  - # 5
    frequency:    0.7134638547
  - # 6
    frequency:    1.1975996945
  - # 7
    frequency:    1.6989446960
  - # 8
    frequency:    2.5864329726
  - # 9
    frequency:    2.7089402788
  - # 10
    frequency:    3.0158000678
  - # 11
    frequency:    4.7995589311
  - # 12
    frequency:    5.5496623720
  - # 13
    frequency:    6.1547893619
  - # 14
    frequency:    6.8795819636
  - # 15
    frequency:    9.4406771998
  - # 16
    frequency:   10.7293973012
  - # 17
    frequency:   12.8133897972
  - # 18
    frequency:   13.3071471733

- q-position: [    0.1515152,    0.0000000,    0.0000000 ]
  distance:    0.0459803
  band:
  - # 1
    frequency:   -4.7329118011
  - # 2
    frequency:   -4.3322698548
  - # 3
    frequency:   -1.2579034870
  - # 4
    frequency:   -0.7840910101
  - # 5
    frequency:    0.7347245920
  - # 6
    frequency:    1.2349043811
  - # 7
    frequency:    1.7297957521
  - # 8
    frequency:    2.5987278052
  - # 9
    frequency:    2.7192413764
  - # 10
    frequency:    3.0398682501
  - # 11
    frequency:    4.7703669301
  - # 12
    frequency:    5.5285577770
  - # 13
    frequency:    6.1228242849
  - # 14
    frequency:    6.8692240442
  - # 15
    frequency:    9.4420607939
  - # 16
    frequency:   10.7233458052
  - # 17
    frequency:   12.8187139984
  - # 18
    frequency:   13.3362045376

- q-position: [    0.1565657,    0.0000000,    0.0000000 ]
  distance:    0.0475130
  band:
  - # 1
    frequency:   -4.7866237711
  - # 2
    frequency:   -4.3553288401
  - # 3
    frequency:   -1.2543807704
  - # 4
    frequency:   -0.7568705763
  - # 5
    frequency:    0.7546125175
  - # 6
    frequency:    1.2712481829
  - # 7
    frequency:    1.7569583740
  - # 8
    frequency:    2.6138131611
  - # 9
    frequency:    2.7295375629
  - # 10
    frequency:    3.0644810414
  - # 11
    frequency:    4.7443876851
  - # 12
    frequency:    5.5070135534
  - # 13
    frequency:    6.0902908148
  - # 14
    frequency:    6.8587631496
  - # 15
    frequency:    9.4417458892
  - # 16
    frequency:   10.7185367118
  - # 17
    frequency:   12.8242007180
  - # 18
    frequency:   13.3654067547

- q-position: [    0.1616162,    0.0000000,    0.0000000 ]
  distance:    0.0490457
  band:
  - # 1
    frequency:   -4.8413454954
  - # 2
    frequency:   -4.3794502972
  - # 3
    frequency:   -1.2495654847
  - # 4
    frequency:   -0.7280462207
  - # 5
    frequency:    0.7731091972
  - # 6
    frequency:    1.3065889489
  - # 7
    frequency:    1.7804470447
  - # 8
    frequency:    2.6316530166
  - # 9
    frequency:    2.7398145581
  - # 10
    frequency:    3.0895890842
  - # 11
    frequency:    4.7215773253
  - # 12
    frequency:    5.4850535472
  - # 13
    frequency:    6.0572398619
  - # 14
    frequency:    6.8482768235
  - # 15
    frequency:    9.4397988814
  - # 16
    frequency:   10.7149517047
  - # 17
    frequency:   12.8298419939
  - # 18
    frequency:   13.3947358245

- q-position: [    0.1666667,    0.0000000,    0.0000000 ]
  distance:    0.0505783
  band:
  - # 1
    frequency:   -4.8968446704
  - # 2
    frequency:   -4.4046299828
  - # 3
    frequency:   -1.2435369657
  - # 4
    frequency:   -0.6973909677
  - # 5
    frequency:    0.7901876233
  - # 6
    frequency:    1.3408906566
  - # 7
    frequency:    1.8003737515
  - # 8
    frequency:    2.6521092319
  - # 9
    frequency:    2.7500595071
  - # 10
    frequency:    3.1151464481
  - # 11
    frequency:    4.7018835536
  - # 12
    frequency:    5.4627044082
  - # 13
    frequency:    6.0237236496
  - # 14
    frequency:    6.8378340641
  - # 15
    frequency:    9.4363026581
  - # 16
    frequency:   10.7125589695
  - # 17
    frequency:   12.8356287099
  - # 18
    frequency:   13.4241758390

- q-position: [    0.1717172,    0.0000000,    0.0000000 ]
  distance:    0.0521110
  band:
  - # 1
    frequency:   -4.9528943594
  - # 2
    frequency:   -4.4308596549
  - # 3
    frequency:   -1.2364001103
  - # 4
    frequency:   -0.6646246692
  - # 5
    frequency:    0.8058094931
  - # 6
    frequency:    1.3741232574
  - # 7
    frequency:    1.8169433750
  - # 8
    frequency:    2.6749505908
  - # 9
    frequency:    2.7602609308
  - # 10
    frequency:    3.1411099085
  - # 11
    frequency:    4.6852478869
  - # 12
    frequency:    5.4399958345
  - # 13
    frequency:    5.9897956299
  - # 14
    frequency:    6.8274954275
  - # 15
    frequency:    9.4313539133
  - # 16
    frequency:   10.7113152082
  - # 17
    frequency:   12.8415505639
  - # 18
    frequency:   13.4537127000

- q-position: [    0.1767677,    0.0000000,    0.0000000 ]
  distance:    0.0536437
  band:
  - # 1
    frequency:   -5.0092765990
  - # 2
    frequency:   -4.4581270197
  - # 3
    frequency:   -1.2282808904
  - # 4
    frequency:   -0.6293923148
  - # 5
    frequency:    0.8199231727
  - # 6
    frequency:    1.4062624971
  - # 7
    frequency:    1.8304399667
  - # 8
    frequency:    2.6998708022
  - # 9
    frequency:    2.7704086648
  - # 10
    frequency:    3.1674382765
  - # 11
    frequency:    4.6716072766
  - # 12
    frequency:    5.4169608145
  - # 13
    frequency:    5.9555103905
  - # 14