nqpoint: 300    
npath: 3      
segment_nqpoint:
- 100
- 100
- 100
labels:
- [ 'G', 'M' ]
- [ 'M', 'K' ]
- [ 'K', 'G' ]
reciprocal_lattice:
- [   0.30069918,   0.17360875,   0.00000000 ] # a*
- [   0.00000000,   0.34721751,   0.00000000 ] # b*
- [   0.00000000,   0.00000000,   0.04177181 ] # c*
natom: 6      
lattice:
- [     3.325582727761823,     0.000000000000000,     0.000000000000000 ] # a
- [    -1.662791363880912,     2.880039124624576,     0.000000000000000 ] # b
- [     0.000000000000000,     0.000000000000000,    23.939588157737404 ] # c
points:
- symbol: C # 1
  coordinates: [  0.000000000000000,  0.000000000000000,  0.466448070055163 ]
  mass: 12.010700
- symbol: H # 2
  coordinates: [  0.666666984744047,  0.333332985985145,  0.375946317066910 ]
  mass: 1.007940
- symbol: Hf # 3
  coordinates: [  0.333332985432215,  0.666666983183674,  0.418671224643685 ]
  mass: 178.490000
- symbol: Hf # 4
  coordinates: [  0.666666984744047,  0.333332985985145,  0.526165157304453 ]
  mass: 178.490000
- symbol: N # 5
  coordinates: [  0.333332985432215,  0.666666983183674,  0.568217221682006 ]
  mass: 14.006700
- symbol: O # 6
  coordinates: [  0.333332985432215,  0.666666983183674,  0.624053682933090 ]
  mass: 15.999400

phonon:
- q-position: [    0.0000000,    0.0000000,    0.0000000 ]
  distance:    0.0000000
  band:
  - # 1
    frequency:   -5.9897132945
  - # 2
    frequency:   -5.9897132945
  - # 3
    frequency:   -0.0000107597
  - # 4
    frequency:    0.0000002447
  - # 5
    frequency:    0.0000088703
  - # 6
    frequency:    2.9883177627
  - # 7
    frequency:    2.9883177628
  - # 8
    frequency:    4.8082226859
  - # 9
    frequency:    9.0350149039
  - # 10
    frequency:   10.0775690114
  - # 11
    frequency:   10.0775690115
  - # 12
    frequency:   15.6766547499
  - # 13
    frequency:   15.6766547500
  - # 14
    frequency:   16.6760013147
  - # 15
    frequency:   27.3480068264
  - # 16
    frequency:   27.3480068264
  - # 17
    frequency:   27.7998843018
  - # 18
    frequency:   38.1440459037

- q-position: [    0.0050505,    0.0000000,    0.0000000 ]
  distance:    0.0017536
  band:
  - # 1
    frequency:   -5.9893121244
  - # 2
    frequency:   -5.9876817749
  - # 3
    frequency:    0.0014842692
  - # 4
    frequency:    0.0572484271
  - # 5
    frequency:    0.0972295320
  - # 6
    frequency:    2.9886252784
  - # 7
    frequency:    2.9894701219
  - # 8
    frequency:    4.8081913005
  - # 9
    frequency:    9.0331946484
  - # 10
    frequency:   10.0783788129
  - # 11
    frequency:   10.0801314398
  - # 12
    frequency:   15.6763696691
  - # 13
    frequency:   15.6771281129
  - # 14
    frequency:   16.6759423476
  - # 15
    frequency:   27.3482403614
  - # 16
    frequency:   27.3486664945
  - # 17
    frequency:   27.7995882107
  - # 18
    frequency:   38.1434445865

- q-position: [    0.0101010,    0.0000000,    0.0000000 ]
  distance:    0.0035072
  band:
  - # 1
    frequency:   -5.9881102892
  - # 2
    frequency:   -5.9815901803
  - # 3
    frequency:    0.0059289735
  - # 4
    frequency:    0.1144746749
  - # 5
    frequency:    0.1943966504
  - # 6
    frequency:    2.9895475046
  - # 7
    frequency:    2.9929192075
  - # 8
    frequency:    4.8080974702
  - # 9
    frequency:    9.0277918453
  - # 10
    frequency:   10.0808052798
  - # 11
    frequency:   10.0877590670
  - # 12
    frequency:   15.6755167114
  - # 13
    frequency:   15.6785512507
  - # 14
    frequency:   16.6757657143
  - # 15
    frequency:   27.3489395354
  - # 16
    frequency:   27.3506423321
  - # 17
    frequency:   27.7987010757
  - # 18
    frequency:   38.1416414645

- q-position: [    0.0151515,    0.0000000,    0.0000000 ]
  distance:    0.0052609
  band:
  - # 1
    frequency:   -5.9861128034
  - # 2
    frequency:   -5.9714473746
  - # 3
    frequency:    0.0133103338
  - # 4
    frequency:    0.1716566030
  - # 5
    frequency:    0.2914388327
  - # 6
    frequency:    2.9910834751
  - # 7
    frequency:    2.9986412531
  - # 8
    frequency:    4.8079421725
  - # 9
    frequency:    9.0189733682
  - # 10
    frequency:   10.0848396192
  - # 11
    frequency:   10.1002799577
  - # 12
    frequency:   15.6741027167
  - # 13
    frequency:   15.6809332593
  - # 14
    frequency:   16.6754722150
  - # 15
    frequency:   27.3501000628
  - # 16
    frequency:   27.3539247992
  - # 17
    frequency:   27.7972263717
  - # 18
    frequency:   38.1386390250

- q-position: [    0.0202020,    0.0000000,    0.0000000 ]
  distance:    0.0070145
  band:
  - # 1
    frequency:   -5.9833279886
  - # 2
    frequency:   -5.9572680376
  - # 3
    frequency:    0.0235893329
  - # 4
    frequency:    0.2287721470
  - # 5
    frequency:    0.3882933440
  - # 6
    frequency:    2.9932315661
  - # 7
    frequency:    3.0065973336
  - # 8
    frequency:    4.8077270332
  - # 9
    frequency:    9.0069958560
  - # 10
    frequency:   10.0904672394
  - # 11
    frequency:   10.1174291060
  - # 12
    frequency:   15.6721390370
  - # 13
    frequency:   15.6842891303
  - # 14
    frequency:   16.6750631687
  - # 15
    frequency:   27.3517148260
  - # 16
    frequency:   27.3584978592
  - # 17
    frequency:   27.7951700970
  - # 18
    frequency:   38.1344414074

- q-position: [    0.0252525,    0.0000000,    0.0000000 ]
  distance:    0.0087681
  band:
  - # 1
    frequency:   -5.9797674203
  - # 2
    frequency:   -5.9390725237
  - # 3
    frequency:    0.0367127075
  - # 4
    frequency:    0.2857993556
  - # 5
    frequency:    0.4848971380
  - # 6
    frequency:    2.9959894774
  - # 7
    frequency:    3.0167343497
  - # 8
    frequency:    4.8074543225
  - # 9
    frequency:    8.9921792789
  - # 10
    frequency:   10.0976678450
  - # 11
    frequency:   10.1388749735
  - # 12
    frequency:   15.6696414651
  - # 13
    frequency:   15.6886394984
  - # 14
    frequency:   16.6745403950
  - # 15
    frequency:   27.3537739124
  - # 16
    frequency:   27.3643387485
  - # 17
    frequency:   27.7925411048
  - # 18
    frequency:   38.1290543955

- q-position: [    0.0303030,    0.0000000,    0.0000000 ]
  distance:    0.0105217
  band:
  - # 1
    frequency:   -5.9754458537
  - # 2
    frequency:   -5.9168866662
  - # 3
    frequency:    0.0526142099
  - # 4
    frequency:    0.3427164270
  - # 5
    frequency:    0.5811867680
  - # 6
    frequency:    2.9993542063
  - # 7
    frequency:    3.0289863224
  - # 8
    frequency:    4.8071269485
  - # 9
    frequency:    8.9748789478
  - # 10
    frequency:   10.1064155679
  - # 11
    frequency:   10.1642476273
  - # 12
    frequency:   15.6666301344
  - # 13
    frequency:   15.6940102869
  - # 14
    frequency:   16.6739061892
  - # 15
    frequency:   27.3562646671
  - # 16
    frequency:   27.3714176059
  - # 17
    frequency:   27.7893516168
  - # 18
    frequency:   38.1224854046

- q-position: [    0.0353535,    0.0000000,    0.0000000 ]
  distance:    0.0122754
  band:
  - # 1
    frequency:   -5.9703811296
  - # 2
    frequency:   -5.8907415256
  - # 3
    frequency:    0.0712160983
  - # 4
    frequency:    0.3995017436
  - # 5
    frequency:    0.6770983098
  - # 6
    frequency:    3.0033220149
  - # 7
    frequency:    3.0432759267
  - # 8
    frequency:    4.8067484493
  - # 9
    frequency:    8.9554606256
  - # 10
    frequency:   10.1166791347
  - # 11
    frequency:   10.1931638185
  - # 12
    frequency:   15.6631293906
  - # 13
    frequency:   15.7004322530
  - # 14
    frequency:   16.6731632974
  - # 15
    frequency:   27.3591717585
  - # 16
    frequency:   27.3796968967
  - # 17
    frequency:   27.7856179756
  - # 18
    frequency:   38.1147434670

- q-position: [    0.0404040,    0.0000000,    0.0000000 ]
  distance:    0.0140290
  band:
  - # 1
    frequency:   -5.9645940604
  - # 2
    frequency:   -5.8606730836
  - # 3
    frequency:    0.0924307794
  - # 4
    frequency:    0.4561339045
  - # 5
    frequency:    0.7725673015
  - # 6
    frequency:    3.0078883937
  - # 7
    frequency:    3.0595161827
  - # 8
    frequency:    4.8063229826
  - # 9
    frequency:    8.9342813485
  - # 10
    frequency:   10.1284220680
  - # 11
    frequency:   10.2252463955
  - # 12
    frequency:   15.6591676365
  - # 13
    frequency:   15.7079404312
  - # 14
    frequency:   16.6723148926
  - # 15
    frequency:   27.3624772594
  - # 16
    frequency:   27.3891305427
  - # 17
    frequency:   27.7813617267
  - # 18
    frequency:   38.1058392135

- q-position: [    0.0454545,    0.0000000,    0.0000000 ]
  distance:    0.0157826
  band:
  - # 1
    frequency:   -5.9581082979
  - # 2
    frequency:   -5.8267218844
  - # 3
    frequency:    0.1161625210
  - # 4
    frequency:    0.5125917566
  - # 5
    frequency:    0.8675287010
  - # 6
    frequency:    3.0130480203
  - # 7
    frequency:    3.0776122248
  - # 8
    frequency:    4.8058553147
  - # 9
    frequency:    8.9116765755
  - # 10
    frequency:   10.1416029207
  - # 11
    frequency:   10.2601374327
  - # 12
    frequency:   15.6547771481
  - # 13
    frequency:   15.7165734762
  - # 14
    frequency:   16.6713645589
  - # 15
    frequency:   27.3661607406
  - # 16
    frequency:   27.3996626123
  - # 17
    frequency:   27.7766111694
  - # 18
    frequency:   38.0957848510

- q-position: [    0.0505051,    0.0000000,    0.0000000 ]
  distance:    0.0175362
  band:
  - # 1
    frequency:   -5.9509501839
  - # 2
    frequency:   -5.7889326224
  - # 3
    frequency:    0.1423091637
  - # 4
    frequency:    0.5688544230
  - # 5
    frequency:    0.9619168656
  - # 6
    frequency:    3.0187947159
  - # 7
    frequency:    3.0974630741
  - # 8
    frequency:    4.8053508056
  - # 9
    frequency:    8.8879529561
  - # 10
    frequency:   10.1561755412
  - # 11
    frequency:   10.2975057862
  - # 12
    frequency:   15.6499938651
  - # 13
    frequency:   15.7263729058
  - # 14
    frequency:   16.6703162871
  - # 15
    frequency:   27.3701993782
  - # 16
    frequency:   27.4112253529
  - # 17
    frequency:   27.7714035920
  - # 18
    frequency:   38.0845941383

- q-position: [    0.0555556,    0.0000000,    0.0000000 ]
  distance:    0.0192899
  band:
  - # 1
    frequency:   -5.9431485842
  - # 2
    frequency:   -5.7473536800
  - # 3
    frequency:    0.1707637665
  - # 4
    frequency:    0.6249013292
  - # 5
    frequency:    1.0556655573
  - # 6
    frequency:    3.0251214010
  - # 7
    frequency:    3.1189633488
  - # 8
    frequency:    4.8048153940
  - # 9
    frequency:    8.8633854069
  - # 10
    frequency:   10.1720893675
  - # 11
    frequency:   10.3370503824
  - # 12
    frequency:   15.6448571541
  - # 13
    frequency:   15.7373822450
  - # 14
    frequency:   16.6691744895
  - # 15
    frequency:   27.3745680734
  - # 16
    frequency:   27.4237362262
  - # 17
    frequency:   27.7657885267
  - # 18
    frequency:   38.0722823578

- q-position: [    0.0606061,    0.0000000,    0.0000000 ]
  distance:    0.0210435
  band:
  - # 1
    frequency:   -5.9347347074
  - # 2
    frequency:   -5.7020366163
  - # 3
    frequency:    0.2014161376
  - # 4
    frequency:    0.6807122266
  - # 5
    frequency:    1.1487079742
  - # 6
    frequency:    3.0320200516
  - # 7
    frequency:    3.1420048618
  - # 8
    frequency:    4.8042555788
  - # 9
    frequency:    8.8382171259
  - # 10
    frequency:   10.1892897479
  - # 11
    frequency:   10.3785006123
  - # 12
    frequency:   15.6394095475
  - # 13
    frequency:   15.7496460722
  - # 14
    frequency:   16.6679440410
  - # 15
    frequency:   27.3792395839
  - # 16
    frequency:   27.4370934196
  - # 17
    frequency:   27.7598325456
  - # 18
    frequency:   38.0588662849

- q-position: [    0.0656566,    0.0000000,    0.0000000 ]
  distance:    0.0227971
  band:
  - # 1
    frequency:   -5.9257419114
  - # 2
    frequency:   -5.6530356080
  - # 3
    frequency:    0.2341542132
  - # 4
    frequency:    0.7362672129
  - # 5
    frequency:    1.2409768139
  - # 6
    frequency:    3.0394816566
  - # 7
    frequency:    3.1664780669
  - # 8
    frequency:    4.8036783985
  - # 9
    frequency:    8.8126613801
  - # 10
    frequency:   10.2077182857
  - # 11
    frequency:   10.4216149888
  - # 12
    frequency:   15.6336964571
  - # 13
    frequency:   15.7632089700
  - # 14
    frequency:   16.6666303543
  - # 15
    frequency:   27.3841846668
  - # 16
    frequency:   27.4511690162
  - # 17
    frequency:   27.7536264115
  - # 18
    frequency:   38.0443641536

- q-position: [    0.0707071,    0.0000000,    0.0000000 ]
  distance:    0.0245507
  band:
  - # 1
    frequency:   -5.9162054968
  - # 2
    frequency:   -5.6004068452
  - # 3
    frequency:    0.2688652643
  - # 4
    frequency:    0.7915467500
  - # 5
    frequency:    1.3324043686
  - # 6
    frequency:    3.0474961801
  - # 7
    frequency:    3.1922733318
  - # 8
    frequency:    4.8030914095
  - # 9
    frequency:    8.7869042085
  - # 10
    frequency:   10.2273132062
  - # 11
    frequency:   10.4661789242
  - # 12
    frequency:   15.6277658654
  - # 13
    frequency:   15.7781143814
  - # 14
    frequency:   16.6652395007
  - # 15
    frequency:   27.3893722316
  - # 16
    frequency:   27.4657985742
  - # 17
    frequency:   27.7472958293
  - # 18
    frequency:   38.0287956203

- q-position: [    0.0757576,    0.0000000,    0.0000000 ]
  distance:    0.0263044
  band:
  - # 1
    frequency:   -5.9061624910
  - # 2
    frequency:   -5.5442078850
  - # 3
    frequency:    0.3054369197
  - # 4
    frequency:    0.8465316791
  - # 5
    frequency:    1.4229226555
  - # 6
    frequency:    3.0560525273
  - # 7
    frequency:    3.2192820253
  - # 8
    frequency:    4.8025026603
  - # 9
    frequency:    8.7611074575
  - # 10
    frequency:   10.2480097422
  - # 11
    frequency:   10.5120022015
  - # 12
    frequency:   15.6216679936
  - # 13
    frequency:   15.7944033723
  - # 14
    frequency:   16.6637783880
  - # 15
    frequency:   27.3947695033
  - # 16
    frequency:   27.4807653028
  - # 17
    frequency:   27.7410176032
  - # 18
    frequency:   38.0121817246

- q-position: [    0.0808081,    0.0000000,    0.0000000 ]
  distance:    0.0280580
  band:
  - # 1
    frequency:   -5.8956514243
  - # 2
    frequency:   -5.4844969635
  - # 3
    frequency:    0.3437580080
  - # 4
    frequency:    0.9012032329
  - # 5
    frequency:    1.5124635843
  - # 6
    frequency:    3.0651385177
  - # 7
    frequency:    3.2473974180
  - # 8
    frequency:    4.8019206640
  - # 9
    frequency:    8.7354117921
  - # 10
    frequency:   10.2697405357
  - # 11
    frequency:   10.5589164890
  - # 12
    frequency:   15.6154549507
  - # 13
    frequency:   15.8121133004
  - # 14
    frequency:   16.6622550117
  - # 15
    frequency:   27.4003421935
  - # 16
    frequency:   27.4957765586
  - # 17
    frequency:   27.7350434755
  - # 18
    frequency:   37.9945448473

- q-position: [    0.0858586,    0.0000000,    0.0000000 ]
  distance:    0.0298116
  band:
  - # 1
    frequency:   -5.8847120989
  - # 2
    frequency:   -5.4213322690
  - # 3
    frequency:    0.3837192268
  - # 4
    frequency:    0.9555430449
  - # 5
    frequency:    1.6009591616
  - # 6
    frequency:    3.0747408660
  - # 7
    frequency:    3.2765154058
  - # 8
    frequency:    4.8013543686
  - # 9
    frequency:    8.7099394849
  - # 10
    frequency:   10.2924360532
  - # 11
    frequency:   10.6067730876
  - # 12
    frequency:   15.6091803627
  - # 13
    frequency:   15.8312763858
  - # 14
    frequency:   16.6606787996
  - # 15
    frequency:   27.4060546800
  - # 16
    frequency:   27.5104309779
  - # 17
    frequency:   27.7297333233
  - # 18
    frequency:   37.9759086662

- q-position: [    0.0909091,    0.0000000,    0.0000000 ]
  distance:    0.0315652
  band:
  - # 1
    frequency:   -5.8733853544
  - # 2
    frequency:   -5.3547711789
  - # 3
    frequency:    0.4252136523
  - # 4
    frequency:    1.0095331564
  - # 5
    frequency:    1.6883417342
  - # 6
    frequency:    3.0848451710
  - # 7
    frequency:    3.3065350661
  - # 8
    frequency:    4.8008131238
  - # 9
    frequency:    8.6847968857
  - # 10
    frequency:   10.3160250113
  - # 11
    frequency:   10.6554409930
  - # 12
    frequency:   15.6028989862
  - # 13
    frequency:   15.8519181754
  - # 14
    frequency:   16.6590610755
  - # 15
    frequency:   27.4118701927
  - # 16
    frequency:   27.5241791794
  - # 17
    frequency:   27.7255947785
  - # 18
    frequency:   37.9562981096

- q-position: [    0.0959596,    0.0000000,    0.0000000 ]
  distance:    0.0333189
  band:
  - # 1
    frequency:   -5.8617128302
  - # 2
    frequency:   -5.2848694599
  - # 3
    frequency:    0.4681371095
  - # 4
    frequency:    1.0631560211
  - # 5
    frequency:    1.7745442706
  - # 6
    frequency:    3.0954359151
  - # 7
    frequency:    3.3373590668
  - # 8
    frequency:    4.8003066451
  - # 9
    frequency:    8.6600765436
  - # 10
    frequency:   10.3404348092
  - # 11
    frequency:   10.7048052907
  - # 12
    frequency:   15.5966663068
  - # 13
    frequency:   15.8740558845
  - # 14
    frequency:   16.6574156790
  - # 15
    frequency:   27.4177510054
  - # 16
    frequency:   27.5362959490
  - # 17
    frequency:   27.7233113517
  - # 18
    frequency:   37.9357393079

- q-position: [    0.1010101,    0.0000000,    0.0000000 ]
  distance:    0.0350725
  band:
  - # 1
    frequency:   -5.8497367286
  - # 2
    frequency:   -5.2116804323
  - # 3
    frequency:    0.5123884204
  - # 4
    frequency:    1.1163945070
  - # 5
    frequency:    1.8595006797
  - # 6
    frequency:    3.1064964739
  - # 7
    frequency:    3.3688939449
  - # 8
    frequency:    4.7998449760
  - # 9
    frequency:    8.6358589863
  - # 10
    frequency:   10.3655919656
  - # 11
    frequency:   10.7547658612
  - # 12
    frequency:   15.5905381266
  - # 13
    frequency:   15.8976965858
  - # 14
    frequency:   16.6557597885
  - # 15
    frequency:   27.4236586326
  - # 16
    frequency:   27.5459121503
  - # 17
    frequency:   27.7237108179
  - # 18
    frequency:   37.9142595428

- q-position: [    0.1060606,    0.0000000,    0.0000000 ]
  distance:    0.0368261
  band:
  - # 1
    frequency:   -5.8374995786
  - # 2
    frequency:   -5.1352540977
  - # 3
    frequency:    0.5578695513
  - # 4
    frequency:    1.1692318973
  - # 5
    frequency:    1.9431461632
  - # 6
    frequency:    3.1180091371
  - # 7
    frequency:    3.4010502746
  - # 8
    frequency:    4.7994384461
  - # 9
    frequency:    8.6122141841
  - # 10
    frequency:   10.3914225566
  - # 11
    frequency:   10.8052363548
  - # 12
    frequency:   15.5845701425
  - # 13
    frequency:   15.9228351995
  - # 14
    frequency:   16.6541150171
  - # 15
    frequency:   27.4295540295
  - # 16
    frequency:   27.5521751417
  - # 17
    frequency:   27.7276050755
  - # 18
    frequency:   37.8918871946

- q-position: [    0.1111111,    0.0000000,    0.0000000 ]
  distance:    0.0385797
  band:
  - # 1
    frequency:   -5.8250440048
  - # 2
    frequency:   -5.0556362258
  - # 3
    frequency:    0.6044856778
  - # 4
    frequency:    1.2216518886
  - # 5
    frequency:    2.0254176014
  - # 6
    frequency:    3.1299551401
  - # 7
    frequency:    3.4337427447
  - # 8
    frequency:    4.7990976271
  - # 9
    frequency:    8.5892027339
  - # 10
    frequency:   10.4178526508
  - # 11
    frequency:   10.8561433821
  - # 12
    frequency:   15.5788175181
  - # 13
    frequency:   15.9494522078
  - # 14
    frequency:   16.6525088747
  - # 15
    frequency:   27.4353977949
  - # 16
    frequency:   27.5545311864
  - # 17
    frequency:   27.7355079924
  - # 18
    frequency:   37.8686516887

- q-position: [    0.1161616,    0.0000000,    0.0000000 ]
  distance:    0.0403333
  band:
  - # 1
    frequency:   -5.8124125008
  - # 2
    frequency:   -4.9728673966
  - # 3
    frequency:    0.6521451859
  - # 4
    frequency:    1.2736385888
  - # 5
    frequency:    2.1062539644
  - # 6
    frequency:    3.1423147077
  - # 7
    frequency:    3.4668901634
  - # 8
    frequency:    4.7988332868
  - # 9
    frequency:    8.5668768008
  - # 10
    frequency:   10.4448087389
  - # 11
    frequency:   10.9074258682
  - # 12
    frequency:   15.5733344549
  - # 13
    frequency:   15.9775109783
  - # 14
    frequency:   16.6509767339
  - # 15
    frequency:   27.4411503754
  - # 16
    frequency:   27.5529402922
  - # 17
    frequency:   27.7474208007
  - # 18
    frequency:   37.8445834393

- q-position: [    0.1212121,    0.0000000,    0.0000000 ]
  distance:    0.0420870
  band:
  - # 1
    frequency:   -5.7996472118
  - # 2
    frequency:   -4.8869819878
  - # 3
    frequency:    0.7007596239
  - # 4
    frequency:    1.3251765127
  - # 5
    frequency:    2.1855967458
  - # 6
    frequency:    3.1550671086
  - # 7
    frequency:    3.5004154068
  - # 8
    frequency:    4.7986563390
  - # 9
    frequency:    8.5452808558
  - # 10
    frequency:   10.4722181544
  - # 11
    frequency:   10.9590345176
  - # 12
    frequency:   15.5681737636
  - # 13
    frequency:   16.0069545190
  - # 14
    frequency:   16.6495644917
  - # 15
    frequency:   27.4467722699
  - # 16
    frequency:   27.5478192398
  - # 17
    frequency:   27.7628892780
  - # 18
    frequency:   37.8197137926

- q-position: [    0.1262626,    0.0000000,    0.0000000 ]
  distance:    0.0438406
  band:
  - # 1
    frequency:   -5.7867897249
  - # 2
    frequency:   -4.7980070965
  - # 3
    frequency:    0.7502436207
  - # 4
    frequency:    1.3762505785
  - # 5
    frequency:    2.2633904095
  - # 6
    frequency:    3.1681907208
  - # 7
    frequency:    3.5342453273
  - # 8
    frequency:    4.7985777931
  - # 9
    frequency:    8.5244522440
  - # 10
    frequency:   10.5000094809
  - # 11
    frequency:   11.0109313402
  - # 12
    frequency:   15.5633864409
  - # 13
    frequency:   16.0377014058
  - # 14
    frequency:   16.6483322052
  - # 15
    frequency:   27.4522242334
  - # 16
    frequency:   27.5397881135
  - # 17
    frequency:   27.7812574007
  - # 18
    frequency:   37.7940749688

- q-position: [    0.1313131,    0.0000000,    0.0000000 ]
  distance:    0.0455942
  band:
  - # 1
    frequency:   -5.7738808725
  - # 2
    frequency:   -4.7059613766
  - # 3
    frequency:    0.8005147807
  - # 4
    frequency:    1.4268461022
  - # 5
    frequency:    2.3395828436
  - # 6
    frequency:    3.1816631070
  - # 7
    frequency:    3.5683106349
  - # 8
    frequency:    4.7986087013
  - # 9
    frequency:    8.5044216174
  - # 10
    frequency:   10.5281129442
  - # 11
    frequency:   11.0630891970
  - # 12
    frequency:   15.5590212568
  - # 13
    frequency:   16.0696404991
  - # 14
    frequency:   16.6473590935
  - # 15
    frequency:   27.4574674786
  - # 16
    frequency:   27.5294487727
  - # 17
    frequency:   27.8018890312
  - # 18
    frequency:   37.7677000023

- q-position: [    0.1363636,    0.0000000,    0.0000000 ]
  distance:    0.0473478
  band:
  - # 1
    frequency:   -5.7609605472
  - # 2
    frequency:   -4.6108537686
  - # 3
    frequency:    0.8514935659
  - # 4
    frequency:    1.4769487931
  - # 5
    frequency:    2.4141258091
  - # 6
    frequency:    3.1954610996
  - # 7
    frequency:    3.6025457652
  - # 8
    frequency:    4.7987601044
  - # 9
    frequency:    8.4852132616
  - # 10
    frequency:   10.5564607848
  - # 11
    frequency:   11.1154913279
  - # 12
    frequency:   15.5551243545
  - # 13
    frequency:   16.1026239112
  - # 14
    frequency:   16.6467504566
  - # 15
    frequency:   27.4624638747
  - # 16
    frequency:   27.5172891619
  - # 17
    frequency:   27.8242637391
  - # 18
    frequency:   37.7406226815

- q-position: [    0.1414141,    0.0000000,    0.0000000 ]
  distance:    0.0491015
  band:
  - # 1
    frequency:   -5.7480675306
  - # 2
    frequency:   -4.5126820891
  - # 3
    frequency:    0.9031031736
  - # 4
    frequency:    1.5265447490
  - # 5
    frequency:    2.4869753753
  - # 6
    frequency:    3.2095608937
  - # 7
    frequency:    3.6368887414
  - # 8
    frequency:    4.7990429783
  - # 9
    frequency:    8.4668453431
  - # 10
    frequency:   10.5849876068
  - # 11
    frequency:   11.1681308305
  - # 12
    frequency:   15.5517388694
  - # 13
    frequency:   16.1364574926
  - # 14
    frequency:   16.6466472453
  - # 15
    frequency:   27.4671761421
  - # 16
    frequency:   27.5036746934
  - # 17
    frequency:   27.8479855243
  - # 18
    frequency:   37.7128774882

- q-position: [    0.1464646,    0.0000000,    0.0000000 ]
  distance:    0.0508551
  band:
  - # 1
    frequency:   -5.7352393382
  - # 2
    frequency:   -4.4114314364
  - # 3
    frequency:    0.9552694153
  - # 4
    frequency:    1.5756204519
  - # 5
    frequency:    2.5580923293
  - # 6
    frequency:    3.2239381476
  - # 7
    frequency:    3.6712810426
  - # 8
    frequency:    4.7994681808
  - # 9
    frequency:    8.4493301016
  - # 10
    frequency:   10.6136307020
  - # 11
    frequency:   11.2210100691
  - # 12
    frequency:   15.5489045704
  - # 13
    frequency:   16.1708879441
  - # 14
    frequency:   16.6472391799
  - # 15
    frequency:   27.4715680414
  - # 16
    frequency:   27.4888718174
  - # 17
    frequency:   27.8727593251
  - # 18
    frequency:   37.6844995358

- q-position: [    0.1515152,    0.0000000,    0.0000000 ]
  distance:    0.0526087
  band:
  - # 1
    frequency:   -5.7225120791
  - # 2
    frequency:   -4.3070723559
  - # 3
    frequency:    1.0079206015
  - # 4
    frequency:    1.6241627639
  - # 5
    frequency:    2.6274425487
  - # 6
    frequency:    3.2385680891
  - # 7
    frequency:    3.7056674829
  - # 8
    frequency:    4.8000464002
  - # 9
    frequency:    8.4326740105
  - # 10
    frequency:   10.6423303432
  - # 11
    frequency:   11.2741399953
  - # 12
    frequency:   15.5466575286
  - # 13
    frequency:   16.2055857006
  - # 14
    frequency:   16.6487822653
  - # 15
    frequency:   27.4730752677
  - # 16
    frequency:   27.4756045571
  - # 17
    frequency:   27.8983638272
  - # 18
    frequency:   37.6555245071

- q-position: [    0.1565657,    0.0000000,    0.0000000 ]
  distance:    0.0543623
  band:
  - # 1
    frequency:   -5.7099203334
  - # 2
    frequency:   -4.1995586873
  - # 3
    frequency:    1.0609874371
  - # 4
    frequency:    1.6721589251
  - # 5
    frequency:    2.6949973262
  - # 6
    frequency:    3.2534256259
  - # 7
    frequency:    3.7399961073
  - # 8
    frequency:    4.8007881077
  - # 9
    frequency:    8.4168779227
  - # 10
    frequency:   10.6710300464
  - # 11
    frequency:   11.3275393725
  - # 12
    frequency:   15.5450298167
  - # 13
    frequency:   16.2401234693
  - # 14
    frequency:   16.6516208139
  - # 15
    frequency:   27.4564300079
  - # 16
    frequency:   27.4792520727
  - # 17
    frequency:   27.9246295459
  - # 18
    frequency:   37.6259885924

- q-position: [    0.1616162,    0.0000000,    0.0000000 ]
  distance:    0.0561160
  band:
  - # 1
    frequency:   -5.6974970453
  - # 2
    frequency:   -4.0888249921
  - # 3
    frequency:    1.1144029285
  - # 4
    frequency:    1.7195965509
  - # 5
    frequency:    2.7607336348
  - # 6
    frequency:    3.2684854597
  - # 7
    frequency:    3.7742181086
  - # 8
    frequency:    4.8017035141
  - # 9
    frequency:    8.4019372211
  - # 10
    frequency:   10.6996767979
  - # 11
    frequency:   11.3812339008
  - # 12
    frequency:   15.5440492442
  - # 13
    frequency:   16.2739527913
  - # 14
    frequency:   16.6562115947
  - # 15
    frequency:   27.4390469463
  - # 16
    frequency:   27.4824785394
  - # 17
    frequency:   27.9514231173
  - # 18
    frequency:   37.5959284267

- q-position: [    0.1666667,    0.0000000,    0.0000000 ]
  distance:    0.0578696
  band:
  - # 1
    frequency:   -5.6852734352
  - # 2
    frequency:   -3.9747834230
  - # 3
    frequency:    1.1681023045
  - # 4
    frequency:    1.7664636316
  - # 5
    frequency:    2.8246343255
  - # 6
    frequency:    3.2837222013
  - # 7
    frequency:    3.8082877645
  - # 8
    frequency:    4.8028025335
  - # 9
    frequency:    8.3878419864
  - # 10
    frequency:   10.7282212438
  - # 11
    frequency:   11.4352552452
  - # 12
    frequency:   15.5437391318
  - # 13
    frequency:   16.3063870524
  - # 14
    frequency:   16.6631416691
  - # 15
    frequency:   27.4210137014
  - # 16
    frequency:   27.4852536340
  - # 17
    frequency:   27.9786365175
  - # 18
    frequency:   37.5653810272

- q-position: [    0.1717172,    0.0000000,    0.0000000 ]
  distance:    0.0596232
  band:
  - # 1
    frequency:   -5.6732789266
  - # 2
    frequency:   -3.8573198475
  - # 3
    frequency:    1.2220229525
  - # 4
    frequency:    1.8127485324
  - # 5
    frequency:    2.8866882478
  - # 6
    frequency:    3.2991104864
  - # 7
    frequency:    3.8421623959
  - # 8
    frequency:    4.8040947547
  - # 9
    frequency:    8.3745771965
  - # 10
    frequency:   10.7566178407
  - # 11
    frequency:   11.4896399762
  - # 12
    frequency:   15.5441181274
  - # 13
    frequency:   16.3366103390
  - # 14
    frequency:   16.6731204967
  - # 15
    frequency:   27.4024018771
  - # 16
    frequency:   27.4875489081
  - # 17
    frequency:   28.0061797526
  - # 18
    frequency:   37.5343837313

- q-position: [    0.1767677,    0.0000000,    0.0000000 ]
  distance:    0.0613768
  band:
  - # 1
    frequency:   -5.6615410916
  - # 2
    frequency:   -3.7362889660
  - # 3
    frequency:    1.2761043689
  - # 4
    frequency:    1.8584399946
  - # 5
    frequency:    2.9468902897
  - # 6
    frequency:    3.3146250895
  - # 7
    frequency:    3.8758023434
  - # 8
    frequency:    4.8055894235
  - # 9
    frequency:    8.3621229647
  - # 10
    frequency:   10.7848249663
  - # 11
    frequency:   11.5444284348
  - # 12
    frequency:   15.5452000673
  - # 13
    frequency:   16.3637429635
  - # 14