nqpoint: 300    
npath: 3      
segment_nqpoint:
- 100
- 100
- 100
labels:
- [ 'G', 'M' ]
- [ 'M', 'K' ]
- [ 'K', 'G' ]
reciprocal_lattice:
- [   0.29824395,   0.17219123,   0.00000000 ] # a*
- [   0.00000000,   0.34438245,   0.00000000 ] # b*
- [   0.00000000,   0.00000000,   0.03674997 ] # c*
natom: 7      
lattice:
- [     3.352959866840178,     0.000000000000000,     0.000000000000000 ] # a
- [    -1.676479933420089,     2.903748422553271,     0.000000000000000 ] # b
- [     0.000000000000000,     0.000000000000000,    27.210907438195068 ] # c
points:
- symbol: Cl # 1
  coordinates: [  0.666666984744047,  0.333332985985145,  0.330749719407262 ]
  mass: 35.453000
- symbol: N # 2
  coordinates: [  0.000000000000000,  0.000000000000000,  0.530489356442866 ]
  mass: 14.006700
- symbol: N # 3
  coordinates: [  0.333332985432215,  0.666666983183674,  0.619863380124870 ]
  mass: 14.006700
- symbol: O # 4
  coordinates: [  0.333332985432215,  0.666666983183674,  0.669250280592738 ]
  mass: 15.999400
- symbol: O # 5
  coordinates: [  0.666666984744047,  0.333332985985145,  0.451869451492458 ]
  mass: 15.999400
- symbol: Zr # 6
  coordinates: [  0.333332985432215,  0.666666983183674,  0.482766998260507 ]
  mass: 91.224000
- symbol: Zr # 7
  coordinates: [  0.666666984744047,  0.333332985985145,  0.585698052394333 ]
  mass: 91.224000

phonon:
- q-position: [    0.0000000,    0.0000000,    0.0000000 ]
  distance:    0.0000000
  band:
  - # 1
    frequency:   -7.3506472394
  - # 2
    frequency:   -7.3506472394
  - # 3
    frequency:   -1.1326291362
  - # 4
    frequency:   -1.1326291362
  - # 5
    frequency:   -0.0000006272
  - # 6
    frequency:    0.0000001969
  - # 7
    frequency:    0.0000006607
  - # 8
    frequency:    1.4521699070
  - # 9
    frequency:    2.0598600130
  - # 10
    frequency:    2.0598600130
  - # 11
    frequency:    5.2961649489
  - # 12
    frequency:    7.4467754334
  - # 13
    frequency:    7.4467754334
  - # 14
    frequency:    8.2852126455
  - # 15
    frequency:   10.6717486976
  - # 16
    frequency:   10.6717486976
  - # 17
    frequency:   13.3790041609
  - # 18
    frequency:   13.3790041609
  - # 19
    frequency:   13.5930792485
  - # 20
    frequency:   15.7798494236
  - # 21
    frequency:   36.4226651512

- q-position: [    0.0050505,    0.0000000,    0.0000000 ]
  distance:    0.0017393
  band:
  - # 1
    frequency:   -7.3511637658
  - # 2
    frequency:   -7.3500397208
  - # 3
    frequency:   -1.1365983548
  - # 4
    frequency:   -1.1339018962
  - # 5
    frequency:   -0.0019742557
  - # 6
    frequency:    0.0438290203
  - # 7
    frequency:    0.0888898371
  - # 8
    frequency:    1.4522459985
  - # 9
    frequency:    2.0609310786
  - # 10
    frequency:    2.0626056894
  - # 11
    frequency:    5.2959434979
  - # 12
    frequency:    7.4471875131
  - # 13
    frequency:    7.4522075253
  - # 14
    frequency:    8.2845273112
  - # 15
    frequency:   10.6719686594
  - # 16
    frequency:   10.6722183779
  - # 17
    frequency:   13.3760043741
  - # 18
    frequency:   13.3787027437
  - # 19
    frequency:   13.5949906181
  - # 20
    frequency:   15.7806491603
  - # 21
    frequency:   36.4221301912

- q-position: [    0.0101010,    0.0000000,    0.0000000 ]
  distance:    0.0034786
  band:
  - # 1
    frequency:   -7.3527126319
  - # 2
    frequency:   -7.3482201869
  - # 3
    frequency:   -1.1487124325
  - # 4
    frequency:   -1.1377404026
  - # 5
    frequency:   -0.0075710523
  - # 6
    frequency:    0.0880846245
  - # 7
    frequency:    0.1796592076
  - # 8
    frequency:    1.4524941928
  - # 9
    frequency:    2.0641379385
  - # 10
    frequency:    2.0708235606
  - # 11
    frequency:    5.2952832057
  - # 12
    frequency:    7.4484244679
  - # 13
    frequency:    7.4684448375
  - # 14
    frequency:    8.2824960454
  - # 15
    frequency:   10.6726295090
  - # 16
    frequency:   10.6736248990
  - # 17
    frequency:   13.3673178117
  - # 18
    frequency:   13.3777990895
  - # 19
    frequency:   13.6004167876
  - # 20
    frequency:   15.7830437190
  - # 21
    frequency:   36.4205262822

- q-position: [    0.0151515,    0.0000000,    0.0000000 ]
  distance:    0.0052179
  band:
  - # 1
    frequency:   -7.3552916841
  - # 2
    frequency:   -7.3451975697
  - # 3
    frequency:   -1.1694512894
  - # 4
    frequency:   -1.1442005953
  - # 5
    frequency:   -0.0158715729
  - # 6
    frequency:    0.1331516800
  - # 7
    frequency:    0.2735585991
  - # 8
    frequency:    1.4529715701
  - # 9
    frequency:    2.0694616642
  - # 10
    frequency:    2.0844586492
  - # 11
    frequency:    5.2941958809
  - # 12
    frequency:    7.4504884335
  - # 13
    frequency:    7.4953083817
  - # 14
    frequency:    8.2791960014
  - # 15
    frequency:   10.6737341281
  - # 16
    frequency:   10.6759609419
  - # 17
    frequency:   13.3537147789
  - # 18
    frequency:   13.3762949882
  - # 19
    frequency:   13.6086019984
  - # 20
    frequency:   15.7870192026
  - # 21
    frequency:   36.4178563346

- q-position: [    0.0202020,    0.0000000,    0.0000000 ]
  distance:    0.0069572
  band:
  - # 1
    frequency:   -7.3588972828
  - # 2
    frequency:   -7.3409863147
  - # 3
    frequency:   -1.1992415013
  - # 4
    frequency:   -1.1533608055
  - # 5
    frequency:   -0.0255643850
  - # 6
    frequency:    0.1793381874
  - # 7
    frequency:    0.3709000649
  - # 8
    frequency:    1.4537651631
  - # 9
    frequency:    2.0768709780
  - # 10
    frequency:    2.1034269937
  - # 11
    frequency:    5.2927000237
  - # 12
    frequency:    7.4533829336
  - # 13
    frequency:    7.5324915117
  - # 14
    frequency:    8.2747668157
  - # 15
    frequency:   10.6752872810
  - # 16
    frequency:   10.6792151026
  - # 17
    frequency:   13.3360942696
  - # 18
    frequency:   13.3741934162
  - # 19
    frequency:   13.6186714070
  - # 20
    frequency:   15.7925526402
  - # 21
    frequency:   36.4141251912

- q-position: [    0.0252525,    0.0000000,    0.0000000 ]
  distance:    0.0086965
  band:
  - # 1
    frequency:   -7.3635242289
  - # 2
    frequency:   -7.3356057429
  - # 3
    frequency:   -1.2381495986
  - # 4
    frequency:   -1.1653024126
  - # 5
    frequency:   -0.0351184109
  - # 6
    frequency:    0.2268519090
  - # 7
    frequency:    0.4711590659
  - # 8
    frequency:    1.4549823884
  - # 9
    frequency:    2.0863226601
  - # 10
    frequency:    2.1276251359
  - # 11
    frequency:    5.2908192677
  - # 12
    frequency:    7.4571128249
  - # 13
    frequency:    7.5795419659
  - # 14
    frequency:    8.2694323156
  - # 15
    frequency:   10.6772955573
  - # 16
    frequency:   10.6833730629
  - # 17
    frequency:   13.3152533728
  - # 18
    frequency:   13.3714985270
  - # 19
    frequency:   13.6298615440
  - # 20
    frequency:   15.7996122658
  - # 21
    frequency:   36.4093396159

- q-position: [    0.0303030,    0.0000000,    0.0000000 ]
  distance:    0.0104358
  band:
  - # 1
    frequency:   -7.3691656645
  - # 2
    frequency:   -7.3290792044
  - # 3
    frequency:   -1.2857621468
  - # 4
    frequency:   -1.1800883042
  - # 5
    frequency:   -0.0428385388
  - # 6
    frequency:    0.2757915437
  - # 7
    frequency:    0.5733237398
  - # 8
    frequency:    1.4567418474
  - # 9
    frequency:    2.0977621176
  - # 10
    frequency:    2.1569401482
  - # 11
    frequency:    5.2885805688
  - # 12
    frequency:    7.4616842221
  - # 13
    frequency:    7.6358223609
  - # 14
    frequency:    8.2635446981
  - # 15
    frequency:   10.6797672929
  - # 16
    frequency:   10.6884191931
  - # 17
    frequency:   13.2918133027
  - # 18
    frequency:   13.3682156372
  - # 19
    frequency:   13.6415941109
  - # 20
    frequency:   15.8081578983
  - # 21
    frequency:   36.4035082766

- q-position: [    0.0353535,    0.0000000,    0.0000000 ]
  distance:    0.0121751
  band:
  - # 1
    frequency:   -7.3758129517
  - # 2
    frequency:   -7.3214330648
  - # 3
    frequency:   -1.3412648716
  - # 4
    frequency:   -1.1977434267
  - # 5
    frequency:   -0.0466917481
  - # 6
    frequency:    0.3261522094
  - # 7
    frequency:    0.6762488218
  - # 8
    frequency:    1.4591670839
  - # 9
    frequency:    2.1111241121
  - # 10
    frequency:    2.1912583016
  - # 11
    frequency:    5.2860123923
  - # 12
    frequency:    7.4671044025
  - # 13
    frequency:    7.7004232152
  - # 14
    frequency:    8.2576766536
  - # 15
    frequency:   10.6827124691
  - # 16
    frequency:   10.6943385591
  - # 17
    frequency:   13.2662338667
  - # 18
    frequency:   13.3643512093
  - # 19
    frequency:   13.6534613117
  - # 20
    frequency:   15.8181414103
  - # 21
    frequency:   36.3966417248

- q-position: [    0.0404040,    0.0000000,    0.0000000 ]
  distance:    0.0139144
  band:
  - # 1
    frequency:   -7.3834555333
  - # 2
    frequency:   -7.3126955738
  - # 3
    frequency:   -1.4036173026
  - # 4
    frequency:   -1.2182410840
  - # 5
    frequency:   -0.0434990381
  - # 6
    frequency:    0.3778422173
  - # 7
    frequency:    0.7788735269
  - # 8
    frequency:    1.4623855499
  - # 9
    frequency:    2.1263336357
  - # 10
    frequency:    2.2304710481
  - # 11
    frequency:    5.2831431086
  - # 12
    frequency:    7.4733816903
  - # 13
    frequency:    7.7719656460
  - # 14
    frequency:    8.2528238579
  - # 15
    frequency:   10.6861425924
  - # 16
    frequency:   10.7011193140
  - # 17
    frequency:   13.2388533125
  - # 18
    frequency:   13.3599128306
  - # 19
    frequency:   13.6651857964
  - # 20
    frequency:   15.8295072742
  - # 21
    frequency:   36.3887523701

- q-position: [    0.0454545,    0.0000000,    0.0000000 ]
  distance:    0.0156537
  band:
  - # 1
    frequency:   -7.3920807800
  - # 2
    frequency:   -7.3028956692
  - # 3
    frequency:   -1.4717180484
  - # 4
    frequency:   -1.2414970380
  - # 5
    frequency:   -0.0230277633
  - # 6
    frequency:    0.4307063590
  - # 7
    frequency:    0.8802953481
  - # 8
    frequency:    1.4665353508
  - # 9
    frequency:    2.1433069204
  - # 10
    frequency:    2.2744776335
  - # 11
    frequency:    5.2799997305
  - # 12
    frequency:    7.4805253233
  - # 13
    frequency:    7.8481358780
  - # 14
    frequency:    8.2508753036
  - # 15
    frequency:   10.6900705544
  - # 16
    frequency:   10.7087554642
  - # 17
    frequency:   13.2099258023
  - # 18
    frequency:   13.3549091891
  - # 19
    frequency:   13.6765829874
  - # 20
    frequency:   15.8421931698
  - # 21
    frequency:   36.3798544499

- q-position: [    0.0505051,    0.0000000,    0.0000000 ]
  distance:    0.0173931
  band:
  - # 1
    frequency:   -7.4016738314
  - # 2
    frequency:   -7.2920617682
  - # 3
    frequency:   -1.5445141517
  - # 4
    frequency:   -1.2673714300
  - # 5
    frequency:    0.0488036359
  - # 6
    frequency:    0.4845506178
  - # 7
    frequency:    0.9797500547
  - # 8
    frequency:    1.4717847065
  - # 9
    frequency:    2.1619525570
  - # 10
    frequency:    2.3231841981
  - # 11
    frequency:    5.2766070481
  - # 12
    frequency:    7.4885453017
  - # 13
    frequency:    7.9245922105
  - # 14
    frequency:    8.2557105034
  - # 15
    frequency:   10.6945104753
  - # 16
    frequency:   10.7172500281
  - # 17
    frequency:   13.1796496732
  - # 18
    frequency:   13.3493500460
  - # 19
    frequency:   13.6875326498
  - # 20
    frequency:   15.8561306411
  - # 21
    frequency:   36.3699639958

- q-position: [    0.0555556,    0.0000000,    0.0000000 ]
  distance:    0.0191324
  band:
  - # 1
    frequency:   -7.4122174346
  - # 2
    frequency:   -7.2802205978
  - # 3
    frequency:   -1.6210551617
  - # 4
    frequency:   -1.2956768338
  - # 5
    frequency:    0.0856272537
  - # 6
    frequency:    0.5391642255
  - # 7
    frequency:    1.0765369101
  - # 8
    frequency:    1.4783767502
  - # 9
    frequency:    2.1821726942
  - # 10
    frequency:    2.3764996365
  - # 11
    frequency:    5.2729871481
  - # 12
    frequency:    7.4974522217
  - # 13
    frequency:    7.9929832134
  - # 14
    frequency:    8.2751845198
  - # 15
    frequency:   10.6994775303
  - # 16
    frequency:   10.7266186345
  - # 17
    frequency:   13.1481871471
  - # 18
    frequency:   13.3432462045
  - # 19
    frequency:   13.6979590690
  - # 20
    frequency:   15.8712457863
  - # 21
    frequency:   36.3590987945

- q-position: [    0.0606061,    0.0000000,    0.0000000 ]
  distance:    0.0208717
  band:
  - # 1
    frequency:   -7.4236917871
  - # 2
    frequency:   -7.2673961068
  - # 3
    frequency:   -1.7005098261
  - # 4
    frequency:   -1.3261898717
  - # 5
    frequency:    0.1216685615
  - # 6
    frequency:    0.5943367098
  - # 7
    frequency:    1.1698813832
  - # 8
    frequency:    1.4867356335
  - # 9
    frequency:    2.2038642879
  - # 10
    frequency:    2.4343288347
  - # 11
    frequency:    5.2691592634
  - # 12
    frequency:    7.5072570945
  - # 13
    frequency:    8.0413902736
  - # 14
    frequency:    8.3206874579
  - # 15
    frequency:   10.7049877632
  - # 16
    frequency:   10.7368936534
  - # 17
    frequency:   13.1156777550
  - # 18
    frequency:   13.3366094770
  - # 19
    frequency:   13.7078175952
  - # 20
    frequency:   15.8874599671
  - # 21
    frequency:   36.3472783453

- q-position: [    0.0656566,    0.0000000,    0.0000000 ]
  distance:    0.0226110
  band:
  - # 1
    frequency:   -7.4360743911
  - # 2
    frequency:   -7.2536084990
  - # 3
    frequency:   -1.7821626057
  - # 4
    frequency:   -1.3586638473
  - # 5
    frequency:    0.1589400787
  - # 6
    frequency:    0.6498692890
  - # 7
    frequency:    1.2586339508
  - # 8
    frequency:    1.4977451609
  - # 9
    frequency:    2.2269203647
  - # 10
    frequency:    2.4965642335
  - # 11
    frequency:    5.2651398740
  - # 12
    frequency:    7.5179711539
  - # 13
    frequency:    8.0648265673
  - # 14
    frequency:    8.3966460970
  - # 15
    frequency:   10.7110578870
  - # 16
    frequency:   10.7481290061
  - # 17
    frequency:   13.0822475228
  - # 18
    frequency:   13.3294526489
  - # 19
    frequency:   13.7170855407
  - # 20
    frequency:   15.9046905260
  - # 21
    frequency:   36.3345238138

- q-position: [    0.0707071,    0.0000000,    0.0000000 ]
  distance:    0.0243503
  band:
  - # 1
    frequency:   -7.4493399231
  - # 2
    frequency:   -7.2388734143
  - # 3
    frequency:   -1.8654014183
  - # 4
    frequency:   -1.3928404686
  - # 5
    frequency:    0.1978677287
  - # 6
    frequency:    0.7055812006
  - # 7
    frequency:    1.3404508366
  - # 8
    frequency:    1.5135545719
  - # 9
    frequency:    2.2512312686
  - # 10
    frequency:    2.5630769622
  - # 11
    frequency:    5.2609429810
  - # 12
    frequency:    7.5296056527
  - # 13
    frequency:    8.0703576328
  - # 14
    frequency:    8.4954022145
  - # 15
    frequency:   10.7177050744
  - # 16
    frequency:   10.7604058654
  - # 17
    frequency:   13.0480154073
  - # 18
    frequency:   13.3217894402
  - # 19
    frequency:   13.7257559757
  - # 20
    frequency:   15.9228514993
  - # 21
    frequency:   36.3208579809

- q-position: [    0.0757576,    0.0000000,    0.0000000 ]
  distance:    0.0260896
  band:
  - # 1
    frequency:   -7.4634601259
  - # 2
    frequency:   -7.2232012776
  - # 3
    frequency:   -1.9497028738
  - # 4
    frequency:   -1.4284595571
  - # 5
    frequency:    0.2385145816
  - # 6
    frequency:    0.7613121551
  - # 7
    frequency:    1.4097522922
  - # 8
    frequency:    1.5396129389
  - # 9
    frequency:    2.2766858620
  - # 10
    frequency:    2.6337089706
  - # 11
    frequency:    5.2565804812
  - # 12
    frequency:    7.5421716530
  - # 13
    frequency:    8.0662147972
  - # 14
    frequency:    8.6080960118
  - # 15
    frequency:   10.7249467407
  - # 16
    frequency:   10.7738395358
  - # 17
    frequency:   13.0130980013
  - # 18
    frequency:   13.3136344650
  - # 19
    frequency:   13.7338334489
  - # 20
    frequency:   15.9418543160
  - # 21
    frequency:   36.3063051888

- q-position: [    0.0808081,    0.0000000,    0.0000000 ]
  distance:    0.0278289
  band:
  - # 1
    frequency:   -7.4784037264
  - # 2
    frequency:   -7.2065968246
  - # 3
    frequency:   -2.0346179786
  - # 4
    frequency:   -1.4652663603
  - # 5
    frequency:    0.2808265912
  - # 6
    frequency:    0.8169222097
  - # 7
    frequency:    1.4579928107
  - # 8
    frequency:    1.5843943666
  - # 9
    frequency:    2.3031726557
  - # 10
    frequency:    2.7082675348
  - # 11
    frequency:    5.2520625887
  - # 12
    frequency:    7.5556798091
  - # 13
    frequency:    8.0570578017
  - # 14
    frequency:    8.7293978984
  - # 15
    frequency:   10.7328003199
  - # 16
    frequency:   10.7885878733
  - # 17
    frequency:   12.9776131949
  - # 18
    frequency:   13.3050031901
  - # 19
    frequency:   13.7413309998
  - # 20
    frequency:   15.9616084762
  - # 21
    frequency:   36.2908912832

- q-position: [    0.0858586,    0.0000000,    0.0000000 ]
  distance:    0.0295682
  band:
  - # 1
    frequency:   -7.4941363849
  - # 2
    frequency:   -7.1890588059
  - # 3
    frequency:   -2.1197594948
  - # 4
    frequency:   -1.5030165710
  - # 5
    frequency:    0.3247086013
  - # 6
    frequency:    0.8722901681
  - # 7
    frequency:    1.4867121735
  - # 8
    frequency:    1.6463423690
  - # 9
    frequency:    2.3305808507
  - # 10
    frequency:    2.7865231600
  - # 11
    frequency:    5.2473982613
  - # 12
    frequency:    7.5701401498
  - # 13
    frequency:    8.0452069075
  - # 14
    frequency:    8.8562678873
  - # 15
    frequency:   10.7412830383
  - # 16
    frequency:   10.8048616677
  - # 17
    frequency:   12.9416832754
  - # 18
    frequency:   13.2959118904
  - # 19
    frequency:   13.7482680550
  - # 20
    frequency:   15.9820222007
  - # 21
    frequency:   36.2746435517

- q-position: [    0.0909091,    0.0000000,    0.0000000 ]
  distance:    0.0313075
  band:
  - # 1
    frequency:   -7.5106206773
  - # 2
    frequency:   -7.1705798621
  - # 3
    frequency:   -2.2047912540
  - # 4
    frequency:   -1.5414794147
  - # 5
    frequency:    0.3700530214
  - # 6
    frequency:    0.9273113213
  - # 7
    frequency:    1.5062165764
  - # 8
    frequency:    1.7151825710
  - # 9
    frequency:    2.3588012778
  - # 10
    frequency:    2.8682112826
  - # 11
    frequency:    5.2425956075
  - # 12
    frequency:    7.5855618593
  - # 13
    frequency:    8.0318840686
  - # 14
    frequency:    8.9867025453
  - # 15
    frequency:   10.7504116849
  - # 16
    frequency:   10.8229373924
  - # 17
    frequency:   12.9054378252
  - # 18
    frequency:   13.2863776049
  - # 19
    frequency:   13.7546689450
  - # 20
    frequency:   16.0030030498
  - # 21
    frequency:   36.2575906596

- q-position: [    0.0959596,    0.0000000,    0.0000000 ]
  distance:    0.0330468
  band:
  - # 1
    frequency:   -7.5278161147
  - # 2
    frequency:   -7.1511465584
  - # 3
    frequency:   -2.2894193410
  - # 4
    frequency:   -1.5804392453
  - # 5
    frequency:    0.4167516962
  - # 6
    frequency:    0.9818950534
  - # 7
    frequency:    1.5224406166
  - # 8
    frequency:    1.7850524919
  - # 9
    frequency:    2.3877272283
  - # 10
    frequency:    2.9530374426
  - # 11
    frequency:    5.2376622614
  - # 12
    frequency:    7.6019530616
  - # 13
    frequency:    8.0178004840
  - # 14
    frequency:    9.1191318731
  - # 15
    frequency:   10.7602023841
  - # 16
    frequency:   10.8431725433
  - # 17
    frequency:   12.8690167277
  - # 18
    frequency:   13.2764180908
  - # 19
    frequency:   13.7605618688
  - # 20
    frequency:   16.0244585052
  - # 21
    frequency:   36.2397625821

- q-position: [    0.1010101,    0.0000000,    0.0000000 ]
  distance:    0.0347861
  band:
  - # 1
    frequency:   -7.5456792009
  - # 2
    frequency:   -7.1307395600
  - # 3
    frequency:   -2.3733849126
  - # 4
    frequency:   -1.6196960700
  - # 5
    frequency:    0.4647008682
  - # 6
    frequency:    1.0359626148
  - # 7
    frequency:    1.5376309851
  - # 8
    frequency:    1.8538080171
  - # 9
    frequency:    2.4172551728
  - # 10
    frequency:    3.0406849775
  - # 11
    frequency:    5.2326057213
  - # 12
    frequency:    7.6193206103
  - # 13
    frequency:    8.0034136573
  - # 14
    frequency:    9.2521431963
  - # 15
    frequency:   10.7706703694
  - # 16
    frequency:   10.8660232118
  - # 17
    frequency:   12.8325735792
  - # 18
    frequency:   13.2660517771
  - # 19
    frequency:   13.7659781979
  - # 20
    frequency:   16.0462965157
  - # 21
    frequency:   36.2211905336

- q-position: [    0.1060606,    0.0000000,    0.0000000 ]
  distance:    0.0365254
  band:
  - # 1
    frequency:   -7.5641635277
  - # 2
    frequency:   -7.1093339288
  - # 3
    frequency:   -2.4564583874
  - # 4
    frequency:   -1.6590653544
  - # 5
    frequency:    0.5138030284
  - # 6
    frequency:    1.0894452063
  - # 7
    frequency:    1.5526760546
  - # 8
    frequency:    1.9206833457
  - # 9
    frequency:    2.4472853700
  - # 10
    frequency:    3.1308239466
  - # 11
    frequency:    5.2274336562
  - # 12
    frequency:    7.6376698873
  - # 13
    frequency:    7.9890444782
  - # 14
    frequency:    9.3843430326
  - # 15
    frequency:   10.7818297633
  - # 16
    frequency:   10.8920621876
  - # 17
    frequency:   12.7962798543
  - # 18
    frequency:   13.2552977183
  - # 19
    frequency:   13.7709520469
  - # 20
    frequency:   16.0684260038
  - # 21
    frequency:   36.2019068943

- q-position: [    0.1111111,    0.0000000,    0.0000000 ]
  distance:    0.0382647
  band:
  - # 1
    frequency:   -7.5832199094
  - # 2
    frequency:   -7.0868995197
  - # 3
    frequency:   -2.5384347589
  - # 4
    frequency:   -1.6983773789
  - # 5
    frequency:    0.5639672904
  - # 6
    frequency:    1.1422824148
  - # 7
    frequency:    1.5679715261
  - # 8
    frequency:    1.9854153409
  - # 9
    frequency:    2.4777223681
  - # 10
    frequency:    3.2231199994
  - # 11
    frequency:    5.2221541895
  - # 12
    frequency:    7.6570046121
  - # 13
    frequency:    7.9749340137
  - # 14
    frequency:    9.5142813372
  - # 15
    frequency:   10.7936933626
  - # 16
    frequency:   10.9219931546
  - # 17
    frequency:   12.7603302627
  - # 18
    frequency:   13.2441755478
  - # 19
    frequency:   13.7755200684
  - # 20
    frequency:   16.0907573334
  - # 21
    frequency:   36.1819451346

- q-position: [    0.1161616,    0.0000000,    0.0000000 ]
  distance:    0.0400040
  band:
  - # 1
    frequency:   -7.6027965538
  - # 2
    frequency:   -7.0634014529
  - # 3
    frequency:   -2.6191298179
  - # 4
    frequency:   -1.7374763441
  - # 5
    frequency:    0.6151090544
  - # 6
    frequency:    1.1944209911
  - # 7
    frequency:    1.5837117364
  - # 8
    frequency:    2.0479435737
  - # 9
    frequency:    2.5084754070
  - # 10
    frequency:    3.3172421684
  - # 11
    frequency:    5.2167761757
  - # 12
    frequency:    7.6773266659
  - # 13
    frequency:    7.9612728143
  - # 14
    frequency:    9.6404140327
  - # 15
    frequency:   10.8062724327
  - # 16
    frequency:   10.9566517383
  - # 17
    frequency:   12.7249499012
  - # 18
    frequency:   13.2327054318
  - # 19
    frequency:   13.7797214487
  - # 20
    frequency:   16.1132027407
  - # 21
    frequency:   36.1613397361

- q-position: [    0.1212121,    0.0000000,    0.0000000 ]
  distance:    0.0417433
  band:
  - # 1
    frequency:   -7.6228392683
  - # 2
    frequency:   -7.0388006422
  - # 3
    frequency:   -2.6983771039
  - # 4
    frequency:   -1.7762193597
  - # 5
    frequency:    0.6671493393
  - # 6
    frequency:    1.2458139275
  - # 7
    frequency:    1.5999983545
  - # 8
    frequency:    2.1082948582
  - # 9
    frequency:    2.5394587270
  - # 10
    frequency:    3.4128689630
  - # 11
    frequency:    5.2113094922
  - # 12
    frequency:    7.6986359312
  - # 13
    frequency:    7.9482168990
  - # 14
    frequency:    9.7611050456
  - # 15
    frequency:   10.8195765123
  - # 16
    frequency:   10.9969772113
  - # 17
    frequency:   12.6904040653
  - # 18
    frequency:   13.2209080239
  - # 19
    frequency:   13.7835980969
  - # 20
    frequency:   16.1356767262
  - # 21
    frequency:   36.1401261113

- q-position: [    0.1262626,    0.0000000,    0.0000000 ]
  distance:    0.0434826
  band:
  - # 1
    frequency:   -7.6432916983
  - # 2
    frequency:   -7.0130543577
  - # 3
    frequency:   -2.7760254431
  - # 4
    frequency:   -1.8144754073
  - # 5
    frequency:    0.7200139779
  - # 6
    frequency:    1.2964197856
  - # 7
    frequency:    1.6168859691
  - # 8
    frequency:    2.1665329367
  - # 9
    frequency:    2.5705917934
  - # 10
    frequency:    3.5096925333
  - # 11
    frequency:    5.2057653754
  - # 12
    frequency:    7.7209301503
  - # 13
    frequency:    7.9358969125
  - # 14
    frequency:    9.8746830045
  - # 15
    frequency:   10.8336132285
  - # 16
    frequency:   11.0439319898
  - # 17
    frequency:   12.6570119796
  - # 18
    frequency:   13.2088044204
  - # 19
    frequency:   13.7871950348
  - # 20
    frequency:   16.1580964120
  - # 21
    frequency:   36.1183405210

- q-position: [    0.1313131,    0.0000000,    0.0000000 ]
  distance:    0.0452219
  band:
  - # 1
    frequency:   -7.6640955939
  - # 2
    frequency:   -6.9861168055
  - # 3
    frequency:   -2.8519369547
  - # 4
    frequency:   -1.8521243333
  - # 5
    frequency:    0.7736327771
  - # 6
    frequency:    1.3462022225
  - # 7
    frequency:    1.6344032360
  - # 8
    frequency:    2.2227345165
  - # 9
    frequency:    2.6017994443
  - # 10
    frequency:    3.6074209557
  - # 11
    frequency:    5.2001568461
  - # 12
    frequency:    7.7442048045
  - # 13
    frequency:    7.9244236086
  - # 14
    frequency:    9.9795693440
  - # 15
    frequency:   10.8483881264
  - # 16
    frequency:   11.0983472032
  - # 17
    frequency:   12.6251662861
  - # 18
    frequency:   13.1964161175
  - # 19
    frequency:   13.7905610094
  - # 20
    frequency:   16.1803818646
  - # 21
    frequency:   36.0960199895

- q-position: [    0.1363636,    0.0000000,    0.0000000 ]
  distance:    0.0469612
  band:
  - # 1
    frequency:   -7.6851911025
  - # 2
    frequency:   -6.9579397079
  - # 3
    frequency:   -2.9259854333
  - # 4
    frequency:   -1.8890559024
  - # 5
    frequency:    0.8279386947
  - # 6
    frequency:    1.3951296688
  - # 7
    frequency:    1.6525635434
  - # 8
    frequency:    2.2769773969
  - # 9
    frequency:    2.6330119706
  - # 10
    frequency:    3.7057788583
  - # 11
    frequency:    5.1944992882
  - # 12
    frequency:    7.7684530144
  - # 13
    frequency:    7.9138912768
  - # 14
    frequency:   10.0744744315
  - # 15
    frequency:   10.8639045113
  - # 16
    frequency:   11.1606934748
  - # 17
    frequency:   12.5953609287
  - # 18
    frequency:   13.1837649695
  - # 19
    frequency:   13.7937493638
  - # 20
    frequency:   16.2024563849
  - # 21
    frequency:   36.0732022178

- q-position: [    0.1414141,    0.0000000,    0.0000000 ]
  distance:    0.0487005
  band:
  - # 1
    frequency:   -7.7065170813
  - # 2
    frequency:   -6.9284728714
  - # 3
    frequency:   -2.9980550342
  - # 4
    frequency:   -1.9251689303
  - # 5
    frequency:    0.8828670573
  - # 6
    frequency:    1.4431751170
  - # 7
    frequency:    1.6713707864
  - # 8
    frequency:    2.3293347323
  - # 9
    frequency:    2.6641651355
  - # 10
    frequency:    3.8045066352
  - # 11
    frequency:    5.1888112779
  - # 12
    frequency:    7.7936654649
  - # 13
    frequency:    7.9043799779
  - # 14
    frequency:   10.1586139100
  - # 15
    frequency:   10.8801633066
  - # 16
    frequency:   11.2308202573
  - # 17
    frequency:   12.5682310064
  - # 18
    frequency:   13.1708731496
  - # 19
    frequency:   13.7968192264
  - # 20
    frequency:   16.2242467678
  - # 21
    frequency:   36.0499254968

- q-position: [    0.1464646,    0.0000000,    0.0000000 ]
  distance:    0.0504399
  band:
  - # 1
    frequency:   -7.7280114263
  - # 2
    frequency:   -6.8976647303
  - # 3
    frequency:   -3.0680392016
  - # 4
    frequency:   -1.9603705012
  - # 5
    frequency:    0.9383548297
  - # 6
    frequency:    1.4903159878
  - # 7
    frequency:    1.6908226948
  - # 8
    frequency:    2.3798726234
  - # 9
    frequency:    2.6952001405
  - # 10
    frequency:    3.9033584441
  - # 11
    frequency:    5.1831158208
  - # 12
    frequency:    7.8198303521
  - # 13
    frequency:    7.8959570757
  - # 14
    frequency:   10.2318553672
  - # 15
    frequency:   10.8971629273
  - # 16
    frequency:   11.3077489108
  - # 17
    frequency:   12.5446087649
  - # 18
    frequency:   13.1577631123
  - # 19
    frequency:   13.7998370973
  - # 20
    frequency:   16.2456835332
  - # 21
    frequency:   36.0262286168

- q-position: [    0.1515152,    0.0000000,    0.0000000 ]
  distance:    0.0521792
  band:
  - # 1
    frequency:   -7.7496114137
  - # 2
    frequency:   -6.8654628586
  - # 3
    frequency:   -3.1358397940
  - # 4
    frequency:   -1.9945752689
  - # 5
    frequency:    0.9943399349
  - # 6
    frequency:    1.5365340440
  - # 7
    frequency:    1.7109128728
  - # 8
    frequency:    2.4286495716
  - # 9
    frequency:    2.7260635449
  - # 10
    frequency:    4.0020990291
  - # 11
    frequency:    5.1774422523
  - # 12
    frequency:    7.8469333565
  - # 13
    frequency:    7.8886783464
  - # 14
    frequency:   10.2947155515
  - # 15
    frequency:   10.9148991696
  - # 16
    frequency:   11.3895961453
  - # 17
    frequency:   12.5255985192
  - # 18
    frequency:   13.1444575592
  - # 19
    frequency:   13.8028789490
  - # 20
    frequency:   16.2667011304
  - # 21