nqpoint: 300    
npath: 3      
segment_nqpoint:
- 100
- 100
- 100
labels:
- [ 'G', 'M' ]
- [ 'M', 'K' ]
- [ 'K', 'G' ]
reciprocal_lattice:
- [   0.27727562,   0.16008515,   0.00000000 ] # a*
- [   0.00000000,   0.32017030,   0.00000000 ] # b*
- [   0.00000000,   0.00000000,   0.04288587 ] # c*
natom: 5      
lattice:
- [     3.606519789010020,     0.000000000000000,     0.000000000000000 ] # a
- [    -1.803259894505010,     3.123337756542536,     0.000000000000000 ] # b
- [     0.000000000000000,     0.000000000000000,    23.317701399138464 ] # c
points:
- symbol: Cl # 1
  coordinates: [  0.666666984744047,  0.333332985985145,  0.385972864389306 ]
  mass: 35.453000
- symbol: N # 2
  coordinates: [  0.000000000000000,  0.000000000000000,  0.510355955158092 ]
  mass: 14.006700
- symbol: O # 3
  coordinates: [  0.333332985432215,  0.666666983183674,  0.614027135610694 ]
  mass: 15.999400
- symbol: Y # 4
  coordinates: [  0.333332985432215,  0.666666983183674,  0.464080137300790 ]
  mass: 88.905850
- symbol: Y # 5
  coordinates: [  0.666666984744047,  0.333332985985145,  0.584830555331261 ]
  mass: 88.905850

phonon:
- q-position: [    0.0000000,    0.0000000,    0.0000000 ]
  distance:    0.0000000
  band:
  - # 1
    frequency:   -0.0000147218
  - # 2
    frequency:    0.0000002084
  - # 3
    frequency:    0.0000186231
  - # 4
    frequency:    2.5587708709
  - # 5
    frequency:    2.5587708710
  - # 6
    frequency:    4.5027499310
  - # 7
    frequency:    4.6705157250
  - # 8
    frequency:    4.6705157250
  - # 9
    frequency:    8.4355562199
  - # 10
    frequency:   10.7391600118
  - # 11
    frequency:   10.7391600119
  - # 12
    frequency:   12.1865121705
  - # 13
    frequency:   12.9118564201
  - # 14
    frequency:   12.9118564202
  - # 15
    frequency:   15.1775975067

- q-position: [    0.0050505,    0.0000000,    0.0000000 ]
  distance:    0.0016170
  band:
  - # 1
    frequency:    0.0017133062
  - # 2
    frequency:    0.0478145341
  - # 3
    frequency:    0.0935978477
  - # 4
    frequency:    2.5590128984
  - # 5
    frequency:    2.5608498327
  - # 6
    frequency:    4.5001973385
  - # 7
    frequency:    4.6705725488
  - # 8
    frequency:    4.6742523253
  - # 9
    frequency:    8.4349351303
  - # 10
    frequency:   10.7386956938
  - # 11
    frequency:   10.7432580559
  - # 12
    frequency:   12.1852074742
  - # 13
    frequency:   12.9114990897
  - # 14
    frequency:   12.9116571414
  - # 15
    frequency:   15.1783677739

- q-position: [    0.0101010,    0.0000000,    0.0000000 ]
  distance:    0.0032340
  band:
  - # 1
    frequency:    0.0068406629
  - # 2
    frequency:    0.0956154435
  - # 3
    frequency:    0.1872010756
  - # 4
    frequency:    2.5597401116
  - # 5
    frequency:    2.5670686395
  - # 6
    frequency:    4.4931469612
  - # 7
    frequency:    4.6707431201
  - # 8
    frequency:    4.6848459101
  - # 9
    frequency:    8.4330755638
  - # 10
    frequency:   10.7373041618
  - # 11
    frequency:   10.7554657872
  - # 12
    frequency:   12.1813609486
  - # 13
    frequency:   12.9104277530
  - # 14
    frequency:   12.9110490484
  - # 15
    frequency:   15.1806766863

- q-position: [    0.0151515,    0.0000000,    0.0000000 ]
  distance:    0.0048511
  band:
  - # 1
    frequency:    0.0153437040
  - # 2
    frequency:    0.1433891433
  - # 3
    frequency:    0.2808137415
  - # 4
    frequency:    2.5609558848
  - # 5
    frequency:    2.5773739307
  - # 6
    frequency:    4.4829425630
  - # 7
    frequency:    4.6710277380
  - # 8
    frequency:    4.7009265573
  - # 9
    frequency:    8.4299883907
  - # 10
    frequency:   10.7349896800
  - # 11
    frequency:   10.7755204639
  - # 12
    frequency:   12.1751782869
  - # 13
    frequency:   12.9086443721
  - # 14
    frequency:   12.9100024193
  - # 15
    frequency:   15.1845187473

- q-position: [    0.0202020,    0.0000000,    0.0000000 ]
  distance:    0.0064681
  band:
  - # 1
    frequency:    0.0271602892
  - # 2
    frequency:    0.1911221361
  - # 3
    frequency:    0.3744373155
  - # 4
    frequency:    2.5626657816
  - # 5
    frequency:    2.5916796013
  - # 6
    frequency:    4.4708992635
  - # 7
    frequency:    4.6714268964
  - # 8
    frequency:    4.7211364945
  - # 9
    frequency:    8.4256909741
  - # 10
    frequency:   10.7317593496
  - # 11
    frequency:   10.8029719204
  - # 12
    frequency:   12.1670129081
  - # 13
    frequency:   12.9061522094
  - # 14
    frequency:   12.9084710468
  - # 15
    frequency:   15.1898853615

- q-position: [    0.0252525,    0.0000000,    0.0000000 ]
  distance:    0.0080851
  band:
  - # 1
    frequency:    0.0422066281
  - # 2
    frequency:    0.2388010532
  - # 3
    frequency:    0.4680695503
  - # 4
    frequency:    2.5648774654
  - # 5
    frequency:    2.6098707495
  - # 6
    frequency:    4.4579732341
  - # 7
    frequency:    4.6719412774
  - # 8
    frequency:    4.7444617547
  - # 9
    frequency:    8.4202061579
  - # 10
    frequency:   10.7276230999
  - # 11
    frequency:   10.8371626252
  - # 12
    frequency:   12.1573837978
  - # 13
    frequency:   12.9029558173
  - # 14
    frequency:   12.9063966998
  - # 15
    frequency:   15.1967656592

- q-position: [    0.0303030,    0.0000000,    0.0000000 ]
  distance:    0.0097021
  band:
  - # 1
    frequency:    0.0603801131
  - # 2
    frequency:    0.2864126995
  - # 3
    frequency:    0.5617035229
  - # 4
    frequency:    2.5676005754
  - # 5
    frequency:    2.6318086618
  - # 6
    frequency:    4.4447772014
  - # 7
    frequency:    4.6725717427
  - # 8
    frequency:    4.7702184448
  - # 9
    frequency:    8.4135610601
  - # 10
    frequency:   10.7225936749
  - # 11
    frequency:   10.8771970018
  - # 12
    frequency:   12.1470038988
  - # 13
    frequency:   12.8990610222
  - # 14
    frequency:   12.9037144728
  - # 15
    frequency:   15.2051476046

- q-position: [    0.0353535,    0.0000000,    0.0000000 ]
  distance:    0.0113192
  band:
  - # 1
    frequency:    0.0815625016
  - # 2
    frequency:    0.3339440992
  - # 3
    frequency:    0.6553268814
  - # 4
    frequency:    2.5708465690
  - # 5
    frequency:    2.6573363959
  - # 6
    frequency:    4.4316848460
  - # 7
    frequency:    4.6733193221
  - # 8
    frequency:    4.7979504309
  - # 9
    frequency:    8.4057858226
  - # 10
    frequency:   10.7166866164
  - # 11
    frequency:   10.9218984787
  - # 12
    frequency:   12.1368209763
  - # 13
    frequency:   12.8944749061
  - # 14
    frequency:   12.9003584444
  - # 15
    frequency:   15.2150193466

- q-position: [    0.0404040,    0.0000000,    0.0000000 ]
  distance:    0.0129362
  band:
  - # 1
    frequency:    0.1056232102
  - # 2
    frequency:    0.3813825417
  - # 3
    frequency:    0.7489213093
  - # 4
    frequency:    2.5746285319
  - # 5
    frequency:    2.6862845181
  - # 6
    frequency:    4.4189194845
  - # 7
    frequency:    4.6741852004
  - # 8
    frequency:    4.8273429382
  - # 9
    frequency:    8.3969124502
  - # 10
    frequency:   10.7099202418
  - # 11
    frequency:   10.9697553838
  - # 12
    frequency:   12.1280700740
  - # 13
    frequency:   12.8892057827
  - # 14
    frequency:   12.8962672337
  - # 15
    frequency:   15.2263707655

- q-position: [    0.0454545,    0.0000000,    0.0000000 ]
  distance:    0.0145532
  band:
  - # 1
    frequency:    0.1324225155
  - # 2
    frequency:    0.4287156302
  - # 3
    frequency:    0.8424622042
  - # 4
    frequency:    2.5789609588
  - # 5
    frequency:    2.7184765976
  - # 6
    frequency:    4.4066123972
  - # 7
    frequency:    4.6751707025
  - # 8
    frequency:    4.8581665844
  - # 9
    frequency:    8.3869738367
  - # 10
    frequency:   10.7023156172
  - # 11
    frequency:   11.0188645570
  - # 12
    frequency:   12.1223286677
  - # 13
    frequency:   12.8832631710
  - # 14
    frequency:   12.8913893133
  - # 15
    frequency:   15.2391951621

- q-position: [    0.0505051,    0.0000000,    0.0000000 ]
  distance:    0.0161702
  band:
  - # 1
    frequency:    0.1618145059
  - # 2
    frequency:    0.4759313305
  - # 3
    frequency:    0.9359185537
  - # 4
    frequency:    2.5838595065
  - # 5
    frequency:    2.7537341417
  - # 6
    frequency:    4.3948385834
  - # 7
    frequency:    4.6762772768
  - # 8
    frequency:    4.8902439567
  - # 9
    frequency:    8.3760030284
  - # 10
    frequency:   10.6938965240
  - # 11
    frequency:   11.0668984852
  - # 12
    frequency:   12.1215483822
  - # 13
    frequency:   12.8766577646
  - # 14
    frequency:   12.8856882895
  - # 15
    frequency:   15.2534910394

- q-position: [    0.0555556,    0.0000000,    0.0000000 ]
  distance:    0.0177872
  band:
  - # 1
    frequency:    0.1936496864
  - # 2
    frequency:    0.5230180208
  - # 3
    frequency:    1.0292529815
  - # 4
    frequency:    2.5893407213
  - # 5
    frequency:    2.7918807545
  - # 6
    frequency:    4.3836384660
  - # 7
    frequency:    4.6775064781
  - # 8
    frequency:    4.9234301223
  - # 9
    frequency:    8.3640327379
  - # 10
    frequency:   10.6846894200
  - # 11
    frequency:   11.1111491119
  - # 12
    frequency:   12.1280093604
  - # 13
    frequency:   12.8694013988
  - # 14
    frequency:   12.8791488181
  - # 15
    frequency:   15.2692639223

- q-position: [    0.0606061,    0.0000000,    0.0000000 ]
  distance:    0.0194043
  band:
  - # 1
    frequency:    0.2277771876
  - # 2
    frequency:    0.5699645420
  - # 3
    frequency:    1.1224219347
  - # 4
    frequency:    2.5954217455
  - # 5
    frequency:    2.8327454012
  - # 6
    frequency:    4.3730312372
  - # 7
    frequency:    4.6788599491
  - # 8
    frequency:    4.9576013065
  - # 9
    frequency:    8.3510950871
  - # 10
    frequency:   10.6747233927
  - # 11
    frequency:   11.1487246267
  - # 12
    frequency:   12.1441195450
  - # 13
    frequency:   12.8615070138
  - # 14
    frequency:   12.8717845321
  - # 15
    frequency:   15.2865281645

- q-position: [    0.0656566,    0.0000000,    0.0000000 ]
  distance:    0.0210213
  band:
  - # 1
    frequency:    0.2640465750
  - # 2
    frequency:    0.6167602486
  - # 3
    frequency:    1.2153759779
  - # 4
    frequency:    2.6021200054
  - # 5
    frequency:    2.8761647464
  - # 6
    frequency:    4.3630232371
  - # 7
    frequency:    4.6803394017
  - # 8
    frequency:    4.9926483032
  - # 9
    frequency:    8.3372215417
  - # 10
    frequency:   10.6640301053
  - # 11
    frequency:   11.1769477611
  - # 12
    frequency:   12.1720076001
  - # 13
    frequency:   12.8529886162
  - # 14
    frequency:   12.8636506921
  - # 15
    frequency:   15.3053086881

- q-position: [    0.0707071,    0.0000000,    0.0000000 ]
  distance:    0.0226383
  band:
  - # 1
    frequency:    0.3023092824
  - # 2
    frequency:    0.6633950581
  - # 3
    frequency:    1.3080601650
  - # 4
    frequency:    2.6094528846
  - # 5
    frequency:    2.9219846030
  - # 6
    frequency:    4.3536133300
  - # 7
    frequency:    4.6819465986
  - # 8
    frequency:    5.0284726262
  - # 9
    frequency:    8.3224429900
  - # 10
    frequency:   10.6526437345
  - # 11
    frequency:   11.1938751819
  - # 12
    frequency:   12.2129842293
  - # 13
    frequency:   12.8438612374
  - # 14
    frequency:   12.8548672025
  - # 15
    frequency:   15.3256425984

- q-position: [    0.0757576,    0.0000000,    0.0000000 ]
  distance:    0.0242553
  band:
  - # 1
    frequency:    0.3424197140
  - # 2
    frequency:    0.7098594992
  - # 3
    frequency:    1.4004144633
  - # 4
    frequency:    2.6174373887
  - # 5
    frequency:    2.9700605764
  - # 6
    frequency:    4.3447964258
  - # 7
    frequency:    4.6836833346
  - # 8
    frequency:    5.0649842506
  - # 9
    frequency:    8.3067899217
  - # 10
    frequency:   10.6406008985
  - # 11
    frequency:   11.1986909912
  - # 12
    frequency:   12.2671061036
  - # 13
    frequency:   12.8341408911
  - # 14
    frequency:   12.8456647796
  - # 15
    frequency:   15.3475806053

- q-position: [    0.0808081,    0.0000000,    0.0000000 ]
  distance:    0.0258723
  band:
  - # 1
    frequency:    0.3842360626
  - # 2
    frequency:    0.7561447577
  - # 3
    frequency:    1.4923742062
  - # 4
    frequency:    2.6260898033
  - # 5
    frequency:    3.0202580164
  - # 6
    frequency:    4.3365658311
  - # 7
    frequency:    4.6855514188
  - # 8
    frequency:    5.1021002692
  - # 9
    frequency:    8.2902926654
  - # 10
    frequency:   10.6279405758
  - # 11
    frequency:   11.1917345084
  - # 12
    frequency:   12.3330503287
  - # 13
    frequency:   12.8238445283
  - # 14
    frequency:   12.8364862067
  - # 15
    frequency:   15.3711881703

- q-position: [    0.0858586,    0.0000000,    0.0000000 ]
  distance:    0.0274894
  band:
  - # 1
    frequency:    0.4276208994
  - # 2
    frequency:    0.8022427186
  - # 3
    frequency:    1.5838705581
  - # 4
    frequency:    2.6354253530
  - # 5
    frequency:    3.0724514020
  - # 6
    frequency:    4.3289148491
  - # 7
    frequency:    4.6875526579
  - # 8
    frequency:    5.1397440692
  - # 9
    frequency:    8.2729816546
  - # 10
    frequency:   10.6147040135
  - # 11
    frequency:   11.1741723886
  - # 12
    frequency:   12.4082013029
  - # 13
    frequency:   12.8129899913
  - # 14
    frequency:   12.8282308400
  - # 15
    frequency:   15.3965462705

- q-position: [    0.0909091,    0.0000000,    0.0000000 ]
  distance:    0.0291064
  band:
  - # 1
    frequency:    0.4724415790
  - # 2
    frequency:    0.8481460027
  - # 3
    frequency:    1.6748309764
  - # 4
    frequency:    2.6454578656
  - # 5
    frequency:    3.1265232853
  - # 6
    frequency:    4.3218378936
  - # 7
    frequency:    4.6896888399
  - # 8
    frequency:    5.1778447932
  - # 9
    frequency:    8.2548876996
  - # 10
    frequency:   10.6009346247
  - # 11
    frequency:   11.1475508177
  - # 12
    frequency:   12.4884497495
  - # 13
    frequency:   12.8015959667
  - # 14
    frequency:   12.8229069557
  - # 15
    frequency:   15.4237516456

- q-position: [    0.0959596,    0.0000000,    0.0000000 ]
  distance:    0.0307234
  band:
  - # 1
    frequency:    0.5185705039
  - # 2
    frequency:    0.8938479972
  - # 3
    frequency:    1.7651796576
  - # 4
    frequency:    2.6561994454
  - # 5
    frequency:    3.1823629134
  - # 6
    frequency:    4.3153312905
  - # 7
    frequency:    4.6919617205
  - # 8
    frequency:    5.2163369468
  - # 9
    frequency:    8.2360422504
  - # 10
    frequency:   10.5866778745
  - # 11
    frequency:   11.1134453167
  - # 12
    frequency:   12.5667303989
  - # 13
    frequency:   12.7896819375
  - # 14
    frequency:   12.8254480892
  - # 15
    frequency:   15.4529163537

- q-position: [    0.1010101,    0.0000000,    0.0000000 ]
  distance:    0.0323404
  band:
  - # 1
    frequency:    0.5658852811
  - # 2
    frequency:    0.9393428789
  - # 3
    frequency:    1.8548379554
  - # 4
    frequency:    2.6676601645
  - # 5
    frequency:    3.2398646387
  - # 6
    frequency:    4.3093938793
  - # 7
    frequency:    4.6943730090
  - # 8
    frequency:    5.2551600720
  - # 9
    frequency:    8.2164776422
  - # 10
    frequency:   10.5719811536
  - # 11
    frequency:   11.0732742715
  - # 12
    frequency:   12.6296762374
  - # 13
    frequency:   12.7772681350
  - # 14
    frequency:   12.8472495447
  - # 15
    frequency:   15.4841664236

- q-position: [    0.1060606,    0.0000000,    0.0000000 ]
  distance:    0.0339575
  band:
  - # 1
    frequency:    0.6142687971
  - # 2
    frequency:    0.9846256269
  - # 3
    frequency:    1.9437247568
  - # 4
    frequency:    2.6798477733
  - # 5
    frequency:    3.2989262119
  - # 6
    frequency:    4.3040274976
  - # 7
    frequency:    4.6969243581
  - # 8
    frequency:    5.2942584410
  - # 9
    frequency:    8.1962273216
  - # 10
    frequency:   10.5568936407
  - # 11
    frequency:   11.0282383962
  - # 12
    frequency:   12.6623733492
  - # 13
    frequency:   12.7643754897
  - # 14
    frequency:   12.9014790932
  - # 15
    frequency:   15.5176393557

- q-position: [    0.1111111,    0.0000000,    0.0000000 ]
  distance:    0.0355745
  band:
  - # 1
    frequency:    0.6636092342
  - # 2
    frequency:    1.0296920255
  - # 3
    frequency:    2.0317567998
  - # 4
    frequency:    2.6927674388
  - # 5
    frequency:    3.3594470456
  - # 6
    frequency:    4.2992374012
  - # 7
    frequency:    4.6996173535
  - # 8
    frequency:    5.3335807440
  - # 9
    frequency:    8.1753260514
  - # 10
    frequency:   10.5414661515
  - # 11
    frequency:   10.9793274566
  - # 12
    frequency:   12.6683907689
  - # 13
    frequency:   12.7510255832
  - # 14
    frequency:   12.9830463989
  - # 15
    frequency:   15.5534802060

- q-position: [    0.1161616,    0.0000000,    0.0000000 ]
  distance:    0.0371915
  band:
  - # 1
    frequency:    0.7138000408
  - # 2
    frequency:    1.0745386549
  - # 3
    frequency:    2.1188489172
  - # 4
    frequency:    2.7064215127
  - # 5
    frequency:    3.4213265179
  - # 6
    frequency:    4.2950326618
  - # 7
    frequency:    4.7024535058
  - # 8
    frequency:    5.3730797572
  - # 9
    frequency:    8.1538100996
  - # 10
    frequency:   10.5257509763
  - # 11
    frequency:   10.9273527268
  - # 12
    frequency:   12.6605938705
  - # 13
    frequency:   12.7372405991
  - # 14
    frequency:   13.0777644482
  - # 15
    frequency:   15.5918360006

- q-position: [    0.1212121,    0.0000000,    0.0000000 ]
  distance:    0.0388085
  band:
  - # 1
    frequency:    0.7647398685
  - # 2
    frequency:    1.1191628686
  - # 3
    frequency:    2.2049141827
  - # 4
    frequency:    2.7208093361
  - # 5
    frequency:    3.4844623818
  - # 6
    frequency:    4.2914265733
  - # 7
    frequency:    4.7054342445
  - # 8
    frequency:    5.4127119829
  - # 9
    frequency:    8.1317174134
  - # 10
    frequency:   10.5098017042
  - # 11
    frequency:   10.8729838210
  - # 12
    frequency:   12.6461232839
  - # 13
    frequency:   12.7230432747
  - # 14
    frequency:   13.1773425528
  - # 15
    frequency:   15.6328483009

- q-position: [    0.1262626,    0.0000000,    0.0000000 ]
  distance:    0.0404255
  band:
  - # 1
    frequency:    0.8163324820
  - # 2
    frequency:    1.1635627571
  - # 3
    frequency:    2.2898639413
  - # 4
    frequency:    2.7359270816
  - # 5
    frequency:    3.5487493301
  - # 6
    frequency:    4.2884370885
  - # 7
    frequency:    4.7085609124
  - # 8
    frequency:    5.4524372567
  - # 9
    frequency:    8.1090877850
  - # 10
    frequency:   10.4936730362
  - # 11
    frequency:   10.8167813702
  - # 12
    frequency:   12.6279236599
  - # 13
    frequency:   12.7084568532
  - # 14
    frequency:   13.2778352060
  - # 15
    frequency:   15.6766438844

- q-position: [    0.1313131,    0.0000000,    0.0000000 ]
  distance:    0.0420426
  band:
  - # 1
    frequency:    0.8684866485
  - # 2
    frequency:    1.2077370966
  - # 3
    frequency:    2.3736077010
  - # 4
    frequency:    2.7517676380
  - # 5
    frequency:    3.6140777581
  - # 6
    frequency:    4.2860873099
  - # 7
    frequency:    4.7118347614
  - # 8
    frequency:    5.4922183177
  - # 9
    frequency:    8.0859630129
  - # 10
    frequency:   10.4774205855
  - # 11
    frequency:   10.7592232964
  - # 12
    frequency:   12.6072825280
  - # 13
    frequency:   12.6935050360
  - # 14
    frequency:   13.3770886162
  - # 15
    frequency:   15.7233237454

- q-position: [    0.1363636,    0.0000000,    0.0000000 ]
  distance:    0.0436596
  band:
  - # 1
    frequency:    0.9211160079
  - # 2
    frequency:    1.2516852837
  - # 3
    frequency:    2.4560528702
  - # 4
    frequency:    2.7683205385
  - # 5
    frequency:    3.6803327521
  - # 6
    frequency:    4.2844060512
  - # 7
    frequency:    4.7152569502
  - # 8
    frequency:    5.5320203355
  - # 9
    frequency:    8.0623870646
  - # 10
    frequency:   10.4611006675
  - # 11
    frequency:   10.7007249812
  - # 12
    frequency:   12.5848362856
  - # 13
    frequency:   12.6782119358
  - # 14
    frequency:   13.4737270922
  - # 15
    frequency:   15.7729509410

- q-position: [    0.1414141,    0.0000000,    0.0000000 ]
  distance:    0.0452766
  band:
  - # 1
    frequency:    0.9741389269
  - # 2
    frequency:    1.2954072555
  - # 3
    frequency:    2.5371043270
  - # 4
    frequency:    2.7855719331
  - # 5
    frequency:    3.7473933135
  - # 6
    frequency:    4.2834284974
  - # 7
    frequency:    4.7188285410
  - # 8
    frequency:    5.5718103917
  - # 9
    frequency:    8.0384062448
  - # 10
    frequency:   10.4447700789
  - # 11
    frequency:   10.6416543980
  - # 12
    frequency:   12.5609391361
  - # 13
    frequency:   12.6626020299
  - # 14
    frequency:   13.5667815310
  - # 15
    frequency:   15.8255381720

- q-position: [    0.1464646,    0.0000000,    0.0000000 ]
  distance:    0.0468936
  band:
  - # 1
    frequency:    1.0274783385
  - # 2
    frequency:    1.3389033955
  - # 3
    frequency:    2.6166638215
  - # 4
    frequency:    2.8035046065
  - # 5
    frequency:    3.8151317959
  - # 6
    frequency:    4.2831970000
  - # 7
    frequency:    4.7225504977
  - # 8
    frequency:    5.6115569073
  - # 9
    frequency:    8.0140693730
  - # 10
    frequency:   10.4284858669
  - # 11
    frequency:   10.5823433399
  - # 12
    frequency:   12.5358102368
  - # 13
    frequency:   12.6467001148
  - # 14
    frequency:   13.6555424198
  - # 15
    frequency:   15.8810363210

- q-position: [    0.1515152,    0.0000000,    0.0000000 ]
  distance:    0.0485107
  band:
  - # 1
    frequency:    1.0810615664
  - # 2
    frequency:    1.3821744279
  - # 3
    frequency:    2.6946292214
  - # 4
    frequency:    2.8220980389
  - # 5
    frequency:    3.8834134719
  - # 6
    frequency:    4.2837620945
  - # 7
    frequency:    4.7264236834
  - # 8
    frequency:    5.6512290115
  - # 9
    frequency:    7.9894279769
  - # 10
    frequency:   10.4123050906
  - # 11
    frequency:   10.5230957054
  - # 12
    frequency:   12.5095984958
  - # 13
    frequency:   12.6305312605
  - # 14
    frequency:   13.7394955673
  - # 15
    frequency:   15.9393253571

- q-position: [    0.1565657,    0.0000000,    0.0000000 ]
  distance:    0.0501277
  band:
  - # 1
    frequency:    1.1348201364
  - # 2
    frequency:    1.4252213004
  - # 3
    frequency:    2.7708936340
  - # 4
    frequency:    2.8413285093
  - # 5
    frequency:    3.9520959876
  - # 6
    frequency:    4.2851839551
  - # 7
    frequency:    4.7304488573
  - # 8
    frequency:    5.6907958448
  - # 9
    frequency:    7.9645365027
  - # 10
    frequency:   10.3962845743
  - # 11
    frequency:   10.4641935876
  - # 12
    frequency:   12.4824137227
  - # 13
    frequency:   12.6141207667
  - # 14
    frequency:   13.8182897772
  - # 15
    frequency:   16.0002089621

- q-position: [    0.1616162,    0.0000000,    0.0000000 ]
  distance:    0.0517447
  band:
  - # 1
    frequency:    1.1886895751
  - # 2
    frequency:    1.4680450575
  - # 3
    frequency:    2.8453444590
  - # 4
    frequency:    2.8611692379
  - # 5
    frequency:    4.0210280007
  - # 6
    frequency:    4.2875349438
  - # 7
    frequency:    4.7346266710
  - # 8
    frequency:    5.7302257908
  - # 9
    frequency:    7.9394525480
  - # 10
    frequency:   10.3804806553
  - # 11
    frequency:   10.4059017240
  - # 12
    frequency:   12.4543427518
  - # 13
    frequency:   12.5974941179
  - # 14
    frequency:   13.8917163062
  - # 15
    frequency:   16.0634138817

- q-position: [    0.1666667,    0.0000000,    0.0000000 ]
  distance:    0.0533617
  band:
  - # 1
    frequency:    1.2426091970
  - # 2
    frequency:    1.5106467080
  - # 3
    frequency:    2.8815905641
  - # 4
    frequency:    2.9178624606
  - # 5
    frequency:    4.0900445403
  - # 6
    frequency:    4.2909056286
  - # 7
    frequency:    4.7389576628
  - # 8
    frequency:    5.7694856328
  - # 9
    frequency:    7.9142371191
  - # 10
    frequency:   10.3484707129
  - # 11
    frequency:   10.3649489270
  - # 12
    frequency:   12.4254583176
  - # 13
    frequency:   12.5806769407
  - # 14
    frequency:   13.9596915378
  - # 15
    frequency:   16.1285943940

- q-position: [    0.1717172,    0.0000000,    0.0000000 ]
  distance:    0.0549787
  band:
  - # 1
    frequency:    1.2965218819
  - # 2
    frequency:    1.5530270873
  - # 3
    frequency:    2.9025601555
  - # 4
    frequency:    2.9883209826
  - # 5
    frequency:    4.1589477753
  - # 6
    frequency:    4.2954254604
  - # 7
    frequency:    4.7434422505
  - # 8
    frequency:    5.8085396331
  - # 9
    frequency:    7.8889549138
  - # 10
    frequency:   10.2921392900
  - # 11
    frequency:   10.3497439791
  - # 12
    frequency:   12.3958242023
  - # 13
    frequency:   12.5636949607
  - # 14
    frequency:   14.0222394144
  - # 15
    frequency:   16.1953415544

- q-position: [    0.1767677,    0.0000000,    0.0000000 ]
  distance:    0.0565958
  band:
  - # 1
    frequency:    1.3503738441
  - # 2
    frequency:    1.5951867186
  - # 3
    frequency:    2.9240432440
  - # 4
    frequency:    3.0565854790
  - # 5
    frequency:    4.2273877815
  - # 6
    frequency:    4.3013833407
  - # 7
    frequency:    4.7480807223
  - # 8
    frequency:    5.8473485368
  - # 9
    frequency:    7.8636746335
  - # 10
    frequency:   10.2371358772
  - # 11
    frequency:   10.3349191370
  - # 12
    frequency:   12.3654983584
  - # 13
    frequency:   12.5465739597
  - # 14
    frequency:   14.0794727383
  - # 15
    frequency:   16.2631961981

- q-position: [    0.1818182,    0.0000000,    0.0000000 ]
  distance:    0.0582128
  band:
  - # 1
    frequency:    1.4041143955
  - # 2
    frequency:    1.6371256754
  - # 3
    frequency:    2.9460028835
  - # 4
    frequency:    3.1225135833
  - # 5
    frequency:    4.2922602799
  - # 6
    frequency:    4.3118308762
  - # 7
    frequency:    4.7528732245
  - # 8
    frequency:    5.8858685082
  - # 9
    frequency:    7.8384693202
  - # 10
    frequency:   10.1836795555
  - # 11
    frequency:   10.3205262021
  - # 12
    frequency:   12.3345348770
  - # 13
    frequency:   12.5293397339
  - # 14
    frequency:   14.1315737874
  - # 15
    frequency:   16.3316642376

- q-position: [    0.1868687,    0.0000000,    0.0000000 ]
  distance:    0.0598298
  band:
  - # 1
    frequency:    1.4576957063
  - # 2
    frequency:    1.6788434468
  - # 3
    frequency:    2.9684002239
  - # 4
    frequency:    3.1859559930
  - # 5
    frequency:    4.3140449292
  - # 6
    frequency:    4.3662444478
  - # 7
    frequency:    4.7578197469
  - # 8
    frequency:    5.9240500124
  - # 9
    frequency:    7.8134167188
  - # 10
    frequency:   10.1319805734
  - # 11
    frequency:   10.3066151942
  - # 12
    frequency:   12.3029852734
  - # 13
    frequency:   12.5120180523
  - # 14
    frequency:   14.1787752654
  - # 15
    frequency:   16.4002326565

- q-position: [    0.1919192,    0.0000000,    0.0000000 ]
  distance:    0.0614468
  band:
  - # 1
    frequency:    1.5110725648
  - # 2
    frequency:    1.7203388101
  - # 3
    frequency:    2.9911947958
  - # 4
    frequency:    3.2467584867
  - # 5
    frequency:    4.3244263974
  - # 6
    frequency:    4.4329035310
  - # 7
    frequency:    4.7629201052
  - # 8
    frequency:    5.9618366653
  - # 9
    frequency:    7.7885996560
  - # 10
    frequency:   10.0822404703
  - # 11
    frequency:   10.2932340997
  - # 12
    frequency:   12.2708993545
  - # 13
    frequency:   12.4946346143
  - # 14
    frequency:   14.2213426758
  - # 15
    frequency:   16.4683847726

- q-position: [    0.1969697,    0.0000000,    0.0000000 ]
  distance:    0.0630638
  band:
  - # 1
    frequency:    1.5642021398
  - # 2
    frequency:    1.7616097118
  - # 3
    frequency:    3.0143448024
  - # 4
    frequency:    3.3047653954
  - # 5
    frequency:    4.3359235635
  - # 6
    frequency:    4.4992595669
  - # 7
    frequency:    4.7681739198
  - # 8
    frequency:    5.9991640853
  - # 9
    frequency:    7.7641064258
  - # 10
    frequency:   10.0346518763
  - # 11
    frequency:   10.2804286254
  - # 12
    frequency:   12.2383258210
  - # 13
    frequency:   12.4772150094
  - # 14
    frequency:   14.2595589707
  - # 15
    frequency:   16.5356137042

- q-position: [    0.2020202,    0.0000000,    0.0000000 ]
  distance:    0.0646809
  band:
  - # 1
    frequency:    1.6170437506
  - # 2
    frequency:    1.8026531592
  - # 3
    frequency:    3.0378074114
  - # 4
    frequency:    3.3598247919
  - # 5
    frequency:    4.3490396021
  - # 6
    frequency:    4.5647823346
  - # 7
    frequency:    4.7735805917
  - # 8
    frequency:    6.0359587895
  - # 9
    frequency:    7.7400311650
  - # 10
    frequency:    9.9893980347
  - # 11
    frequency:   10.2682419621
  - # 12
    frequency:   12.2053126983
  - # 13
    frequency:   12.4597846748
  - # 14
    frequency:   14.2937119582
  - # 15
    frequency:   16.6014334225

- q-position: [    0.2070707,    0.0000000,    0.0000000 ]
  distance:    0.0662979
  band:
  - # 1
    frequency:    1.6695586439
  - # 2
    frequency:    1.8434651242
  - # 3
    frequency:    3.0615390446
  - # 4
    frequency:    3.4117954928
  - # 5
    frequency:    4.3639501427
  - # 6
    frequency:    4.6292664945
  - # 7
    frequency:    4.7791392758
  - # 8
    frequency:    6.0721371954
  - # 9
    frequency:    7.7164741907
  - # 10
    frequency:    9.9466520851
  - # 11
    frequency:   10.2567145587
  - # 12
    frequency:   12.1719076544
  - # 13
    frequency:   12.4423688544
  - # 14
    frequency:   14.3240845875
  - # 15
    frequency:   16.6653871815

- q-position: [    0.2121212,    0.0000000,    0.0000000 ]
  distance:    0.0679149
  band:
  - # 1
    frequency:    1.7217097856
  - # 2