nqpoint: 300    
npath: 3      
segment_nqpoint:
- 100
- 100
- 100
labels:
- [ 'G', 'M' ]
- [ 'M', 'K' ]
- [ 'K', 'G' ]
reciprocal_lattice:
- [   0.29752335,   0.17177519,   0.00000000 ] # a*
- [   0.00000000,   0.34355037,   0.00000000 ] # b*
- [   0.00000000,   0.00000000,   0.03742158 ] # c*
natom: 8      
lattice:
- [     3.361080753675599,     0.000000000000000,     0.000000000000000 ] # a
- [    -1.680540376837799,     2.910781316836549,     0.000000000000000 ] # b
- [     0.000000000000000,     0.000000000000000,    26.722546701488035 ] # c
points:
- symbol: C # 1
  coordinates: [  0.000000000000000,  0.000000000000000,  0.470382472889664 ]
  mass: 12.010700
- symbol: C # 2
  coordinates: [  0.333332985432215,  0.666666983183674,  0.618088560531911 ]
  mass: 12.010700
- symbol: H # 3
  coordinates: [  0.666666984744047,  0.333332985985145,  0.336794247215174 ]
  mass: 1.007940
- symbol: N # 4
  coordinates: [  0.333332985432215,  0.666666983183674,  0.571459204477865 ]
  mass: 14.006700
- symbol: O # 5
  coordinates: [  0.333332985432215,  0.666666983183674,  0.663205752784826 ]
  mass: 15.999400
- symbol: O # 6
  coordinates: [  0.666666984744047,  0.333332985985145,  0.373719271627295 ]
  mass: 15.999400
- symbol: Zr # 7
  coordinates: [  0.333332985432215,  0.666666983183674,  0.424436930898086 ]
  mass: 91.224000
- symbol: Zr # 8
  coordinates: [  0.666666984744047,  0.333332985985145,  0.516741480015917 ]
  mass: 91.224000

phonon:
- q-position: [    0.0000000,    0.0000000,    0.0000000 ]
  distance:    0.0000000
  band:
  - # 1
    frequency:   -0.9598759441
  - # 2
    frequency:   -0.9598759441
  - # 3
    frequency:   -0.0000037324
  - # 4
    frequency:   -0.0000005901
  - # 5
    frequency:    0.0000038437
  - # 6
    frequency:    4.6890807620
  - # 7
    frequency:    4.6890807620
  - # 8
    frequency:    6.1113562312
  - # 9
    frequency:    6.1518636243
  - # 10
    frequency:    6.1518636243
  - # 11
    frequency:    6.9969080989
  - # 12
    frequency:    6.9969080989
  - # 13
    frequency:    9.1084782478
  - # 14
    frequency:   11.9992292538
  - # 15
    frequency:   14.0677112630
  - # 16
    frequency:   14.0677112630
  - # 17
    frequency:   16.1226845647
  - # 18
    frequency:   17.2339632690
  - # 19
    frequency:   17.2339632690
  - # 20
    frequency:   17.7698934193
  - # 21
    frequency:   17.7698934193
  - # 22
    frequency:   38.3670203260
  - # 23
    frequency:   69.1009125298
  - # 24
    frequency:  111.6875219998

- q-position: [    0.0050505,    0.0000000,    0.0000000 ]
  distance:    0.0017351
  band:
  - # 1
    frequency:   -0.9592081980
  - # 2
    frequency:   -0.9576220912
  - # 3
    frequency:   -0.0786986997
  - # 4
    frequency:    0.0693166652
  - # 5
    frequency:    0.1293654899
  - # 6
    frequency:    4.6894727177
  - # 7
    frequency:    4.6899586749
  - # 8
    frequency:    6.1074113837
  - # 9
    frequency:    6.1522624125
  - # 10
    frequency:    6.1565285685
  - # 11
    frequency:    6.9971057281
  - # 12
    frequency:    6.9976547398
  - # 13
    frequency:    9.1079835072
  - # 14
    frequency:   11.9989744301
  - # 15
    frequency:   14.0676672757
  - # 16
    frequency:   14.0680648652
  - # 17
    frequency:   16.1227962189
  - # 18
    frequency:   17.2340097292
  - # 19
    frequency:   17.2342614109
  - # 20
    frequency:   17.7705015417
  - # 21
    frequency:   17.7708298776
  - # 22
    frequency:   38.3670347266
  - # 23
    frequency:   69.0994293147
  - # 24
    frequency:  111.6871890907

- q-position: [    0.0101010,    0.0000000,    0.0000000 ]
  distance:    0.0034702
  band:
  - # 1
    frequency:   -0.9572162250
  - # 2
    frequency:   -0.9508834438
  - # 3
    frequency:   -0.0888571855
  - # 4
    frequency:    0.1387310901
  - # 5
    frequency:    0.2240740739
  - # 6
    frequency:    4.6906450236
  - # 7
    frequency:    4.6925864656
  - # 8
    frequency:    6.0986496359
  - # 9
    frequency:    6.1534561099
  - # 10
    frequency:    6.1674487774
  - # 11
    frequency:    6.9976982403
  - # 12
    frequency:    6.9998905850
  - # 13
    frequency:    9.1064995951
  - # 14
    frequency:   11.9982078526
  - # 15
    frequency:   14.0675410649
  - # 16
    frequency:   14.0691244238
  - # 17
    frequency:   16.1231296481
  - # 18
    frequency:   17.2341489786
  - # 19
    frequency:   17.2351542109
  - # 20
    frequency:   17.7723210602
  - # 21
    frequency:   17.7736330536
  - # 22
    frequency:   38.3670778369
  - # 23
    frequency:   69.0949841878
  - # 24
    frequency:  111.6861927296

- q-position: [    0.0151515,    0.0000000,    0.0000000 ]
  distance:    0.0052053
  band:
  - # 1
    frequency:   -0.9539325697
  - # 2
    frequency:   -0.9397208922
  - # 3
    frequency:   -0.0884959115
  - # 4
    frequency:    0.2083337123
  - # 5
    frequency:    0.3218152028
  - # 6
    frequency:    4.6925870454
  - # 7
    frequency:    4.6969464070
  - # 8
    frequency:    6.0884206758
  - # 9
    frequency:    6.1554367274
  - # 10
    frequency:    6.1812690926
  - # 11
    frequency:    6.9986845189
  - # 12
    frequency:    7.0036034261
  - # 13
    frequency:    9.1040274465
  - # 14
    frequency:   11.9969232324
  - # 15
    frequency:   14.0673498699
  - # 16
    frequency:   14.0708862049
  - # 17
    frequency:   16.1236802748
  - # 18
    frequency:   17.2343806211
  - # 19
    frequency:   17.2366368297
  - # 20
    frequency:   17.7753374757
  - # 21
    frequency:   17.7782843397
  - # 22
    frequency:   38.3671493832
  - # 23
    frequency:   69.0875906815
  - # 24
    frequency:  111.6845399961

- q-position: [    0.0202020,    0.0000000,    0.0000000 ]
  distance:    0.0069404
  band:
  - # 1
    frequency:   -0.9494074972
  - # 2
    frequency:   -0.9242112915
  - # 3
    frequency:   -0.0818333049
  - # 4
    frequency:    0.2782012620
  - # 5
    frequency:    0.4220638261
  - # 6
    frequency:    4.6952812251
  - # 7
    frequency:    4.7030093383
  - # 8
    frequency:    6.0779728077
  - # 9
    frequency:    6.1581909922
  - # 10
    frequency:    6.1967321526
  - # 11
    frequency:    7.0000627324
  - # 12
    frequency:    7.0087729967
  - # 13
    frequency:    9.1005686355
  - # 14
    frequency:   11.9951101889
  - # 15
    frequency:   14.0671223749
  - # 16
    frequency:   14.0733440215
  - # 17
    frequency:   16.1244405461
  - # 18
    frequency:   17.2347039910
  - # 19
    frequency:   17.2387013255
  - # 20
    frequency:   17.7795267807
  - # 21
    frequency:   17.7847526938
  - # 22
    frequency:   38.3672489121
  - # 23
    frequency:   69.0772712738
  - # 24
    frequency:  111.6822426298

- q-position: [    0.0252525,    0.0000000,    0.0000000 ]
  distance:    0.0086755
  band:
  - # 1
    frequency:   -0.9437036800
  - # 2
    frequency:   -0.9044154725
  - # 3
    frequency:   -0.0670856566
  - # 4
    frequency:    0.3483920866
  - # 5
    frequency:    0.5241432124
  - # 6
    frequency:    4.6987033247
  - # 7
    frequency:    4.7107352217
  - # 8
    frequency:    6.0677275810
  - # 9
    frequency:    6.1617004132
  - # 10
    frequency:    6.2134038533
  - # 11
    frequency:    7.0018303774
  - # 12
    frequency:    7.0153710940
  - # 13
    frequency:    9.0961253986
  - # 14
    frequency:   11.9927544028
  - # 15
    frequency:   14.0668986266
  - # 16
    frequency:   14.0764892852
  - # 17
    frequency:   16.1254000457
  - # 18
    frequency:   17.2351181458
  - # 19
    frequency:   17.2413368306
  - # 20
    frequency:   17.7848556921
  - # 21
    frequency:   17.7929946110
  - # 22
    frequency:   38.3673757956
  - # 23
    frequency:   69.0640572737
  - # 24
    frequency:  111.6793169399

- q-position: [    0.0303030,    0.0000000,    0.0000000 ]
  distance:    0.0104106
  band:
  - # 1
    frequency:   -0.9368899400
  - # 2
    frequency:   -0.8803418986
  - # 3
    frequency:   -0.0317262663
  - # 4
    frequency:    0.4189436557
  - # 5
    frequency:    0.6276607857
  - # 6
    frequency:    4.7028227614
  - # 7
    frequency:    4.7200738871
  - # 8
    frequency:    6.0578403951
  - # 9
    frequency:    6.1659413760
  - # 10
    frequency:    6.2311128672
  - # 11
    frequency:    7.0039843342
  - # 12
    frequency:    7.0233617505
  - # 13
    frequency:    9.0907006681
  - # 14
    frequency:   11.9898378335
  - # 15
    frequency:   14.0667298989
  - # 16
    frequency:   14.0803110789
  - # 17
    frequency:   16.1265456470
  - # 18
    frequency:   17.2356218568
  - # 19
    frequency:   17.2445297812
  - # 20
    frequency:   17.7912819740
  - # 21
    frequency:   17.8029541113
  - # 22
    frequency:   38.3675292366
  - # 23
    frequency:   69.0479886634
  - # 24
    frequency:  111.6757836806

- q-position: [    0.0353535,    0.0000000,    0.0000000 ]
  distance:    0.0121457
  band:
  - # 1
    frequency:   -0.9290349485
  - # 2
    frequency:   -0.8519107914
  - # 3
    frequency:    0.0643756606
  - # 4
    frequency:    0.4898723310
  - # 5
    frequency:    0.7323625433
  - # 6
    frequency:    4.7076030256
  - # 7
    frequency:    4.7309659301
  - # 8
    frequency:    6.0483696000
  - # 9
    frequency:    6.1708852689
  - # 10
    frequency:    6.2497817010
  - # 11
    frequency:    7.0065209321
  - # 12
    frequency:    7.0327014566
  - # 13
    frequency:    9.0842981129
  - # 14
    frequency:   11.9863390045
  - # 15
    frequency:   14.0666784875
  - # 16
    frequency:   14.0847962461
  - # 17
    frequency:   16.1278617031
  - # 18
    frequency:   17.2362136009
  - # 19
    frequency:   17.2482641867
  - # 20
    frequency:   17.7987548445
  - # 21
    frequency:   17.8145627693
  - # 22
    frequency:   38.3677082772
  - # 23
    frequency:   69.0291138957
  - # 24
    frequency:  111.6716678927

- q-position: [    0.0404040,    0.0000000,    0.0000000 ]
  distance:    0.0138808
  band:
  - # 1
    frequency:   -0.9202016984
  - # 2
    frequency:   -0.8189202344
  - # 3
    frequency:    0.1067461462
  - # 4
    frequency:    0.5611751053
  - # 5
    frequency:    0.8380526234
  - # 6
    frequency:    4.7130021743
  - # 7
    frequency:    4.7433437265
  - # 8
    frequency:    6.0393332810
  - # 9
    frequency:    6.1764986463
  - # 10
    frequency:    6.2693701047
  - # 11
    frequency:    7.0094360184
  - # 12
    frequency:    7.0433394328
  - # 13
    frequency:    9.0769221880
  - # 14
    frequency:   11.9822333587
  - # 15
    frequency:   14.0668174139
  - # 16
    frequency:   14.0899294970
  - # 17
    frequency:   16.1293302688
  - # 18
    frequency:   17.2368915534
  - # 19
    frequency:   17.2525219228
  - # 20
    frequency:   17.8072154611
  - # 21
    frequency:   17.8277398127
  - # 22
    frequency:   38.3679118082
  - # 23
    frequency:   69.0074896491
  - # 24
    frequency:  111.6669987118

- q-position: [    0.0454545,    0.0000000,    0.0000000 ]
  distance:    0.0156159
  band:
  - # 1
    frequency:   -0.9104433115
  - # 2
    frequency:   -0.7810106145
  - # 3
    frequency:    0.1457985637
  - # 4
    frequency:    0.6328327300
  - # 5
    frequency:    0.9445636750
  - # 6
    frequency:    4.7189733905
  - # 7
    frequency:    4.7571325215
  - # 8
    frequency:    6.0307314173
  - # 9
    frequency:    6.1827434298
  - # 10
    frequency:    6.2898531417
  - # 11
    frequency:    7.0127250269
  - # 12
    frequency:    7.0552179516
  - # 13
    frequency:    9.0685781916
  - # 14
    frequency:   11.9774936858
  - # 15
    frequency:   14.0672300202
  - # 16
    frequency:   14.0956935277
  - # 17
    frequency:   16.1309313483
  - # 18
    frequency:   17.2376535838
  - # 19
    frequency:   17.2572830335
  - # 20
    frequency:   17.8165974802
  - # 21
    frequency:   17.8423923129
  - # 22
    frequency:   38.3681385799
  - # 23
    frequency:   68.9831805427
  - # 24
    frequency:  111.6618091463

- q-position: [    0.0505051,    0.0000000,    0.0000000 ]
  distance:    0.0173510
  band:
  - # 1
    frequency:   -0.8998004107
  - # 2
    frequency:   -0.7376173778
  - # 3
    frequency:    0.1852260962
  - # 4
    frequency:    0.7048135343
  - # 5
    frequency:    1.0517483947
  - # 6
    frequency:    4.7254655965
  - # 7
    frequency:    4.7722515543
  - # 8
    frequency:    6.0225557770
  - # 9
    frequency:    6.1895771547
  - # 10
    frequency:    6.3112115596
  - # 11
    frequency:    7.0163830385
  - # 12
    frequency:    7.0682727060
  - # 13
    frequency:    9.0592723295
  - # 14
    frequency:   11.9720906231
  - # 15
    frequency:   14.0680094350
  - # 16
    frequency:   14.1020691515
  - # 17
    frequency:   16.1326431626
  - # 18
    frequency:   17.2384972559
  - # 19
    frequency:   17.2625260302
  - # 20
    frequency:   17.8268276834
  - # 21
    frequency:   17.8584154947
  - # 22
    frequency:   38.3683872146
  - # 23
    frequency:   68.9562588114
  - # 24
    frequency:  111.6561358256

- q-position: [    0.0555556,    0.0000000,    0.0000000 ]
  distance:    0.0190861
  band:
  - # 1
    frequency:   -0.8882999739
  - # 2
    frequency:   -0.6878928197
  - # 3
    frequency:    0.2262594966
  - # 4
    frequency:    0.7770772826
  - # 5
    frequency:    1.1594775890
  - # 6
    frequency:    4.7324241120
  - # 7
    frequency:    4.7886151778
  - # 8
    frequency:    6.0147948892
  - # 9
    frequency:    6.1969532633
  - # 10
    frequency:    6.3334271237
  - # 11
    frequency:    7.0204048284
  - # 12
    frequency:    7.0824332211
  - # 13
    frequency:    9.0490117851
  - # 14
    frequency:   11.9659932282
  - # 15
    frequency:   14.0692578982
  - # 16
    frequency:   14.1090354394
  - # 17
    frequency:   16.1344424276
  - # 18
    frequency:   17.2394198322
  - # 19
    frequency:   17.2682281771
  - # 20
    frequency:   17.8378266632
  - # 21
    frequency:   17.8756931785
  - # 22
    frequency:   38.3686562202
  - # 23
    frequency:   68.9268039431
  - # 24
    frequency:  111.6500187215

- q-position: [    0.0606061,    0.0000000,    0.0000000 ]
  distance:    0.0208212
  band:
  - # 1
    frequency:   -0.8759553591
  - # 2
    frequency:   -0.6305580667
  - # 3
    frequency:    0.2695047917
  - # 4
    frequency:    0.8495785911
  - # 5
    frequency:    1.2676389964
  - # 6
    frequency:    4.7397913450
  - # 7
    frequency:    4.8061339395
  - # 8
    frequency:    6.0074368224
  - # 9
    frequency:    6.2048214503
  - # 10
    frequency:    6.3564801873
  - # 11
    frequency:    7.0247848926
  - # 12
    frequency:    7.0976233032
  - # 13
    frequency:    9.0378047956
  - # 14
    frequency:   11.9591696190
  - # 15
    frequency:   14.0710859331
  - # 16
    frequency:   14.1165698671
  - # 17
    frequency:   16.1363046378
  - # 18
    frequency:   17.2404182846
  - # 19
    frequency:   17.2743657574
  - # 20
    frequency:   17.8495095631
  - # 21
    frequency:   17.8940983702
  - # 22
    frequency:   38.3689440049
  - # 23
    frequency:   68.8949022826
  - # 24
    frequency:  111.6435008439

- q-position: [    0.0656566,    0.0000000,    0.0000000 ]
  distance:    0.0225563
  band:
  - # 1
    frequency:   -0.8627670926
  - # 2
    frequency:   -0.5635918314
  - # 3
    frequency:    0.3153539840
  - # 4
    frequency:    0.9222696353
  - # 5
    frequency:    1.3761352570
  - # 6
    frequency:    4.7475075036
  - # 7
    frequency:    4.8247155940
  - # 8
    frequency:    6.0004708959
  - # 9
    frequency:    6.2131280626
  - # 10
    frequency:    6.3803483746
  - # 11
    frequency:    7.0295174474
  - # 12
    frequency:    7.1137615214
  - # 13
    frequency:    9.0256607331
  - # 14
    frequency:   11.9515876741
  - # 15
    frequency:   14.0736113656
  - # 16
    frequency:   14.1246484674
  - # 17
    frequency:   16.1382043459
  - # 18
    frequency:   17.2414893091
  - # 19
    frequency:   17.2809143149
  - # 20
    frequency:   17.8617868619
  - # 21
    frequency:   17.9134940016
  - # 22
    frequency:   38.3692488929
  - # 23
    frequency:   68.8606466014
  - # 24
    frequency:  111.6366279148

- q-position: [    0.0707071,    0.0000000,    0.0000000 ]
  distance:    0.0242914
  band:
  - # 1
    frequency:   -0.8487240154
  - # 2
    frequency:   -0.4834759042
  - # 3
    frequency:    0.3641397842
  - # 4
    frequency:    0.9951020760
  - # 5
    frequency:    1.4848810463
  - # 6
    frequency:    4.7555113194
  - # 7
    frequency:    4.8442660243
  - # 8
    frequency:    5.9938888309
  - # 9
    frequency:    6.2218165565
  - # 10
    frequency:    6.4050058736
  - # 11
    frequency:    7.0345963967
  - # 12
    frequency:    7.1307617129
  - # 13
    frequency:    9.0125901899
  - # 14
    frequency:   11.9432157821
  - # 15
    frequency:   14.0769581947
  - # 16
    frequency:   14.1332459846
  - # 17
    frequency:   16.1401154337
  - # 18
    frequency:   17.2426293463
  - # 19
    frequency:   17.2878488716
  - # 20
    frequency:   17.8745651971
  - # 21
    frequency:   17.9337338205
  - # 22
    frequency:   38.3695691412
  - # 23
    frequency:   68.8241356380
  - # 24
    frequency:  111.6294480217

- q-position: [    0.0757576,    0.0000000,    0.0000000 ]
  distance:    0.0260265
  band:
  - # 1
    frequency:   -0.8338044531
  - # 2
    frequency:   -0.3828725903
  - # 3
    frequency:    0.4162141768
  - # 4
    frequency:    1.0680282712
  - # 5
    frequency:    1.5937998286
  - # 6
    frequency:    4.7637407716
  - # 7
    frequency:    4.8646900549
  - # 8
    frequency:    5.9876855883
  - # 9
    frequency:    6.2308280114
  - # 10
    frequency:    6.4304230920
  - # 11
    frequency:    7.0400152616
  - # 12
    frequency:    7.1485335061
  - # 13
    frequency:    8.9986050676
  - # 14
    frequency:   11.9340236240
  - # 15
    frequency:   14.0812553266
  - # 16
    frequency:   14.1423360303
  - # 17
    frequency:   16.1420113667
  - # 18
    frequency:   17.2438346067
  - # 19
    frequency:   17.2951441207
  - # 20
    frequency:   17.8877482185
  - # 21
    frequency:   17.9546634221
  - # 22
    frequency:   38.3699029565
  - # 23
    frequency:   68.7854736117
  - # 24
    frequency:  111.6220112549

- q-position: [    0.0808081,    0.0000000,    0.0000000 ]
  distance:    0.0277616
  band:
  - # 1
    frequency:   -0.8179771693
  - # 2
    frequency:   -0.2389032594
  - # 3
    frequency:    0.4719768609
  - # 4
    frequency:    1.1410019106
  - # 5
    frequency:    1.7028206464
  - # 6
    frequency:    4.7721338026
  - # 7
    frequency:    4.8858921489
  - # 8
    frequency:    5.9818600222
  - # 9
    frequency:    6.2401017010
  - # 10
    frequency:    6.4565665517
  - # 11
    frequency:    7.0457670698
  - # 12
    frequency:    7.1669828540
  - # 13
    frequency:    8.9837186691
  - # 14
    frequency:   11.9239829682
  - # 15
    frequency:   14.0866351951
  - # 16
    frequency:   14.1518912384
  - # 17
    frequency:   16.1438654301
  - # 18
    frequency:   17.2451010993
  - # 19
    frequency:   17.3027745977
  - # 20
    frequency:   17.9012374642
  - # 21
    frequency:   17.9761214095
  - # 22
    frequency:   38.3702485130
  - # 23
    frequency:   68.7447697115
  - # 24
    frequency:  111.6143693295

- q-position: [    0.0858586,    0.0000000,    0.0000000 ]
  distance:    0.0294967
  band:
  - # 1
    frequency:   -0.8012019449
  - # 2
    frequency:    0.1833946378
  - # 3
    frequency:    0.5318099585
  - # 4
    frequency:    1.2139782329
  - # 5
    frequency:    1.8118752013
  - # 6
    frequency:    4.7806290166
  - # 7
    frequency:    4.9077769846
  - # 8
    frequency:    5.9764154186
  - # 9
    frequency:    6.2495757172
  - # 10
    frequency:    6.4833989470
  - # 11
    frequency:    7.0518442032
  - # 12
    frequency:    7.1860125699
  - # 13
    frequency:    8.9679457930
  - # 14
    frequency:   11.9130684568
  - # 15
    frequency:   14.0932322932
  - # 16
    frequency:   14.1618834180
  - # 17
    frequency:   16.1456509404
  - # 18
    frequency:   17.2464246641
  - # 19
    frequency:   17.3107148319
  - # 20
    frequency:   17.9149332509
  - # 21
    frequency:   17.9979406640
  - # 22
    frequency:   38.3706039702
  - # 23
    frequency:   68.7021375641
  - # 24
    frequency:  111.6065751974

- q-position: [    0.0909091,    0.0000000,    0.0000000 ]
  distance:    0.0312319
  band:
  - # 1
    frequency:   -0.7834296853
  - # 2
    frequency:    0.3526650929
  - # 3
    frequency:    0.5958358005
  - # 4
    frequency:    1.2869139733
  - # 5
    frequency:    1.9208953370
  - # 6
    frequency:    4.7891663545
  - # 7
    frequency:    4.9302499176
  - # 8
    frequency:    5.9713599623
  - # 9
    frequency:    6.2591876416
  - # 10
    frequency:    6.5108793236
  - # 11
    frequency:    7.0582382038
  - # 12
    frequency:    7.2055228608
  - # 13
    frequency:    8.9513028301
  - # 14
    frequency:   11.9012583560
  - # 15
    frequency:   14.1011816516
  - # 16
    frequency:   14.1722837032
  - # 17
    frequency:   16.1473414338
  - # 18
    frequency:   17.2478010060
  - # 19
    frequency:   17.3189394810
  - # 20
    frequency:   17.9287355703
  - # 21
    frequency:   18.0199497072
  - # 22
    frequency:   38.3709674914
  - # 23
    frequency:   68.6576946853
  - # 24
    frequency:  111.5986826507

- q-position: [    0.0959596,    0.0000000,    0.0000000 ]
  distance:    0.0329670
  band:
  - # 1
    frequency:   -0.7646019851
  - # 2
    frequency:    0.4632754959
  - # 3
    frequency:    0.6635436264
  - # 4
    frequency:    1.3597671593
  - # 5
    frequency:    2.0298109387
  - # 6
    frequency:    4.7976877369
  - # 7
    frequency:    4.9532173356
  - # 8
    frequency:    5.9667071533
  - # 9
    frequency:    6.2688752569
  - # 10
    frequency:    6.5389633474
  - # 11
    frequency:    7.0649395434
  - # 12
    frequency:    7.2254118521
  - # 13
    frequency:    8.9338078612
  - # 14
    frequency:   11.8885352432
  - # 15
    frequency:   14.1106172983
  - # 16
    frequency:   14.1830626995
  - # 17
    frequency:   16.1489108290
  - # 18
    frequency:   17.2492257316
  - # 19
    frequency:   17.3274234515
  - # 20
    frequency:   17.9425449839
  - # 21
    frequency:   18.0419741311
  - # 22
    frequency:   38.3713372612
  - # 23
    frequency:   68.6115619158
  - # 24
    frequency:  111.5907459209

- q-position: [    0.1010101,    0.0000000,    0.0000000 ]
  distance:    0.0347021
  band:
  - # 1
    frequency:   -0.7446500756
  - # 2
    frequency:    0.5523696017
  - # 3
    frequency:    0.7336800057
  - # 4
    frequency:    1.4324968411
  - # 5
    frequency:    2.1385482103
  - # 6
    frequency:    4.8061376720
  - # 7
    frequency:    4.9765869240
  - # 8
    frequency:    5.9624761891
  - # 9
    frequency:    6.2785772857
  - # 10
    frequency:    6.5676036401
  - # 11
    frequency:    7.0719373615
  - # 12
    frequency:    7.2455760999
  - # 13
    frequency:    8.9154807554
  - # 14
    frequency:   11.8748866053
  - # 15
    frequency:   14.1216707388
  - # 16
    frequency:   14.1941906257
  - # 17
    frequency:   16.1503335666
  - # 18
    frequency:   17.2506943855
  - # 19
    frequency:   17.3361420062
  - # 20
    frequency:   17.9562635071
  - # 21
    frequency:   18.0638380725
  - # 22
    frequency:   38.3717115034
  - # 23
    frequency:   68.5638628475
  - # 24
    frequency:  111.5828192764

- q-position: [    0.1060606,    0.0000000,    0.0000000 ]
  distance:    0.0364372
  band:
  - # 1
    frequency:   -0.7234930523
  - # 2
    frequency:    0.6305812197
  - # 3
    frequency:    0.8047074554
  - # 4
    frequency:    1.5050628162
  - # 5
    frequency:    2.2470282727
  - # 6
    frequency:    4.8144638218
  - # 7
    frequency:    5.0002678599
  - # 8
    frequency:    5.9586923148
  - # 9
    frequency:    6.2882341447
  - # 10
    frequency:    6.5967501630
  - # 11
    frequency:    7.0792191819
  - # 12
    frequency:    7.2659110875
  - # 13
    frequency:    8.8963432696
  - # 14
    frequency:   11.8603053229
  - # 15
    frequency:   14.1344694941
  - # 16
    frequency:   14.2056374511
  - # 17
    frequency:   16.1515847271
  - # 18
    frequency:   17.2522024886
  - # 19
    frequency:   17.3450708616
  - # 20
    frequency:   17.9697954757
  - # 21
    frequency:   18.0853657098
  - # 22
    frequency:   38.3720884984
  - # 23
    frequency:   68.5147232423
  - # 24
    frequency:  111.5749566216

- q-position: [    0.1111111,    0.0000000,    0.0000000 ]
  distance:    0.0381723
  band:
  - # 1
    frequency:   -0.7010352074
  - # 2
    frequency:    0.7030439426
  - # 3
    frequency:    0.8753912794
  - # 4
    frequency:    1.5774253821
  - # 5
    frequency:    2.3551660224
  - # 6
    frequency:    4.8226175234
  - # 7
    frequency:    5.0241709629
  - # 8
    frequency:    5.9553871403
  - # 9
    frequency:    6.2977886962
  - # 10
    frequency:    6.6263506330
  - # 11
    frequency:    7.0867706202
  - # 12
    frequency:    7.2863117051
  - # 13
    frequency:    8.8764191468
  - # 14
    frequency:   11.8447900205
  - # 15
    frequency:   14.1491357296
  - # 16
    frequency:   14.2173730288
  - # 17
    frequency:   16.1526401301
  - # 18
    frequency:   17.2537455738
  - # 19
    frequency:   17.3541862745
  - # 20
    frequency:   17.9830483850
  - # 21
    frequency:   18.1063827594
  - # 22
    frequency:   38.3724665999
  - # 23
    frequency:   68.4642704474
  - # 24
    frequency:  111.5672111020

- q-position: [    0.1161616,    0.0000000,    0.0000000 ]
  distance:    0.0399074
  band:
  - # 1
    frequency:   -0.6771621873
  - # 2
    frequency:    0.7725341903
  - # 3
    frequency:    0.9450037961
  - # 4
    frequency:    1.6495451353
  - # 5
    frequency:    2.4628691932
  - # 6
    frequency:    4.8305542628
  - # 7
    frequency:    5.0482088305
  - # 8
    frequency:    5.9525989146
  - # 9
    frequency:    6.3071869802
  - # 10
    frequency:    6.6563509568
  - # 11
    frequency:    7.0945750948
  - # 12
    frequency:    7.3066727099
  - # 13
    frequency:    8.8557342144
  - # 14
    frequency:   11.8283452680
  - # 15
    frequency:   14.1657850031
  - # 16
    frequency:   14.2293672231
  - # 17
    frequency:   16.1534764184
  - # 18
    frequency:   17.2553192230
  - # 19
    frequency:   17.3634651192
  - # 20
    frequency:   17.9959336969
  - # 21
    frequency:   18.1267179494
  - # 22
    frequency:   38.3728442503
  - # 23
    frequency:   68.4126328114
  - # 24
    frequency:  111.5596347163

- q-position: [    0.1212121,    0.0000000,    0.0000000 ]
  distance:    0.0416425
  band:
  - # 1
    frequency:   -0.6517355099
  - # 2
    frequency:    0.8405791009
  - # 3
    frequency:    1.0132201175
  - # 4
    frequency:    1.7213828265
  - # 5
    frequency:    2.5700375759
  - # 6
    frequency:    4.8382340971
  - # 7
    frequency:    5.0722959962
  - # 8
    frequency:    5.9503727400
  - # 9
    frequency:    6.3163789063
  - # 10
    frequency:    6.6866956714
  - # 11
    frequency:    7.1026135594
  - # 12
    frequency:    7.3268891687
  - # 13
    frequency:    8.8343164801
  - # 14
    frequency:   11.8109816263
  - # 15
    frequency:   14.1845251552
  - # 16
    frequency:   14.2415900338
  - # 17
    frequency:   16.1540711317
  - # 18
    frequency:   17.2569191007
  - # 19
    frequency:   17.3728849560
  - # 20
    frequency:   18.0083676046
  - # 21
    frequency:   18.1462044525
  - # 22
    frequency:   38.3732199961
  - # 23
    frequency:   68.3599391034
  - # 24
    frequency:  111.5522779406

- q-position: [    0.1262626,    0.0000000,    0.0000000 ]
  distance:    0.0433776
  band:
  - # 1
    frequency:   -0.6245846725
  - # 2
    frequency:    0.9080182009
  - # 3
    frequency:    1.0799550728
  - # 4
    frequency:    1.7928992697
  - # 5
    frequency:    2.6765623564
  - # 6
    frequency:    4.8456220250
  - # 7
    frequency:    5.0963491489
  - # 8
    frequency:    5.9487607021
  - # 9
    frequency:    6.3253188876
  - # 10
    frequency:    6.7173283809
  - # 11
    frequency:    7.1108642722
  - # 12
    frequency:    7.3468568826
  - # 13
    frequency:    8.8121962260
  - # 14
    frequency:   11.7927155370
  - # 15
    frequency:   14.2054553540
  - # 16
    frequency:   14.2540117156
  - # 17
    frequency:   16.1544027718
  - # 18
    frequency:   17.2585409878
  - # 19
    frequency:   17.3824240894
  - # 20
    frequency:   18.0202717507
  - # 21
    frequency:   18.1646812602
  - # 22
    frequency:   38.3735925015
  - # 23
    frequency:   68.3063179411
  - # 24
    frequency:  111.5451893672

- q-position: [    0.1313131,    0.0000000,    0.0000000 ]
  distance:    0.0451127
  band:
  - # 1
    frequency:   -0.5954955476
  - # 2
    frequency:    0.9753068443
  - # 3
    frequency:    1.1452468890
  - # 4
    frequency:    1.8640553025
  - # 5
    frequency:    2.7823255459
  - # 6
    frequency:    4.8526883017
  - # 7
    frequency:    5.1202874585
  - # 8
    frequency:    5.9478218811
  - # 9
    frequency:    6.3339663960
  - # 10
    frequency:    6.7481921789
  - # 11
    frequency:    7.1193026172
  - # 12
    frequency:    7.3664727953
  - # 13
    frequency:    8.7894060985
  - # 14
    frequency:   11.7735690650
  - # 15
    frequency:   14.2286652997
  - # 16
    frequency:   14.2666028935
  - # 17
    frequency:   16.1544508651
  - # 18
    frequency:   17.2601808111
  - # 19
    frequency:   17.3920616169
  - # 20
    frequency:   18.0315738905
  - # 21
    frequency:   18.1819944835
  - # 22
    frequency:   38.3739605608
  - # 23
    frequency:   68.2518972290
  - # 24
    frequency:  111.5384153600

- q-position: [    0.1363636,    0.0000000,    0.0000000 ]
  distance:    0.0468478
  band:
  - # 1
    frequency:   -0.5641927747
  - # 2
    frequency:    1.0426792019
  - # 3
    frequency:    1.2091925679
  - # 4
    frequency:    1.9348117931
  - # 5
    frequency:    2.8871994819
  - # 6
    frequency:    4.8594086982
  - # 7