nqpoint: 300    
npath: 3      
segment_nqpoint:
- 100
- 100
- 100
labels:
- [ 'G', 'M' ]
- [ 'M', 'K' ]
- [ 'K', 'G' ]
reciprocal_lattice:
- [   0.32319849,   0.18659874,   0.00000000 ] # a*
- [   0.00000000,   0.37319747,   0.00000000 ] # b*
- [   0.00000000,   0.00000000,   0.04043993 ] # c*
natom: 6      
lattice:
- [     3.094073848468633,     0.000000000000000,     0.000000000000000 ] # a
- [    -1.547036924234316,     2.679546553959901,     0.000000000000000 ] # b
- [     0.000000000000000,     0.000000000000000,    24.728034391145314 ] # c
points:
- symbol: C # 1
  coordinates: [  0.000000000000000,  0.000000000000000,  0.454592871549665 ]
  mass: 12.010700
- symbol: O # 2
  coordinates: [  0.333332985432215,  0.666666983183674,  0.636040622653665 ]
  mass: 15.999400
- symbol: O # 3
  coordinates: [  0.666666984744048,  0.333332985985145,  0.363959377346335 ]
  mass: 15.999400
- symbol: P # 4
  coordinates: [  0.333332985432215,  0.666666983183674,  0.575773993611257 ]
  mass: 30.973762
- symbol: Ti # 5
  coordinates: [  0.333332985432215,  0.666666983183674,  0.400235684526223 ]
  mass: 47.867000
- symbol: Ti # 6
  coordinates: [  0.666666984744048,  0.333332985985145,  0.500045156201733 ]
  mass: 47.867000

phonon:
- q-position: [    0.0000000,    0.0000000,    0.0000000 ]
  distance:    0.0000000
  band:
  - # 1
    frequency:  -13.4516935430
  - # 2
    frequency:  -13.4516935430
  - # 3
    frequency:   -0.0000071634
  - # 4
    frequency:   -0.0000002773
  - # 5
    frequency:    0.0000071517
  - # 6
    frequency:    1.5555311568
  - # 7
    frequency:    1.5555311568
  - # 8
    frequency:    5.5015846130
  - # 9
    frequency:    5.5015846130
  - # 10
    frequency:    6.1375797095
  - # 11
    frequency:    6.1375797095
  - # 12
    frequency:    6.6281943144
  - # 13
    frequency:   11.2501887591
  - # 14
    frequency:   15.6902964382
  - # 15
    frequency:   15.7128384133
  - # 16
    frequency:   15.7128384133
  - # 17
    frequency:   19.0335008316
  - # 18
    frequency:   34.5957964541

- q-position: [    0.0050505,    0.0000000,    0.0000000 ]
  distance:    0.0018848
  band:
  - # 1
    frequency:  -13.4469393551
  - # 2
    frequency:  -13.4424865360
  - # 3
    frequency:   -0.0292051782
  - # 4
    frequency:    0.0019449104
  - # 5
    frequency:    0.1113338511
  - # 6
    frequency:    1.5575111844
  - # 7
    frequency:    1.5579252312
  - # 8
    frequency:    5.5010105965
  - # 9
    frequency:    5.5020136168
  - # 10
    frequency:    6.1359987900
  - # 11
    frequency:    6.1371450572
  - # 12
    frequency:    6.6296212081
  - # 13
    frequency:   11.2497806539
  - # 14
    frequency:   15.6627091282
  - # 15
    frequency:   15.7129550893
  - # 16
    frequency:   15.7402915139
  - # 17
    frequency:   19.0337600926
  - # 18
    frequency:   34.5955652354

- q-position: [    0.0101010,    0.0000000,    0.0000000 ]
  distance:    0.0037697
  band:
  - # 1
    frequency:  -13.4326895372
  - # 2
    frequency:  -13.4148629287
  - # 3
    frequency:   -0.0576904539
  - # 4
    frequency:    0.0072488471
  - # 5
    frequency:    0.2192415289
  - # 6
    frequency:    1.5634275957
  - # 7
    frequency:    1.5655773536
  - # 8
    frequency:    5.4992862294
  - # 9
    frequency:    5.5033005378
  - # 10
    frequency:    6.1313160238
  - # 11
    frequency:    6.1358521782
  - # 12
    frequency:    6.6338572528
  - # 13
    frequency:   11.2485551303
  - # 14
    frequency:   15.6263020995
  - # 15
    frequency:   15.7133072211
  - # 16
    frequency:   15.7763036126
  - # 17
    frequency:   19.0345337320
  - # 18
    frequency:   34.5948719953

- q-position: [    0.0151515,    0.0000000,    0.0000000 ]
  distance:    0.0056545
  band:
  - # 1
    frequency:  -13.4089823619
  - # 2
    frequency:  -13.3688148067
  - # 3
    frequency:   -0.0847479766
  - # 4
    frequency:    0.0157527872
  - # 5
    frequency:    0.3200673492
  - # 6
    frequency:    1.5732127359
  - # 7
    frequency:    1.5798868913
  - # 8
    frequency:    5.4964046606
  - # 9
    frequency:    5.5054445530
  - # 10
    frequency:    6.1237032319
  - # 11
    frequency:    6.1337341785
  - # 12
    frequency:    6.6407769348
  - # 13
    frequency:   11.2465085825
  - # 14
    frequency:   15.5894078710
  - # 15
    frequency:   15.7139011171
  - # 16
    frequency:   15.8125652081
  - # 17
    frequency:   19.0358093819
  - # 18
    frequency:   34.5937179812

- q-position: [    0.0202020,    0.0000000,    0.0000000 ]
  distance:    0.0075393
  band:
  - # 1
    frequency:  -13.3758817333
  - # 2
    frequency:  -13.3043284547
  - # 3
    frequency:   -0.1096904204
  - # 4
    frequency:    0.0268678359
  - # 5
    frequency:    0.4098164893
  - # 6
    frequency:    1.5867644104
  - # 7
    frequency:    1.6030995783
  - # 8
    frequency:    5.4923548213
  - # 9
    frequency:    5.5084424356
  - # 10
    frequency:    6.1134227661
  - # 11
    frequency:    6.1308458015
  - # 12
    frequency:    6.6501959112
  - # 13
    frequency:   11.2436350624
  - # 14
    frequency:   15.5525320510
  - # 15
    frequency:   15.7147472807
  - # 16
    frequency:   15.8486087996
  - # 17
    frequency:   19.0375666377
  - # 18
    frequency:   34.5921052681

- q-position: [    0.0252525,    0.0000000,    0.0000000 ]
  distance:    0.0094242
  band:
  - # 1
    frequency:  -13.3334773588
  - # 2
    frequency:  -13.2213835584
  - # 3
    frequency:   -0.1318526456
  - # 4
    frequency:    0.0395058532
  - # 5
    frequency:    0.4843295779
  - # 6
    frequency:    1.6039597051
  - # 7
    frequency:    1.6380099242
  - # 8
    frequency:    5.4871219831
  - # 9
    frequency:    5.5122857135
  - # 10
    frequency:    6.1008006362
  - # 11
    frequency:    6.1272627468
  - # 12
    frequency:    6.6618992260
  - # 13
    frequency:   11.2399263717
  - # 14
    frequency:   15.5158696612
  - # 15
    frequency:   15.7158603954
  - # 16
    frequency:   15.8842921778
  - # 17
    frequency:   19.0397773676
  - # 18
    frequency:   34.5900367533

- q-position: [    0.0303030,    0.0000000,    0.0000000 ]
  distance:    0.0113090
  band:
  - # 1
    frequency:  -13.2818849805
  - # 2
    frequency:  -13.1199520595
  - # 3
    frequency:   -0.1505835595
  - # 4
    frequency:    0.0515885828
  - # 5
    frequency:    0.5398967266
  - # 6
    frequency:    1.6246709542
  - # 7
    frequency:    1.6873153722
  - # 8
    frequency:    5.4806886033
  - # 9
    frequency:    5.5169565624
  - # 10
    frequency:    6.0862019397
  - # 11
    frequency:    6.1230806563
  - # 12
    frequency:    6.6756679700
  - # 13
    frequency:   11.2353721905
  - # 14
    frequency:   15.4795666000
  - # 15
    frequency:   15.7172593028
  - # 16
    frequency:   15.9195364224
  - # 17
    frequency:   19.0424061349
  - # 18
    frequency:   34.5875161487

- q-position: [    0.0353535,    0.0000000,    0.0000000 ]
  distance:    0.0131939
  band:
  - # 1
    frequency:  -13.2212466622
  - # 2
    frequency:  -12.9999966388
  - # 3
    frequency:   -0.1652245208
  - # 4
    frequency:    0.0586289809
  - # 5
    frequency:    0.5742634930
  - # 6
    frequency:    1.6487817061
  - # 7
    frequency:    1.7527307360
  - # 8
    frequency:    5.4730355060
  - # 9
    frequency:    5.5224222807
  - # 10
    frequency:    6.0700136770
  - # 11
    frequency:    6.1184137230
  - # 12
    frequency:    6.6912995284
  - # 13
    frequency:   11.2299602427
  - # 14
    frequency:   15.4437583318
  - # 15
    frequency:   15.7189669753
  - # 16
    frequency:   15.9542865140
  - # 17
    frequency:   19.0454107279
  - # 18
    frequency:   34.5845479705

- q-position: [    0.0404040,    0.0000000,    0.0000000 ]
  distance:    0.0150787
  band:
  - # 1
    frequency:  -13.1517311168
  - # 2
    frequency:  -12.8614687905
  - # 3
    frequency:   -0.1750675980
  - # 4
    frequency:    0.0471393398
  - # 5
    frequency:    0.5877133946
  - # 6
    frequency:    1.6762010530
  - # 7
    frequency:    1.8343430584
  - # 8
    frequency:    5.4641434496
  - # 9
    frequency:    5.5286281305
  - # 10
    frequency:    6.0526366078
  - # 11
    frequency:    6.1133928797
  - # 12
    frequency:    6.7086200677
  - # 13
    frequency:   11.2236764970
  - # 14
    frequency:   15.4085790952
  - # 15
    frequency:   15.7210104821
  - # 16
    frequency:   15.9885012691
  - # 17
    frequency:   19.0487427837
  - # 18
    frequency:   34.5811375276

- q-position: [    0.0454545,    0.0000000,    0.0000000 ]
  distance:    0.0169635
  band:
  - # 1
    frequency:  -13.0735340642
  - # 2
    frequency:  -12.7043064432
  - # 3
    frequency:   -0.1792783044
  - # 4
    frequency:   -0.0697845228
  - # 5
    frequency:    0.5841048346
  - # 6
    frequency:    1.7068753850
  - # 7
    frequency:    1.9306675342
  - # 8
    frequency:    5.4539951091
  - # 9
    frequency:    5.5354882684
  - # 10
    frequency:    6.0344854788
  - # 11
    frequency:    6.1081635425
  - # 12
    frequency:    6.7274903092
  - # 13
    frequency:   11.2165054047
  - # 14
    frequency:   15.3741643372
  - # 15
    frequency:   15.7234209494
  - # 16
    frequency:   16.0221498838
  - # 17
    frequency:   19.0523484961
  - # 18
    frequency:   34.5772909068

- q-position: [    0.0505051,    0.0000000,    0.0000000 ]
  distance:    0.0188484
  band:
  - # 1
    frequency:  -12.9868785977
  - # 2
    frequency:  -12.5284310718
  - # 3
    frequency:   -0.1767430339
  - # 4
    frequency:   -0.1594985550
  - # 5
    frequency:    0.5721109081
  - # 6
    frequency:    1.7407972587
  - # 7
    frequency:    2.0392976728
  - # 8
    frequency:    5.4425774761
  - # 9
    frequency:    5.5428745004
  - # 10
    frequency:    6.0159960111
  - # 11
    frequency:    6.1028829197
  - # 12
    frequency:    6.7478065751
  - # 13
    frequency:   11.2084301724
  - # 14
    frequency:   15.3406509893
  - # 15
    frequency:   15.7262335131
  - # 16
    frequency:   16.0552104702
  - # 17
    frequency:   19.0561693945
  - # 18
    frequency:   34.5730149572

- q-position: [    0.0555556,    0.0000000,    0.0000000 ]
  distance:    0.0207332
  band:
  - # 1
    frequency:  -12.8920155396
  - # 2
    frequency:  -12.3337442355
  - # 3
    frequency:   -0.2647158426
  - # 4
    frequency:   -0.1657224265
  - # 5
    frequency:    0.5648738110
  - # 6
    frequency:    1.7780115272
  - # 7
    frequency:    2.1576337423
  - # 8
    frequency:    5.4298846319
  - # 9
    frequency:    5.5506028027
  - # 10
    frequency:    5.9976368914
  - # 11
    frequency:    6.0977169399
  - # 12
    frequency:    6.7694990320
  - # 13
    frequency:   11.1994330708
  - # 14
    frequency:   15.3081768446
  - # 15
    frequency:   15.7294872659
  - # 16
    frequency:   16.0876693196
  - # 17
    frequency:   19.0601431784
  - # 18
    frequency:   34.5683172715

- q-position: [    0.0606061,    0.0000000,    0.0000000 ]
  distance:    0.0226180
  band:
  - # 1
    frequency:  -12.7892237539
  - # 2
    frequency:  -12.1201234665
  - # 3
    frequency:   -0.3817637359
  - # 4
    frequency:   -0.1428550120
  - # 5
    frequency:    0.5735185428
  - # 6
    frequency:    1.8186191495
  - # 7
    frequency:    2.2833384558
  - # 8
    frequency:    5.4159207996
  - # 9
    frequency:    5.5584182366
  - # 10
    frequency:    5.9799247971
  - # 11
    frequency:    6.0928369115
  - # 12
    frequency:    6.7925285784
  - # 13
    frequency:   11.1894957779
  - # 14
    frequency:   15.2768794531
  - # 15
    frequency:   15.7332251937
  - # 16
    frequency:   16.1195204753
  - # 17
    frequency:   19.0642045964
  - # 18
    frequency:   34.5632061658

- q-position: [    0.0656566,    0.0000000,    0.0000000 ]
  distance:    0.0245029
  band:
  - # 1
    frequency:  -12.6788103849
  - # 2
    frequency:  -11.8874174298
  - # 3
    frequency:   -0.5005881826
  - # 4
    frequency:   -0.0985982595
  - # 5
    frequency:    0.6004201238
  - # 6
    frequency:    1.8627792447
  - # 7
    frequency:    2.4145005290
  - # 8
    frequency:    5.4007035300
  - # 9
    frequency:    5.5659805548
  - # 10
    frequency:    5.9634393464
  - # 11
    frequency:    6.0884160831
  - # 12
    frequency:    6.8168832895
  - # 13
    frequency:   11.1785997561
  - # 14
    frequency:   15.2468946907
  - # 15
    frequency:   15.7374941046
  - # 16
    frequency:   16.1507654520
  - # 17
    frequency:   19.0682863548
  - # 18
    frequency:   34.5576906575

- q-position: [    0.0707071,    0.0000000,    0.0000000 ]
  distance:    0.0263877
  band:
  - # 1
    frequency:  -12.5611109766
  - # 2
    frequency:  -11.6354402769
  - # 3
    frequency:   -0.6147991005
  - # 4
    frequency:    0.0699386809
  - # 5
    frequency:    0.6422836838
  - # 6
    frequency:    1.9107100499
  - # 7
    frequency:    2.5496279599
  - # 8
    frequency:    5.3842668363
  - # 9
    frequency:    5.5728560750
  - # 10
    frequency:    5.9488319890
  - # 11
    frequency:    6.0846263216
  - # 12
    frequency:    6.8425749132
  - # 13
    frequency:   11.1667266632
  - # 14
    frequency:   15.2183550695
  - # 15
    frequency:   15.7423445446
  - # 16
    frequency:   16.1814130372
  - # 17
    frequency:   19.0723200437
  - # 18
    frequency:   34.5517804415

- q-position: [    0.0757576,    0.0000000,    0.0000000 ]
  distance:    0.0282725
  band:
  - # 1
    frequency:  -12.4364894257
  - # 2
    frequency:  -11.3639651324
  - # 3
    frequency:   -0.7220507610
  - # 4
    frequency:    0.1539636221
  - # 5
    frequency:    0.6953703142
  - # 6
    frequency:    1.9626895797
  - # 7
    frequency:    2.6875770164
  - # 8
    frequency:    5.3666640820
  - # 9
    frequency:    5.5785263773
  - # 10
    frequency:    5.9368181565
  - # 11
    frequency:    6.0816351542
  - # 12
    frequency:    6.8696356220
  - # 13
    frequency:   11.1538587935
  - # 14
    frequency:   15.1913878203
  - # 15
    frequency:   15.7478306985
  - # 16
    frequency:   16.2114791400
  - # 17
    frequency:   19.0762370685
  - # 18
    frequency:   34.5454858642

- q-position: [    0.0808081,    0.0000000,    0.0000000 ]
  distance:    0.0301574
  band:
  - # 1
    frequency:  -12.3053377078
  - # 2
    frequency:  -11.0727167086
  - # 3
    frequency:   -0.8218515934
  - # 4
    frequency:    0.2168122921
  - # 5
    frequency:    0.7570662660
  - # 6
    frequency:    2.0190570094
  - # 7
    frequency:    2.8274721347
  - # 8
    frequency:    5.3479704492
  - # 9
    frequency:    5.5824286177
  - # 10
    frequency:    5.9281379138
  - # 11
    frequency:    6.0796034231
  - # 12
    frequency:    6.8981150528
  - # 13
    frequency:   11.1399795481
  - # 14
    frequency:   15.1661127711
  - # 15
    frequency:   15.7540102727
  - # 16
    frequency:   16.2409866687
  - # 17
    frequency:   19.0799695775
  - # 18
    frequency:   34.5388178967

- q-position: [    0.0858586,    0.0000000,    0.0000000 ]
  distance:    0.0320422
  band:
  - # 1
    frequency:  -12.1680753130
  - # 2
    frequency:  -10.7613631541
  - # 3
    frequency:   -0.9143017412
  - # 4
    frequency:    0.2741571660
  - # 5
    frequency:    0.8257222938
  - # 6
    frequency:    2.0802161752
  - # 7
    frequency:    2.9686370711
  - # 8
    frequency:    5.3282848767
  - # 9
    frequency:    5.5840383330
  - # 10
    frequency:    5.9234743593
  - # 11
    frequency:    6.0786837748
  - # 12
    frequency:    6.9280775709
  - # 13
    frequency:   11.1250739298
  - # 14
    frequency:   15.1426400436
  - # 15
    frequency:   15.7609443531
  - # 16
    frequency:   16.2699654215
  - # 17
    frequency:   19.0834513752
  - # 18
    frequency:   34.5317881050

- q-position: [    0.0909091,    0.0000000,    0.0000000 ]
  distance:    0.0339270
  band:
  - # 1
    frequency:  -12.0251483143
  - # 2
    frequency:  -10.4295074815
  - # 3
    frequency:   -0.9996246877
  - # 4
    frequency:    0.3296709694
  - # 5
    frequency:    0.9002904568
  - # 6
    frequency:    2.1466431363
  - # 7
    frequency:    3.1105413016
  - # 8
    frequency:    5.3077314647
  - # 9
    frequency:    5.5829843088
  - # 10
    frequency:    5.9233403730
  - # 11
    frequency:    6.0790201685
  - # 12
    frequency:    6.9595996496
  - # 13
    frequency:   11.1091290586
  - # 14
    frequency:   15.1210675966
  - # 15
    frequency:   15.7686972322
  - # 16
    frequency:   16.2984519755
  - # 17
    frequency:   19.0866188151
  - # 18
    frequency:   34.5244086203

- q-position: [    0.0959596,    0.0000000,    0.0000000 ]
  distance:    0.0358119
  band:
  - # 1
    frequency:  -11.8770279897
  - # 2
    frequency:  -10.0766793850
  - # 3
    frequency:   -1.0780241697
  - # 4
    frequency:    0.3851502927
  - # 5
    frequency:    0.9800736665
  - # 6
    frequency:    2.2189005124
  - # 7
    frequency:    3.2527597947
  - # 8
    frequency:    5.2864604776
  - # 9
    frequency:    5.5791518325
  - # 10
    frequency:    5.9279775797
  - # 11
    frequency:    6.0807485452
  - # 12
    frequency:    6.9927672427
  - # 13
    frequency:   11.0921347019
  - # 14
    frequency:   15.1014786522
  - # 15
    frequency:   15.7773361969
  - # 16
    frequency:   16.3264895527
  - # 17
    frequency:   19.0894116656
  - # 18
    frequency:   34.5166921069

- q-position: [    0.1010101,    0.0000000,    0.0000000 ]
  distance:    0.0376967
  band:
  - # 1
    frequency:  -11.7242089120
  - # 2
    frequency:   -9.7023291641
  - # 3
    frequency:   -1.1496522204
  - # 4
    frequency:    0.4419268188
  - # 5
    frequency:    1.0645784745
  - # 6
    frequency:    2.2976623814
  - # 7
    frequency:    3.3949429173
  - # 8
    frequency:    5.2646492622
  - # 9
    frequency:    5.5727184541
  - # 10
    frequency:    5.9373236165
  - # 11
    frequency:    6.0839987904
  - # 12
    frequency:    7.0276730312
  - # 13
    frequency:   11.0740838112
  - # 14
    frequency:   15.0839390559
  - # 15
    frequency:   15.7869312665
  - # 16
    frequency:   16.3541278417
  - # 17
    frequency:   19.0917739445
  - # 18
    frequency:   34.5086517290

- q-position: [    0.1060606,    0.0000000,    0.0000000 ]
  distance:    0.0395816
  band:
  - # 1
    frequency:  -11.5672064211
  - # 2
    frequency:   -9.3058272171
  - # 3
    frequency:   -1.2146119772
  - # 4
    frequency:    0.5012918948
  - # 5
    frequency:    1.1534299175
  - # 6
    frequency:    2.3837550059
  - # 7
    frequency:    3.5367934212
  - # 8
    frequency:    5.2425036312
  - # 9
    frequency:    5.5641025057
  - # 10
    frequency:    5.9510676832
  - # 11
    frequency:    6.0888981643
  - # 12
    frequency:    7.0644134482
  - # 13
    frequency:   11.0549730584
  - # 14
    frequency:   15.0684946325
  - # 15
    frequency:   15.7975548667
  - # 16
    frequency:   16.3814227439
  - # 17
    frequency:   19.0936547185
  - # 18
    frequency:   34.5003011166

- q-position: [    0.1111111,    0.0000000,    0.0000000 ]
  distance:    0.0414664
  band:
  - # 1
    frequency:  -11.4065533986
  - # 2
    frequency:   -8.8864759380
  - # 3
    frequency:   -1.2729695432
  - # 4
    frequency:    0.5646799153
  - # 5
    frequency:    1.2463207919
  - # 6
    frequency:    2.4782207480
  - # 7
    frequency:    3.6780480194
  - # 8
    frequency:    5.2202606192
  - # 9
    frequency:    5.5538598059
  - # 10
    frequency:    5.9687592182
  - # 11
    frequency:    6.0955765148
  - # 12
    frequency:    7.1030854130
  - # 13
    frequency:   11.0348033621
  - # 14
    frequency:   15.0551686159
  - # 15
    frequency:   15.8092814262
  - # 16
    frequency:   16.4084360082
  - # 17
    frequency:   19.0950088667
  - # 18
    frequency:   34.4916543301

- q-position: [    0.1161616,    0.0000000,    0.0000000 ]
  distance:    0.0433512
  band:
  - # 1
    frequency:  -11.2427962764
  - # 2
    frequency:   -8.4435473656
  - # 3
    frequency:   -1.3247664244
  - # 4
    frequency:    0.6337695640
  - # 5
    frequency:    1.3429799983
  - # 6
    frequency:    2.5824153632
  - # 7
    frequency:    3.8184615508
  - # 8
    frequency:    5.1981941265
  - # 9
    frequency:    5.5425833241
  - # 10
    frequency:    5.9899152560
  - # 11
    frequency:    6.1041738733
  - # 12
    frequency:    7.1437827502
  - # 13
    frequency:   11.0135803933
  - # 14
    frequency:   15.0439592466
  - # 15
    frequency:   15.8221868757
  - # 16
    frequency:   16.4352347116
  - # 17
    frequency:   19.0957978063
  - # 18
    frequency:   34.4827258238

- q-position: [    0.1212121,    0.0000000,    0.0000000 ]
  distance:    0.0452361
  band:
  - # 1
    frequency:  -11.0764902301
  - # 2
    frequency:   -7.9763725124
  - # 3
    frequency:   -1.3700298709
  - # 4
    frequency:    0.7105490499
  - # 5
    frequency:    1.4431517609
  - # 6
    frequency:    2.6981521330
  - # 7
    frequency:    3.9577920609
  - # 8
    frequency:    5.1766261240
  - # 9
    frequency:    5.5308379700
  - # 10
    frequency:    6.0140947455
  - # 11
    frequency:    6.1148515758
  - # 12
    frequency:    7.1865923135
  - # 13
    frequency:   10.9913150519
  - # 14
    frequency:   15.0348376436
  - # 15
    frequency:   15.8363480287
  - # 16
    frequency:   16.4618905371
  - # 17
    frequency:   19.0959901796
  - # 18
    frequency:   34.4735304090

- q-position: [    0.1262626,    0.0000000,    0.0000000 ]
  distance:    0.0471209
  band:
  - # 1
    frequency:  -10.9081935430
  - # 2
    frequency:   -7.4845323050
  - # 3
    frequency:   -1.4087803984
  - # 4
    frequency:    0.7973580804
  - # 5
    frequency:    1.5465813907
  - # 6
    frequency:    2.8279078183
  - # 7
    frequency:    4.0957852240
  - # 8
    frequency:    5.1559485135
  - # 9
    frequency:    5.5191332017
  - # 10
    frequency:    6.0409377843
  - # 11
    frequency:    6.1278090415
  - # 12
    frequency:    7.2315898939
  - # 13
    frequency:   10.9680239040
  - # 14
    frequency:   15.0277460702
  - # 15
    frequency:   15.8518418220
  - # 16
    frequency:   16.4884787938
  - # 17
    frequency:   19.0955625019
  - # 18
    frequency:   34.4640832160

- q-position: [    0.1313131,    0.0000000,    0.0000000 ]
  distance:    0.0490057
  band:
  - # 1
    frequency:  -10.7384611633
  - # 2
    frequency:   -6.9682441568
  - # 3
    frequency:   -1.4410364012
  - # 4
    frequency:    0.8968996791
  - # 5
    frequency:    1.6530053194
  - # 6
    frequency:    2.9750968701
  - # 7
    frequency:    4.2321563800
  - # 8
    frequency:    5.1366661232
  - # 9
    frequency:    5.5079224607
  - # 10
    frequency:    6.0701817740
  - # 11
    frequency:    6.1433102269
  - # 12
    frequency:    7.2788360416
  - # 13
    frequency:   10.9437295728
  - # 14
    frequency:   15.0225967218
  - # 15
    frequency:   15.8687443870
  - # 16
    frequency:   16.5150771249
  - # 17
    frequency:   19.0944997703
  - # 18
    frequency:   34.4543996557

- q-position: [    0.1363636,    0.0000000,    0.0000000 ]
  distance:    0.0508906
  band:
  - # 1
    frequency:  -10.5678375350
  - # 2
    frequency:   -6.4291111475
  - # 3
    frequency:   -1.4668159553
  - # 4
    frequency:    1.0121865051
  - # 5
    frequency:    1.7621442492
  - # 6
    frequency:    3.1443752374
  - # 7
    frequency:    4.3665679159
  - # 8
    frequency:    5.1194843015
  - # 9
    frequency:    5.4976187126
  - # 10
    frequency:    6.1016669259
  - # 11
    frequency:    6.1617275096
  - # 12
    frequency:    7.3283719800
  - # 13
    frequency:   10.9184610746
  - # 14
    frequency:   15.0192711636
  - # 15
    frequency:   15.8871299270
  - # 16
    frequency:   16.5417638479
  - # 17
    frequency:   19.0927960304
  - # 18
    frequency:   34.4444953807

- q-position: [    0.1414141,    0.0000000,    0.0000000 ]
  distance:    0.0527754
  band:
  - # 1
    frequency:  -10.3968488406
  - # 2
    frequency:   -5.8714878461
  - # 3
    frequency:   -1.4861359565
  - # 4
    frequency:    1.1463312507
  - # 5
    frequency:    1.8736988604
  - # 6
    frequency:    3.3417804113
  - # 7
    frequency:    4.4985985052
  - # 8
    frequency:    5.1054986965
  - # 9
    frequency:    5.4886210841
  - # 10
    frequency:    6.1353391654
  - # 11
    frequency:    6.1836186137
  - # 12
    frequency:    7.3802158271
  - # 13
    frequency:   10.8922540979
  - # 14
    frequency:   15.0176205426
  - # 15
    frequency:   15.9070693724
  - # 16
    frequency:   16.5686158813
  - # 17
    frequency:   19.0904548985
  - # 18
    frequency:   34.4343862461

- q-position: [    0.1464646,    0.0000000,    0.0000000 ]
  distance:    0.0546602
  band:
  - # 1
    frequency:  -10.2259948603
  - # 2
    frequency:   -5.3046877351
  - # 3
    frequency:   -1.4990087316
  - # 4
    frequency:    1.3019997206
  - # 5
    frequency:    1.9873478262
  - # 6
    frequency:    3.5740859415
  - # 7
    frequency:    4.6276981210
  - # 8
    frequency:    5.0966444083
  - # 9
    frequency:    5.4813544618
  - # 10
    frequency:    6.1712543150
  - # 11
    frequency:    6.2098696711
  - # 12
    frequency:    7.4343593477
  - # 13
    frequency:   10.8651512232
  - # 14
    frequency:   15.0174666782
  - # 15
    frequency:   15.9286287869
  - # 16
    frequency:   16.5957062279
  - # 17
    frequency:   19.0874900343
  - # 18
    frequency:   34.4240882699

- q-position: [    0.1515152,    0.0000000,    0.0000000 ]
  distance:    0.0565451
  band:
  - # 1
    frequency:  -10.0557407194
  - # 2
    frequency:   -4.7456601368
  - # 3
    frequency:   -1.5054362408
  - # 4
    frequency:    1.4802766337
  - # 5
    frequency:    2.1027480047
  - # 6
    frequency:    3.8458132087
  - # 7
    frequency:    4.7531171554
  - # 8
    frequency:    5.0968874186
  - # 9
    frequency:    5.4763324448
  - # 10
    frequency:    6.2095845904
  - # 11
    frequency:    6.2419788266
  - # 12
    frequency:    7.4907654511
  - # 13
    frequency:   10.8372020828
  - # 14
    frequency:   15.0186041092
  - # 15
    frequency:   15.9518675057
  - # 16
    frequency:   16.6231010075
  - # 17
    frequency:   19.0839255542
  - # 18
    frequency:   34.4136175938

- q-position: [    0.1565657,    0.0000000,    0.0000000 ]
  distance:    0.0584299
  band:
  - # 1
    frequency:   -9.8865088487
  - # 2
    frequency:   -4.2199089161
  - # 3
    frequency:   -1.5054019277
  - # 4
    frequency:    1.6789253590
  - # 5
    frequency:    2.2195366818
  - # 6
    frequency:    4.1508863303
  - # 7
    frequency:    4.8737859053
  - # 8
    frequency:    5.1157938232
  - # 9
    frequency:    5.4742682585
  - # 10
    frequency:    6.2506264189
  - # 11
    frequency:    6.2826572758
  - # 12
    frequency:    7.5493666093
  - # 13
    frequency:   10.8084634676
  - # 14
    frequency:   15.0208031322
  - # 15
    frequency:   15.9768359917
  - # 16
    frequency:   16.6508560694
  - # 17
    frequency:   19.0797963758
  - # 18
    frequency:   34.4029904435

- q-position: [    0.1616162,    0.0000000,    0.0000000 ]
  distance:    0.0603147
  band:
  - # 1
    frequency:   -9.7186715226
  - # 2
    frequency:   -3.7564575292
  - # 3
    frequency:   -1.4988601689
  - # 4
    frequency:    1.8910061500
  - # 5
    frequency:    2.3373356720
  - # 6
    frequency:    4.4547330821
  - # 7
    frequency:    4.9880962867
  - # 8
    frequency:    5.1791995525
  - # 9
    frequency:    5.4762847060
  - # 10
    frequency:    6.2948066209
  - # 11
    frequency:    6.3371792320
  - # 12
    frequency:    7.6100643084
  - # 13
    frequency:   10.7789993833
  - # 14
    frequency:   15.0238138100
  - # 15
    frequency:   16.0035734096
  - # 16
    frequency:   16.6790132593
  - # 17
    frequency:   19.0751484725
  - # 18
    frequency:   34.3922230896

- q-position: [    0.1666667,    0.0000000,    0.0000000 ]
  distance:    0.0621996
  band:
  - # 1
    frequency:   -9.5525443523
  - # 2
    frequency:   -3.3763277831
  - # 3
    frequency:   -1.4857230803
  - # 4
    frequency:    2.1059231628
  - # 5
    frequency:    2.4557569690
  - # 6
    frequency:    4.6797441364
  - # 7
    frequency:    5.0935060666
  - # 8
    frequency:    5.3384913555
  - # 9
    frequency:    5.4843083918
  - # 10
    frequency:    6.3426815152
  - # 11
    frequency:    6.4164195406
  - # 12
    frequency:    7.6727295721
  - # 13
    frequency:   10.7488810680
  - # 14
    frequency:   15.0273708683
  - # 15
    frequency:   16.0321049351
  - # 16
    frequency:   16.7075964682
  - # 17
    frequency:   19.0700390184
  - # 18
    frequency:   34.3813318087

- q-position: [    0.1717172,    0.0000000,    0.0000000 ]
  distance:    0.0640844
  band:
  - # 1
    frequency:   -9.3883810931
  - # 2
    frequency:   -3.0836915647
  - # 3
    frequency:   -1.4658441039
  - # 4
    frequency:    2.3134206454
  - # 5
    frequency:    2.5744095276
  - # 6
    frequency:    4.7865867277
  - # 7
    frequency:    5.1859747128
  - # 8
    frequency:    5.5016476607
  - # 9
    frequency:    5.5895648446
  - # 10
    frequency:    6.3949205687
  - # 11
    frequency:    6.5421130146
  - # 12
    frequency:    7.7372045164
  - # 13
    frequency:   10.7181869772
  - # 14
    frequency:   15.0311993274
  - # 15
    frequency:   16.0624388393
  - # 16
    frequency:   16.7366076470
  - # 17
    frequency:   19.0645363904
  - # 18
    frequency:   34.3703328450

- q-position: [    0.1767677,    0.0000000,    0.0000000 ]
  distance:    0.0659693
  band:
  - # 1
    frequency:   -9.2263700699
  - # 2
    frequency:   -2.8681182639
  - # 3
    frequency:   -1.4389972467
  - # 4
    frequency:    2.5072750954
  - # 5
    frequency:    2.6929066605
  - # 6
    frequency:    4.8275143699
  - # 7
    frequency:    5.2600960462
  - # 8
    frequency:    5.5328998086
  - # 9
    frequency:    5.8299509021
  - # 10
    frequency:    6.4522640643
  - # 11
    frequency:    6.7448214441
  - # 12
    frequency:    7.8033048203
  - # 13
    frequency:   10.6870027500
  - # 14