nqpoint: 300    
npath: 3      
segment_nqpoint:
- 100
- 100
- 100
labels:
- [ 'G', 'M' ]
- [ 'M', 'K' ]
- [ 'K', 'G' ]
reciprocal_lattice:
- [   0.28969828,   0.16725738,   0.00000000 ] # a*
- [   0.00000000,   0.33451476,   0.00000000 ] # b*
- [   0.00000000,   0.00000000,   0.04053406 ] # c*
natom: 6      
lattice:
- [     3.451867260086203,     0.000000000000000,     0.000000000000000 ] # a
- [    -1.725933630043101,     2.989404737720834,     0.000000000000000 ] # b
- [     0.000000000000000,     0.000000000000000,    24.670609756320516 ] # c
points:
- symbol: C # 1
  coordinates: [  0.000000000000000,  0.000000000000000,  0.483413774992176 ]
  mass: 12.010700
- symbol: Cl # 2
  coordinates: [  0.666666984744047,  0.333332985985145,  0.364806548719139 ]
  mass: 35.453000
- symbol: N # 3
  coordinates: [  0.333332985432215,  0.666666983183674,  0.581240828230317 ]
  mass: 14.006700
- symbol: O # 4
  coordinates: [  0.333332985432215,  0.666666983183674,  0.635193451280861 ]
  mass: 15.999400
- symbol: Zr # 5
  coordinates: [  0.333332985432215,  0.666666983183674,  0.438035779308850 ]
  mass: 91.224000
- symbol: Zr # 6
  coordinates: [  0.666666984744047,  0.333332985985145,  0.542575472160166 ]
  mass: 91.224000

phonon:
- q-position: [    0.0000000,    0.0000000,    0.0000000 ]
  distance:    0.0000000
  band:
  - # 1
    frequency:   -4.8525950358
  - # 2
    frequency:   -4.8525950358
  - # 3
    frequency:   -0.0000017412
  - # 4
    frequency:    0.0000008533
  - # 5
    frequency:    0.0000014944
  - # 6
    frequency:    3.3663694433
  - # 7
    frequency:    3.3663694433
  - # 8
    frequency:    5.0212400297
  - # 9
    frequency:    5.0212400297
  - # 10
    frequency:    5.2817945763
  - # 11
    frequency:    8.0155880496
  - # 12
    frequency:    9.0381416759
  - # 13
    frequency:   11.0047778506
  - # 14
    frequency:   11.0047778506
  - # 15
    frequency:   14.7782705063
  - # 16
    frequency:   14.7782705063
  - # 17
    frequency:   15.3323329227
  - # 18
    frequency:   38.6435853081

- q-position: [    0.0050505,    0.0000000,    0.0000000 ]
  distance:    0.0016895
  band:
  - # 1
    frequency:   -4.8533627485
  - # 2
    frequency:   -4.8524117257
  - # 3
    frequency:   -0.0612931587
  - # 4
    frequency:    0.0610914182
  - # 5
    frequency:    0.1226956204
  - # 6
    frequency:    3.3668471248
  - # 7
    frequency:    3.3676898806
  - # 8
    frequency:    5.0209859662
  - # 9
    frequency:    5.0213570599
  - # 10
    frequency:    5.2828760878
  - # 11
    frequency:    8.0149179983
  - # 12
    frequency:    9.0376831918
  - # 13
    frequency:   11.0034657728
  - # 14
    frequency:   11.0039924229
  - # 15
    frequency:   14.7778803784
  - # 16
    frequency:   14.7780747709
  - # 17
    frequency:   15.3332344548
  - # 18
    frequency:   38.6429681348

- q-position: [    0.0101010,    0.0000000,    0.0000000 ]
  distance:    0.0033789
  band:
  - # 1
    frequency:   -4.8556652140
  - # 2
    frequency:   -4.8518610002
  - # 3
    frequency:   -0.0703422988
  - # 4
    frequency:    0.1221909955
  - # 5
    frequency:    0.2239633352
  - # 6
    frequency:    3.3682787756
  - # 7
    frequency:    3.3716414995
  - # 8
    frequency:    5.0202428165
  - # 9
    frequency:    5.0217080345
  - # 10
    frequency:    5.2860994926
  - # 11
    frequency:    8.0129100517
  - # 12
    frequency:    9.0363080291
  - # 13
    frequency:   10.9995374581
  - # 14
    frequency:   11.0016397591
  - # 15
    frequency:   14.7767100481
  - # 16
    frequency:   14.7775058575
  - # 17
    frequency:   15.3359158773
  - # 18
    frequency:   38.6411177388

- q-position: [    0.0151515,    0.0000000,    0.0000000 ]
  distance:    0.0050684
  band:
  - # 1
    frequency:   -4.8595004044
  - # 2
    frequency:   -4.8509404644
  - # 3
    frequency:   -0.0762061372
  - # 4
    frequency:    0.1833067148
  - # 5
    frequency:    0.3280469176
  - # 6
    frequency:    3.3706602251
  - # 7
    frequency:    3.3781955136
  - # 8
    frequency:    5.0190648413
  - # 9
    frequency:    5.0222926047
  - # 10
    frequency:    5.2914042863
  - # 11
    frequency:    8.0095708320
  - # 12
    frequency:    9.0340170570
  - # 13
    frequency:   10.9930166572
  - # 14
    frequency:   10.9977307001
  - # 15
    frequency:   14.7747596870
  - # 16
    frequency:   14.7766169390
  - # 17
    frequency:   15.3403093865
  - # 18
    frequency:   38.6380374869

- q-position: [    0.0202020,    0.0000000,    0.0000000 ]
  distance:    0.0067579
  band:
  - # 1
    frequency:   -4.8648649044
  - # 2
    frequency:   -4.8496460943
  - # 3
    frequency:   -0.0805739783
  - # 4
    frequency:    0.2444462089
  - # 5
    frequency:    0.4332214693
  - # 6
    frequency:    3.3739845588
  - # 7
    frequency:    3.3873049004
  - # 8
    frequency:    5.0175338577
  - # 9
    frequency:    5.0231101916
  - # 10
    frequency:    5.2986983252
  - # 11
    frequency:    8.0049113776
  - # 12
    frequency:    9.0308117281
  - # 13
    frequency:   10.9839429333
  - # 14
    frequency:   10.9922832562
  - # 15
    frequency:   14.7720296151
  - # 16
    frequency:   14.7754912555
  - # 17
    frequency:   15.3463074030
  - # 18
    frequency:   38.6337329758

- q-position: [    0.0252525,    0.0000000,    0.0000000 ]
  distance:    0.0084473
  band:
  - # 1
    frequency:   -4.8717538582
  - # 2
    frequency:   -4.8479721891
  - # 3
    frequency:   -0.0823279723
  - # 4
    frequency:    0.3056165905
  - # 5
    frequency:    0.5387665301
  - # 6
    frequency:    3.3782421713
  - # 7
    frequency:    3.3989057669
  - # 8
    frequency:    5.0157490347
  - # 9
    frequency:    5.0241599874
  - # 10
    frequency:    5.3078681460
  - # 11
    frequency:    7.9989471479
  - # 12
    frequency:    9.0266940849
  - # 13
    frequency:   10.9723716156
  - # 14
    frequency:   10.9853225217
  - # 15
    frequency:   14.7685203520
  - # 16
    frequency:   14.7742350111
  - # 17
    frequency:   15.3537697526
  - # 18
    frequency:   38.6282120091

- q-position: [    0.0303030,    0.0000000,    0.0000000 ]
  distance:    0.0101368
  band:
  - # 1
    frequency:   -4.8801608964
  - # 2
    frequency:   -4.8459113066
  - # 3
    frequency:   -0.0794370693
  - # 4
    frequency:    0.3668242885
  - # 5
    frequency:    0.6443494060
  - # 6
    frequency:    3.3834208406
  - # 7
    frequency:    3.4129191377
  - # 8
    frequency:    5.0138166597
  - # 9
    frequency:    5.0254409593
  - # 10
    frequency:    5.3187893588
  - # 11
    frequency:    7.9916980322
  - # 12
    frequency:    9.0216667691
  - # 13
    frequency:   10.9583737085
  - # 14
    frequency:   10.9768805548
  - # 15
    frequency:   14.7642326870
  - # 16
    frequency:   14.7729690684
  - # 17
    frequency:   15.3625321018
  - # 18
    frequency:   38.6214845666

- q-position: [    0.0353535,    0.0000000,    0.0000000 ]
  distance:    0.0118263
  band:
  - # 1
    frequency:   -4.8900780423
  - # 2
    frequency:   -4.8434541834
  - # 3
    frequency:   -0.0682407860
  - # 4
    frequency:    0.4280748922
  - # 5
    frequency:    0.7497817872
  - # 6
    frequency:    3.3895058204
  - # 7
    frequency:    3.4292530577
  - # 8
    frequency:    5.0118416937
  - # 9
    frequency:    5.0269518533
  - # 10
    frequency:    5.3313352892
  - # 11
    frequency:    7.9831883686
  - # 12
    frequency:    9.0157330349
  - # 13
    frequency:   10.9420357344
  - # 14
    frequency:   10.9669962236
  - # 15
    frequency:   14.7591677666
  - # 16
    frequency:   14.7718205210
  - # 17
    frequency:   15.3724145846
  - # 18
    frequency:   38.6135627646

- q-position: [    0.0404040,    0.0000000,    0.0000000 ]
  distance:    0.0135157
  band:
  - # 1
    frequency:   -4.9014956000
  - # 2
    frequency:   -4.8405896434
  - # 3
    frequency:   -0.0364374740
  - # 4
    frequency:    0.4893730044
  - # 5
    frequency:    0.8549361140
  - # 6
    frequency:    3.3964799504
  - # 7
    frequency:    3.4478048930
  - # 8
    frequency:    5.0099218973
  - # 9
    frequency:    5.0286911985
  - # 10
    frequency:    5.3453830842
  - # 11
    frequency:    7.9734469745
  - # 12
    frequency:    9.0088967680
  - # 13
    frequency:   10.9234594833
  - # 14
    frequency:   10.9557150200
  - # 15
    frequency:   14.7533271985
  - # 16
    frequency:   14.7709150016
  - # 17
    frequency:   15.3832297804
  - # 18
    frequency:   38.6044608075

- q-position: [    0.0454545,    0.0000000,    0.0000000 ]
  distance:    0.0152052
  band:
  - # 1
    frequency:   -4.9144020242
  - # 2
    frequency:   -4.8373044958
  - # 3
    frequency:    0.0648860616
  - # 4
    frequency:    0.5507221064
  - # 5
    frequency:    0.9597131308
  - # 6
    frequency:    3.4043237822
  - # 7
    frequency:    3.4684637175
  - # 8
    frequency:    5.0081444643
  - # 9
    frequency:    5.0306573120
  - # 10
    frequency:    5.3608173387
  - # 11
    frequency:    7.9625071945
  - # 12
    frequency:    9.0011625098
  - # 13
    frequency:   10.9027616472
  - # 14
    frequency:   10.9430888402
  - # 15
    frequency:   14.7467131697
  - # 16
    frequency:   14.7703702649
  - # 17
    frequency:   15.3947895217
  - # 18
    frequency:   38.5941949322

- q-position: [    0.0505051,    0.0000000,    0.0000000 ]
  distance:    0.0168947
  band:
  - # 1
    frequency:   -4.9287837736
  - # 2
    frequency:   -4.8335834287
  - # 3
    frequency:    0.1118963988
  - # 4
    frequency:    0.6121244335
  - # 5
    frequency:    1.0640276585
  - # 6
    frequency:    3.4130157198
  - # 7
    frequency:    3.4911126790
  - # 8
    frequency:    5.0065846451
  - # 9
    frequency:    5.0328483046
  - # 10
    frequency:    5.3775317541
  - # 11
    frequency:    7.9504069695
  - # 12
    frequency:    8.9925354887
  - # 13
    frequency:   10.8800733181
  - # 14
    frequency:   10.9291757334
  - # 15
    frequency:   14.7393285766
  - # 16
    frequency:   14.7702912744
  - # 17
    frequency:   15.4069103149
  - # 18
    frequency:   38.5827833442

- q-position: [    0.0555556,    0.0000000,    0.0000000 ]
  distance:    0.0185842
  band:
  - # 1
    frequency:   -4.9446251505
  - # 2
    frequency:   -4.8294088990
  - # 3
    frequency:    0.1555230997
  - # 4
    frequency:    0.6735808645
  - # 5
    frequency:    1.1678016531
  - # 6
    frequency:    3.4225321707
  - # 7
    frequency:    3.5156312611
  - # 8
    frequency:    5.0053057267
  - # 9
    frequency:    5.0352620854
  - # 10
    frequency:    5.3954294552
  - # 11
    frequency:    7.9371889317
  - # 12
    frequency:    8.9830216610
  - # 13
    frequency:   10.8555393311
  - # 14
    frequency:   10.9140396196
  - # 15
    frequency:   14.7311771653
  - # 16
    frequency:   14.7707667848
  - # 17
    frequency:   15.4194173914
  - # 18
    frequency:   38.5702461472

- q-position: [    0.0606061,    0.0000000,    0.0000000 ]
  distance:    0.0202736
  band:
  - # 1
    frequency:   -4.9619081269
  - # 2
    frequency:   -4.8247610254
  - # 3
    frequency:    0.1995048182
  - # 4
    frequency:    0.7350908231
  - # 5
    frequency:    1.2709604757
  - # 6
    frequency:    3.4328477085
  - # 7
    frequency:    3.5418973738
  - # 8
    frequency:    5.0043598131
  - # 9
    frequency:    5.0378963679
  - # 10
    frequency:    5.4144225144
  - # 11
    frequency:    7.9229005279
  - # 12
    frequency:    8.9726277599
  - # 13
    frequency:   10.8293174470
  - # 14
    frequency:   10.8977499776
  - # 15
    frequency:   14.7222636794
  - # 16
    frequency:   14.7718672637
  - # 17
    frequency:   15.4321475452
  - # 18
    frequency:   38.5566052647

- q-position: [    0.0656566,    0.0000000,    0.0000000 ]
  distance:    0.0219631
  band:
  - # 1
    frequency:   -4.9806121620
  - # 2
    frequency:   -4.8196174863
  - # 3
    frequency:    0.2448595106
  - # 4
    frequency:    0.7966521940
  - # 5
    frequency:    1.3734306961
  - # 6
    frequency:    3.4439352426
  - # 7
    frequency:    3.5697892286
  - # 8
    frequency:    5.0037889935
  - # 9
    frequency:    5.0407486740
  - # 10
    frequency:    5.4344310856
  - # 11
    frequency:    7.9075941747
  - # 12
    frequency:    8.9613613571
  - # 13
    frequency:   10.8015773681
  - # 14
    frequency:   10.8803815026
  - # 15
    frequency:   14.7125940120
  - # 16
    frequency:   14.7736439317
  - # 17
    frequency:   15.4449509766
  - # 18
    frequency:   38.5418843571

- q-position: [    0.0707071,    0.0000000,    0.0000000 ]
  distance:    0.0236526
  band:
  - # 1
    frequency:   -5.0007140120
  - # 2
    frequency:   -4.8139534287
  - # 3
    frequency:    0.2919435488
  - # 4
    frequency:    0.8582612514
  - # 5
    frequency:    1.4751386778
  - # 6
    frequency:    3.4557661939
  - # 7
    frequency:    3.5991869749
  - # 8
    frequency:    5.0036266322
  - # 9
    frequency:    5.0438163390
  - # 10
    frequency:    5.4553824089
  - # 11
    frequency:    7.8913274458
  - # 12
    frequency:    8.9492309357
  - # 13
    frequency:   10.7724995968
  - # 14
    frequency:   10.8620137374
  - # 15
    frequency:   14.7021753614
  - # 16
    frequency:   14.7761286825
  - # 17
    frequency:   15.4576923652
  - # 18
    frequency:   38.5261087313

- q-position: [    0.0757576,    0.0000000,    0.0000000 ]
  distance:    0.0253420
  band:
  - # 1
    frequency:   -5.0221875369
  - # 2
    frequency:   -4.8077413899
  - # 3
    frequency:    0.3408682184
  - # 4
    frequency:    0.9199126017
  - # 5
    frequency:    1.5760095824
  - # 6
    frequency:    3.4683106749
  - # 7
    frequency:    3.6299740863
  - # 8
    frequency:    5.0038986190
  - # 9
    frequency:    5.0470965149
  - # 10
    frequency:    5.4772098354
  - # 11
    frequency:    7.8741632902
  - # 12
    frequency:    8.9362459763
  - # 13
    frequency:   10.7422741463
  - # 14
    frequency:   10.8427306757
  - # 15
    frequency:   14.6910163856
  - # 16
    frequency:   14.7793346665
  - # 17
    frequency:   15.4702513734
  - # 18
    frequency:   38.5093052467

- q-position: [    0.0808081,    0.0000000,    0.0000000 ]
  distance:    0.0270315
  band:
  - # 1
    frequency:   -5.0450035075
  - # 2
    frequency:   -4.8009512374
  - # 3
    frequency:    0.3916340313
  - # 4
    frequency:    0.9815991385
  - # 5
    frequency:    1.6759666148
  - # 6
    frequency:    3.4815376715
  - # 7
    frequency:    3.6620385040
  - # 8
    frequency:    5.0046245012
  - # 9
    frequency:    5.0505861734
  - # 10
    frequency:    5.4998519437
  - # 11
    frequency:    7.8561702796
  - # 12
    frequency:    8.9224170571
  - # 13
    frequency:   10.7110991257
  - # 14
    frequency:   10.8226203410
  - # 15
    frequency:   14.6791273546
  - # 16
    frequency:   14.7832573536
  - # 17
    frequency:   15.4825227444
  - # 18
    frequency:   38.4915022151

- q-position: [    0.0858586,    0.0000000,    0.0000000 ]
  distance:    0.0287210
  band:
  - # 1
    frequency:   -5.0691294166
  - # 2
    frequency:   -4.7935501297
  - # 3
    frequency:    0.4441855752
  - # 4
    frequency:    1.0433120104
  - # 5
    frequency:    1.7749304161
  - # 6
    frequency:    3.4954152258
  - # 7
    frequency:    3.6952735465
  - # 8
    frequency:    5.0058184642
  - # 9
    frequency:    5.0542821069
  - # 10
    frequency:    5.5232517741
  - # 11
    frequency:    7.8374228763
  - # 12
    frequency:    8.9077559681
  - # 13
    frequency:   10.6791792217
  - # 14
    frequency:   10.8017743420
  - # 15
    frequency:   14.6665202985
  - # 16
    frequency:   14.7878759252
  - # 17
    frequency:   15.4944161187
  - # 18
    frequency:   38.4727292983

- q-position: [    0.0909091,    0.0000000,    0.0000000 ]
  distance:    0.0304104
  band:
  - # 1
    frequency:   -5.0945292992
  - # 2
    frequency:   -4.7855024989
  - # 3
    frequency:    0.4984375177
  - # 4
    frequency:    1.1050405995
  - # 5
    frequency:    1.8728185612
  - # 6
    frequency:    3.5099106175
  - # 7
    frequency:    3.7295786042
  - # 8
    frequency:    5.0074901535
  - # 9
    frequency:    5.0581809295
  - # 10
    frequency:    5.5473561766
  - # 11
    frequency:    7.8180017155
  - # 12
    frequency:    8.8922758380
  - # 13
    frequency:   10.6467241086
  - # 14
    frequency:   10.7802874064
  - # 15
    frequency:   14.6532091469
  - # 16
    frequency:   14.7931548781
  - # 17
    frequency:   15.5058556612
  - # 18
    frequency:   38.4530174013

- q-position: [    0.0959596,    0.0000000,    0.0000000 ]
  distance:    0.0320999
  band:
  - # 1
    frequency:   -5.1211635662
  - # 2
    frequency:   -4.7767700605
  - # 3
    frequency:    0.5542882869
  - # 4
    frequency:    1.1667725127
  - # 5
    frequency:    1.9695451422
  - # 6
    frequency:    3.5249905432
  - # 7
    frequency:    3.7648596326
  - # 8
    frequency:    5.0096453513
  - # 9
    frequency:    5.0622790754
  - # 10
    frequency:    5.5721152553
  - # 11
    frequency:    7.7979938868
  - # 12
    frequency:    8.8759912751
  - # 13
    frequency:   10.6139468162
  - # 14
    frequency:   10.7582568963
  - # 15
    frequency:   14.6392098604
  - # 16
    frequency:   14.7990457542
  - # 17
    frequency:   15.5167795606
  - # 18
    frequency:   38.4323985631

- q-position: [    0.1010101,    0.0000000,    0.0000000 ]
  distance:    0.0337894
  band:
  - # 1
    frequency:   -5.1489888564
  - # 2
    frequency:   -4.7673118483
  - # 3
    frequency:    0.6116278413
  - # 4
    frequency:    1.2284935809
  - # 5
    frequency:    2.0650204397
  - # 6
    frequency:    3.5406212914
  - # 7
    frequency:    3.8010294604
  - # 8
    frequency:    5.0122865233
  - # 9
    frequency:    5.0665727964
  - # 10
    frequency:    5.5974818854
  - # 11
    frequency:    7.7774932015
  - # 12
    frequency:    8.8589185176
  - # 13
    frequency:   10.5810620911
  - # 14
    frequency:   10.7357823071
  - # 15
    frequency:   14.6245405498
  - # 16
    frequency:   14.8054889280
  - # 17
    frequency:   15.5271394445
  - # 18
    frequency:   38.4109058462

- q-position: [    0.1060606,    0.0000000,    0.0000000 ]
  distance:    0.0354788
  band:
  - # 1
    frequency:   -5.1779579120
  - # 2
    frequency:   -4.7570842760
  - # 3
    frequency:    0.6703423432
  - # 4
    frequency:    1.2901878695
  - # 5
    frequency:    2.1591506933
  - # 6
    frequency:    3.5567689124
  - # 7
    frequency:    3.8380079209
  - # 8
    frequency:    5.0154132571
  - # 9
    frequency:    5.0710581582
  - # 10
    frequency:    5.6234112770
  - # 11
    frequency:    7.7566004239
  - # 12
    frequency:    8.8410755925
  - # 13
    frequency:   10.5482847856
  - # 14
    frequency:   10.7129647524
  - # 15
    frequency:   14.6092215826
  - # 16
    frequency:   14.8124154056
  - # 17
    frequency:   15.5368997338
  - # 18
    frequency:   38.3885732240

- q-position: [    0.1111111,    0.0000000,    0.0000000 ]
  distance:    0.0371683
  band:
  - # 1
    frequency:   -5.2080194822
  - # 2
    frequency:   -4.7460412253
  - # 3
    frequency:    0.7303170990
  - # 4
    frequency:    1.3518376961
  - # 5
    frequency:    2.2518379940
  - # 6
    frequency:    3.5733993832
  - # 7
    frequency:    3.8757218102
  - # 8
    frequency:    5.0190226135
  - # 9
    frequency:    5.0757310340
  - # 10
    frequency:    5.6498605617
  - # 11
    frequency:    7.7354234449
  - # 12
    frequency:    8.8224824797
  - # 13
    frequency:   10.5158283079
  - # 14
    frequency:   10.6899064405
  - # 15
    frequency:   14.5932756743
  - # 16
    frequency:   14.8197486027
  - # 17
    frequency:   15.5460369526
  - # 18
    frequency:   38.3654354686

- q-position: [    0.1161616,    0.0000000,    0.0000000 ]
  distance:    0.0388578
  band:
  - # 1
    frequency:   -5.2391182593
  - # 2
    frequency:   -4.7341341588
  - # 3
    frequency:    0.7914384711
  - # 4
    frequency:    1.4134236573
  - # 5
    frequency:    2.3429803281
  - # 6
    frequency:    3.5904787635
  - # 7
    frequency:    3.9141046678
  - # 8
    frequency:    5.0231094130
  - # 9
    frequency:    5.0805870979
  - # 10
    frequency:    5.6767883798
  - # 11
    frequency:    7.7140773710
  - # 12
    frequency:    8.8031612759
  - # 13
    frequency:   10.4839031689
  - # 14
    frequency:   10.6667101424
  - # 15
    frequency:   14.5767279635
  - # 16
    frequency:   14.8274060782
  - # 17
    frequency:   15.5545389991
  - # 18
    frequency:   38.3415280379

- q-position: [    0.1212121,    0.0000000,    0.0000000 ]
  distance:    0.0405472
  band:
  - # 1
    frequency:   -5.2711948528
  - # 2
    frequency:   -4.7213122555
  - # 3
    frequency:    0.8535951552
  - # 4
    frequency:    1.4749246616
  - # 5
    frequency:    2.4324718092
  - # 6
    frequency:    3.6079733455
  - # 7
    frequency:    3.9530963709
  - # 8
    frequency:    5.0276664775
  - # 9
    frequency:    5.0856218163
  - # 10
    frequency:    5.7041544492
  - # 11
    frequency:    7.6926844975
  - # 12
    frequency:    8.7831363560
  - # 13
    frequency:   10.4527156536
  - # 14
    frequency:   10.6434786592
  - # 15
    frequency:   14.5596060693
  - # 16
    frequency:   14.8353012107
  - # 17
    frequency:   15.5624043798
  - # 18
    frequency:   38.3168869642

- q-position: [    0.1262626,    0.0000000,    0.0000000 ]
  distance:    0.0422367
  band:
  - # 1
    frequency:   -5.3041858045
  - # 2
    frequency:   -4.7075225658
  - # 3
    frequency:    0.9166790499
  - # 4
    frequency:    1.5363179694
  - # 5
    frequency:    2.5202031370
  - # 6
    frequency:    3.6258497934
  - # 7
    frequency:    3.9926425233
  - # 8
    frequency:    5.0326848490
  - # 9
    frequency:    5.0908304381
  - # 10
    frequency:    5.7319191040
  - # 11
    frequency:    7.6713741351
  - # 12
    frequency:    8.7624345249
  - # 13
    frequency:   10.4224666488
  - # 14
    frequency:   10.6203142907
  - # 15
    frequency:   14.5419401297
  - # 16
    frequency:   14.8433448102
  - # 17
    frequency:   15.5696414052
  - # 18
    frequency:   38.2915487439

- q-position: [    0.1313131,    0.0000000,    0.0000000 ]
  distance:    0.0439262
  band:
  - # 1
    frequency:   -5.3380236479
  - # 2
    frequency:   -4.6927101830
  - # 3
    frequency:    0.9805858575
  - # 4
    frequency:    1.5975792399
  - # 5
    frequency:    2.6060623255
  - # 6
    frequency:    3.6440752745
  - # 7
    frequency:    4.0326936213
  - # 8
    frequency:    5.0381540063
  - # 9
    frequency:    5.0962079843
  - # 10
    frequency:    5.7600427914
  - # 11
    frequency:    7.6502822529
  - # 12
    frequency:    8.7410851585
  - # 13
    frequency:   10.3933506474
  - # 14
    frequency:   10.5973183095
  - # 15
    frequency:   14.5237628201
  - # 16
    frequency:   14.8514466620
  - # 17
    frequency:   15.5762673454
  - # 18
    frequency:   38.2655502297

- q-position: [    0.1363636,    0.0000000,    0.0000000 ]
  distance:    0.0456156
  band:
  - # 1
    frequency:   -5.3726370161
  - # 2
    frequency:   -4.6768184273
  - # 3
    frequency:    1.0452155010
  - # 4
    frequency:    1.6586825826
  - # 5
    frequency:    2.6899357373
  - # 6
    frequency:    3.6626175789
  - # 7
    frequency:    4.0732039742
  - # 8
    frequency:    5.0440621018
  - # 9
    frequency:    5.1017492360
  - # 10
    frequency:    5.7884855279
  - # 11
    frequency:    7.6295509014
  - # 12
    frequency:    8.7191203282
  - # 13
    frequency:   10.3655549506
  - # 14
    frequency:   10.5745904477
  - # 15
    frequency:   14.5051093516
  - # 16
    frequency:   14.8595170014
  - # 17
    frequency:   15.5823075424
  - # 18
    frequency:   38.2389285254

- q-position: [    0.1414141,    0.0000000,    0.0000000 ]
  distance:    0.0473051
  band:
  - # 1
    frequency:   -5.4079507972
  - # 2
    frequency:   -4.6597890387
  - # 3
    frequency:    1.1104724142
  - # 4
    frequency:    1.7196006156
  - # 5
    frequency:    2.7717094556
  - # 6
    frequency:    3.6814452294
  - # 7
    frequency:    4.1141303638
  - # 8
    frequency:    5.0503962395
  - # 9
    frequency:    5.1074487235
  - # 10
    frequency:    5.8172063158
  - # 11
    frequency:    7.6093273761
  - # 12
    frequency:    8.6965749094
  - # 13
    frequency:   10.3392590770
  - # 14
    frequency:   10.5522283974
  - # 15
    frequency:   14.4860174470
  - # 16
    frequency:   14.8674679192
  - # 17
    frequency:   15.5877944795
  - # 18
    frequency:   38.2117208835

- q-position: [    0.1464646,    0.0000000,    0.0000000 ]
  distance:    0.0489946
  band:
  - # 1
    frequency:   -5.4438863421
  - # 2
    frequency:   -4.6415623730
  - # 3
    frequency:    1.1762657389
  - # 4
    frequency:    1.7803045283
  - # 5
    frequency:    2.8512710084
  - # 6
    frequency:    3.7005275794
  - # 7
    frequency:    4.1554304356
  - # 8
    frequency:    5.0571428195
  - # 9
    frequency:    5.1133007138
  - # 10
    frequency:    5.8461625371
  - # 11
    frequency:    7.5897630821
  - # 12
    frequency:    8.6734866737
  - # 13
    frequency:   10.3146343864
  - # 14
    frequency:   10.5303273323
  - # 15
    frequency:   14.4665272959
  - # 16
    frequency:   14.8752146966
  - # 17
    frequency:   15.5927668089
  - # 18
    frequency:   38.1839646082

- q-position: [    0.1515152,    0.0000000,    0.0000000 ]
  distance:    0.0506841
  band:
  - # 1
    frequency:   -5.4803617209
  - # 2
    frequency:   -4.6220775991
  - # 3
    frequency:    1.2425094560
  - # 4
    frequency:    1.8407641501
  - # 5
    frequency:    2.9285114366
  - # 6
    frequency:    3.7198348992
  - # 7
    frequency:    4.1970608329
  - # 8
    frequency:    5.0642879698
  - # 9
    frequency:    5.1192991999
  - # 10
    frequency:    5.8753093448
  - # 11
    frequency:    7.5710120611
  - # 12
    frequency:    8.6498963689
  - # 13
    frequency:   10.2918439108
  - # 14
    frequency:   10.5089794537
  - # 15
    frequency:   14.4466814872
  - # 16
    frequency:   14.8826770654
  - # 17
    frequency:   15.5972683447
  - # 18
    frequency:   38.1556969611

- q-position: [    0.1565657,    0.0000000,    0.0000000 ]
  distance:    0.0523735
  band:
  - # 1
    frequency:   -5.5172920293
  - # 2
    frequency:   -4.6012728924
  - # 3
    frequency:    1.3091224621
  - # 4
    frequency:    1.9009480244
  - # 5
    frequency:    3.0033276691
  - # 6
    frequency:    3.7393384501
  - # 7
    frequency:    4.2389751062
  - # 8
    frequency:    5.0718180934
  - # 9
    frequency:    5.1254378896
  - # 10
    frequency:    5.9045990875
  - # 11
    frequency:    7.5532291405
  - # 12
    frequency:    8.6258477931
  - # 13
    frequency:   10.2710423824
  - # 14
    frequency:   10.4882735654
  - # 15
    frequency:   14.4265249184
  - # 16
    frequency:   14.8897803863
  - # 17
    frequency:   15.6013470313
  - # 18
    frequency:   38.1269550729

- q-position: [    0.1616162,    0.0000000,    0.0000000 ]
  distance:    0.0540630
  band:
  - # 1
    frequency:   -5.5545897421
  - # 2
    frequency:   -4.5790856203
  - # 3
    frequency:    1.3760286057
  - # 4
    frequency:    1.9608234875
  - # 5
    frequency:    3.0756251295
  - # 6
    frequency:    3.7590105462
  - # 7
    frequency:    4.2811214586
  - # 8
    frequency:    5.0797205518
  - # 9
    frequency:    5.1317101969
  - # 10
    frequency:    5.9339808117
  - # 11
    frequency:    7.5365676714
  - # 12
    frequency:    8.6013878734
  - # 13
    frequency:   10.2523764351
  - # 14
    frequency:   10.4682946808
  - # 15
    frequency:   14.4061046841
  - # 16
    frequency:   14.8964567336
  - # 17
    frequency:   15.6050539026
  - # 18
    frequency:   38.0977758602

- q-position: [    0.1666667,    0.0000000,    0.0000000 ]
  distance:    0.0557525
  band:
  - # 1
    frequency:   -5.5921651113
  - # 2
    frequency:   -4.5554525191
  - # 3
    frequency:    1.4431566869
  - # 4
    frequency:    2.0203567539
  - # 5
    frequency:    3.1453204598
  - # 6
    frequency:    3.7788246042
  - # 7
    frequency:    4.3234404194
  - # 8
    frequency:    5.0879845101
  - # 9
    frequency:    5.1381092336
  - # 10
    frequency:    5.9633998964
  - # 11
    frequency:    7.5211768255
  - # 12
    frequency:    8.5765667628
  - # 13
    frequency:   10.2359849500
  - # 14
    frequency:   10.4491236662
  - # 15
    frequency:   14.3854699401
  - # 16
    frequency:   14.9026458686
  - # 17
    frequency:   15.6084420545
  - # 18
    frequency:   38.0681959476

- q-position: [    0.1717172,    0.0000000,    0.0000000 ]
  distance:    0.0574419
  band:
  - # 1
    frequency:   -5.6299266033
  - # 2
    frequency:   -4.5303098576
  - # 3
    frequency:    1.5104404256
  - # 4
    frequency:    2.0795130061
  - # 5
    frequency:    3.2123442103
  - # 6
    frequency:    3.7987551803
  - # 7
    frequency:    4.3658625614
  - # 8
    frequency:    5.0966019634
  - # 9
    frequency:    5.1446278044
  - # 10
    frequency:    5.9927978856
  - # 11
    frequency:    7.5071984312
  - # 12
    frequency:    8.5514379718
  - # 13
    frequency:   10.2219995053
  - # 14
    frequency:   10.4308369226
  - # 15
    frequency:   14.3646717471
  - # 16
    frequency:   14.9082960815
  - # 17
    frequency:   15.6115656554
  - # 18
    frequency:   38.0382515967

- q-position: [    0.1767677,    0.0000000,    0.0000000 ]
  distance:    0.0591314
  band:
  - # 1
    frequency:   -5.6677813730
  - # 2
    frequency:   -4.5035935862
  - # 3
    frequency:    1.5778184015
  - # 4
    frequency:    2.1382564914
  - # 5
    frequency:    3.2766433163
  - # 6
    frequency:    3.8187779953
  - # 7
    frequency:    4.4083063974
  - # 8
    frequency:    5.1055689625
  - # 9
    frequency:    5.1512584037
  - # 10
    frequency:    6.0221125831
  - # 11
    frequency:    7.4947633464
  - # 12
    frequency:    8.5260585544
  - # 13
    frequency:   10.2105448857
  - # 14