nqpoint: 300    
npath: 3      
segment_nqpoint:
- 100
- 100
- 100
labels:
- [ 'G', 'M' ]
- [ 'M', 'K' ]
- [ 'K', 'G' ]
reciprocal_lattice:
- [   0.29845789,   0.17231474,   0.00000000 ] # a*
- [   0.00000000,   0.34462948,   0.00000000 ] # b*
- [   0.00000000,   0.00000000,   0.03424486 ] # c*
natom: 8      
lattice:
- [     3.350556443889616,     0.000000000000000,     0.000000000000000 ] # a
- [    -1.675278221944808,     2.901666997219916,     0.000000000000000 ] # b
- [     0.000000000000000,     0.000000000000000,    29.201461337396470 ] # c
points:
- symbol: C # 1
  coordinates: [  0.000000000000000,  0.000000000000000,  0.494624836381238 ]
  mass: 12.010700
- symbol: C # 2
  coordinates: [  0.666666984744047,  0.333332985985145,  0.361313336075640 ]
  mass: 12.010700
- symbol: Cl # 3
  coordinates: [  0.333332985432215,  0.666666983183674,  0.691796246221614 ]
  mass: 35.453000
- symbol: N # 4
  coordinates: [  0.666666984744047,  0.333332985985145,  0.404423962699764 ]
  mass: 14.006700
- symbol: O # 5
  coordinates: [  0.333332985432215,  0.666666983183674,  0.574253273242092 ]
  mass: 15.999400
- symbol: S # 6
  coordinates: [  0.666666984744047,  0.333332985985145,  0.308203753778386 ]
  mass: 32.065000
- symbol: Zr # 7
  coordinates: [  0.333332985432215,  0.666666983183674,  0.451310225388083 ]
  mass: 91.224000
- symbol: Zr # 8
  coordinates: [  0.666666984744047,  0.333332985985145,  0.544271768616011 ]
  mass: 91.224000

phonon:
- q-position: [    0.0000000,    0.0000000,    0.0000000 ]
  distance:    0.0000000
  band:
  - # 1
    frequency:   -2.2319379160
  - # 2
    frequency:   -2.2319379160
  - # 3
    frequency:   -1.0716368083
  - # 4
    frequency:   -1.0716368083
  - # 5
    frequency:   -0.0000086250
  - # 6
    frequency:   -0.0000001792
  - # 7
    frequency:    0.0000059883
  - # 8
    frequency:    1.2820740428
  - # 9
    frequency:    3.7914325131
  - # 10
    frequency:    3.7914325131
  - # 11
    frequency:    5.5326839611
  - # 12
    frequency:    7.2299168955
  - # 13
    frequency:    7.2299168955
  - # 14
    frequency:    7.9505095665
  - # 15
    frequency:    9.2814360834
  - # 16
    frequency:    9.2814360834
  - # 17
    frequency:   12.9657033713
  - # 18
    frequency:   12.9657033713
  - # 19
    frequency:   13.7327241534
  - # 20
    frequency:   13.8651545772
  - # 21
    frequency:   13.8651545772
  - # 22
    frequency:   18.8275257880
  - # 23
    frequency:   26.8901300403
  - # 24
    frequency:   56.2508079113

- q-position: [    0.0050505,    0.0000000,    0.0000000 ]
  distance:    0.0017406
  band:
  - # 1
    frequency:   -2.2340344787
  - # 2
    frequency:   -2.2325836085
  - # 3
    frequency:   -1.0708572533
  - # 4
    frequency:   -1.0687951261
  - # 5
    frequency:   -0.0040011708
  - # 6
    frequency:    0.0564527321
  - # 7
    frequency:    0.0594186701
  - # 8
    frequency:    1.2833689911
  - # 9
    frequency:    3.7912591936
  - # 10
    frequency:    3.7920970603
  - # 11
    frequency:    5.5324149957
  - # 12
    frequency:    7.2300047326
  - # 13
    frequency:    7.2301530352
  - # 14
    frequency:    7.9495058422
  - # 15
    frequency:    9.2807524158
  - # 16
    frequency:    9.2823483858
  - # 17
    frequency:   12.9659247286
  - # 18
    frequency:   12.9659792050
  - # 19
    frequency:   13.7322753495
  - # 20
    frequency:   13.8643893635
  - # 21
    frequency:   13.8643976535
  - # 22
    frequency:   18.8257632124
  - # 23
    frequency:   26.8899233842
  - # 24
    frequency:   56.2500456091

- q-position: [    0.0101010,    0.0000000,    0.0000000 ]
  distance:    0.0034811
  band:
  - # 1
    frequency:   -2.2403410665
  - # 2
    frequency:   -2.2345153964
  - # 3
    frequency:   -1.0685189171
  - # 4
    frequency:   -1.0602271193
  - # 5
    frequency:   -0.0155802016
  - # 6
    frequency:    0.1129364750
  - # 7
    frequency:    0.1205740888
  - # 8
    frequency:    1.2872362739
  - # 9
    frequency:    3.7907422709
  - # 10
    frequency:    3.7940866874
  - # 11
    frequency:    5.5316102212
  - # 12
    frequency:    7.2302643632
  - # 13
    frequency:    7.2308588374
  - # 14
    frequency:    7.9464999296
  - # 15
    frequency:    9.2786945581
  - # 16
    frequency:    9.2850831868
  - # 17
    frequency:   12.9665867325
  - # 18
    frequency:   12.9668045104
  - # 19
    frequency:   13.7309255941
  - # 20
    frequency:   13.8621022014
  - # 21
    frequency:   13.8621313278
  - # 22
    frequency:   18.8204840110
  - # 23
    frequency:   26.8893039004
  - # 24
    frequency:   56.2477600743

- q-position: [    0.0151515,    0.0000000,    0.0000000 ]
  distance:    0.0052217
  band:
  - # 1
    frequency:   -2.2509032248
  - # 2
    frequency:   -2.2377175912
  - # 3
    frequency:   -1.0646221403
  - # 4
    frequency:   -1.0458015856
  - # 5
    frequency:   -0.0335511719
  - # 6
    frequency:    0.1694797934
  - # 7
    frequency:    0.1848099172
  - # 8
    frequency:    1.2936252692
  - # 9
    frequency:    3.7898908257
  - # 10
    frequency:    3.7973894037
  - # 11
    frequency:    5.5302759844
  - # 12
    frequency:    7.2306842508
  - # 13
    frequency:    7.2320265073
  - # 14
    frequency:    7.9415075540
  - # 15
    frequency:    9.2752420344
  - # 16
    frequency:    9.2896341205
  - # 17
    frequency:   12.9676831576
  - # 18
    frequency:   12.9681726860
  - # 19
    frequency:   13.7286644910
  - # 20
    frequency:   13.8583189197
  - # 21
    frequency:   13.8583689432
  - # 22
    frequency:   18.8117137491
  - # 23
    frequency:   26.8882730414
  - # 24
    frequency:   56.2439554177

- q-position: [    0.0202020,    0.0000000,    0.0000000 ]
  distance:    0.0069622
  band:
  - # 1
    frequency:   -2.2657806974
  - # 2
    frequency:   -2.2421646308
  - # 3
    frequency:   -1.0591653844
  - # 4
    frequency:   -1.0252928199
  - # 5
    frequency:   -0.0562834268
  - # 6
    frequency:    0.2261065902
  - # 7
    frequency:    0.2528853866
  - # 8
    frequency:    1.3024585498
  - # 9
    frequency:    3.7887199012
  - # 10
    frequency:    3.8019853984
  - # 11
    frequency:    5.5284228009
  - # 12
    frequency:    7.2312455177
  - # 13
    frequency:    7.2336432345
  - # 14
    frequency:    7.9345547400
  - # 15
    frequency:    9.2703610184
  - # 16
    frequency:    9.2959904202
  - # 17
    frequency:   12.9692035566
  - # 18
    frequency:   12.9700726822
  - # 19
    frequency:   13.7254734917
  - # 20
    frequency:   13.8530838794
  - # 21
    frequency:   13.8531327616
  - # 22
    frequency:   18.7994949981
  - # 23
    frequency:   26.8868332265
  - # 24
    frequency:   56.2386384781

- q-position: [    0.0252525,    0.0000000,    0.0000000 ]
  distance:    0.0087028
  band:
  - # 1
    frequency:   -2.2850265652
  - # 2
    frequency:   -2.2478219035
  - # 3
    frequency:   -1.0521422371
  - # 4
    frequency:   -0.9983728604
  - # 5
    frequency:   -0.0819431314
  - # 6
    frequency:    0.2828343314
  - # 7
    frequency:    0.3250007339
  - # 8
    frequency:    1.3136423859
  - # 9
    frequency:    3.7872503670
  - # 10
    frequency:    3.8078472855
  - # 11
    frequency:    5.5260652561
  - # 12
    frequency:    7.2319224574
  - # 13
    frequency:    7.2356914471
  - # 14
    frequency:    7.9256775443
  - # 15
    frequency:    9.2640047962
  - # 16
    frequency:    9.3041366953
  - # 17
    frequency:   12.9711331475
  - # 18
    frequency:   12.9724889286
  - # 19
    frequency:   13.7213240690
  - # 20
    frequency:   13.8464539994
  - # 21
    frequency:   13.8464619391
  - # 22
    frequency:   18.7838872759
  - # 23
    frequency:   26.8849878398
  - # 24
    frequency:   56.2318188028

- q-position: [    0.0303030,    0.0000000,    0.0000000 ]
  distance:    0.0104433
  band:
  - # 1
    frequency:   -2.3086641796
  - # 2
    frequency:   -2.2546468027
  - # 3
    frequency:   -1.0435375258
  - # 4
    frequency:   -0.9646077794
  - # 5
    frequency:   -0.1085782310
  - # 6
    frequency:    0.3396728761
  - # 7
    frequency:    0.4009298611
  - # 8
    frequency:    1.3270812825
  - # 9
    frequency:    3.7855087280
  - # 10
    frequency:    3.8149404194
  - # 11
    frequency:    5.5232218566
  - # 12
    frequency:    7.2326832246
  - # 13
    frequency:    7.2381491309
  - # 14
    frequency:    7.9149216989
  - # 15
    frequency:    9.2561144389
  - # 16
    frequency:    9.3140526386
  - # 17
    frequency:   12.9734526458
  - # 18
    frequency:   12.9754012289
  - # 19
    frequency:   13.7161752326
  - # 20
    frequency:   13.8383728809
  - # 21
    frequency:   13.8385411428
  - # 22
    frequency:   18.7649669549
  - # 23
    frequency:   26.8827412266
  - # 24
    frequency:   56.2235086209

- q-position: [    0.0353535,    0.0000000,    0.0000000 ]
  distance:    0.0121839
  band:
  - # 1
    frequency:   -2.3366665202
  - # 2
    frequency:   -2.2625899288
  - # 3
    frequency:   -1.0333227964
  - # 4
    frequency:   -0.9234709752
  - # 5
    frequency:   -0.1340035922
  - # 6
    frequency:    0.3966240136
  - # 7
    frequency:    0.4801651121
  - # 8
    frequency:    1.3426959370
  - # 9
    frequency:    3.7835268799
  - # 10
    frequency:    3.8232232570
  - # 11
    frequency:    5.5199148209
  - # 12
    frequency:    7.2334906812
  - # 13
    frequency:    7.2409901818
  - # 14
    frequency:    7.9023421816
  - # 15
    frequency:    9.2466197111
  - # 16
    frequency:    9.3257126861
  - # 17
    frequency:   12.9761380305
  - # 18
    frequency:   12.9787846200
  - # 19
    frequency:   13.7099706263
  - # 20
    frequency:   13.8289387112
  - # 21
    frequency:   13.8294358925
  - # 22
    frequency:   18.7428271283
  - # 23
    frequency:   26.8800986891
  - # 24
    frequency:   56.2137228088

- q-position: [    0.0404040,    0.0000000,    0.0000000 ]
  distance:    0.0139244
  band:
  - # 1
    frequency:   -2.3689418996
  - # 2
    frequency:   -2.2715963536
  - # 3
    frequency:   -1.0214514130
  - # 4
    frequency:   -0.8744074810
  - # 5
    frequency:   -0.1553929178
  - # 6
    frequency:    0.4536817350
  - # 7
    frequency:    0.5620344691
  - # 8
    frequency:    1.3604437604
  - # 9
    frequency:    3.7813418103
  - # 10
    frequency:    3.8326477372
  - # 11
    frequency:    5.5161697966
  - # 12
    frequency:    7.2343033669
  - # 13
    frequency:    7.2441847462
  - # 14
    frequency:    7.8880027401
  - # 15
    frequency:    9.2354402443
  - # 16
    frequency:    9.3390856525
  - # 17
    frequency:   12.9791602288
  - # 18
    frequency:   12.9826091909
  - # 19
    frequency:   13.7026358106
  - # 20
    frequency:   13.8182099724
  - # 21
    frequency:   13.8192900183
  - # 22
    frequency:   18.7175774271
  - # 23
    frequency:   26.8770664807
  - # 24
    frequency:   56.2024788489

- q-position: [    0.0454545,    0.0000000,    0.0000000 ]
  distance:    0.0156650
  band:
  - # 1
    frequency:   -2.4053282445
  - # 2
    frequency:   -2.2816068685
  - # 3
    frequency:   -1.0078534931
  - # 4
    frequency:   -0.8170468349
  - # 5
    frequency:   -0.1681884180
  - # 6
    frequency:    0.5108331873
  - # 7
    frequency:    0.6457842754
  - # 8
    frequency:    1.3803411951
  - # 9
    frequency:    3.7789952478
  - # 10
    frequency:    3.8431596503
  - # 11
    frequency:    5.5120154869
  - # 12
    frequency:    7.2350765617
  - # 13
    frequency:    7.2476994999
  - # 14
    frequency:    7.8719753988
  - # 15
    frequency:    9.2224870148
  - # 16
    frequency:    9.3541343675
  - # 17
    frequency:   12.9824846976
  - # 18
    frequency:   12.9868398562
  - # 19
    frequency:   13.6940769450
  - # 20
    frequency:   13.8062544459
  - # 21
    frequency:   13.8082785437
  - # 22
    frequency:   18.6893437725
  - # 23
    frequency:   26.8736517985
  - # 24
    frequency:   56.1897967804

- q-position: [    0.0505051,    0.0000000,    0.0000000 ]
  distance:    0.0174055
  band:
  - # 1
    frequency:   -2.4455960601
  - # 2
    frequency:   -2.2925591485
  - # 3
    frequency:   -0.9924307940
  - # 4
    frequency:   -0.7518477985
  - # 5
    frequency:   -0.1626878726
  - # 6
    frequency:    0.5680601890
  - # 7
    frequency:    0.7306309191
  - # 8
    frequency:    1.4024874061
  - # 9
    frequency:    3.7765332602
  - # 10
    frequency:    3.8546989710
  - # 11
    frequency:    5.5074831659
  - # 12
    frequency:    7.2357634062
  - # 13
    frequency:    7.2514978058
  - # 14
    frequency:    7.8543399917
  - # 15
    frequency:    9.2076641661
  - # 16
    frequency:    9.3708153433
  - # 17
    frequency:   12.9860708752
  - # 18
    frequency:   12.9914360794
  - # 19
    frequency:   13.6841828998
  - # 20
    frequency:   13.7931493677
  - # 21
    frequency:   13.7966061392
  - # 22
    frequency:   18.6582680513
  - # 23
    frequency:   26.8698627745
  - # 24
    frequency:   56.1756991432

- q-position: [    0.0555556,    0.0000000,    0.0000000 ]
  distance:    0.0191461
  band:
  - # 1
    frequency:   -2.4894583467
  - # 2
    frequency:   -2.3043887842
  - # 3
    frequency:   -0.9750515241
  - # 4
    frequency:   -0.6818627768
  - # 5
    frequency:   -0.1057670057
  - # 6
    frequency:    0.6253411374
  - # 7
    frequency:    0.8157869599
  - # 8
    frequency:    1.4270890355
  - # 9
    frequency:    3.7740058037
  - # 10
    frequency:    3.8672001273
  - # 11
    frequency:    5.5026060601
  - # 12
    frequency:    7.2363160422
  - # 13
    frequency:    7.2555396794
  - # 14
    frequency:    7.8351837754
  - # 15
    frequency:    9.1908712247
  - # 16
    frequency:    9.3890784975
  - # 17
    frequency:   12.9898714661
  - # 18
    frequency:   12.9963515401
  - # 19
    frequency:   13.6728334106
  - # 20
    frequency:   13.7789816164
  - # 21
    frequency:   13.7844996818
  - # 22
    frequency:   18.6245076993
  - # 23
    frequency:   26.8657084650
  - # 24
    frequency:   56.1602109157

- q-position: [    0.0606061,    0.0000000,    0.0000000 ]
  distance:    0.0208866
  band:
  - # 1
    frequency:   -2.5365847088
  - # 2
    frequency:   -2.3170301518
  - # 3
    frequency:   -0.9555448613
  - # 4
    frequency:   -0.6159364608
  - # 5
    frequency:    0.1745603729
  - # 6
    frequency:    0.6826531173
  - # 7
    frequency:    0.9004686989
  - # 8
    frequency:    1.4544847586
  - # 9
    frequency:    3.7714662260
  - # 10
    frequency:    3.8805921882
  - # 11
    frequency:    5.4974185711
  - # 12
    frequency:    7.2366867405
  - # 13
    frequency:    7.2597814778
  - # 14
    frequency:    7.8146011962
  - # 15
    frequency:    9.1720057569
  - # 16
    frequency:    9.4088669594
  - # 17
    frequency:   12.9938315141
  - # 18
    frequency:   13.0015337414
  - # 19
    frequency:   13.6599152706
  - # 20
    frequency:   13.7638479414
  - # 21
    frequency:   13.7721929642
  - # 22
    frequency:   18.5882351753
  - # 23
    frequency:   26.8611988370
  - # 24
    frequency:   56.1433594449

- q-position: [    0.0656566,    0.0000000,    0.0000000 ]
  distance:    0.0226272
  band:
  - # 1
    frequency:   -2.5866167999
  - # 2
    frequency:   -2.3304171047
  - # 3
    frequency:   -0.9336947139
  - # 4
    frequency:   -0.5674146715
  - # 5
    frequency:    0.3341592595
  - # 6
    frequency:    0.7399740283
  - # 7
    frequency:    0.9838958187
  - # 8
    frequency:    1.4851649764
  - # 9
    frequency:    3.7689707280
  - # 10
    frequency:    3.8947989500
  - # 11
    frequency:    5.4919553096
  - # 12
    frequency:    7.2368289836
  - # 13
    frequency:    7.2641752026
  - # 14
    frequency:    7.7926939151
  - # 15
    frequency:    9.1509665191
  - # 16
    frequency:    9.4301169800
  - # 17
    frequency:   12.9978872036
  - # 18
    frequency:   13.0069235560
  - # 19
    frequency:   13.6453456769
  - # 20
    frequency:   13.7478552272
  - # 21
    frequency:   13.7599044920
  - # 22
    frequency:   18.5496373104
  - # 23
    frequency:   26.8563447532
  - # 24
    frequency:   56.1251743707

- q-position: [    0.0707071,    0.0000000,    0.0000000 ]
  distance:    0.0243677
  band:
  - # 1
    frequency:   -2.6391828335
  - # 2
    frequency:   -2.3444834903
  - # 3
    frequency:   -0.9092319338
  - # 4
    frequency:   -0.5410729307
  - # 5
    frequency:    0.4815163284
  - # 6
    frequency:    0.7972845806
  - # 7
    frequency:    1.0653005446
  - # 8
    frequency:    1.5197744243
  - # 9
    frequency:    3.7665777894
  - # 10
    frequency:    3.9097389108
  - # 11
    frequency:    5.4862499172
  - # 12
    frequency:    7.2366984751
  - # 13
    frequency:    7.2686672746
  - # 14
    frequency:    7.7695712376
  - # 15
    frequency:    9.1276571495
  - # 16
    frequency:    9.4527579645
  - # 17
    frequency:   13.0019643218
  - # 18
    frequency:   13.0124547144
  - # 19
    frequency:   13.6290971965
  - # 20
    frequency:   13.7311207911
  - # 21
    frequency:   13.7478139663
  - # 22
    frequency:   18.5089145158
  - # 23
    frequency:   26.8511579535
  - # 24
    frequency:   56.1056875443

- q-position: [    0.0757576,    0.0000000,    0.0000000 ]
  distance:    0.0261083
  band:
  - # 1
    frequency:   -2.6939097683
  - # 2
    frequency:   -2.3591635033
  - # 3
    frequency:   -0.8818237125
  - # 4
    frequency:   -0.5298527519
  - # 5
    frequency:    0.6155552349
  - # 6
    frequency:    0.8545700490
  - # 7
    frequency:    1.1439729682
  - # 8
    frequency:    1.5590737310
  - # 9
    frequency:    3.7643475629
  - # 10
    frequency:    3.9253251237
  - # 11
    frequency:    5.4803336472
  - # 12
    frequency:    7.2362540541
  - # 13
    frequency:    7.2731965732
  - # 14
    frequency:    7.7453511646
  - # 15
    frequency:    9.1019904472
  - # 16
    frequency:    9.4767126384
  - # 17
    frequency:   13.0059762992
  - # 18
    frequency:   13.0180532498
  - # 19
    frequency:   13.6112157942
  - # 20
    frequency:   13.7137726996
  - # 21
    frequency:   13.7360460889
  - # 22
    frequency:   18.4662798349
  - # 23
    frequency:   26.8456510341
  - # 24
    frequency:   56.0849329401

- q-position: [    0.0808081,    0.0000000,    0.0000000 ]
  distance:    0.0278488
  band:
  - # 1
    frequency:   -2.7504326052
  - # 2
    frequency:   -2.3743918948
  - # 3
    frequency:   -0.8510581110
  - # 4
    frequency:   -0.5255055294
  - # 5
    frequency:    0.7357558817
  - # 6
    frequency:    0.9118217263
  - # 7
    frequency:    1.2193716185
  - # 8
    frequency:    1.6038280835
  - # 9
    frequency:    3.7623412470
  - # 10
    frequency:    3.9414649228
  - # 11
    frequency:    5.4742336872
  - # 12
    frequency:    7.2354584972
  - # 13
    frequency:    7.2776914403
  - # 14
    frequency:    7.7201623904
  - # 15
    frequency:    9.0738932752
  - # 16
    frequency:    9.5018973543
  - # 17
    frequency:   13.0098217476
  - # 18
    frequency:   13.0236369262
  - # 19
    frequency:   13.5918257923
  - # 20
    frequency:   13.6959500726
  - # 21
    frequency:   13.7246679001
  - # 22
    frequency:   18.4219578255
  - # 23
    frequency:   26.8398374229
  - # 24
    frequency:   56.0629465629

- q-position: [    0.0858586,    0.0000000,    0.0000000 ]
  distance:    0.0295894
  band:
  - # 1
    frequency:   -2.8084008435
  - # 2
    frequency:   -2.3901040633
  - # 3
    frequency:   -0.8164202886
  - # 4
    frequency:   -0.5227200285
  - # 5
    frequency:    0.8432087227
  - # 6
    frequency:    0.9690380515
  - # 7
    frequency:    1.2912992450
  - # 8
    frequency:    1.6546109194
  - # 9
    frequency:    3.7606204442
  - # 10
    frequency:    3.9580595179
  - # 11
    frequency:    5.4679712181
  - # 12
    frequency:    7.2342791969
  - # 13
    frequency:    7.2820651839
  - # 14
    frequency:    7.6941477454
  - # 15
    frequency:    9.0433121080
  - # 16
    frequency:    9.5282225388
  - # 17
    frequency:   13.0133814284
  - # 18
    frequency:   13.0291147032
  - # 19
    frequency:   13.5711225770
  - # 20
    frequency:   13.6778033245
  - # 21
    frequency:   13.7136989016
  - # 22
    frequency:   18.3761832642
  - # 23
    frequency:   26.8337313519
  - # 24
    frequency:   56.0397663494

- q-position: [    0.0909091,    0.0000000,    0.0000000 ]
  distance:    0.0313300
  band:
  - # 1
    frequency:   -2.8674824875
  - # 2
    frequency:   -2.4062360535
  - # 3
    frequency:   -0.7772543004
  - # 4
    frequency:   -0.5183115743
  - # 5
    frequency:    0.9389286728
  - # 6
    frequency:    1.0262254162
  - # 7
    frequency:    1.3600623697
  - # 8
    frequency:    1.7115800483
  - # 9
    frequency:    3.7592465165
  - # 10
    frequency:    3.9750034525
  - # 11
    frequency:    5.4615592207
  - # 12
    frequency:    7.2326887125
  - # 13
    frequency:    7.2862093641
  - # 14
    frequency:    7.6674698518
  - # 15
    frequency:    9.0102192213
  - # 16
    frequency:    9.5555932743
  - # 17
    frequency:   13.0165146432
  - # 18
    frequency:   13.0343863236
  - # 19
    frequency:   13.5493595279
  - # 20
    frequency:   13.6594942547
  - # 21
    frequency:   13.7031275001
  - # 22
    frequency:   18.3291996650
  - # 23
    frequency:   26.8273478257
  - # 24
    frequency:   56.0154320648

- q-position: [    0.0959596,    0.0000000,    0.0000000 ]
  distance:    0.0330705
  band:
  - # 1
    frequency:   -2.9273661312
  - # 2
    frequency:   -2.4227244906
  - # 3
    frequency:   -0.7326987169
  - # 4
    frequency:   -0.5101461187
  - # 5
    frequency:    1.0235651467
  - # 6
    frequency:    1.0833986678
  - # 7
    frequency:    1.4264541400
  - # 8
    frequency:    1.7743586062
  - # 9
    frequency:    3.7582799471
  - # 10
    frequency:    3.9921839215
  - # 11
    frequency:    5.4550000804
  - # 12
    frequency:    7.2306651930
  - # 13
    frequency:    7.2899837465
  - # 14
    frequency:    7.6403201753
  - # 15
    frequency:    8.9746194890
  - # 16
    frequency:    9.5839100042
  - # 17
    frequency:   13.0190551751
  - # 18
    frequency:   13.0393421591
  - # 19
    frequency:   13.5268360381
  - # 20
    frequency:   13.6411958508
  - # 21
    frequency:   13.6929267815
  - # 22
    frequency:   18.2812576127
  - # 23
    frequency:   26.8207025860
  - # 24
    frequency:   55.9899851958

- q-position: [    0.1010101,    0.0000000,    0.0000000 ]
  distance:    0.0348111
  band:
  - # 1
    frequency:   -2.9877616485
  - # 2
    frequency:   -2.4395064751
  - # 3
    frequency:   -0.6815715338
  - # 4
    frequency:   -0.4964957330
  - # 5
    frequency:    1.0976288706
  - # 6
    frequency:    1.1405813230
  - # 7
    frequency:    1.4914626067
  - # 8
    frequency:    1.8421180645
  - # 9
    frequency:    3.7577797235
  - # 10
    frequency:    4.0094799366
  - # 11
    frequency:    5.4482830845
  - # 12
    frequency:    7.2281926772
  - # 13
    frequency:    7.2932012521
  - # 14
    frequency:    7.6129332327
  - # 15
    frequency:    8.9365576959
  - # 16
    frequency:    9.6130693461
  - # 17
    frequency:   13.0208071893
  - # 18
    frequency:   13.0438635124
  - # 19
    frequency:   13.5038900456
  - # 20
    frequency:   13.6230916096
  - # 21
    frequency:   13.6830657955
  - # 22
    frequency:   18.2326129152
  - # 23
    frequency:   26.8138120721
  - # 24
    frequency:   55.9634688381

- q-position: [    0.1060606,    0.0000000,    0.0000000 ]
  distance:    0.0365516
  band:
  - # 1
    frequency:   -3.0483999385
  - # 2
    frequency:   -2.4565194624
  - # 3
    frequency:   -0.6221473578
  - # 4
    frequency:   -0.4756269836
  - # 5
    frequency:    1.1617909754
  - # 6
    frequency:    1.1978055026
  - # 7
    frequency:    1.5558282875
  - # 8
    frequency:    1.9138089075
  - # 9
    frequency:    3.7578027512
  - # 10
    frequency:    4.0267613273
  - # 11
    frequency:    5.4413819798
  - # 12
    frequency:    7.2252612783
  - # 13
    frequency:    7.2956056386
  - # 14
    frequency:    7.5856083339
  - # 15
    frequency:    8.8961262080
  - # 16
    frequency:    9.6429649959
  - # 17
    frequency:   13.0215419954
  - # 18
    frequency:   13.0478236455
  - # 19
    frequency:   13.4808946786
  - # 20
    frequency:   13.6053741040
  - # 21
    frequency:   13.6735158550
  - # 22
    frequency:   18.1835245876
  - # 23
    frequency:   26.8066933773
  - # 24
    frequency:   55.9359275816

- q-position: [    0.1111111,    0.0000000,    0.0000000 ]
  distance:    0.0382922
  band:
  - # 1
    frequency:   -3.1090320849
  - # 2
    frequency:   -2.4737011448
  - # 3
    frequency:   -0.5516741521
  - # 4
    frequency:   -0.4454102844
  - # 5
    frequency:    1.2170458970
  - # 6
    frequency:    1.2551115773
  - # 7
    frequency:    1.6197232171
  - # 8
    frequency:    1.9883913738
  - # 9
    frequency:    3.7584033143
  - # 10
    frequency:    4.0438875595
  - # 11
    frequency:    5.4342528552
  - # 12
    frequency:    7.2218672658
  - # 13
    frequency:    7.2968396840
  - # 14
    frequency:    7.5587412350
  - # 15
    frequency:    8.8534727383
  - # 16
    frequency:    9.6734886990
  - # 17
    frequency:   13.0209973665
  - # 18
    frequency:   13.0510898737
  - # 19
    frequency:   13.4582561171
  - # 20
    frequency:   13.5882424620
  - # 21
    frequency:   13.6642530675
  - # 22
    frequency:   18.1342526849
  - # 23
    frequency:   26.7993642012
  - # 24
    frequency:   55.9074073917

- q-position: [    0.1161616,    0.0000000,    0.0000000 ]
  distance:    0.0400327
  band:
  - # 1
    frequency:   -3.1694281880
  - # 2
    frequency:   -2.4909893534
  - # 3
    frequency:   -0.4651266446
  - # 4
    frequency:   -0.4026948770
  - # 5
    frequency:    1.2646607786
  - # 6
    frequency:    1.3125475026
  - # 7
    frequency:    1.6827137904
  - # 8
    frequency:    2.0649718454
  - # 9
    frequency:    3.7596325934
  - # 10
    frequency:    4.0607063573
  - # 11
    frequency:    5.4268327423
  - # 12
    frequency:    7.2180130540
  - # 13
    frequency:    7.2964046277
  - # 14
    frequency:    7.5328651248
  - # 15
    frequency:    8.8088078131
  - # 16
    frequency:    9.7045312693
  - # 17
    frequency:   13.0188821288
  - # 18
    frequency:   13.0535270935
  - # 19
    frequency:   13.4364084495
  - # 20
    frequency:   13.5718983882
  - # 21
    frequency:   13.6552586181
  - # 22
    frequency:   18.0850560124
  - # 23
    frequency:   26.7918427972
  - # 24
    frequency:   55.8779554872

- q-position: [    0.1212121,    0.0000000,    0.0000000 ]
  distance:    0.0417733
  band:
  - # 1
    frequency:   -3.2293760515
  - # 2
    frequency:   -2.5083219914
  - # 3
    frequency:   -0.3508569580
  - # 4
    frequency:   -0.3417689889
  - # 5
    frequency:    1.3059863159
  - # 6
    frequency:    1.3701678035
  - # 7
    frequency:    1.7439379182
  - # 8
    frequency:    2.1428440820
  - # 9
    frequency:    3.7615382546
  - # 10
    frequency:    4.0770521223
  - # 11
    frequency:    5.4190394823
  - # 12
    frequency:    7.2137071110
  - # 13
    frequency:    7.2936234795
  - # 14
    frequency:    7.5086885472
  - # 15
    frequency:    8.7624113744
  - # 16
    frequency:    9.7359836330
  - # 17
    frequency:   13.0148896015
  - # 18
    frequency:   13.0550030681
  - # 19
    frequency:   13.4158007683
  - # 20
    frequency:   13.5565404101
  - # 21
    frequency:   13.6465179944
  - # 22
    frequency:   18.0361897451
  - # 23
    frequency:   26.7841479162
  - # 24
    frequency:   55.8476202170

- q-position: [    0.1262626,    0.0000000,    0.0000000 ]
  distance:    0.0435138
  band:
  - # 1
    frequency:   -3.2886798420
  - # 2
    frequency:   -2.5256370069
  - # 3
    frequency:   -0.2483927751
  - # 4
    frequency:   -0.1572531295
  - # 5
    frequency:    1.3422673389
  - # 6
    frequency:    1.4280321623
  - # 7
    frequency:    1.8023237009
  - # 8
    frequency:    2.2214751867
  - # 9
    frequency:    3.7641641202
  - # 10
    frequency:    4.0927441865
  - # 11
    frequency:    5.4107735868
  - # 12
    frequency:    7.2089637990
  - # 13
    frequency:    7.2876500242
  - # 14
    frequency:    7.4870886708
  - # 15
    frequency:    8.7146377488
  - # 16
    frequency:    9.7677378750
  - # 17
    frequency:   13.0087231998
  - # 18
    frequency:   13.0553955984
  - # 19
    frequency:   13.3968724523
  - # 20
    frequency:   13.5423562260
  - # 21
    frequency:   13.6380199048
  - # 22
    frequency:   17.9879029971
  - # 23
    frequency:   26.7762987454
  - # 24
    frequency:   55.8164509336

- q-position: [    0.1313131,    0.0000000,    0.0000000 ]
  distance:    0.0452544
  band:
  - # 1
    frequency:   -3.3471587959
  - # 2
    frequency:   -2.5428724096
  - # 3
    frequency:    0.0604551353
  - # 4
    frequency:    0.2803307801
  - # 5
    frequency:    1.3745316647
  - # 6
    frequency:    1.4862035660
  - # 7
    frequency:    1.8567401804
  - # 8
    frequency:    2.3004711845
  - # 9
    frequency:    3.7675499313
  - # 10
    frequency:    4.1075850040
  - # 11
    frequency:    5.4019229914
  - # 12
    frequency:    7.2038031560
  - # 13
    frequency:    7.2776012986
  - # 14
    frequency:    7.4689823615
  - # 15
    frequency:    8.6659179930
  - # 16
    frequency:    9.7996882689
  - # 17
    frequency:   13.0001346748
  - # 18
    frequency:   13.0546013302
  - # 19
    frequency:   13.3800157557
  - # 20
    frequency:   13.5295134067
  - # 21
    frequency:   13.6297553059
  - # 22
    frequency:   17.9404363870
  - # 23
    frequency:   26.7683148440
  - # 24
    frequency:   55.7844978658

- q-position: [    0.1363636,    0.0000000,    0.0000000 ]
  distance:    0.0469949
  band:
  - # 1
    frequency:   -3.4046460125
  - # 2
    frequency:   -2.5599663323
  - # 3
    frequency:    0.2821403356
  - # 4
    frequency:    0.4319420050
  - # 5
    frequency:    1.4035547770
  - # 6
    frequency:    1.5447459829
  - # 7