nqpoint: 300    
npath: 3      
segment_nqpoint:
- 100
- 100
- 100
labels:
- [ 'G', 'M' ]
- [ 'M', 'K' ]
- [ 'K', 'G' ]
reciprocal_lattice:
- [   0.32008460,   0.18480093,   0.00000000 ] # a*
- [   0.00000000,   0.36960186,   0.00000000 ] # b*
- [   0.00000000,   0.00000000,   0.03939642 ] # c*
natom: 7      
lattice:
- [     3.124174083002274,     0.000000000000000,     0.000000000000000 ] # a
- [    -1.562087041501137,     2.705614121734704,     0.000000000000000 ] # b
- [     0.000000000000000,     0.000000000000000,    25.383014490443077 ] # c
points:
- symbol: C # 1
  coordinates: [  0.000000000000000,  0.000000000000000,  0.500000037705938 ]
  mass: 12.010700
- symbol: N # 2
  coordinates: [  0.333332985432215,  0.666666983183674,  0.594450525862189 ]
  mass: 14.006700
- symbol: N # 3
  coordinates: [  0.666666984744048,  0.333332985985145,  0.405549474137811 ]
  mass: 14.006700
- symbol: O # 4
  coordinates: [  0.333332985432215,  0.666666983183674,  0.645432184448046 ]
  mass: 15.999400
- symbol: O # 5
  coordinates: [  0.666666984744048,  0.333332985985145,  0.354567815551954 ]
  mass: 15.999400
- symbol: Ti # 6
  coordinates: [  0.333332985432215,  0.666666983183674,  0.452598301631210 ]
  mass: 47.867000
- symbol: Ti # 7
  coordinates: [  0.666666984744048,  0.333332985985145,  0.547401697806005 ]
  mass: 47.867000

phonon:
- q-position: [    0.0000000,    0.0000000,    0.0000000 ]
  distance:    0.0000000
  band:
  - # 1
    frequency:   -0.0000018607
  - # 2
    frequency:    0.0000006881
  - # 3
    frequency:    0.0000018450
  - # 4
    frequency:    1.9389788586
  - # 5
    frequency:    1.9389788586
  - # 6
    frequency:    3.1451666282
  - # 7
    frequency:    3.1451666282
  - # 8
    frequency:    3.1917190028
  - # 9
    frequency:    5.1448545097
  - # 10
    frequency:    5.1448545097
  - # 11
    frequency:    5.1489344246
  - # 12
    frequency:    5.1489344246
  - # 13
    frequency:    6.4659122316
  - # 14
    frequency:    7.4731822347
  - # 15
    frequency:    7.4794714512
  - # 16
    frequency:    7.4794714512
  - # 17
    frequency:   15.8035937113
  - # 18
    frequency:   15.8035937113
  - # 19
    frequency:   18.2665634327
  - # 20
    frequency:   42.8333578894
  - # 21
    frequency:   42.9236478553

- q-position: [    0.0050505,    0.0000000,    0.0000000 ]
  distance:    0.0018667
  band:
  - # 1
    frequency:   -0.1395584460
  - # 2
    frequency:    0.0457185937
  - # 3
    frequency:    0.0642501734
  - # 4
    frequency:    1.8427761492
  - # 5
    frequency:    1.9228514613
  - # 6
    frequency:    3.1499034383
  - # 7
    frequency:    3.1523140502
  - # 8
    frequency:    3.2479541430
  - # 9
    frequency:    5.1303242804
  - # 10
    frequency:    5.1368644728
  - # 11
    frequency:    5.1507599815
  - # 12
    frequency:    5.1563122163
  - # 13
    frequency:    6.4573925301
  - # 14
    frequency:    7.4735679588
  - # 15
    frequency:    7.4770458506
  - # 16
    frequency:    7.4895850536
  - # 17
    frequency:   15.8026258879
  - # 18
    frequency:   15.8030986776
  - # 19
    frequency:   18.2658311816
  - # 20
    frequency:   42.8328332313
  - # 21
    frequency:   42.9230259188

- q-position: [    0.0101010,    0.0000000,    0.0000000 ]
  distance:    0.0037334
  band:
  - # 1
    frequency:   -0.3158769632
  - # 2
    frequency:    0.0910335254
  - # 3
    frequency:    0.1284460410
  - # 4
    frequency:    1.5840381752
  - # 5
    frequency:    1.8753964875
  - # 6
    frequency:    3.1576251895
  - # 7
    frequency:    3.1726493274
  - # 8
    frequency:    3.3900416232
  - # 9
    frequency:    5.0928523767
  - # 10
    frequency:    5.1265388468
  - # 11
    frequency:    5.1496090769
  - # 12
    frequency:    5.1647672596
  - # 13
    frequency:    6.4340234171
  - # 14
    frequency:    7.4697937258
  - # 15
    frequency:    7.4747113496
  - # 16
    frequency:    7.5182723334
  - # 17
    frequency:   15.7997305751
  - # 18
    frequency:   15.8016205787
  - # 19
    frequency:   18.2636379722
  - # 20
    frequency:   42.8312595388
  - # 21
    frequency:   42.9211611690

- q-position: [    0.0151515,    0.0000000,    0.0000000 ]
  distance:    0.0056000
  band:
  - # 1
    frequency:   -0.6003064842
  - # 2
    frequency:    0.1356983483
  - # 3
    frequency:    0.1925161217
  - # 4
    frequency:    1.2208691486
  - # 5
    frequency:    1.7988537841
  - # 6
    frequency:    3.1682901350
  - # 7
    frequency:    3.2033597508
  - # 8
    frequency:    3.5695767066
  - # 9
    frequency:    5.0300533424
  - # 10
    frequency:    5.1154812770
  - # 11
    frequency:    5.1465670558
  - # 12
    frequency:    5.1725948521
  - # 13
    frequency:    6.4012819496
  - # 14
    frequency:    7.4577895618
  - # 15
    frequency:    7.4766571073
  - # 16
    frequency:    7.5613795100
  - # 17
    frequency:   15.7949321679
  - # 18
    frequency:   15.7991803651
  - # 19
    frequency:   18.2599944114
  - # 20
    frequency:   42.8286376541
  - # 21
    frequency:   42.9180567840

- q-position: [    0.0202020,    0.0000000,    0.0000000 ]
  distance:    0.0074667
  band:
  - # 1
    frequency:   -1.0653180162
  - # 2
    frequency:    0.1797465299
  - # 3
    frequency:    0.2563454996
  - # 4
    frequency:    0.9078273107
  - # 5
    frequency:    1.6955988362
  - # 6
    frequency:    3.1813981513
  - # 7
    frequency:    3.2409910390
  - # 8
    frequency:    3.7607249354
  - # 9
    frequency:    4.9398501808
  - # 10
    frequency:    5.1036675741
  - # 11
    frequency:    5.1422556752
  - # 12
    frequency:    5.1796524450
  - # 13
    frequency:    6.3656276502
  - # 14
    frequency:    7.4411589731
  - # 15
    frequency:    7.4794777837
  - # 16
    frequency:    7.6140480322
  - # 17
    frequency:   15.7882710674
  - # 18
    frequency:   15.7958127708
  - # 19
    frequency:   18.2549180944
  - # 20
    frequency:   42.8249689663
  - # 21
    frequency:   42.9137180587

- q-position: [    0.0252525,    0.0000000,    0.0000000 ]
  distance:    0.0093334
  band:
  - # 1
    frequency:   -1.5652576891
  - # 2
    frequency:    0.2234786343
  - # 3
    frequency:    0.3197208068
  - # 4
    frequency:    0.7771643645
  - # 5
    frequency:    1.5670449409
  - # 6
    frequency:    3.1952846412
  - # 7
    frequency:    3.2823087218
  - # 8
    frequency:    3.9529991793
  - # 9
    frequency:    4.8211737842
  - # 10
    frequency:    5.0909951744
  - # 11
    frequency:    5.1370473995
  - # 12
    frequency:    5.1858129893
  - # 13
    frequency:    6.3325601914
  - # 14
    frequency:    7.4200807664
  - # 15
    frequency:    7.4832742803
  - # 16
    frequency:    7.6719838112
  - # 17
    frequency:   15.7798032974
  - # 18
    frequency:   15.7915660432
  - # 19
    frequency:   18.2484334806
  - # 20
    frequency:   42.8202553915
  - # 21
    frequency:   42.9081524007

- q-position: [    0.0303030,    0.0000000,    0.0000000 ]
  distance:    0.0112001
  band:
  - # 1
    frequency:   -2.0004308656
  - # 2
    frequency:    0.2671849910
  - # 3
    frequency:    0.3821826608
  - # 4
    frequency:    0.7460560900
  - # 5
    frequency:    1.4128011318
  - # 6
    frequency:    3.2070322411
  - # 7
    frequency:    3.3246750896
  - # 8
    frequency:    4.1418622340
  - # 9
    frequency:    4.6747743705
  - # 10
    frequency:    5.0773171592
  - # 11
    frequency:    5.1313882249
  - # 12
    frequency:    5.1909354108
  - # 13
    frequency:    6.3056930407
  - # 14
    frequency:    7.3947895152
  - # 15
    frequency:    7.4881795483
  - # 16
    frequency:    7.7318927152
  - # 17
    frequency:   15.7695999698
  - # 18
    frequency:   15.7865015792
  - # 19
    frequency:   18.2405717209
  - # 20
    frequency:   42.8144993452
  - # 21
    frequency:   42.9013693244

- q-position: [    0.0353535,    0.0000000,    0.0000000 ]
  distance:    0.0130667
  band:
  - # 1
    frequency:   -2.3805657026
  - # 2
    frequency:    0.3105896369
  - # 3
    frequency:    0.4425052080
  - # 4
    frequency:    0.7576746968
  - # 5
    frequency:    1.2297336849
  - # 6
    frequency:    3.2114477132
  - # 7
    frequency:    3.3660778958
  - # 8
    frequency:    4.3225344091
  - # 9
    frequency:    4.5064175275
  - # 10
    frequency:    5.0624466026
  - # 11
    frequency:    5.1259909136
  - # 12
    frequency:    5.1948670613
  - # 13
    frequency:    6.2867247650
  - # 14
    frequency:    7.3655782882
  - # 15
    frequency:    7.4943617294
  - # 16
    frequency:    7.7914286458
  - # 17
    frequency:   15.7577466040
  - # 18
    frequency:   15.7806934738
  - # 19
    frequency:   18.2313704365
  - # 20
    frequency:   42.8077037097
  - # 21
    frequency:   42.8933804415

- q-position: [    0.0404040,    0.0000000,    0.0000000 ]
  distance:    0.0149334
  band:
  - # 1
    frequency:   -2.7219797826
  - # 2
    frequency:    0.3521175128
  - # 3
    frequency:    0.4958969287
  - # 4
    frequency:    0.7921478874
  - # 5
    frequency:    1.0107921198
  - # 6
    frequency:    3.1985432682
  - # 7
    frequency:    3.4050123960
  - # 8
    frequency:    4.3057588408
  - # 9
    frequency:    4.5112997540
  - # 10
    frequency:    5.0461579517
  - # 11
    frequency:    5.1222263110
  - # 12
    frequency:    5.1974523054
  - # 13
    frequency:    6.2759222892
  - # 14
    frequency:    7.3328010105
  - # 15
    frequency:    7.5020277890
  - # 16
    frequency:    7.8489882114
  - # 17
    frequency:   15.7443423038
  - # 18
    frequency:   15.7742279973
  - # 19
    frequency:   18.2208734513
  - # 20
    frequency:   42.7998717974
  - # 21
    frequency:   42.8841994470

- q-position: [    0.0454545,    0.0000000,    0.0000000 ]
  distance:    0.0168001
  band:
  - # 1
    frequency:   -3.0354518209
  - # 2
    frequency:    0.3878557418
  - # 3
    frequency:    0.4995026084
  - # 4
    frequency:    0.7621262877
  - # 5
    frequency:    0.8413640995
  - # 6
    frequency:    3.1483277787
  - # 7
    frequency:    3.4403350759
  - # 8
    frequency:    4.1191260888
  - # 9
    frequency:    4.6754716426
  - # 10
    frequency:    5.0281897316
  - # 11
    frequency:    5.1232892552
  - # 12
    frequency:    5.1985440853
  - # 13
    frequency:    6.2727231492
  - # 14
    frequency:    7.2968737549
  - # 15
    frequency:    7.5114277535
  - # 16
    frequency:    7.9035071311
  - # 17
    frequency:   15.7294987975
  - # 18
    frequency:   15.7672030081
  - # 19
    frequency:   18.2091304779
  - # 20
    frequency:   42.7910073135
  - # 21
    frequency:   42.8738420995

- q-position: [    0.0505051,    0.0000000,    0.0000000 ]
  distance:    0.0186668
  band:
  - # 1
    frequency:   -3.3278825842
  - # 2
    frequency:   -0.2638462588
  - # 3
    frequency:    0.4091030460
  - # 4
    frequency:    0.6882916148
  - # 5
    frequency:    0.9011927381
  - # 6
    frequency:    3.0258156813
  - # 7
    frequency:    3.4711334707
  - # 8
    frequency:    3.9598907706
  - # 9
    frequency:    4.8231090122
  - # 10
    frequency:    5.0082512880
  - # 11
    frequency:    5.1381194357
  - # 12
    frequency:    5.1980171565
  - # 13
    frequency:    6.2762137972
  - # 14
    frequency:    7.2582740615
  - # 15
    frequency:    7.5228594206
  - # 16
    frequency:    7.9543014469
  - # 17
    frequency:   15.7133393507
  - # 18
    frequency:   15.7597273141
  - # 19
    frequency:   18.1961967604
  - # 20
    frequency:   42.7811143191
  - # 21
    frequency:   42.8623261924

- q-position: [    0.0555556,    0.0000000,    0.0000000 ]
  distance:    0.0205334
  band:
  - # 1
    frequency:   -3.6038424649
  - # 2
    frequency:   -0.7354402185
  - # 3
    frequency:    0.3933709983
  - # 4
    frequency:    0.7324259072
  - # 5
    frequency:    0.9688358660
  - # 6
    frequency:    2.7950417471
  - # 7
    frequency:    3.4966204679
  - # 8
    frequency:    3.8597386633
  - # 9
    frequency:    4.9288412699
  - # 10
    frequency:    4.9860366947
  - # 11
    frequency:    5.1897735798
  - # 12
    frequency:    5.1957814345
  - # 13
    frequency:    6.2854201445
  - # 14
    frequency:    7.2175372346
  - # 15
    frequency:    7.5366731685
  - # 16
    frequency:    8.0009538861
  - # 17
    frequency:   15.6959975575
  - # 18
    frequency:   15.7519199869
  - # 19
    frequency:   18.1821326748
  - # 20
    frequency:   42.7701972008
  - # 21
    frequency:   42.8496715149

- q-position: [    0.0606061,    0.0000000,    0.0000000 ]
  distance:    0.0224001
  band:
  - # 1
    frequency:   -3.8664683130
  - # 2
    frequency:   -1.0065083127
  - # 3
    frequency:    0.2429575184
  - # 4
    frequency:    0.7894657658
  - # 5
    frequency:    1.0413468117
  - # 6
    frequency:    2.4503984639
  - # 7
    frequency:    3.5160493260
  - # 8
    frequency:    3.8182451041
  - # 9
    frequency:    4.9612494407
  - # 10
    frequency:    4.9750300605
  - # 11
    frequency:    5.1917932977
  - # 12
    frequency:    5.2954405023
  - # 13
    frequency:    6.2994482293
  - # 14
    frequency:    7.1752485194
  - # 15
    frequency:    7.5532761098
  - # 16
    frequency:    8.0432351454
  - # 17
    frequency:   15.6776160245
  - # 18
    frequency:   15.7439096354
  - # 19
    frequency:   18.1670032903
  - # 20
    frequency:   42.7582606484
  - # 21
    frequency:   42.8358997978

- q-position: [    0.0656566,    0.0000000,    0.0000000 ]
  distance:    0.0242668
  band:
  - # 1
    frequency:   -4.1179769230
  - # 2
    frequency:   -1.2116614994
  - # 3
    frequency:   -0.5362918817
  - # 4
    frequency:    0.8489530379
  - # 5
    frequency:    1.1136662031
  - # 6
    frequency:    2.0258927230
  - # 7
    frequency:    3.5286439386
  - # 8
    frequency:    3.8148117275
  - # 9
    frequency:    4.9336412030
  - # 10
    frequency:    4.9859237570
  - # 11
    frequency:    5.1860623044
  - # 12
    frequency:    5.4305119306
  - # 13
    frequency:    6.3175348700
  - # 14
    frequency:    7.1320302292
  - # 15
    frequency:    7.5731342327
  - # 16
    frequency:    8.0810499939
  - # 17
    frequency:   15.6583449574
  - # 18
    frequency:   15.7358336363
  - # 19
    frequency:   18.1508778940
  - # 20
    frequency:   42.7453096480
  - # 21
    frequency:   42.8210346419

- q-position: [    0.0707071,    0.0000000,    0.0000000 ]
  distance:    0.0261335
  band:
  - # 1
    frequency:   -4.3599712889
  - # 2
    frequency:   -1.3780478272
  - # 3
    frequency:   -1.1545708645
  - # 4
    frequency:    0.9085873723
  - # 5
    frequency:    1.1740817063
  - # 6
    frequency:    1.6544995078
  - # 7
    frequency:    3.5335412312
  - # 8
    frequency:    3.8326249005
  - # 9
    frequency:    4.9030660009
  - # 10
    frequency:    4.9835258012
  - # 11
    frequency:    5.1786510919
  - # 12
    frequency:    5.5725633547
  - # 13
    frequency:    6.3390542713
  - # 14
    frequency:    7.0885233716
  - # 15
    frequency:    7.5967702755
  - # 16
    frequency:    8.1144006515
  - # 17
    frequency:   15.6383406659
  - # 18
    frequency:   15.7278373194
  - # 19
    frequency:   18.1338294829
  - # 20
    frequency:   42.7313494962
  - # 21
    frequency:   42.8051014209

- q-position: [    0.0757576,    0.0000000,    0.0000000 ]
  distance:    0.0280001
  band:
  - # 1
    frequency:   -4.5936316133
  - # 2
    frequency:   -1.8265521571
  - # 3
    frequency:   -1.5168686220
  - # 4
    frequency:    0.9673159193
  - # 5
    frequency:    1.2050856558
  - # 6
    frequency:    1.5158947582
  - # 7
    frequency:    3.5297469963
  - # 8
    frequency:    3.8623324915
  - # 9
    frequency:    4.8695465201
  - # 10
    frequency:    4.9758213130
  - # 11
    frequency:    5.1696675278
  - # 12
    frequency:    5.7131071708
  - # 13
    frequency:    6.3635078690
  - # 14
    frequency:    7.0453641510
  - # 15
    frequency:    7.6247539005
  - # 16
    frequency:    8.1433624230
  - # 17
    frequency:   15.6177640039
  - # 18
    frequency:   15.7200730993
  - # 19
    frequency:   18.1159342259
  - # 20
    frequency:   42.7163858414
  - # 21
    frequency:   42.7881271550

- q-position: [    0.0808081,    0.0000000,    0.0000000 ]
  distance:    0.0298668
  band:
  - # 1
    frequency:   -4.8198389108
  - # 2
    frequency:   -2.4220842029
  - # 3
    frequency:   -1.6339651360
  - # 4
    frequency:    1.0243121550
  - # 5
    frequency:    1.2219448414
  - # 6
    frequency:    1.5416070304
  - # 7
    frequency:    3.5161126926
  - # 8
    frequency:    3.8989827409
  - # 9
    frequency:    4.8333422840
  - # 10
    frequency:    4.9657152632
  - # 11
    frequency:    5.1592502891
  - # 12
    frequency:    5.8486666076
  - # 13
    frequency:    6.3905117717
  - # 14
    frequency:    7.0031568451
  - # 15
    frequency:    7.6576794296
  - # 16
    frequency:    8.1680686351
  - # 17
    frequency:   15.5967787606
  - # 18
    frequency:   15.7126995443
  - # 19
    frequency:   18.0972709020
  - # 20
    frequency:   42.7004247624
  - # 21
    frequency:   42.7701403477

- q-position: [    0.0858586,    0.0000000,    0.0000000 ]
  distance:    0.0317335
  band:
  - # 1
    frequency:   -5.0392568971
  - # 2
    frequency:   -2.9335518917
  - # 3
    frequency:   -1.7327967201
  - # 4
    frequency:    1.0786743327
  - # 5
    frequency:    1.2500769085
  - # 6
    frequency:    1.6215283062
  - # 7
    frequency:    3.4913486967
  - # 8
    frequency:    3.9398171270
  - # 9
    frequency:    4.7950010132
  - # 10
    frequency:    4.9545100282
  - # 11
    frequency:    5.1475511291
  - # 12
    frequency:    5.9773272923
  - # 13
    frequency:    6.4197895971
  - # 14
    frequency:    6.9624457149
  - # 15
    frequency:    7.6961254249
  - # 16
    frequency:    8.1887037401
  - # 17
    frequency:   15.5755500249
  - # 18
    frequency:   15.7058803702
  - # 19
    frequency:   18.0779203174
  - # 20
    frequency:   42.6834728911
  - # 21
    frequency:   42.7511707763

- q-position: [    0.0909091,    0.0000000,    0.0000000 ]
  distance:    0.0336002
  band:
  - # 1
    frequency:   -5.2523864850
  - # 2
    frequency:   -3.3811458148
  - # 3
    frequency:   -1.8155830625
  - # 4
    frequency:    1.1292473418
  - # 5
    frequency:    1.2903145610
  - # 6
    frequency:    1.7195265800
  - # 7
    frequency:    3.4540977880
  - # 8
    frequency:    3.9831827950
  - # 9
    frequency:    4.7553684746
  - # 10
    frequency:    4.9429324840
  - # 11
    frequency:    5.1347180904
  - # 12
    frequency:    6.0977505808
  - # 13
    frequency:    6.4511767009
  - # 14
    frequency:    6.9236894366
  - # 15
    frequency:    7.7405903884
  - # 16
    frequency:    8.2055056264
  - # 17
    frequency:   15.5542425413
  - # 18
    frequency:   15.6997833477
  - # 19
    frequency:   18.0579647084
  - # 20
    frequency:   42.6655375881
  - # 21
    frequency:   42.7312492318

- q-position: [    0.0959596,    0.0000000,    0.0000000 ]
  distance:    0.0354668
  band:
  - # 1
    frequency:   -5.4596011891
  - # 2
    frequency:   -3.7802451004
  - # 3
    frequency:   -1.8838283263
  - # 4
    frequency:    1.1744298337
  - # 5
    frequency:    1.3384737584
  - # 6
    frequency:    1.8255514150
  - # 7
    frequency:    3.4030976449
  - # 8
    frequency:    4.0280172886
  - # 9
    frequency:    4.7155340947
  - # 10
    frequency:    4.9314781691
  - # 11
    frequency:    5.1208832871
  - # 12
    frequency:    6.2088707901
  - # 13
    frequency:    6.4846435124
  - # 14
    frequency:    6.8872416463
  - # 15
    frequency:    7.7913998277
  - # 16
    frequency:    8.2187820357
  - # 17
    frequency:   15.5330190805
  - # 18
    frequency:   15.6945791121
  - # 19
    frequency:   18.0374871345
  - # 20
    frequency:   42.6466271776
  - # 21
    frequency:   42.7104072003

- q-position: [    0.1010101,    0.0000000,    0.0000000 ]
  distance:    0.0373335
  band:
  - # 1
    frequency:   -5.6611685524
  - # 2
    frequency:   -4.1409171327
  - # 3
    frequency:   -1.9385929501
  - # 4
    frequency:    1.2118925549
  - # 5
    frequency:    1.3915764886
  - # 6
    frequency:    1.9358869055
  - # 7
    frequency:    3.3374584560
  - # 8
    frequency:    4.0735966249
  - # 9
    frequency:    4.6767053597
  - # 10
    frequency:    4.9205452382
  - # 11
    frequency:    5.1061570481
  - # 12
    frequency:    6.3097829705
  - # 13
    frequency:    6.5203487281
  - # 14
    frequency:    6.8533403678
  - # 15
    frequency:    7.8485785584
  - # 16
    frequency:    8.2289552445
  - # 17
    frequency:   15.5120388464
  - # 18
    frequency:   15.6904398673
  - # 19
    frequency:   18.0165708681
  - # 20
    frequency:   42.6267512438
  - # 21
    frequency:   42.6886764854

- q-position: [    0.1060606,    0.0000000,    0.0000000 ]
  distance:    0.0392002
  band:
  - # 1
    frequency:   -5.8572611634
  - # 2
    frequency:   -4.4698650268
  - # 3
    frequency:   -1.9806488105
  - # 4
    frequency:    1.2381199945
  - # 5
    frequency:    1.4478100528
  - # 6
    frequency:    2.0486757377
  - # 7
    frequency:    3.2570717841
  - # 8
    frequency:    4.1194075925
  - # 9
    frequency:    4.6400331687
  - # 10
    frequency:    4.9104930210
  - # 11
    frequency:    5.0906282013
  - # 12
    frequency:    6.3996677295
  - # 13
    frequency:    6.5587227400
  - # 14
    frequency:    6.8221075190
  - # 15
    frequency:    7.9116640523
  - # 16
    frequency:    8.2366758916
  - # 17
    frequency:   15.4914559407
  - # 18
    frequency:   15.6875379805
  - # 19
    frequency:   17.9952987863
  - # 20
    frequency:   42.6059209849
  - # 21
    frequency:   42.6660887762

- q-position: [    0.1111111,    0.0000000,    0.0000000 ]
  distance:    0.0410669
  band:
  - # 1
    frequency:   -6.0479603267
  - # 2
    frequency:   -4.7717477617
  - # 3
    frequency:   -2.0105767024
  - # 4
    frequency:    1.2476338550
  - # 5
    frequency:    1.5060511746
  - # 6
    frequency:    2.1627352125
  - # 7
    frequency:    3.1631578813
  - # 8
    frequency:    4.1650826400
  - # 9
    frequency:    4.6064392092
  - # 10
    frequency:    4.9016689738
  - # 11
    frequency:    5.0743689670
  - # 12
    frequency:    6.4777826661
  - # 13
    frequency:    6.6004854989
  - # 14
    frequency:    6.7935578367
  - # 15
    frequency:    7.9793520753
  - # 16
    frequency:    8.2431356497
  - # 17
    frequency:   15.4714179085
  - # 18
    frequency:   15.6860444679
  - # 19
    frequency:   17.9737527714
  - # 20
    frequency:   42.5841496106
  - # 21
    frequency:   42.6426751753

- q-position: [    0.1161616,    0.0000000,    0.0000000 ]
  distance:    0.0429335
  band:
  - # 1
    frequency:   -6.2332555909
  - # 2
    frequency:   -5.0499616412
  - # 3
    frequency:   -2.0288365725
  - # 4
    frequency:    1.2316563119
  - # 5
    frequency:    1.5655658913
  - # 6
    frequency:    2.2771620951
  - # 7
    frequency:    3.0589460445
  - # 8
    frequency:    4.2103693281
  - # 9
    frequency:    4.5765025934
  - # 10
    frequency:    4.8944196863
  - # 11
    frequency:    5.0574425598
  - # 12
    frequency:    6.5438897113
  - # 13
    frequency:    6.6461966485
  - # 14
    frequency:    6.7676150211
  - # 15
    frequency:    8.0485389642
  - # 16
    frequency:    8.2510300799
  - # 17
    frequency:   15.4520643828
  - # 18
    frequency:   15.6861273794
  - # 19
    frequency:   17.9520131260
  - # 20
    frequency:   42.5614527589
  - # 21
    frequency:   42.6184657119

- q-position: [    0.1212121,    0.0000000,    0.0000000 ]
  distance:    0.0448002
  band:
  - # 1
    frequency:   -6.4130437064
  - # 2
    frequency:   -5.3071069250
  - # 3
    frequency:   -2.0358320324
  - # 4
    frequency:    1.1757603463
  - # 5
    frequency:    1.6258439251
  - # 6
    frequency:    2.3911704320
  - # 7
    frequency:    2.9503850625
  - # 8
    frequency:    4.2551211643
  - # 9
    frequency:    4.5504362535
  - # 10
    frequency:    4.8890917124
  - # 11
    frequency:    5.0399119045
  - # 12
    frequency:    6.5993752095
  - # 13
    frequency:    6.6950725615
  - # 14
    frequency:    6.7441320924
  - # 15
    frequency:    8.1114452722
  - # 16
    frequency:    8.2674881642
  - # 17
    frequency:   15.4335258496
  - # 18
    frequency:   15.6879500965
  - # 19
    frequency:   17.9301580081
  - # 20
    frequency:   42.5378488945
  - # 21
    frequency:   42.5934888764

- q-position: [    0.1262626,    0.0000000,    0.0000000 ]
  distance:    0.0466669
  band:
  - # 1
    frequency:   -6.5871306732
  - # 2
    frequency:   -5.5452736274
  - # 3
    frequency:   -2.0319959657
  - # 4
    frequency:    1.0551844472
  - # 5
    frequency:    1.6865071291
  - # 6
    frequency:    2.5040117066
  - # 7
    frequency:    2.8464045306
  - # 8
    frequency:    4.2993031810
  - # 9
    frequency:    4.5281416881
  - # 10
    frequency:    4.8860242634
  - # 11
    frequency:    5.0218484393
  - # 12
    frequency:    6.6474069374
  - # 13
    frequency:    6.7229129578
  - # 14
    frequency:    6.7447374799
  - # 15
    frequency:    8.1529761396
  - # 16
    frequency:    8.3067983422
  - # 17
    frequency:   15.4159225476
  - # 18
    frequency:   15.6916695640
  - # 19
    frequency:   17.9082628931
  - # 20
    frequency:   42.5133596444
  - # 21
    frequency:   42.5677712246

- q-position: [    0.1313131,    0.0000000,    0.0000000 ]
  distance:    0.0485336
  band:
  - # 1
    frequency:   -6.7552398858
  - # 2
    frequency:   -5.7662184152
  - # 3
    frequency:   -2.0179557749
  - # 4
    frequency:    0.8197161146
  - # 5
    frequency:    1.7472573809
  - # 6
    frequency:    2.6149293277
  - # 7
    frequency:    2.7576398328
  - # 8
    frequency:    4.3430079279
  - # 9
    frequency:    4.5093033186
  - # 10
    frequency:    4.8855347272
  - # 11
    frequency:    5.0033405064
  - # 12
    frequency:    6.6911570911
  - # 13
    frequency:    6.7037327961
  - # 14
    frequency:    6.7929012073
  - # 15
    frequency:    8.1678576824
  - # 16
    frequency:    8.3733685350
  - # 17
    frequency:   15.3993635188
  - # 18
    frequency:   15.6974344842
  - # 19
    frequency:   17.8864000662
  - # 20
    frequency:   42.4880100210
  - # 21
    frequency:   42.5413370977

- q-position: [    0.1363636,    0.0000000,    0.0000000 ]
  distance:    0.0504003
  band:
  - # 1
    frequency:   -6.9170278183
  - # 2
    frequency:   -5.9714722158
  - # 3
    frequency:   -1.9949583904
  - # 4
    frequency:    0.1996791094
  - # 5
    frequency:    1.8078459235
  - # 6
    frequency:    2.6929610111
  - # 7
    frequency:    2.7231309290
  - # 8
    frequency:    4.3864771681
  - # 9
    frequency:    4.4934833961
  - # 10
    frequency:    4.8878985113
  - # 11
    frequency:    4.9845011817
  - # 12
    frequency:    6.6863557502
  - # 13
    frequency:    6.7326637335
  - # 14
    frequency:    6.8384106413
  - # 15
    frequency:    8.1676907317
  - # 16
    frequency:    8.4547580788
  - # 17
    frequency:   15.3839458196
  - # 18
    frequency:   15.7053835065
  - # 19
    frequency:   17.8646381532
  - # 20
    frequency:   42.4618284915
  - # 21
    frequency:   42.5142085012

- q-position: [    0.1414141,    0.0000000,    0.0000000 ]
  distance:    0.0522669
  band:
  - # 1
    frequency:   -7.0721065798
  - # 2
    frequency:   -6.1624024115
  - # 3
    frequency:   -1.9662692467
  - # 4
    frequency:   -0.8732730387
  - # 5
    frequency:    1.8680547845
  - # 6
    frequency:    2.6559001396
  - # 7
    frequency:    2.8277737346
  - # 8
    frequency:    4.4301222357
  - # 9
    frequency:    4.4801947666
  - # 10
    frequency:    4.8933264418
  - # 11
    frequency:    4.9654755496
  - # 12
    frequency:    6.6705492675
  - # 13
    frequency:    6.7730133114
  - # 14
    frequency:    6.8810034765
  - # 15
    frequency:    8.1606506294
  - # 16
    frequency:    8.5420413538
  - # 17
    frequency:   15.3697539019
  - # 18
    frequency:   15.7156434530
  - # 19
    frequency:   17.8430416907
  - # 20
    frequency:   42.4348468673
  - # 21
    frequency:   42.4864051686

- q-position: [    0.1464646,    0.0000000,    0.0000000 ]
  distance:    0.0541336
  band:
  - # 1
    frequency:   -7.2200707767
  - # 2
    frequency:   -6.3402457827
  - # 3
    frequency:   -1.9432416112
  - # 4
    frequency:   -1.2879309698
  - # 5
    frequency:    1.9276852750
  - # 6
    frequency:    2.6443970035
  - # 7
    frequency:    2.9279637452
  - # 8
    frequency:    4.4689459556
  - # 9
    frequency:    4.4745326959
  - # 10
    frequency:    4.9019451972
  - # 11
    frequency:    4.9464474072
  - # 12
    frequency:    6.6560950807
  - # 13
    frequency:    6.8127668999
  - # 14
    frequency:    6.9208430503
  - # 15
    frequency:    8.1500435136
  - # 16
    frequency:    8.6312906716
  - # 17
    frequency:   15.3568591672
  - # 18
    frequency:   15.7283276204
  - # 19
    frequency:   17.8216707431
  - # 20
    frequency:   42.4071000116
  - # 21
    frequency:   42.4579448119

- q-position: [    0.1515152,    0.0000000,    0.0000000 ]
  distance:    0.0560003
  band:
  - # 1
    frequency:   -7.3605251972
  - # 2
    frequency:   -6.5061239379
  - # 3
    frequency:   -1.9750415050
  - # 4
    frequency:   -1.5543708882
  - # 5
    frequency:    1.9865508311
  - # 6
    frequency:    2.6535160334
  - # 7
    frequency:    3.0227723900
  - # 8
    frequency:    4.4592631621
  - # 9
    frequency:    4.5204604546
  - # 10
    frequency:    4.9137878274
  - # 11
    frequency:    4.9276451946
  - # 12
    frequency:    6.6427972177
  - # 13
    frequency:    6.8522263107
  - # 14
    frequency:    6.9582340334
  - # 15
    frequency:    8.1373940636
  - # 16
    frequency:    8.7205073558
  - # 17
    frequency:   15.3453196963
  - # 18
    frequency:   15.7435342035
  - # 19
    frequency:   17.8005805679
  - # 20
    frequency:   42.3786253861
  - # 21
    frequency:   42.4288435367