nqpoint: 300    
npath: 3      
segment_nqpoint:
- 100
- 100
- 100
labels:
- [ 'G', 'M' ]
- [ 'M', 'K' ]
- [ 'K', 'G' ]
reciprocal_lattice:
- [   0.30565934,   0.17647250,   0.00000000 ] # a*
- [   0.00000000,   0.35294501,   0.00000000 ] # b*
- [   0.00000000,   0.00000000,   0.03539634 ] # c*
natom: 9      
lattice:
- [     3.271616025979592,     0.000000000000000,     0.000000000000000 ] # a
- [    -1.635808012989796,     2.833302589934439,     0.000000000000000 ] # b
- [     0.000000000000000,     0.000000000000000,    28.251511587762128 ] # c
points:
- symbol: C # 1
  coordinates: [  0.333332985432215,  0.666666983183674,  0.638814951599675 ]
  mass: 12.010700
- symbol: C # 2
  coordinates: [  0.666666984744047,  0.333332985985145,  0.360726623369293 ]
  mass: 12.010700
- symbol: N # 3
  coordinates: [  0.000000000000000,  0.000000000000000,  0.513292431359349 ]
  mass: 14.006700
- symbol: N # 4
  coordinates: [  0.333332985432215,  0.666666983183674,  0.594655470761748 ]
  mass: 14.006700
- symbol: N # 5
  coordinates: [  0.666666984744047,  0.333332985985145,  0.318567025061363 ]
  mass: 14.006700
- symbol: O # 6
  coordinates: [  0.333332985432215,  0.666666983183674,  0.681432974938637 ]
  mass: 15.999400
- symbol: S # 7
  coordinates: [  0.666666984744047,  0.333332985985145,  0.420034501913006 ]
  mass: 32.065000
- symbol: Ti # 8
  coordinates: [  0.333332985432215,  0.666666983183674,  0.475400715392589 ]
  mass: 47.867000
- symbol: Ti # 9
  coordinates: [  0.666666984744047,  0.333332985985145,  0.547978474621184 ]
  mass: 47.867000

phonon:
- q-position: [    0.0000000,    0.0000000,    0.0000000 ]
  distance:    0.0000000
  band:
  - # 1
    frequency:   -0.9926932298
  - # 2
    frequency:   -0.9926932298
  - # 3
    frequency:   -0.0000016787
  - # 4
    frequency:   -0.0000015247
  - # 5
    frequency:    0.0000022947
  - # 6
    frequency:    1.0461167001
  - # 7
    frequency:    1.0461167001
  - # 8
    frequency:    4.4406964415
  - # 9
    frequency:    4.4406964415
  - # 10
    frequency:    5.5532598950
  - # 11
    frequency:    7.0817956889
  - # 12
    frequency:    7.0817956889
  - # 13
    frequency:    8.6150524366
  - # 14
    frequency:    8.6150524366
  - # 15
    frequency:    8.9605588620
  - # 16
    frequency:   11.1086740432
  - # 17
    frequency:   11.1086740432
  - # 18
    frequency:   11.5608153899
  - # 19
    frequency:   14.6894326764
  - # 20
    frequency:   16.4313562311
  - # 21
    frequency:   16.4313562311
  - # 22
    frequency:   17.3716421008
  - # 23
    frequency:   17.3716421008
  - # 24
    frequency:   20.5047526248
  - # 25
    frequency:   38.5528522845
  - # 26
    frequency:   64.7653896474
  - # 27
    frequency:   69.1940326458

- q-position: [    0.0050505,    0.0000000,    0.0000000 ]
  distance:    0.0017826
  band:
  - # 1
    frequency:   -0.9917993091
  - # 2
    frequency:   -0.9898185348
  - # 3
    frequency:   -0.0866070113
  - # 4
    frequency:    0.0809529263
  - # 5
    frequency:    0.1587528368
  - # 6
    frequency:    1.0471382559
  - # 7
    frequency:    1.0502987432
  - # 8
    frequency:    4.4406052949
  - # 9
    frequency:    4.4423065942
  - # 10
    frequency:    5.5527569025
  - # 11
    frequency:    7.0814661300
  - # 12
    frequency:    7.0828081436
  - # 13
    frequency:    8.6146790624
  - # 14
    frequency:    8.6152713475
  - # 15
    frequency:    8.9602474519
  - # 16
    frequency:   11.1081667917
  - # 17
    frequency:   11.1085733364
  - # 18
    frequency:   11.5601222931
  - # 19
    frequency:   14.6891910403
  - # 20
    frequency:   16.4309843856
  - # 21
    frequency:   16.4311657967
  - # 22
    frequency:   17.3716919353
  - # 23
    frequency:   17.3720394283
  - # 24
    frequency:   20.5046560960
  - # 25
    frequency:   38.5528124503
  - # 26
    frequency:   64.7652775690
  - # 27
    frequency:   69.1924458507

- q-position: [    0.0101010,    0.0000000,    0.0000000 ]
  distance:    0.0035651
  band:
  - # 1
    frequency:   -0.9891434891
  - # 2
    frequency:   -0.9812866052
  - # 3
    frequency:   -0.0870267237
  - # 4
    frequency:    0.1618353272
  - # 5
    frequency:    0.2799239299
  - # 6
    frequency:    1.0502189182
  - # 7
    frequency:    1.0628668806
  - # 8
    frequency:    4.4403338985
  - # 9
    frequency:    4.4471249405
  - # 10
    frequency:    5.5512549369
  - # 11
    frequency:    7.0804781268
  - # 12
    frequency:    7.0858379326
  - # 13
    frequency:    8.6135602557
  - # 14
    frequency:    8.6159260962
  - # 15
    frequency:    8.9593152689
  - # 16
    frequency:   11.1066476587
  - # 17
    frequency:   11.1082730099
  - # 18
    frequency:   11.5580426918
  - # 19
    frequency:   14.6884652438
  - # 20
    frequency:   16.4298721669
  - # 21
    frequency:   16.4305969639
  - # 22
    frequency:   17.3718413451
  - # 23
    frequency:   17.3732302722
  - # 24
    frequency:   20.5043666599
  - # 25
    frequency:   38.5526930863
  - # 26
    frequency:   64.7649415776
  - # 27
    frequency:   69.1876902949

- q-position: [    0.0151515,    0.0000000,    0.0000000 ]
  distance:    0.0053477
  band:
  - # 1
    frequency:   -0.9847992984
  - # 2
    frequency:   -0.9673338564
  - # 3
    frequency:   -0.0651567853
  - # 4
    frequency:    0.2425449514
  - # 5
    frequency:    0.4040480474
  - # 6
    frequency:    1.0554089289
  - # 7
    frequency:    1.0839186433
  - # 8
    frequency:    4.4398883813
  - # 9
    frequency:    4.4551154038
  - # 10
    frequency:    5.5487748811
  - # 11
    frequency:    7.0788337163
  - # 12
    frequency:    7.0908625322
  - # 13
    frequency:    8.6116999527
  - # 14
    frequency:    8.6170106932
  - # 15
    frequency:    8.9577684886
  - # 16
    frequency:   11.1041245003
  - # 17
    frequency:   11.1077783495
  - # 18
    frequency:   11.5545757684
  - # 19
    frequency:   14.6872526355
  - # 20
    frequency:   16.4280294865
  - # 21
    frequency:   16.4296571090
  - # 22
    frequency:   17.3720900510
  - # 23
    frequency:   17.3752112205
  - # 24
    frequency:   20.5038847675
  - # 25
    frequency:   38.5524946082
  - # 26
    frequency:   64.7643824035
  - # 27
    frequency:   69.1797804423

- q-position: [    0.0202020,    0.0000000,    0.0000000 ]
  distance:    0.0071302
  band:
  - # 1
    frequency:   -0.9788760090
  - # 2
    frequency:   -0.9482406556
  - # 3
    frequency:    0.0411364405
  - # 4
    frequency:    0.3229183202
  - # 5
    frequency:    0.5289282640
  - # 6
    frequency:    1.0627998552
  - # 7
    frequency:    1.1137231443
  - # 8
    frequency:    4.4392789549
  - # 9
    frequency:    4.4662187068
  - # 10
    frequency:    5.5453510467
  - # 11
    frequency:    7.0765363488
  - # 12
    frequency:    7.0978450577
  - # 13
    frequency:    8.6091046794
  - # 14
    frequency:    8.6185150290
  - # 15
    frequency:    8.9556175157
  - # 16
    frequency:   11.1006103813
  - # 17
    frequency:   11.1070978415
  - # 18
    frequency:   11.5497205434
  - # 19
    frequency:   14.6855488403
  - # 20
    frequency:   16.4254727244
  - # 21
    frequency:   16.4283584098
  - # 22
    frequency:   17.3724375931
  - # 23
    frequency:   17.3779766012
  - # 24
    frequency:   20.5032111695
  - # 25
    frequency:   38.5522177062
  - # 26
    frequency:   64.7636012603
  - # 27
    frequency:   69.1687403191

- q-position: [    0.0252525,    0.0000000,    0.0000000 ]
  distance:    0.0089128
  band:
  - # 1
    frequency:   -0.9715020793
  - # 2
    frequency:   -0.9242167390
  - # 3
    frequency:    0.1017709030
  - # 4
    frequency:    0.4027044038
  - # 5
    frequency:    0.6522735329
  - # 6
    frequency:    1.0725374186
  - # 7
    frequency:    1.1528812095
  - # 8
    frequency:    4.4385199070
  - # 9
    frequency:    4.4803535897
  - # 10
    frequency:    5.5410304858
  - # 11
    frequency:    7.0735909689
  - # 12
    frequency:    7.1067351962
  - # 13
    frequency:    8.6057834998
  - # 14
    frequency:    8.6204246800
  - # 15
    frequency:    8.9528771589
  - # 16
    frequency:   11.0961235312
  - # 17
    frequency:   11.1062426827
  - # 18
    frequency:   11.5434764532
  - # 19
    frequency:   14.6833478275
  - # 20
    frequency:   16.4222245195
  - # 21
    frequency:   16.4267176741
  - # 22
    frequency:   17.3728833400
  - # 23
    frequency:   17.3815185045
  - # 24
    frequency:   20.5023469161
  - # 25
    frequency:   38.5518633418
  - # 26
    frequency:   64.7625998405
  - # 27
    frequency:   69.1546033934

- q-position: [    0.0303030,    0.0000000,    0.0000000 ]
  distance:    0.0106953
  band:
  - # 1
    frequency:   -0.9628076083
  - # 2
    frequency:   -0.8953137782
  - # 3
    frequency:    0.1488701833
  - # 4
    frequency:    0.4815403633
  - # 5
    frequency:    0.7716177057
  - # 6
    frequency:    1.0848414920
  - # 7
    frequency:    1.2025162851
  - # 8
    frequency:    4.4376295910
  - # 9
    frequency:    4.4974184131
  - # 10
    frequency:    5.5358721268
  - # 11
    frequency:    7.0700041269
  - # 12
    frequency:    7.1174704225
  - # 13
    frequency:    8.6017479449
  - # 14
    frequency:    8.6227206262
  - # 15
    frequency:    8.9495668856
  - # 16
    frequency:   11.0906872810
  - # 17
    frequency:   11.1052260822
  - # 18
    frequency:   11.5358441634
  - # 19
    frequency:   14.6806420122
  - # 20
    frequency:   16.4183134762
  - # 21
    frequency:   16.4247561032
  - # 22
    frequency:   17.3734264998
  - # 23
    frequency:   17.3858268159
  - # 24
    frequency:   20.5012933549
  - # 25
    frequency:   38.5514327437
  - # 26
    frequency:   64.7613803078
  - # 27
    frequency:   69.1374124073

- q-position: [    0.0353535,    0.0000000,    0.0000000 ]
  distance:    0.0124779
  band:
  - # 1
    frequency:   -0.9529092714
  - # 2
    frequency:   -0.8613780799
  - # 3
    frequency:    0.1940603345
  - # 4
    frequency:    0.5589265555
  - # 5
    frequency:    0.8840935909
  - # 6
    frequency:    1.1000346004
  - # 7
    frequency:    1.2643303486
  - # 8
    frequency:    4.4366304093
  - # 9
    frequency:    4.5172930487
  - # 10
    frequency:    5.5299458174
  - # 11
    frequency:    7.0657841176
  - # 12
    frequency:    7.1299774178
  - # 13
    frequency:    8.5970119223
  - # 14
    frequency:    8.6253788728
  - # 15
    frequency:    8.9457111689
  - # 16
    frequency:   11.0843299790
  - # 17
    frequency:   11.1040623360
  - # 18
    frequency:   11.5268266300
  - # 19
    frequency:   14.6774223937
  - # 20
    frequency:   16.4137737874
  - # 21
    frequency:   16.4224989954
  - # 22
    frequency:   17.3740661342
  - # 23
    frequency:   17.3908892603
  - # 24
    frequency:   20.5000521301
  - # 25
    frequency:   38.5509274012
  - # 26
    frequency:   64.7599452889
  - # 27
    frequency:   69.1172191642

- q-position: [    0.0404040,    0.0000000,    0.0000000 ]
  distance:    0.0142604
  band:
  - # 1
    frequency:   -0.9418999564
  - # 2
    frequency:   -0.8220275748
  - # 3
    frequency:    0.2397763376
  - # 4
    frequency:    0.6341988296
  - # 5
    frequency:    0.9868817005
  - # 6
    frequency:    1.1185781536
  - # 7
    frequency:    1.3401062111
  - # 8
    frequency:    4.4355487885
  - # 9
    frequency:    4.5398409524
  - # 10
    frequency:    5.5233313697
  - # 11
    frequency:    7.0609411442
  - # 12
    frequency:    7.1441736119
  - # 13
    frequency:    8.5915916091
  - # 14
    frequency:    8.6283699621
  - # 15
    frequency:    8.9413399414
  - # 16
    frequency:   11.0770848831
  - # 17
    frequency:   11.1027656449
  - # 18
    frequency:   11.5164304320
  - # 19
    frequency:   14.6736787357
  - # 20
    frequency:   16.4086447749
  - # 21
    frequency:   16.4199753942
  - # 22
    frequency:   17.3748011745
  - # 23
    frequency:   17.3966914595
  - # 24
    frequency:   20.4986251799
  - # 25
    frequency:   38.5503490574
  - # 26
    frequency:   64.7582978625
  - # 27
    frequency:   69.0940842695

- q-position: [    0.0454545,    0.0000000,    0.0000000 ]
  distance:    0.0160430
  band:
  - # 1
    frequency:   -0.9298436784
  - # 2
    frequency:   -0.7766229591
  - # 3
    frequency:    0.2870212514
  - # 4
    frequency:    0.7065033714
  - # 5
    frequency:    1.0785181742
  - # 6
    frequency:    1.1411080880
  - # 7
    frequency:    1.4303895446
  - # 8
    frequency:    4.4344151428
  - # 9
    frequency:    4.5649113061
  - # 10
    frequency:    5.5161177032
  - # 11
    frequency:    7.0554875009
  - # 12
    frequency:    7.1599687653
  - # 13
    frequency:    8.5855053277
  - # 14
    frequency:    8.6316583598
  - # 15
    frequency:    8.9364891747
  - # 16
    frequency:   11.0689900285
  - # 17
    frequency:   11.1013486254
  - # 18
    frequency:   11.5046674147
  - # 19
    frequency:   14.6693997940
  - # 20
    frequency:   16.4029703502
  - # 21
    frequency:   16.4172176871
  - # 22
    frequency:   17.3756304390
  - # 23
    frequency:   17.4032170023
  - # 24
    frequency:   20.4970147342
  - # 25
    frequency:   38.5496997004
  - # 26
    frequency:   64.7564415469
  - # 27
    frequency:   69.0680768296

- q-position: [    0.0505051,    0.0000000,    0.0000000 ]
  distance:    0.0178255
  band:
  - # 1
    frequency:   -0.9167749664
  - # 2
    frequency:   -0.7241971289
  - # 3
    frequency:    0.3363238868
  - # 4
    frequency:    0.7747985833
  - # 5
    frequency:    1.1599572926
  - # 6
    frequency:    1.1684429346
  - # 7
    frequency:    1.5334194033
  - # 8
    frequency:    4.4332638227
  - # 9
    frequency:    4.5923411157
  - # 10
    frequency:    5.5084021765
  - # 11
    frequency:    7.0494377727
  - # 12
    frequency:    7.1772665230
  - # 13
    frequency:    8.5787734078
  - # 14
    frequency:    8.6352016995
  - # 15
    frequency:    8.9312016033
  - # 16
    frequency:   11.0600880670
  - # 17
    frequency:   11.0998204333
  - # 18
    frequency:   11.4915567165
  - # 19
    frequency:   14.6645735940
  - # 20
    frequency:   16.3967983996
  - # 21
    frequency:   16.4142611618
  - # 22
    frequency:   17.3765526514
  - # 23
    frequency:   17.4104475284
  - # 24
    frequency:   20.4952233118
  - # 25
    frequency:   38.5489815541
  - # 26
    frequency:   64.7543802860
  - # 27
    frequency:   69.0392741085

- q-position: [    0.0555556,    0.0000000,    0.0000000 ]
  distance:    0.0196081
  band:
  - # 1
    frequency:   -0.9027011951
  - # 2
    frequency:   -0.6632896206
  - # 3
    frequency:    0.3880069593
  - # 4
    frequency:    0.8379397574
  - # 5
    frequency:    1.2015070854
  - # 6
    frequency:    1.2338729289
  - # 7
    frequency:    1.6458158587
  - # 8
    frequency:    4.4321330441
  - # 9
    frequency:    4.6219571544
  - # 10
    frequency:    5.5002901952
  - # 11
    frequency:    7.0428090446
  - # 12
    frequency:    7.1959658810
  - # 13
    frequency:    8.5714180353
  - # 14
    frequency:    8.6389498667
  - # 15
    frequency:    8.9255276150
  - # 16
    frequency:   11.0504260783
  - # 17
    frequency:   11.0981843754
  - # 18
    frequency:   11.4771272950
  - # 19
    frequency:   14.6591877598
  - # 20
    frequency:   16.3901801020
  - # 21
    frequency:   16.4111435276
  - # 22
    frequency:   17.3775664591
  - # 23
    frequency:   17.4183628264
  - # 24
    frequency:   20.4932537168
  - # 25
    frequency:   38.5481970670
  - # 26
    frequency:   64.7521184329
  - # 27
    frequency:   69.0077611450

- q-position: [    0.0606061,    0.0000000,    0.0000000 ]
  distance:    0.0213906
  band:
  - # 1
    frequency:   -0.8876062684
  - # 2
    frequency:   -0.5915644471
  - # 3
    frequency:    0.4422881155
  - # 4
    frequency:    0.8949133087
  - # 5
    frequency:    1.2411020313
  - # 6
    frequency:    1.3030610381
  - # 7
    frequency:    1.7641640820
  - # 8
    frequency:    4.4310647935
  - # 9
    frequency:    4.6535776456
  - # 10
    frequency:    5.4918951786
  - # 11
    frequency:    7.0356211136
  - # 12
    frequency:    7.2159625235
  - # 13
    frequency:    8.5634630916
  - # 14
    frequency:    8.6428439147
  - # 15
    frequency:    8.9195263202
  - # 16
    frequency:   11.0400553491
  - # 17
    frequency:   11.0964348199
  - # 18
    frequency:   11.4614211317
  - # 19
    frequency:   14.6532298961
  - # 20
    frequency:   16.3831691863
  - # 21
    frequency:   16.4079044086
  - # 22
    frequency:   17.3786704519
  - # 23
    frequency:   17.4269409438
  - # 24
    frequency:   20.4911090351
  - # 25
    frequency:   38.5473489002
  - # 26
    frequency:   64.7496607334
  - # 27
    frequency:   68.9736303335

- q-position: [    0.0656566,    0.0000000,    0.0000000 ]
  distance:    0.0231732
  band:
  - # 1
    frequency:   -0.8714544050
  - # 2
    frequency:   -0.5048353401
  - # 3
    frequency:    0.4993192861
  - # 4
    frequency:    0.9451960193
  - # 5
    frequency:    1.2875503410
  - # 6
    frequency:    1.3695861789
  - # 7
    frequency:    1.8858541533
  - # 8
    frequency:    4.4301047025
  - # 9
    frequency:    4.6870135823
  - # 10
    frequency:    5.4833389669
  - # 11
    frequency:    7.0278966991
  - # 12
    frequency:    7.2371500057
  - # 13
    frequency:    8.5549339842
  - # 14
    frequency:    8.6468148163
  - # 15
    frequency:    8.9132667979
  - # 16
    frequency:   11.0290311196
  - # 17
    frequency:   11.0945531211
  - # 18
    frequency:   11.4444973942
  - # 19
    frequency:   14.6466880171
  - # 20
    frequency:   16.3758211426
  - # 21
    frequency:   16.4045848179
  - # 22
    frequency:   17.3798631794
  - # 23
    frequency:   17.4361583091
  - # 24
    frequency:   20.4887926298
  - # 25
    frequency:   38.5464399149
  - # 26
    frequency:   64.7470123066
  - # 27
    frequency:   68.9369809696

- q-position: [    0.0707071,    0.0000000,    0.0000000 ]
  distance:    0.0249557
  band:
  - # 1
    frequency:   -0.8541932375
  - # 2
    frequency:   -0.3939133983
  - # 3
    frequency:    0.5591916542
  - # 4
    frequency:    0.9890195841
  - # 5
    frequency:    1.3404326349
  - # 6
    frequency:    1.4347431472
  - # 7
    frequency:    2.0091068672
  - # 8
    frequency:    4.4293018868
  - # 9
    frequency:    4.7220695727
  - # 10
    frequency:    5.4747527616
  - # 11
    frequency:    7.0196616405
  - # 12
    frequency:    7.2594207664
  - # 13
    frequency:    8.5458574726
  - # 14
    frequency:    8.6507820978
  - # 15
    frequency:    8.9068294780
  - # 16
    frequency:   11.0174122979
  - # 17
    frequency:   11.0925021402
  - # 18
    frequency:   11.4264379653
  - # 19
    frequency:   14.6395510183
  - # 20
    frequency:   16.3681924000
  - # 21
    frequency:   16.4012266201
  - # 22
    frequency:   17.3811431676
  - # 23
    frequency:   17.4459898636
  - # 24
    frequency:   20.4863081362
  - # 25
    frequency:   38.5454731575
  - # 26
    frequency:   64.7441786249
  - # 27
    frequency:   68.8979187639

- q-position: [    0.0757576,    0.0000000,    0.0000000 ]
  distance:    0.0267383
  band:
  - # 1
    frequency:   -0.8357558236
  - # 2
    frequency:   -0.2266795175
  - # 3
    frequency:    0.6219134598
  - # 4
    frequency:    1.0272926740
  - # 5
    frequency:    1.3986659249
  - # 6
    frequency:    1.4992815449
  - # 7
    frequency:    2.1327381956
  - # 8
    frequency:    4.4287087403
  - # 9
    frequency:    4.7585440902
  - # 10
    frequency:    5.4662787076
  - # 11
    frequency:    7.0109450771
  - # 12
    frequency:    7.2826669695
  - # 13
    frequency:    8.5362614908
  - # 14
    frequency:    8.6546524673
  - # 15
    frequency:    8.9003075514
  - # 16
    frequency:   11.0052611404
  - # 17
    frequency:   11.0902187728
  - # 18
    frequency:   11.4073549270
  - # 19
    frequency:   14.6318091796
  - # 20
    frequency:   16.3603394891
  - # 21
    frequency:   16.3978719910
  - # 22
    frequency:   17.3825089348
  - # 23
    frequency:   17.4564092005
  - # 24
    frequency:   20.4836594565
  - # 25
    frequency:   38.5444518456
  - # 26
    frequency:   64.7411654929
  - # 27
    frequency:   68.8565553278

- q-position: [    0.0808081,    0.0000000,    0.0000000 ]
  distance:    0.0285208
  band:
  - # 1
    frequency:   -0.8160614158
  - # 2
    frequency:    0.2367793335
  - # 3
    frequency:    0.6873674890
  - # 4
    frequency:    1.0612384453
  - # 5
    frequency:    1.4608658846
  - # 6
    frequency:    1.5636132291
  - # 7
    frequency:    2.2559424593
  - # 8
    frequency:    4.4283806794
  - # 9
    frequency:    4.7962289759
  - # 10
    frequency:    5.4580722634
  - # 11
    frequency:    7.0017795996
  - # 12
    frequency:    7.3067811798
  - # 13
    frequency:    8.5261749714
  - # 14
    frequency:    8.6583186735
  - # 15
    frequency:    8.8938081756
  - # 16
    frequency:   10.9926429004
  - # 17
    frequency:   11.0876036950
  - # 18
    frequency:   11.3874007809
  - # 19
    frequency:   14.6234546887
  - # 20
    frequency:   16.3523182064
  - # 21
    frequency:   16.3945628806
  - # 22
    frequency:   17.3839590044
  - # 23
    frequency:   17.4673887105
  - # 24
    frequency:   20.4808507535
  - # 25
    frequency:   38.5433793512
  - # 26
    frequency:   64.7379790250
  - # 27
    frequency:   68.8130076324

- q-position: [    0.0858586,    0.0000000,    0.0000000 ]
  distance:    0.0303034
  band:
  - # 1
    frequency:   -0.7950149365
  - # 2
    frequency:    0.4086233574
  - # 3
    frequency:    0.7552679105
  - # 4
    frequency:    1.0920387947
  - # 5
    frequency:    1.5257021009
  - # 6
    frequency:    1.6279502859
  - # 7
    frequency:    2.3781463589
  - # 8
    frequency:    4.4283758279
  - # 9
    frequency:    4.8349079960
  - # 10
    frequency:    5.4503055531
  - # 11
    frequency:    6.9922013661
  - # 12
    frequency:    7.3316568851
  - # 13
    frequency:    8.5156276714
  - # 14
    frequency:    8.6616590133
  - # 15
    frequency:    8.8874530606
  - # 16
    frequency:   10.9796254468
  - # 17
    frequency:   11.0845074289
  - # 18
    frequency:   11.3667823048
  - # 19
    frequency:   14.6144821683
  - # 20
    frequency:   16.3441828011
  - # 21
    frequency:   16.3913404893
  - # 22
    frequency:   17.3854919175
  - # 23
    frequency:   17.4788997297
  - # 24
    frequency:   20.4778864442
  - # 25
    frequency:   38.5422591846
  - # 26
    frequency:   64.7346256219
  - # 27
    frequency:   68.7673974463

- q-position: [    0.0909091,    0.0000000,    0.0000000 ]
  distance:    0.0320859
  band:
  - # 1
    frequency:   -0.7725050939
  - # 2
    frequency:    0.5305688974
  - # 3
    frequency:    0.8251507786
  - # 4
    frequency:    1.1206555249
  - # 5
    frequency:    1.5920763623
  - # 6
    frequency:    1.6923881932
  - # 7
    frequency:    2.4989189394
  - # 8
    frequency:    4.4287546345
  - # 9
    frequency:    4.8743541923
  - # 10
    frequency:    5.4431719650
  - # 11
    frequency:    6.9822501725
  - # 12
    frequency:    7.3571888774
  - # 13
    frequency:    8.5046500057
  - # 14
    frequency:    8.6645381628
  - # 15
    frequency:    8.8813777667
  - # 16
    frequency:   10.9662788547
  - # 17
    frequency:   11.0807120946
  - # 18
    frequency:   11.3457786789
  - # 19
    frequency:   14.6048891913
  - # 20
    frequency:   16.3359852041
  - # 21
    frequency:   16.3882447617
  - # 22
    frequency:   17.3871062427
  - # 23
    frequency:   17.4909126900
  - # 24
    frequency:   20.4747711921
  - # 25
    frequency:   38.5410949771
  - # 26
    frequency:   64.7311119467
  - # 27
    frequency:   68.7198507538

- q-position: [    0.0959596,    0.0000000,    0.0000000 ]
  distance:    0.0338685
  band:
  - # 1
    frequency:   -0.7484009733
  - # 2
    frequency:    0.6326373546
  - # 3
    frequency:    0.8964246250
  - # 4
    frequency:    1.1478020260
  - # 5
    frequency:    1.6591505060
  - # 6
    frequency:    1.7569546003
  - # 7
    frequency:    2.6179168165
  - # 8
    frequency:    4.4295794166
  - # 9
    frequency:    4.9143256858
  - # 10
    frequency:    5.4368923365
  - # 11
    frequency:    6.9719694719
  - # 12
    frequency:    7.3832735102
  - # 13
    frequency:    8.4932728880
  - # 14
    frequency:    8.6668102582
  - # 15
    frequency:    8.8757287875
  - # 16
    frequency:   10.9526749723
  - # 17
    frequency:   11.0759096332
  - # 18
    frequency:   11.3247630972
  - # 19
    frequency:   14.5946767642
  - # 20
    frequency:   16.3277743192
  - # 21
    frequency:   16.3853139064
  - # 22
    frequency:   17.3888005848
  - # 23
    frequency:   17.5033972675
  - # 24
    frequency:   20.4715098992
  - # 25
    frequency:   38.5398904626
  - # 26
    frequency:   64.7274449000
  - # 27
    frequency:   68.6704971578

- q-position: [    0.1010101,    0.0000000,    0.0000000 ]
  distance:    0.0356510
  band:
  - # 1
    frequency:   -0.7225467468
  - # 2
    frequency:    0.7239197301
  - # 3
    frequency:    0.9684681704
  - # 4
    frequency:    1.1739826291
  - # 5
    frequency:    1.7263067209
  - # 6
    frequency:    1.8216379219
  - # 7
    frequency:    2.7348502641
  - # 8
    frequency:    4.4309138232
  - # 9
    frequency:    4.9545595454
  - # 10
    frequency:    5.4317231127
  - # 11
    frequency:    6.9614063320
  - # 12
    frequency:    7.4098088486
  - # 13
    frequency:    8.4815275845
  - # 14
    frequency:    8.6683252658
  - # 15
    frequency:    8.8706573836
  - # 16
    frequency:   10.9388869690
  - # 17
    frequency:   11.0696813463
  - # 18
    frequency:   11.3042230244
  - # 19
    frequency:   14.5838497631
  - # 20
    frequency:   16.3195953937
  - # 21
    frequency:   16.3825839463
  - # 22
    frequency:   17.3905735908
  - # 23
    frequency:   17.5163225298
  - # 24
    frequency:   20.4681076974
  - # 25
    frequency:   38.5386494595
  - # 26
    frequency:   64.7236315946
  - # 27
    frequency:   68.6194692714

- q-position: [    0.1060606,    0.0000000,    0.0000000 ]
  distance:    0.0374336
  band:
  - # 1
    frequency:   -0.6947538286
  - # 2
    frequency:    0.8087423631
  - # 3
    frequency:    1.0407271982
  - # 4
    frequency:    1.1995455334
  - # 5
    frequency:    1.7930944276
  - # 6
    frequency:    1.8864042458
  - # 7
    frequency:    2.8494615108
  - # 8
    frequency:    4.4328222111
  - # 9
    frequency:    4.9947634051
  - # 10
    frequency:    5.4279667805
  - # 11
    frequency:    6.9506113284
  - # 12
    frequency:    7.4366947257
  - # 13
    frequency:    8.4694455810
  - # 14
    frequency:    8.6689393486
  - # 15
    frequency:    8.8663094576
  - # 16
    frequency:   10.9249888686
  - # 17
    frequency:   11.0614920843
  - # 18
    frequency:   11.2847657684
  - # 19
    frequency:   14.5724173027
  - # 20
    frequency:   16.3114894849
  - # 21
    frequency:   16.3800883045
  - # 22
    frequency:   17.3924239551
  - # 23
    frequency:   17.5296570787
  - # 24
    frequency:   20.4645699389
  - # 25
    frequency:   38.5373758513
  - # 26
    frequency:   64.7196793298
  - # 27
    frequency:   68.5669021021

- q-position: [    0.1111111,    0.0000000,    0.0000000 ]
  distance:    0.0392161
  band:
  - # 1
    frequency:   -0.6647892787
  - # 2
    frequency:    0.8895579719
  - # 3
    frequency:    1.1127703479
  - # 4
    frequency:    1.2247282752
  - # 5
    frequency:    1.8591847576
  - # 6
    frequency:    1.9512074344
  - # 7
    frequency:    2.9615102715
  - # 8
    frequency:    4.4353689329
  - # 9
    frequency:    5.0346049959
  - # 10
    frequency:    5.4259843794
  - # 11
    frequency:    6.9396383645
  - # 12
    frequency:    7.4638327229
  - # 13
    frequency:    8.4570584659
  - # 14
    frequency:    8.6685288849
  - # 15
    frequency:    8.8628118183
  - # 16
    frequency:   10.9110550752
  - # 17
    frequency:   11.0507237349
  - # 18
    frequency:   11.2670847244
  - # 19
    frequency:   14.5603930269
  - # 20
    frequency:   16.3034930348
  - # 21
    frequency:   16.3778574299
  - # 22
    frequency:   17.3943504226
  - # 23
    frequency:   17.5433691884
  - # 24
    frequency:   20.4609021861
  - # 25
    frequency:   38.5360735683
  - # 26
    frequency:   64.7155955656
  - # 27
    frequency:   68.5129324308

- q-position: [    0.1161616,    0.0000000,    0.0000000 ]
  distance:    0.0409987
  band:
  - # 1
    frequency:   -0.6323583193
  - # 2
    frequency:    0.9678666799
  - # 3
    frequency:    1.1842984670
  - # 4
    frequency:    1.2496915485
  - # 5
    frequency:    1.9243368071
  - # 6
    frequency:    2.0159952070
  - # 7
    frequency:    3.0707636910
  - # 8
    frequency:    4.4386175366
  - # 9
    frequency:    5.0737012455
  - # 10
    frequency:    5.4262083687
  - # 11
    frequency:    6.9285444185
  - # 12
    frequency:    7.4911260870
  - # 13
    frequency:    8.4443978308
  - # 14
    frequency:    8.6670060241
  - # 15
    frequency:    8.8602569426
  - # 16
    frequency:   10.8971598965
  - # 17
    frequency:   11.0367732481
  - # 18
    frequency:   11.2518610570
  - # 19
    frequency:   14.5477953070
  - # 20
    frequency:   16.2956375608
  - # 21
    frequency:   16.3759184661
  - # 22
    frequency:   17.3963517901
  - # 23
    frequency:   17.5574269386
  - # 24
    frequency:   20.4571102004
  - # 25
    frequency:   38.5347465673
  - # 26
    frequency:   64.7113878963
  - # 27
    frequency:   68.4576981918

- q-position: [    0.1212121,    0.0000000,    0.0000000 ]
  distance:    0.0427812
  band:
  - # 1
    frequency:   -0.5970770417
  - # 2
    frequency:    1.0446148908
  - # 3
    frequency:    1.2551255995
  - # 4
    frequency:    1.2745429393
  - # 5
    frequency:    1.9883740783
  - # 6
    frequency:    2.0807128139
  - # 7
    frequency:    3.1769891325
  - # 8
    frequency:    4.4426298807
  - # 9
    frequency:    5.1116122513
  - # 10
    frequency:    5.4291504277