nqpoint: 300    
npath: 3      
segment_nqpoint:
- 100
- 100
- 100
labels:
- [ 'G', 'M' ]
- [ 'M', 'K' ]
- [ 'K', 'G' ]
reciprocal_lattice:
- [   0.27975064,   0.16151411,   0.00000000 ] # a*
- [   0.00000000,   0.32302821,   0.00000000 ] # b*
- [   0.00000000,   0.00000000,   0.03397077 ] # c*
natom: 9      
lattice:
- [     3.574612045888793,     0.000000000000000,     0.000000000000000 ] # a
- [    -1.787306022944396,     3.095704840410476,     0.000000000000000 ] # b
- [     0.000000000000000,     0.000000000000000,    29.437069363633000 ] # c
points:
- symbol: C # 1
  coordinates: [  0.000000000000000,  0.000000000000000,  0.500000025020730 ]
  mass: 12.010700
- symbol: C # 2
  coordinates: [  0.333332985432215,  0.666666983183674,  0.653810177398834 ]
  mass: 12.010700
- symbol: C # 3
  coordinates: [  0.666666984744047,  0.333332985985145,  0.346189822971843 ]
  mass: 12.010700
- symbol: N # 4
  coordinates: [  0.333332985432215,  0.666666983183674,  0.694263043347694 ]
  mass: 14.006700
- symbol: N # 5
  coordinates: [  0.666666984744047,  0.333332985985145,  0.305736956652306 ]
  mass: 14.006700
- symbol: S # 6
  coordinates: [  0.333332985432215,  0.666666983183674,  0.596685313147142 ]
  mass: 32.065000
- symbol: S # 7
  coordinates: [  0.666666984744047,  0.333332985985145,  0.403314687223535 ]
  mass: 32.065000
- symbol: Zr # 8
  coordinates: [  0.333332985432215,  0.666666983183674,  0.460070157277296 ]
  mass: 91.224000
- symbol: Zr # 9
  coordinates: [  0.666666984744047,  0.333332985985145,  0.539929842722697 ]
  mass: 91.224000

phonon:
- q-position: [    0.0000000,    0.0000000,    0.0000000 ]
  distance:    0.0000000
  band:
  - # 1
    frequency:   -0.0000095854
  - # 2
    frequency:    0.0000002380
  - # 3
    frequency:    0.0000077040
  - # 4
    frequency:    1.0304291242
  - # 5
    frequency:    1.0304291242
  - # 6
    frequency:    1.1276448449
  - # 7
    frequency:    1.1276448449
  - # 8
    frequency:    3.6624991686
  - # 9
    frequency:    3.6624991686
  - # 10
    frequency:    4.5766073297
  - # 11
    frequency:    6.3416999947
  - # 12
    frequency:    6.3416999947
  - # 13
    frequency:    6.7474363104
  - # 14
    frequency:    6.7474363104
  - # 15
    frequency:    6.8373391473
  - # 16
    frequency:    9.0268959988
  - # 17
    frequency:   10.7325482607
  - # 18
    frequency:   10.7325482607
  - # 19
    frequency:   10.7935663861
  - # 20
    frequency:   10.7935663861
  - # 21
    frequency:   13.6446876056
  - # 22
    frequency:   15.4218038455
  - # 23
    frequency:   15.4218038455
  - # 24
    frequency:   20.2384735013
  - # 25
    frequency:   20.2627420837
  - # 26
    frequency:   64.8593272047
  - # 27
    frequency:   64.8597997094

- q-position: [    0.0050505,    0.0000000,    0.0000000 ]
  distance:    0.0016315
  band:
  - # 1
    frequency:    0.0018381679
  - # 2
    frequency:    0.0556851783
  - # 3
    frequency:    0.0880347368
  - # 4
    frequency:    1.0305645285
  - # 5
    frequency:    1.0317879394
  - # 6
    frequency:    1.1279126736
  - # 7
    frequency:    1.1291626565
  - # 8
    frequency:    3.6628708226
  - # 9
    frequency:    3.6637020036
  - # 10
    frequency:    4.5763275498
  - # 11
    frequency:    6.3417156780
  - # 12
    frequency:    6.3422570827
  - # 13
    frequency:    6.7470856588
  - # 14
    frequency:    6.7475888205
  - # 15
    frequency:    6.8378505423
  - # 16
    frequency:    9.0262991074
  - # 17
    frequency:   10.7325789859
  - # 18
    frequency:   10.7327239771
  - # 19
    frequency:   10.7936136736
  - # 20
    frequency:   10.7936776268
  - # 21
    frequency:   13.6447157151
  - # 22
    frequency:   15.4219614867
  - # 23
    frequency:   15.4224403831
  - # 24
    frequency:   20.2384465424
  - # 25
    frequency:   20.2626680873
  - # 26
    frequency:   64.8592696321
  - # 27
    frequency:   64.8597420435

- q-position: [    0.0101010,    0.0000000,    0.0000000 ]
  distance:    0.0032629
  band:
  - # 1
    frequency:    0.0073424706
  - # 2
    frequency:    0.1112921260
  - # 3
    frequency:    0.1758562475
  - # 4
    frequency:    1.0309708027
  - # 5
    frequency:    1.0358462971
  - # 6
    frequency:    1.1287208331
  - # 7
    frequency:    1.1337318377
  - # 8
    frequency:    3.6639847400
  - # 9
    frequency:    3.6673011287
  - # 10
    frequency:    4.5754926513
  - # 11
    frequency:    6.3417629213
  - # 12
    frequency:    6.3439247367
  - # 13
    frequency:    6.7460551637
  - # 14
    frequency:    6.7480454869
  - # 15
    frequency:    6.8393630464
  - # 16
    frequency:    9.0245095906
  - # 17
    frequency:   10.7326707768
  - # 18
    frequency:   10.7332506313
  - # 19
    frequency:   10.7937556381
  - # 20
    frequency:   10.7940113617
  - # 21
    frequency:   13.6448000524
  - # 22
    frequency:   15.4224346931
  - # 23
    frequency:   15.4243464130
  - # 24
    frequency:   20.2383656878
  - # 25
    frequency:   20.2624462646
  - # 26
    frequency:   64.8590970089
  - # 27
    frequency:   64.8595691404

- q-position: [    0.0151515,    0.0000000,    0.0000000 ]
  distance:    0.0048944
  band:
  - # 1
    frequency:    0.0164620835
  - # 2
    frequency:    0.1667406373
  - # 3
    frequency:    0.2632388996
  - # 4
    frequency:    1.0316481327
  - # 5
    frequency:    1.0425509176
  - # 6
    frequency:    1.1300835911
  - # 7
    frequency:    1.1414017682
  - # 8
    frequency:    3.6658377910
  - # 9
    frequency:    3.6732686184
  - # 10
    frequency:    4.5741158950
  - # 11
    frequency:    6.3418422995
  - # 12
    frequency:    6.3466921894
  - # 13
    frequency:    6.7444036994
  - # 14
    frequency:    6.7488037284
  - # 15
    frequency:    6.8418171270
  - # 16
    frequency:    9.0215309154
  - # 17
    frequency:   10.7328224860
  - # 18
    frequency:   10.7341267419
  - # 19
    frequency:   10.7939925827
  - # 20
    frequency:   10.7945676275
  - # 21
    frequency:   13.6449406435
  - # 22
    frequency:   15.4232243084
  - # 23
    frequency:   15.4275112104
  - # 24
    frequency:   20.2382310026
  - # 25
    frequency:   20.2620771145
  - # 26
    frequency:   64.8588096184
  - # 27
    frequency:   64.8592812834

- q-position: [    0.0202020,    0.0000000,    0.0000000 ]
  distance:    0.0065258
  band:
  - # 1
    frequency:    0.0291190403
  - # 2
    frequency:    0.2219464258
  - # 3
    frequency:    0.3499312200
  - # 4
    frequency:    1.0325968332
  - # 5
    frequency:    1.0518161531
  - # 6
    frequency:    1.1320255710
  - # 7
    frequency:    1.1522619031
  - # 8
    frequency:    3.6684247753
  - # 9
    frequency:    3.6815586291
  - # 10
    frequency:    4.5722191733
  - # 11
    frequency:    6.3419547533
  - # 12
    frequency:    6.3505417018
  - # 13
    frequency:    6.7422140161
  - # 14
    frequency:    6.7498592773
  - # 15
    frequency:    6.8451289571
  - # 16
    frequency:    9.0173688459
  - # 17
    frequency:   10.7330322208
  - # 18
    frequency:   10.7353498495
  - # 19
    frequency:   10.7943249985
  - # 20
    frequency:   10.7953464777
  - # 21
    frequency:   13.6451375298
  - # 22
    frequency:   15.4243317239
  - # 23
    frequency:   15.4319169790
  - # 24
    frequency:   20.2380425931
  - # 25
    frequency:   20.2615614678
  - # 26
    frequency:   64.8584079320
  - # 27
    frequency:   64.8588789442

- q-position: [    0.0252525,    0.0000000,    0.0000000 ]
  distance:    0.0081573
  band:
  - # 1
    frequency:    0.0452103536
  - # 2
    frequency:    0.2768187542
  - # 3
    frequency:    0.4356405106
  - # 4
    frequency:    1.0338173533
  - # 5
    frequency:    1.0635283377
  - # 6
    frequency:    1.1345830767
  - # 7
    frequency:    1.1664524927
  - # 8
    frequency:    3.6717384453
  - # 9
    frequency:    3.6921084064
  - # 10
    frequency:    4.5698327071
  - # 11
    frequency:    6.3421015638
  - # 12
    frequency:    6.3554488616
  - # 13
    frequency:    6.7395775251
  - # 14
    frequency:    6.7512062306
  - # 15
    frequency:    6.8492056610
  - # 16
    frequency:    9.0120314201
  - # 17
    frequency:   10.7332973749
  - # 18
    frequency:   10.7369165321
  - # 19
    frequency:   10.7947535438
  - # 20
    frequency:   10.7963479726
  - # 21
    frequency:   13.6453907658
  - # 22
    frequency:   15.4257588566
  - # 23
    frequency:   15.4375389682
  - # 24
    frequency:   20.2378006024
  - # 25
    frequency:   20.2609004854
  - # 26
    frequency:   64.8578926079
  - # 27
    frequency:   64.8583627813

- q-position: [    0.0303030,    0.0000000,    0.0000000 ]
  distance:    0.0097887
  band:
  - # 1
    frequency:    0.0646130200
  - # 2
    frequency:    0.3312576505
  - # 3
    frequency:    0.5200150213
  - # 4
    frequency:    1.0353102788
  - # 5
    frequency:    1.0775512960
  - # 6
    frequency:    1.1378060660
  - # 7
    frequency:    1.1841791772
  - # 8
    frequency:    3.6757695385
  - # 9
    frequency:    3.7048396158
  - # 10
    frequency:    4.5669946433
  - # 11
    frequency:    6.3422843184
  - # 12
    frequency:    6.3613829797
  - # 13
    frequency:    6.7365825211
  - # 14
    frequency:    6.7528371189
  - # 15
    frequency:    6.8539571375
  - # 16
    frequency:    9.0055289207
  - # 17
    frequency:   10.7336146707
  - # 18
    frequency:   10.7388224253
  - # 19
    frequency:   10.7952790144
  - # 20
    frequency:   10.7975721643
  - # 21
    frequency:   13.6457004152
  - # 22
    frequency:   15.4275081181
  - # 23
    frequency:   15.4443456351
  - # 24
    frequency:   20.2375052053
  - # 25
    frequency:   20.2600956565
  - # 26
    frequency:   64.8572644896
  - # 27
    frequency:   64.8577336386

- q-position: [    0.0353535,    0.0000000,    0.0000000 ]
  distance:    0.0114202
  band:
  - # 1
    frequency:    0.0871891589
  - # 2
    frequency:    0.3851505472
  - # 3
    frequency:    0.6026243847
  - # 4
    frequency:    1.0370763281
  - # 5
    frequency:    1.0937327252
  - # 6
    frequency:    1.1417608886
  - # 7
    frequency:    1.2057298967
  - # 8
    frequency:    3.6805068198
  - # 9
    frequency:    3.7196599265
  - # 10
    frequency:    4.5637505689
  - # 11
    frequency:    6.3425048693
  - # 12
    frequency:    6.3683075648
  - # 13
    frequency:    6.7333075585
  - # 14
    frequency:    6.7547429927
  - # 15
    frequency:    6.8593027450
  - # 16
    frequency:    8.9978738376
  - # 17
    frequency:   10.7339802158
  - # 18
    frequency:   10.7410622473
  - # 19
    frequency:   10.7959023052
  - # 20
    frequency:   10.7990190796
  - # 21
    frequency:   13.6460665459
  - # 22
    frequency:   15.4295823758
  - # 23
    frequency:   15.4522988500
  - # 24
    frequency:   20.2371566005
  - # 25
    frequency:   20.2591487969
  - # 26
    frequency:   64.8565246037
  - # 27
    frequency:   64.8569925428

- q-position: [    0.0404040,    0.0000000,    0.0000000 ]
  distance:    0.0130516
  band:
  - # 1
    frequency:    0.1127907898
  - # 2
    frequency:    0.4383681770
  - # 3
    frequency:    0.6829419022
  - # 4
    frequency:    1.0391163344
  - # 5
    frequency:    1.1119112479
  - # 6
    frequency:    1.1465339211
  - # 7
    frequency:    1.2314898175
  - # 8
    frequency:    3.6859371314
  - # 9
    frequency:    3.7364647701
  - # 10
    frequency:    4.5601529666
  - # 11
    frequency:    6.3427652863
  - # 12
    frequency:    6.3761808532
  - # 13
    frequency:    6.7298191771
  - # 14
    frequency:    6.7569135236
  - # 15
    frequency:    6.8651736566
  - # 16
    frequency:    8.9890808242
  - # 17
    frequency:   10.7343895705
  - # 18
    frequency:   10.7436298277
  - # 19
    frequency:   10.7966243624
  - # 20
    frequency:   10.8006887002
  - # 21
    frequency:   13.6464892243
  - # 22
    frequency:   15.4319849069
  - # 23
    frequency:   15.4613541425
  - # 24
    frequency:   20.2367550006
  - # 25
    frequency:   20.2580620477
  - # 26
    frequency:   64.8556741570
  - # 27
    frequency:   64.8561407016

- q-position: [    0.0454545,    0.0000000,    0.0000000 ]
  distance:    0.0146831
  band:
  - # 1
    frequency:    0.1412639352
  - # 2
    frequency:    0.4907595827
  - # 3
    frequency:    0.7603380183
  - # 4
    frequency:    1.0414312053
  - # 5
    frequency:    1.1319238575
  - # 6
    frequency:    1.1522362187
  - # 7
    frequency:    1.2619445764
  - # 8
    frequency:    3.6920454526
  - # 9
    frequency:    3.7551391938
  - # 10
    frequency:    4.5562606332
  - # 11
    frequency:    6.3430678052
  - # 12
    frequency:    6.3849563663
  - # 13
    frequency:    6.7261723430
  - # 14
    frequency:    6.7593371174
  - # 15
    frequency:    6.8715125241
  - # 16
    frequency:    8.9791666491
  - # 17
    frequency:   10.7348378291
  - # 18
    frequency:   10.7465181409
  - # 19
    frequency:   10.7974461264
  - # 20
    frequency:   10.8025809406
  - # 21
    frequency:   13.6469685081
  - # 22
    frequency:   15.4347193437
  - # 23
    frequency:   15.4714609866
  - # 24
    frequency:   20.2363006197
  - # 25
    frequency:   20.2568378742
  - # 26
    frequency:   64.8547145339
  - # 27
    frequency:   64.8551794997

- q-position: [    0.0505051,    0.0000000,    0.0000000 ]
  distance:    0.0163146
  band:
  - # 1
    frequency:    0.1724519225
  - # 2
    frequency:    0.5421461952
  - # 3
    frequency:    0.8341029373
  - # 4
    frequency:    1.0440218510
  - # 5
    frequency:    1.1536131800
  - # 6
    frequency:    1.1590092140
  - # 7
    frequency:    1.2976540822
  - # 8
    frequency:    3.6988149667
  - # 9
    frequency:    3.7755597304
  - # 10
    frequency:    4.5521380846
  - # 11
    frequency:    6.3434147749
  - # 12
    frequency:    6.3945834692
  - # 13
    frequency:    6.7224121986
  - # 14
    frequency:    6.7620010381
  - # 15
    frequency:    6.8782718636
  - # 16
    frequency:    8.9681501428
  - # 17
    frequency:   10.7353197107
  - # 18
    frequency:   10.7497193410
  - # 19
    frequency:   10.7983684676
  - # 20
    frequency:   10.8046956254
  - # 21
    frequency:   13.6475044378
  - # 22
    frequency:   15.4377896140
  - # 23
    frequency:   15.4825631215
  - # 24
    frequency:   20.2357936569
  - # 25
    frequency:   20.2554790683
  - # 26
    frequency:   64.8536472925
  - # 27
    frequency:   64.8541104961

- q-position: [    0.0555556,    0.0000000,    0.0000000 ]
  distance:    0.0179460
  band:
  - # 1
    frequency:    0.2061978977
  - # 2
    frequency:    0.5923151851
  - # 3
    frequency:    0.9035223703
  - # 4
    frequency:    1.0468890692
  - # 5
    frequency:    1.1670312501
  - # 6
    frequency:    1.1768336208
  - # 7
    frequency:    1.3391736448
  - # 8
    frequency:    3.7062271364
  - # 9
    frequency:    3.7975962161
  - # 10
    frequency:    4.5478549719
  - # 11
    frequency:    6.3438086022
  - # 12
    frequency:    6.4050078992
  - # 13
    frequency:    6.7185762332
  - # 14
    frequency:    6.7648915393
  - # 15
    frequency:    6.8854120595
  - # 16
    frequency:    8.9560521430
  - # 17
    frequency:   10.7358296611
  - # 18
    frequency:   10.7532247993
  - # 19
    frequency:   10.7993921142
  - # 20
    frequency:   10.8070324667
  - # 21
    frequency:   13.6480970275
  - # 22
    frequency:   15.4411998740
  - # 23
    frequency:   15.4945989047
  - # 24
    frequency:   20.2352342745
  - # 25
    frequency:   20.2539887533
  - # 26
    frequency:   64.8524741607
  - # 27
    frequency:   64.8529354197

- q-position: [    0.0606061,    0.0000000,    0.0000000 ]
  distance:    0.0195775
  band:
  - # 1
    frequency:    0.2423466466
  - # 2
    frequency:    0.6410128203
  - # 3
    frequency:    0.9680180234
  - # 4
    frequency:    1.0500333765
  - # 5
    frequency:    1.1765242092
  - # 6
    frequency:    1.2014553939
  - # 7
    frequency:    1.3869117870
  - # 8
    frequency:    3.7142617871
  - # 9
    frequency:    3.8211134993
  - # 10
    frequency:    4.5434855278
  - # 11
    frequency:    6.3442516995
  - # 12
    frequency:    6.4161722315
  - # 13
    frequency:    6.7146964306
  - # 14
    frequency:    6.7679940013
  - # 15
    frequency:    6.8928994468
  - # 16
    frequency:    8.9428954370
  - # 17
    frequency:   10.7363619613
  - # 18
    frequency:   10.7570251436
  - # 19
    frequency:   10.8005175748
  - # 20
    frequency:   10.8095910408
  - # 21
    frequency:   13.6487462542
  - # 22
    frequency:   15.4449544373
  - # 23
    frequency:   15.5075016939
  - # 24
    frequency:   20.2346225687
  - # 25
    frequency:   20.2523703955
  - # 26
    frequency:   64.8511970323
  - # 27
    frequency:   64.8516561649

- q-position: [    0.0656566,    0.0000000,    0.0000000 ]
  distance:    0.0212089
  band:
  - # 1
    frequency:    0.2807458550
  - # 2
    frequency:    0.6879395466
  - # 3
    frequency:    1.0273179837
  - # 4
    frequency:    1.0534547764
  - # 5
    frequency:    1.1877585161
  - # 6
    frequency:    1.2273658633
  - # 7
    frequency:    1.4409602040
  - # 8
    frequency:    3.7228971966
  - # 9
    frequency:    3.8459729925
  - # 10
    frequency:    4.5391080643
  - # 11
    frequency:    6.3447464337
  - # 12
    frequency:    6.4280162459
  - # 13
    frequency:    6.7108012275
  - # 14
    frequency:    6.7712930713
  - # 15
    frequency:    6.9007046591
  - # 16
    frequency:    8.9287047044
  - # 17
    frequency:   10.7369108418
  - # 18
    frequency:   10.7611102985
  - # 19
    frequency:   10.8017450588
  - # 20
    frequency:   10.8123707667
  - # 21
    frequency:   13.6494520460
  - # 22
    frequency:   15.4490576985
  - # 23
    frequency:   15.5212002547
  - # 24
    frequency:   20.2339585284
  - # 25
    frequency:   20.2506278264
  - # 26
    frequency:   64.8498179615
  - # 27
    frequency:   64.8502747873

- q-position: [    0.0707071,    0.0000000,    0.0000000 ]
  distance:    0.0228404
  band:
  - # 1
    frequency:    0.3212469400
  - # 2
    frequency:    0.7327500592
  - # 3
    frequency:    1.0571524650
  - # 4
    frequency:    1.0815662198
  - # 5
    frequency:    1.2010532402
  - # 6
    frequency:    1.2544683769
  - # 7
    frequency:    1.5009865595
  - # 8
    frequency:    3.7321101919
  - # 9
    frequency:    3.8720340367
  - # 10
    frequency:    4.5348045374
  - # 11
    frequency:    6.3452950788
  - # 12
    frequency:    6.4404771461
  - # 13
    frequency:    6.7069172742
  - # 14
    frequency:    6.7747728048
  - # 15
    frequency:    6.9088012836
  - # 16
    frequency:    8.9135064607
  - # 17
    frequency:   10.7374705982
  - # 18
    frequency:   10.7654695260
  - # 19
    frequency:   10.8030743958
  - # 20
    frequency:   10.8153708851
  - # 21
    frequency:   13.6502142698
  - # 22
    frequency:   15.4535140537
  - # 23
    frequency:   15.5356191896
  - # 24
    frequency:   20.2332419756
  - # 25
    frequency:   20.2487652827
  - # 26
    frequency:   64.8483391582
  - # 27
    frequency:   64.8487934981

- q-position: [    0.0757576,    0.0000000,    0.0000000 ]
  distance:    0.0244718
  band:
  - # 1
    frequency:    0.3637055654
  - # 2
    frequency:    0.7750634959
  - # 3
    frequency:    1.0611244827
  - # 4
    frequency:    1.1312904873
  - # 5
    frequency:    1.2167661461
  - # 6
    frequency:    1.2826794076
  - # 7
    frequency:    1.5662701123
  - # 8
    frequency:    3.7418762517
  - # 9
    frequency:    3.8991550547
  - # 10
    frequency:    4.5306601921
  - # 11
    frequency:    6.3458997739
  - # 12
    frequency:    6.4534895733
  - # 13
    frequency:    6.7030710710
  - # 14
    frequency:    6.7784168070
  - # 15
    frequency:    6.9171648019
  - # 16
    frequency:    8.8973290028
  - # 17
    frequency:   10.7380357038
  - # 18
    frequency:   10.7700914682
  - # 19
    frequency:   10.8045049597
  - # 20
    frequency:   10.8185904392
  - # 21
    frequency:   13.6510327174
  - # 22
    frequency:   15.4583278183
  - # 23
    frequency:   15.5506793854
  - # 24
    frequency:   20.2324724726
  - # 25
    frequency:   20.2467874770
  - # 26
    frequency:   64.8467629827
  - # 27
    frequency:   64.8472146587

- q-position: [    0.0808081,    0.0000000,    0.0000000 ]
  distance:    0.0261033
  band:
  - # 1
    frequency:    0.4079819284
  - # 2
    frequency:    0.8144898662
  - # 3
    frequency:    1.0653673438
  - # 4
    frequency:    1.1772454974
  - # 5
    frequency:    1.2352675398
  - # 6
    frequency:    1.3119250281
  - # 7
    frequency:    1.6358623837
  - # 8
    frequency:    3.7521696154
  - # 9
    frequency:    3.9271944827
  - # 10
    frequency:    4.5267633014
  - # 11
    frequency:    6.3465624853
  - # 12
    frequency:    6.4669853210
  - # 13
    frequency:    6.6992906066
  - # 14
    frequency:    6.7822083707
  - # 15
    frequency:    6.9257717753
  - # 16
    frequency:    8.8802023569
  - # 17
    frequency:   10.7386009176
  - # 18
    frequency:   10.7749641905
  - # 19
    frequency:   10.8060355988
  - # 20
    frequency:   10.8220282560
  - # 21
    frequency:   13.6519070914
  - # 22
    frequency:   15.4635031432
  - # 23
    frequency:   15.5662984739
  - # 24
    frequency:   20.2316491735
  - # 25
    frequency:   20.2446997262
  - # 26
    frequency:   64.8450919392
  - # 27
    frequency:   64.8455407750

- q-position: [    0.0858586,    0.0000000,    0.0000000 ]
  distance:    0.0277347
  band:
  - # 1
    frequency:    0.4539408846
  - # 2
    frequency:    0.8506763664
  - # 3
    frequency:    1.0698756955
  - # 4
    frequency:    1.2202300195
  - # 5
    frequency:    1.2568942058
  - # 6
    frequency:    1.3421375610
  - # 7
    frequency:    1.7087734369
  - # 8
    frequency:    3.7629633958
  - # 9
    frequency:    3.9560114759
  - # 10
    frequency:    4.5232050068
  - # 11
    frequency:    6.3472849750
  - # 12
    frequency:    6.4808926133
  - # 13
    frequency:    6.6956071808
  - # 14
    frequency:    6.7861306124
  - # 15
    frequency:    6.9345992251
  - # 16
    frequency:    8.8621582306
  - # 17
    frequency:   10.7391613817
  - # 18
    frequency:   10.7800752278
  - # 19
    frequency:   10.8076645766
  - # 20
    frequency:   10.8256829281
  - # 21
    frequency:   13.6528369908
  - # 22
    frequency:   15.4690439293
  - # 23
    frequency:   15.5823913037
  - # 24
    frequency:   20.2307705692
  - # 25
    frequency:   20.2425081834
  - # 26
    frequency:   64.8433286699
  - # 27
    frequency:   64.8437744912

- q-position: [    0.0909091,    0.0000000,    0.0000000 ]
  distance:    0.0293662
  band:
  - # 1
    frequency:    0.5014519516
  - # 2
    frequency:    0.8833686896
  - # 3
    frequency:    1.0746420816
  - # 4
    frequency:    1.2609604668
  - # 5
    frequency:    1.2818882444
  - # 6
    frequency:    1.3732529077
  - # 7
    frequency:    1.7841007904
  - # 8
    frequency:    3.7742296971
  - # 9
    frequency:    3.9854663903
  - # 10
    frequency:    4.5200792671
  - # 11
    frequency:    6.3480687750
  - # 12
    frequency:    6.4951347177
  - # 13
    frequency:    6.6920576796
  - # 14
    frequency:    6.7901666019
  - # 15
    frequency:    6.9436241691
  - # 16
    frequency:    8.8432299700
  - # 17
    frequency:   10.7397127053
  - # 18
    frequency:   10.7854116332
  - # 19
    frequency:   10.8093895259
  - # 20
    frequency:   10.8295527947
  - # 21
    frequency:   13.6538218951
  - # 22
    frequency:   15.4749537433
  - # 23
    frequency:   15.5988704183
  - # 24
    frequency:   20.2298340248
  - # 25
    frequency:   20.2402202794
  - # 26
    frequency:   64.8414759488
  - # 27
    frequency:   64.8419185829

- q-position: [    0.0959596,    0.0000000,    0.0000000 ]
  distance:    0.0309977
  band:
  - # 1
    frequency:    0.5503892225
  - # 2
    frequency:    0.9124695475
  - # 3
    frequency:    1.0796568948
  - # 4
    frequency:    1.3000182433
  - # 5
    frequency:    1.3103385064
  - # 6
    frequency:    1.4052087556
  - # 7
    frequency:    1.8610835450
  - # 8
    frequency:    3.7859397366
  - # 9
    frequency:    4.0154210472
  - # 10
    frequency:    4.5174829205
  - # 11
    frequency:    6.3489151668
  - # 12
    frequency:    6.5096275090
  - # 13
    frequency:    6.6886877194
  - # 14
    frequency:    6.7942994877
  - # 15
    frequency:    6.9528232787
  - # 16
    frequency:    8.8234525209
  - # 17
    frequency:   10.7402510342
  - # 18
    frequency:   10.7909600326
  - # 19
    frequency:   10.8112074176
  - # 20
    frequency:   10.8336359205
  - # 21
    frequency:   13.6548611493
  - # 22
    frequency:   15.4812357339
  - # 23
    frequency:   15.6156465372
  - # 24
    frequency:   20.2288348804
  - # 25
    frequency:   20.2378455991
  - # 26
    frequency:   64.8395366744
  - # 27
    frequency:   64.8399759510

- q-position: [    0.1010101,    0.0000000,    0.0000000 ]
  distance:    0.0326291
  band:
  - # 1
    frequency:    0.6006312057
  - # 2
    frequency:    0.9380691281
  - # 3
    frequency:    1.0849085855
  - # 4
    frequency:    1.3378475738
  - # 5
    frequency:    1.3421498296
  - # 6
    frequency:    1.4379436671
  - # 7
    frequency:    1.9391050578
  - # 8
    frequency:    3.7980639693
  - # 9
    frequency:    4.0457387929
  - # 10
    frequency:    4.5155158565
  - # 11
    frequency:    6.3498251676
  - # 12
    frequency:    6.5242753220
  - # 13
    frequency:    6.6855563527
  - # 14
    frequency:    6.7985126151
  - # 15
    frequency:    6.9621726292
  - # 16
    frequency:    8.8028623973
  - # 17
    frequency:   10.7407731022
  - # 18
    frequency:   10.7967066862
  - # 19
    frequency:   10.8131145474
  - # 20
    frequency:   10.8379300694
  - # 21
    frequency:   13.6559539484
  - # 22
    frequency:   15.4878925498
  - # 23
    frequency:   15.6326290369
  - # 24
    frequency:   20.2277645778
  - # 25
    frequency:   20.2353977342
  - # 26
    frequency:   64.8375138628
  - # 27
    frequency:   64.8379496138

- q-position: [    0.1060606,    0.0000000,    0.0000000 ]
  distance:    0.0342606
  band:
  - # 1
    frequency:    0.6520606022
  - # 2
    frequency:    0.9604312119
  - # 3
    frequency:    1.0903841523
  - # 4
    frequency:    1.3747760487
  - # 5
    frequency:    1.3770563284
  - # 6
    frequency:    1.4713969385
  - # 7
    frequency:    2.0176720867
  - # 8
    frequency:    3.8105722149
  - # 9
    frequency:    4.0762843731
  - # 10
    frequency:    4.5142812876
  - # 11
    frequency:    6.3507995213
  - # 12
    frequency:    6.5389639406
  - # 13
    frequency:    6.6827435094
  - # 14
    frequency:    6.8027896375
  - # 15
    frequency:    6.9716475223
  - # 16
    frequency:    8.7814976555
  - # 17
    frequency:   10.7412762651
  - # 18
    frequency:   10.8026375602
  - # 19
    frequency:   10.8151065375
  - # 20
    frequency:   10.8424326716
  - # 21
    frequency:   13.6570993220
  - # 22
    frequency:   15.4949262608
  - # 23
    frequency:   15.6497264283
  - # 24
    frequency:   20.2266064719
  - # 25
    frequency:   20.2328984498
  - # 26
    frequency:   64.8354106407
  - # 27
    frequency:   64.8358427006

- q-position: [    0.1111111,    0.0000000,    0.0000000 ]
  distance:    0.0358920
  band:
  - # 1
    frequency:    0.7045640267
  - # 2
    frequency:    0.9799410951
  - # 3
    frequency:    1.0960698682
  - # 4
    frequency:    1.4110403144
  - # 5
    frequency:    1.4146726324
  - # 6
    frequency:    1.5055090544
  - # 7
    frequency:    2.0963881928
  - # 8
    frequency:    3.8234337869
  - # 9
    frequency:    4.1069236537
  - # 10
    frequency:    4.5138860943
  - # 11
    frequency:    6.3518386943
  - # 12
    frequency:    6.5535487560
  - # 13
    frequency:    6.6803621612
  - # 14
    frequency:    6.8071146200
  - # 15
    frequency:    6.9812223628
  - # 16
    frequency:    8.7593978748
  - # 17
    frequency:   10.7417585173
  - # 18
    frequency:   10.8087384108
  - # 19
    frequency:   10.8171783563
  - # 20
    frequency:   10.8471407809
  - # 21
    frequency:   13.6582961199
  - # 22
    frequency:   15.5023382827
  - # 23
    frequency:   15.6668468279
  - # 24
    frequency:   20.2253260620
  - # 25
    frequency:   20.2303874341
  - # 26
    frequency:   64.8332302372
  - # 27
    frequency:   64.8336584434

- q-position: [    0.1161616,    0.0000000,    0.0000000 ]
  distance:    0.0375235
  band:
  - # 1
    frequency:    0.7580316757
  - # 2
    frequency:    0.9970390416
  - # 3
    frequency:    1.1019521304
  - # 4
    frequency:    1.4468091023
  - # 5
    frequency:    1.4545594644
  - # 6
    frequency:    1.5402225342
  - # 7
    frequency:    2.1749294519
  - # 8
    frequency:    3.8366176228
  - # 9
    frequency:    4.1375232466
  - # 10
    frequency:    4.5144411867
  - # 11
    frequency:    6.3529428765
  - # 12
    frequency:    6.5678349929
  - # 13
    frequency:    6.6785783248
  - # 14
    frequency:    6.8114721351
  - # 15
    frequency:    6.9908705779
  - # 16
    frequency:    8.7366041461
  - # 17
    frequency:   10.7422184922
  - # 18
    frequency:   10.8149948849
  - # 19
    frequency:   10.8193243508
  - # 20
    frequency:   10.8520510178
  - # 21
    frequency:   13.6595429973
  - # 22
    frequency:   15.5101293061
  - # 23
    frequency:   15.6838984194
  - # 24
    frequency:   20.2238502695
  - # 25
    frequency:   20.2279430011
  - # 26
    frequency:   64.8309759770
  - # 27
    frequency:   64.8314001697

- q-position: [    0.1212121,    0.0000000,    0.0000000 ]
  distance:    0.0391549
  band:
  - # 1
    frequency:    0.8123569441
  - # 2
    frequency:    1.0121629212
  - # 3
    frequency:    1.1080182824
  - # 4
    frequency:    1.4822013890
  - # 5
    frequency:    1.4962800495
  - # 6
    frequency:    1.5754829676
  - # 7
    frequency:    2.2530249245
  - # 8
    frequency:    3.8500924147
  - # 9
    frequency:    4.1679501435
  - # 10
    frequency:    4.5160617758