nqpoint: 300    
npath: 3      
segment_nqpoint:
- 100
- 100
- 100
labels:
- [ 'G', 'M' ]
- [ 'M', 'K' ]
- [ 'K', 'G' ]
reciprocal_lattice:
- [   0.27975064,   0.16151411,   0.00000000 ] # a*
- [   0.00000000,   0.32302821,   0.00000000 ] # b*
- [   0.00000000,   0.00000000,   0.03397077 ] # c*
natom: 9      
lattice:
- [     3.574612045888793,     0.000000000000000,     0.000000000000000 ] # a
- [    -1.787306022944396,     3.095704840410476,     0.000000000000000 ] # b
- [     0.000000000000000,     0.000000000000000,    29.437069363633000 ] # c
points:
- symbol: C # 1
  coordinates: [  0.000000000000000,  0.000000000000000,  0.500000025020730 ]
  mass: 12.010700
- symbol: C # 2
  coordinates: [  0.333332985432215,  0.666666983183674,  0.653810177398834 ]
  mass: 12.010700
- symbol: C # 3
  coordinates: [  0.666666984744047,  0.333332985985145,  0.346189822971843 ]
  mass: 12.010700
- symbol: N # 4
  coordinates: [  0.333332985432215,  0.666666983183674,  0.694263043347694 ]
  mass: 14.006700
- symbol: N # 5
  coordinates: [  0.666666984744047,  0.333332985985145,  0.305736956652306 ]
  mass: 14.006700
- symbol: S # 6
  coordinates: [  0.333332985432215,  0.666666983183674,  0.596685313147142 ]
  mass: 32.065000
- symbol: S # 7
  coordinates: [  0.666666984744047,  0.333332985985145,  0.403314687223535 ]
  mass: 32.065000
- symbol: Zr # 8
  coordinates: [  0.333332985432215,  0.666666983183674,  0.460070157277296 ]
  mass: 91.224000
- symbol: Zr # 9
  coordinates: [  0.666666984744047,  0.333332985985145,  0.539929842722697 ]
  mass: 91.224000

phonon:
- q-position: [    0.0000000,    0.0000000,    0.0000000 ]
  distance:    0.0000000
  band:
  - # 1
    frequency:   -0.0000009740
  - # 2
    frequency:   -0.0000005008
  - # 3
    frequency:    0.0000009355
  - # 4
    frequency:    0.8352396485
  - # 5
    frequency:    0.8352396485
  - # 6
    frequency:    0.9048488312
  - # 7
    frequency:    0.9048488312
  - # 8
    frequency:    3.5891055270
  - # 9
    frequency:    3.5891055270
  - # 10
    frequency:    4.6399776083
  - # 11
    frequency:    6.3065716680
  - # 12
    frequency:    6.3065716680
  - # 13
    frequency:    6.7546153492
  - # 14
    frequency:    6.7546153492
  - # 15
    frequency:    6.8552928433
  - # 16
    frequency:    9.0652505728
  - # 17
    frequency:   10.7005852749
  - # 18
    frequency:   10.7005852749
  - # 19
    frequency:   10.8203888582
  - # 20
    frequency:   10.8203888582
  - # 21
    frequency:   13.5721233535
  - # 22
    frequency:   15.1606265991
  - # 23
    frequency:   15.1606265991
  - # 24
    frequency:   20.2313445396
  - # 25
    frequency:   20.2575037251
  - # 26
    frequency:   64.8562470213
  - # 27
    frequency:   64.8652625826

- q-position: [    0.0050505,    0.0000000,    0.0000000 ]
  distance:    0.0016315
  band:
  - # 1
    frequency:   -0.0182608135
  - # 2
    frequency:    0.0568362930
  - # 3
    frequency:    0.0872043742
  - # 4
    frequency:    0.8355573136
  - # 5
    frequency:    0.8368501203
  - # 6
    frequency:    0.9052572299
  - # 7
    frequency:    0.9068921138
  - # 8
    frequency:    3.5896210819
  - # 9
    frequency:    3.5905350235
  - # 10
    frequency:    4.6396648835
  - # 11
    frequency:    6.3067036084
  - # 12
    frequency:    6.3071858151
  - # 13
    frequency:    6.7542673652
  - # 14
    frequency:    6.7547425479
  - # 15
    frequency:    6.8557551764
  - # 16
    frequency:    9.0645830409
  - # 17
    frequency:   10.7006583559
  - # 18
    frequency:   10.7009251779
  - # 19
    frequency:   10.8203795438
  - # 20
    frequency:   10.8203944160
  - # 21
    frequency:   13.5723154118
  - # 22
    frequency:   15.1610088828
  - # 23
    frequency:   15.1613721088
  - # 24
    frequency:   20.2313343528
  - # 25
    frequency:   20.2574383077
  - # 26
    frequency:   64.8561889361
  - # 27
    frequency:   64.8651976846

- q-position: [    0.0101010,    0.0000000,    0.0000000 ]
  distance:    0.0032629
  band:
  - # 1
    frequency:   -0.0358365604
  - # 2
    frequency:    0.1136172847
  - # 3
    frequency:    0.1741821589
  - # 4
    frequency:    0.8365089127
  - # 5
    frequency:    0.8416583002
  - # 6
    frequency:    0.9064861837
  - # 7
    frequency:    0.9130288620
  - # 8
    frequency:    3.5911651789
  - # 9
    frequency:    3.5948110575
  - # 10
    frequency:    4.6387315965
  - # 11
    frequency:    6.3070985625
  - # 12
    frequency:    6.3090237875
  - # 13
    frequency:    6.7532401475
  - # 14
    frequency:    6.7551236279
  - # 15
    frequency:    6.8571253855
  - # 16
    frequency:    9.0625822387
  - # 17
    frequency:   10.7008769693
  - # 18
    frequency:   10.7019424367
  - # 19
    frequency:   10.8203528205
  - # 20
    frequency:   10.8204113965
  - # 21
    frequency:   13.5728903762
  - # 22
    frequency:   15.1621543512
  - # 23
    frequency:   15.1636045100
  - # 24
    frequency:   20.2313037188
  - # 25
    frequency:   20.2572421189
  - # 26
    frequency:   64.8560147883
  - # 27
    frequency:   64.8650031300

- q-position: [    0.0151515,    0.0000000,    0.0000000 ]
  distance:    0.0048944
  band:
  - # 1
    frequency:   -0.0520192420
  - # 2
    frequency:    0.1702850984
  - # 3
    frequency:    0.2606864297
  - # 4
    frequency:    0.8380902754
  - # 5
    frequency:    0.8495963333
  - # 6
    frequency:    0.9085473808
  - # 7
    frequency:    0.9232847703
  - # 8
    frequency:    3.5937301435
  - # 9
    frequency:    3.6018965935
  - # 10
    frequency:    4.6371923235
  - # 11
    frequency:    6.3077539390
  - # 12
    frequency:    6.3120722652
  - # 13
    frequency:    6.7515803106
  - # 14
    frequency:    6.7557570445
  - # 15
    frequency:    6.8593566995
  - # 16
    frequency:    9.0592535290
  - # 17
    frequency:   10.7012392232
  - # 18
    frequency:   10.7036296970
  - # 19
    frequency:   10.8203123694
  - # 20
    frequency:   10.8204407256
  - # 21
    frequency:   13.5738446323
  - # 22
    frequency:   15.1640588666
  - # 23
    frequency:   15.1673114392
  - # 24
    frequency:   20.2312524151
  - # 25
    frequency:   20.2569153496
  - # 26
    frequency:   64.8557249017
  - # 27
    frequency:   64.8646793363

- q-position: [    0.0202020,    0.0000000,    0.0000000 ]
  distance:    0.0065258
  band:
  - # 1
    frequency:   -0.0660454401
  - # 2
    frequency:    0.2267764064
  - # 3
    frequency:    0.3464267262
  - # 4
    frequency:    0.8402945126
  - # 5
    frequency:    0.8605569140
  - # 6
    frequency:    0.9114617429
  - # 7
    frequency:    0.9377195939
  - # 8
    frequency:    3.5973032791
  - # 9
    frequency:    3.6117309844
  - # 10
    frequency:    4.6350710753
  - # 11
    frequency:    6.3086654502
  - # 12
    frequency:    6.3163093317
  - # 13
    frequency:    6.7493552619
  - # 14
    frequency:    6.7566402321
  - # 15
    frequency:    6.8623814866
  - # 16
    frequency:    9.0546057933
  - # 17
    frequency:   10.7017419561
  - # 18
    frequency:   10.7059746848
  - # 19
    frequency:   10.8202644033
  - # 20
    frequency:   10.8204839607
  - # 21
    frequency:   13.5751722121
  - # 22
    frequency:   15.1667155641
  - # 23
    frequency:   15.1724723584
  - # 24
    frequency:   20.2311800676
  - # 25
    frequency:   20.2564583253
  - # 26
    frequency:   64.8553198141
  - # 27
    frequency:   64.8642269976

- q-position: [    0.0252525,    0.0000000,    0.0000000 ]
  distance:    0.0081573
  band:
  - # 1
    frequency:   -0.0770397418
  - # 2
    frequency:    0.2830189022
  - # 3
    frequency:    0.4310401813
  - # 4
    frequency:    0.8431121070
  - # 5
    frequency:    0.8744007701
  - # 6
    frequency:    0.9152618034
  - # 7
    frequency:    0.9564533710
  - # 8
    frequency:    3.6018670063
  - # 9
    frequency:    3.6242315142
  - # 10
    frequency:    4.6324008905
  - # 11
    frequency:    6.3098271594
  - # 12
    frequency:    6.3217048809
  - # 13
    frequency:    6.7466423834
  - # 14
    frequency:    6.7577696184
  - # 15
    frequency:    6.8661221285
  - # 16
    frequency:    9.0486513486
  - # 17
    frequency:   10.7023807239
  - # 18
    frequency:   10.7089601653
  - # 19
    frequency:   10.8202177953
  - # 20
    frequency:   10.8205433115
  - # 21
    frequency:   13.5768648765
  - # 22
    frequency:   15.1701148995
  - # 23
    frequency:   15.1790586575
  - # 24
    frequency:   20.2310861435
  - # 25
    frequency:   20.2558715162
  - # 26
    frequency:   64.8548002756
  - # 27
    frequency:   64.8636470819

- q-position: [    0.0303030,    0.0000000,    0.0000000 ]
  distance:    0.0097887
  band:
  - # 1
    frequency:   -0.0839026906
  - # 2
    frequency:    0.3389266561
  - # 3
    frequency:    0.5140550778
  - # 4
    frequency:    0.8465310363
  - # 5
    frequency:    0.8909651988
  - # 6
    frequency:    0.9199955093
  - # 7
    frequency:    0.9797037307
  - # 8
    frequency:    3.6073990539
  - # 9
    frequency:    3.6392954143
  - # 10
    frequency:    4.6292232956
  - # 11
    frequency:    6.3112315448
  - # 12
    frequency:    6.3282211521
  - # 13
    frequency:    6.7435198908
  - # 14
    frequency:    6.7591406435
  - # 15
    frequency:    6.8705002441
  - # 16
    frequency:    9.0414058368
  - # 17
    frequency:   10.7031497839
  - # 18
    frequency:   10.7125638518
  - # 19
    frequency:   10.8201842889
  - # 20
    frequency:   10.8206216679
  - # 21
    frequency:   13.5789122259
  - # 22
    frequency:   15.1742447142
  - # 23
    frequency:   15.1870337998
  - # 24
    frequency:   20.2309699419
  - # 25
    frequency:   20.2551555527
  - # 26
    frequency:   64.8541672455
  - # 27
    frequency:   64.8629408272

- q-position: [    0.0353535,    0.0000000,    0.0000000 ]
  distance:    0.0114202
  band:
  - # 1
    frequency:   -0.0850535079
  - # 2
    frequency:    0.3943936996
  - # 3
    frequency:    0.5948490243
  - # 4
    frequency:    0.8505369281
  - # 5
    frequency:    0.9100725002
  - # 6
    frequency:    0.9257320231
  - # 7
    frequency:    1.0078306446
  - # 8
    frequency:    3.6138726985
  - # 9
    frequency:    3.6568022317
  - # 10
    frequency:    4.6255876628
  - # 11
    frequency:    6.3128695812
  - # 12
    frequency:    6.3358133608
  - # 13
    frequency:    6.7400609618
  - # 14
    frequency:    6.7607477844
  - # 15
    frequency:    6.8754426753
  - # 16
    frequency:    9.0328880896
  - # 17
    frequency:   10.7040420767
  - # 18
    frequency:   10.7167582265
  - # 19
    frequency:   10.8201788225
  - # 20
    frequency:   10.8207226333
  - # 21
    frequency:   13.5813018353
  - # 22
    frequency:   15.1790903194
  - # 23
    frequency:   15.1963535101
  - # 24
    frequency:   20.2308305789
  - # 25
    frequency:   20.2543112480
  - # 26
    frequency:   64.8534218885
  - # 27
    frequency:   64.8621097368

- q-position: [    0.0404040,    0.0000000,    0.0000000 ]
  distance:    0.0130516
  band:
  - # 1
    frequency:   -0.0776778854
  - # 2
    frequency:    0.4492848910
  - # 3
    frequency:    0.6726163561
  - # 4
    frequency:    0.8551132400
  - # 5
    frequency:    0.9315374952
  - # 6
    frequency:    0.9325704098
  - # 7
    frequency:    1.0413728845
  - # 8
    frequency:    3.6212570477
  - # 9
    frequency:    3.6766164141
  - # 10
    frequency:    4.6215504952
  - # 11
    frequency:    6.3147308370
  - # 12
    frequency:    6.3444303872
  - # 13
    frequency:    6.7363310576
  - # 14
    frequency:    6.7625845847
  - # 15
    frequency:    6.8808843153
  - # 16
    frequency:    9.0231199739
  - # 17
    frequency:   10.7050492081
  - # 18
    frequency:   10.7215102141
  - # 19
    frequency:   10.8202200223
  - # 20
    frequency:   10.8208505610
  - # 21
    frequency:   13.5840194095
  - # 22
    frequency:   15.1846345960
  - # 23
    frequency:   15.2069660085
  - # 24
    frequency:   20.2306669664
  - # 25
    frequency:   20.2533396279
  - # 26
    frequency:   64.8525655701
  - # 27
    frequency:   64.8611555735

- q-position: [    0.0454545,    0.0000000,    0.0000000 ]
  distance:    0.0146831
  band:
  - # 1
    frequency:   -0.0540691689
  - # 2
    frequency:    0.5034227277
  - # 3
    frequency:    0.7463862624
  - # 4
    frequency:    0.8602414655
  - # 5
    frequency:    0.9406525042
  - # 6
    frequency:    0.9551736986
  - # 7
    frequency:    1.0810338865
  - # 8
    frequency:    3.6295173613
  - # 9
    frequency:    3.6985899814
  - # 10
    frequency:    4.6171746737
  - # 11
    frequency:    6.3168035850
  - # 12
    frequency:    6.3540154814
  - # 13
    frequency:    6.7323875581
  - # 14
    frequency:    6.7646436888
  - # 15
    frequency:    6.8867686696
  - # 16
    frequency:    9.0121262248
  - # 17
    frequency:   10.7061614346
  - # 18
    frequency:   10.7267806219
  - # 19
    frequency:   10.8203309443
  - # 20
    frequency:   10.8210105909
  - # 21
    frequency:   13.5870489524
  - # 22
    frequency:   15.1908581121
  - # 23
    frequency:   15.2188122898
  - # 24
    frequency:   20.2304777802
  - # 25
    frequency:   20.2522419728
  - # 26
    frequency:   64.8515998514
  - # 27
    frequency:   64.8600803529

- q-position: [    0.0505051,    0.0000000,    0.0000000 ]
  distance:    0.0163146
  band:
  - # 1
    frequency:    0.0513032868
  - # 2
    frequency:    0.5565683883
  - # 3
    frequency:    0.8151641592
  - # 4
    frequency:    0.8659013581
  - # 5
    frequency:    0.9501816402
  - # 6
    frequency:    0.9807980281
  - # 7
    frequency:    1.1275440028
  - # 8
    frequency:    3.6386154062
  - # 9
    frequency:    3.7225651619
  - # 10
    frequency:    4.6125286980
  - # 11
    frequency:    6.3190749265
  - # 12
    frequency:    6.3645069407
  - # 13
    frequency:    6.7282807532
  - # 14
    frequency:    6.7669168811
  - # 15
    frequency:    6.8930471197
  - # 16
    frequency:    8.9999342694
  - # 17
    frequency:   10.7073676557
  - # 18
    frequency:   10.7325232201
  - # 19
    frequency:   10.8205401876
  - # 20
    frequency:   10.8212086823
  - # 21
    frequency:   13.5903729467
  - # 22
    frequency:   15.1977392549
  - # 23
    frequency:   15.2318264495
  - # 24
    frequency:   20.2302614139
  - # 25
    frequency:   20.2510198756
  - # 26
    frequency:   64.8505264829
  - # 27
    frequency:   64.8588863353

- q-position: [    0.0555556,    0.0000000,    0.0000000 ]
  distance:    0.0179460
  band:
  - # 1
    frequency:    0.1057206162
  - # 2
    frequency:    0.6083953903
  - # 3
    frequency:    0.8720711735
  - # 4
    frequency:    0.8782384915
  - # 5
    frequency:    0.9614488318
  - # 6
    frequency:    1.0082341139
  - # 7
    frequency:    1.1813567202
  - # 8
    frequency:    3.6485098368
  - # 9
    frequency:    3.7483768939
  - # 10
    frequency:    4.6076859516
  - # 11
    frequency:    6.3215309260
  - # 12
    frequency:    6.3758387114
  - # 13
    frequency:    6.7240554752
  - # 14
    frequency:    6.7693951297
  - # 15
    frequency:    6.8996776203
  - # 16
    frequency:    8.9865740480
  - # 17
    frequency:   10.7086554188
  - # 18
    frequency:   10.7386832773
  - # 19
    frequency:   10.8208835579
  - # 20
    frequency:   10.8214516385
  - # 21
    frequency:   13.5939725366
  - # 22
    frequency:   15.2052543776
  - # 23
    frequency:   15.2459360557
  - # 24
    frequency:   20.2300159077
  - # 25
    frequency:   20.2496753245
  - # 26
    frequency:   64.8493473976
  - # 27
    frequency:   64.8575760178

- q-position: [    0.0606061,    0.0000000,    0.0000000 ]
  distance:    0.0195775
  band:
  - # 1
    frequency:    0.1524962384
  - # 2
    frequency:    0.6584563062
  - # 3
    frequency:    0.8787279263
  - # 4
    frequency:    0.9355226633
  - # 5
    frequency:    0.9748659440
  - # 6
    frequency:    1.0373143541
  - # 7
    frequency:    1.2423091048
  - # 8
    frequency:    3.6591565973
  - # 9
    frequency:    3.7758551149
  - # 10
    frequency:    4.6027240173
  - # 11
    frequency:    6.3241567546
  - # 12
    frequency:    6.3879408643
  - # 13
    frequency:    6.7197529538
  - # 14
    frequency:    6.7720686337
  - # 15
    frequency:    6.9066232764
  - # 16
    frequency:    8.9720778371
  - # 17
    frequency:   10.7100109426
  - # 18
    frequency:   10.7451952983
  - # 19
    frequency:   10.8214065285
  - # 20
    frequency:   10.8217471149
  - # 21
    frequency:   13.5978277112
  - # 22
    frequency:   15.2133779584
  - # 23
    frequency:   15.2610625675
  - # 24
    frequency:   20.2297388405
  - # 25
    frequency:   20.2482108254
  - # 26
    frequency:   64.8480647037
  - # 27
    frequency:   64.8561521243

- q-position: [    0.0656566,    0.0000000,    0.0000000 ]
  distance:    0.0212089
  band:
  - # 1
    frequency:    0.1985008373
  - # 2
    frequency:    0.7061506020
  - # 3
    frequency:    0.8858476586
  - # 4
    frequency:    0.9876404368
  - # 5
    frequency:    0.9909977695
  - # 6
    frequency:    1.0678808683
  - # 7
    frequency:    1.3095382280
  - # 8
    frequency:    3.6705093371
  - # 9
    frequency:    3.8048267860
  - # 10
    frequency:    4.5977240647
  - # 11
    frequency:    6.3269368410
  - # 12
    frequency:    6.4007398865
  - # 13
    frequency:    6.7154127014
  - # 14
    frequency:    6.7749268748
  - # 15
    frequency:    6.9138510281
  - # 16
    frequency:    8.9564800783
  - # 17
    frequency:   10.7114191676
  - # 18
    frequency:   10.7519796542
  - # 19
    frequency:   10.8221036054
  - # 20
    frequency:   10.8221678072
  - # 21
    frequency:   13.6019174828
  - # 22
    frequency:   15.2220827728
  - # 23
    frequency:   15.2771217970
  - # 24
    frequency:   20.2294271573
  - # 25
    frequency:   20.2466295879
  - # 26
    frequency:   64.8466806765
  - # 27
    frequency:   64.8546175956

- q-position: [    0.0707071,    0.0000000,    0.0000000 ]
  distance:    0.0228404
  band:
  - # 1
    frequency:    0.2452336718
  - # 2
    frequency:    0.7507205892
  - # 3
    frequency:    0.8934057245
  - # 4
    frequency:    1.0105660068
  - # 5
    frequency:    1.0356523577
  - # 6
    frequency:    1.0997854896
  - # 7
    frequency:    1.3817561796
  - # 8
    frequency:    3.6825198348
  - # 9
    frequency:    3.8351176209
  - # 10
    frequency:    4.5927703267
  - # 11
    frequency:    6.3298550267
  - # 12
    frequency:    6.4141587188
  - # 13
    frequency:    6.7110743905
  - # 14
    frequency:    6.7779586728
  - # 15
    frequency:    6.9213305367
  - # 16
    frequency:    8.9398172158
  - # 17
    frequency:   10.7128638412
  - # 18
    frequency:   10.7589378577
  - # 19
    frequency:   10.8225303958
  - # 20
    frequency:   10.8232442485
  - # 21
    frequency:   13.6062200569
  - # 22
    frequency:   15.2313400744
  - # 23
    frequency:   15.2940244135
  - # 24
    frequency:   20.2290768882
  - # 25
    frequency:   20.2449358209
  - # 26
    frequency:   64.8451977499
  - # 27
    frequency:   64.8529755785

- q-position: [    0.0757576,    0.0000000,    0.0000000 ]
  distance:    0.0244718
  band:
  - # 1
    frequency:    0.2931970977
  - # 2
    frequency:    0.7913309373
  - # 3
    frequency:    0.9013770933
  - # 4
    frequency:    1.0343696725
  - # 5
    frequency:    1.0806725799
  - # 6
    frequency:    1.1328889522
  - # 7
    frequency:    1.4576344428
  - # 8
    frequency:    3.6951384245
  - # 9
    frequency:    3.8665535080
  - # 10
    frequency:    4.5879496768
  - # 11
    frequency:    6.3328947250
  - # 12
    frequency:    6.4281164451
  - # 13
    frequency:    6.7067797837
  - # 14
    frequency:    6.7811522440
  - # 15
    frequency:    6.9290332919
  - # 16
    frequency:    8.9221275465
  - # 17
    frequency:   10.7143276477
  - # 18
    frequency:   10.7659467208
  - # 19
    frequency:   10.8230374763
  - # 20
    frequency:   10.8247368767
  - # 21
    frequency:   13.6107129924
  - # 22
    frequency:   15.2411197863
  - # 23
    frequency:   15.3116764855
  - # 24
    frequency:   20.2286826735
  - # 25
    frequency:   20.2431352236
  - # 26
    frequency:   64.8436185069
  - # 27
    frequency:   64.8512294141

- q-position: [    0.0808081,    0.0000000,    0.0000000 ]
  distance:    0.0261033
  band:
  - # 1
    frequency:    0.3425624327
  - # 2
    frequency:    0.8272853434
  - # 3
    frequency:    0.9097366912
  - # 4
    frequency:    1.0630683243
  - # 5
    frequency:    1.1236323833
  - # 6
    frequency:    1.1670595271
  - # 7
    frequency:    1.5360413592
  - # 8
    frequency:    3.7083144190
  - # 9
    frequency:    3.8989616320
  - # 10
    frequency:    4.5833513155
  - # 11
    frequency:    6.3360390801
  - # 12
    frequency:    6.4425275056
  - # 13
    frequency:    6.7025748568
  - # 14
    frequency:    6.7844952627
  - # 15
    frequency:    6.9369319241
  - # 16
    frequency:    8.9034510829
  - # 17
    frequency:   10.7157923933
  - # 18
    frequency:   10.7728532135
  - # 19
    frequency:   10.8236354022
  - # 20
    frequency:   10.8267761936
  - # 21
    frequency:   13.6153733493
  - # 22
    frequency:   15.2513906984
  - # 23
    frequency:   15.3299800567
  - # 24
    frequency:   20.2282369316
  - # 25
    frequency:   20.2412358319
  - # 26
    frequency:   64.8419456704
  - # 27
    frequency:   64.8493826259

- q-position: [    0.0858586,    0.0000000,    0.0000000 ]
  distance:    0.0277347
  band:
  - # 1
    frequency:    0.3933611559
  - # 2
    frequency:    0.8583229022
  - # 3
    frequency:    0.9184598262
  - # 4
    frequency:    1.0968854979
  - # 5
    frequency:    1.1652203933
  - # 6
    frequency:    1.2021715582
  - # 7
    frequency:    1.6161024621
  - # 8
    frequency:    3.7219965244
  - # 9
    frequency:    3.9321713089
  - # 10
    frequency:    4.5790665681
  - # 11
    frequency:    6.3392711252
  - # 12
    frequency:    6.4573002436
  - # 13
    frequency:    6.6985123264
  - # 14
    frequency:    6.7879749263
  - # 15
    frequency:    6.9449996953
  - # 16
    frequency:    8.8838294304
  - # 17
    frequency:   10.7172392524
  - # 18
    frequency:   10.7794754663
  - # 19
    frequency:   10.8243350963
  - # 20
    frequency:   10.8295213307
  - # 21
    frequency:   13.6201778225
  - # 22
    frequency:   15.2621206713
  - # 23
    frequency:   15.3488337518
  - # 24
    frequency:   20.2277283485
  - # 25
    frequency:   20.2392495459
  - # 26
    frequency:   64.8401820928
  - # 27
    frequency:   64.8474389067

- q-position: [    0.0909091,    0.0000000,    0.0000000 ]
  distance:    0.0293662
  band:
  - # 1
    frequency:    0.4455572649
  - # 2
    frequency:    0.8847707679
  - # 3
    frequency:    0.9275228162
  - # 4
    frequency:    1.1354556401
  - # 5
    frequency:    1.2059147610
  - # 6
    frequency:    1.2381045770
  - # 7
    frequency:    1.6971679295
  - # 8
    frequency:    3.7361332425
  - # 9
    frequency:    3.9660145576
  - # 10
    frequency:    4.5751887948
  - # 11
    frequency:    6.3425739379
  - # 12
    frequency:    6.4723345031
  - # 13
    frequency:    6.6946548982
  - # 14
    frequency:    6.7915780217
  - # 15
    frequency:    6.9532101349
  - # 16
    frequency:    8.8633056802
  - # 17
    frequency:   10.7186490809
  - # 18
    frequency:   10.7856202201
  - # 19
    frequency:   10.8251475856
  - # 20
    frequency:   10.8331427395
  - # 21
    frequency:   13.6251028638
  - # 22
    frequency:   15.2732768434
  - # 23
    frequency:   15.3681334047
  - # 24
    frequency:   20.2271390530
  - # 25
    frequency:   20.2371949689
  - # 26
    frequency:   64.8383307463
  - # 27
    frequency:   64.8454021060

- q-position: [    0.0959596,    0.0000000,    0.0000000 ]
  distance:    0.0309977
  band:
  - # 1
    frequency:    0.4990795248
  - # 2
    frequency:    0.9073959930
  - # 3
    frequency:    0.9369041785
  - # 4
    frequency:    1.1779712904
  - # 5
    frequency:    1.2460376150
  - # 6
    frequency:    1.2747437187
  - # 7
    frequency:    1.7787562806
  - # 8
    frequency:    3.7506732567
  - # 9
    frequency:    4.0003264379
  - # 10
    frequency:    4.5718134083
  - # 11
    frequency:    6.3459307900
  - # 12
    frequency:    6.4875178621
  - # 13
    frequency:    6.6910796797
  - # 14
    frequency:    6.7952909956
  - # 15
    frequency:    6.9615367932
  - # 16
    frequency:    8.8419243164
  - # 17
    frequency:   10.7200027968
  - # 18
    frequency:   10.7911254195
  - # 19
    frequency:   10.8260836752
  - # 20
    frequency:   10.8377797246
  - # 21
    frequency:   13.6301247901
  - # 22
    frequency:   15.2848258412
  - # 23
    frequency:   15.3877727048
  - # 24
    frequency:   20.2264393302
  - # 25
    frequency:   20.2351027104
  - # 26
    frequency:   64.8363947116
  - # 27
    frequency:   64.8432762161

- q-position: [    0.1010101,    0.0000000,    0.0000000 ]
  distance:    0.0326291
  band:
  - # 1
    frequency:    0.5538374668
  - # 2
    frequency:    0.9270961329
  - # 3
    frequency:    0.9465876021
  - # 4
    frequency:    1.2234896976
  - # 5
    frequency:    1.2858019480
  - # 6
    frequency:    1.3119818057
  - # 7
    frequency:    1.8605039024
  - # 8
    frequency:    3.7655657972
  - # 9
    frequency:    4.0349451854
  - # 10
    frequency:    4.5690379879
  - # 11
    frequency:    6.3493252914
  - # 12
    frequency:    6.5027199114
  - # 13
    frequency:    6.6878843777
  - # 14
    frequency:    6.7991000254
  - # 15
    frequency:    6.9699530859
  - # 16
    frequency:    8.8197311376
  - # 17
    frequency:   10.7212818179
  - # 18
    frequency:   10.7959157530
  - # 19
    frequency:   10.8271535648
  - # 20
    frequency:   10.8434850153
  - # 21
    frequency:   13.6352198802
  - # 22
    frequency:   15.2967339891
  - # 23
    frequency:   15.4076438537
  - # 24
    frequency:   20.2255785116
  - # 25
    frequency:   20.2330245107
  - # 26
    frequency:   64.8343771681
  - # 27
    frequency:   64.8410653581

- q-position: [    0.1060606,    0.0000000,    0.0000000 ]
  distance:    0.0342606
  band:
  - # 1
    frequency:    0.6097299057
  - # 2
    frequency:    0.9446581483
  - # 3
    frequency:    0.9565720504
  - # 4
    frequency:    1.2711639892
  - # 5
    frequency:    1.3253444770
  - # 6
    frequency:    1.3497227797
  - # 7
    frequency:    1.9421272815
  - # 8
    frequency:    3.7807609845
  - # 9
    frequency:    4.0697121807
  - # 10
    frequency:    4.5669624730
  - # 11
    frequency:    6.3527415253
  - # 12
    frequency:    6.5177838440
  - # 13
    frequency:    6.6851960382
  - # 14
    frequency:    6.8029910925
  - # 15
    frequency:    6.9784322090
  - # 16
    frequency:    8.7967731920
  - # 17
    frequency:   10.7224685422
  - # 18
    frequency:   10.8000311056
  - # 19
    frequency:   10.8283664252
  - # 20
    frequency:   10.8501964111
  - # 21
    frequency:   13.6403644620
  - # 22
    frequency:   15.3089675189
  - # 23
    frequency:   15.4276382263
  - # 24
    frequency:   20.2244744546
  - # 25
    frequency:   20.2310437764
  - # 26
    frequency:   64.8322813823
  - # 27
    frequency:   64.8387737678

- q-position: [    0.1111111,    0.0000000,    0.0000000 ]
  distance:    0.0358920
  band:
  - # 1
    frequency:    0.6666496629
  - # 2
    frequency:    0.9606227237
  - # 3
    frequency:    0.9669225783
  - # 4
    frequency:    1.3203281903
  - # 5
    frequency:    1.3647467495
  - # 6
    frequency:    1.3878855605
  - # 7
    frequency:    2.0233966564
  - # 8
    frequency:    3.7962101471
  - # 9
    frequency:    4.1044717988
  - # 10
    frequency:    4.5656894045
  - # 11
    frequency:    6.3561641743
  - # 12
    frequency:    6.5325147622
  - # 13
    frequency:    6.6831829454
  - # 14
    frequency:    6.8069500574
  - # 15
    frequency:    6.9869471052
  - # 16
    frequency:    8.7730987248
  - # 17
    frequency:   10.7235468437
  - # 18
    frequency:   10.8036012721
  - # 19
    frequency:   10.8297299604
  - # 20
    frequency:   10.8577621538
  - # 21
    frequency:   13.6455349906
  - # 22
    frequency:   15.3214927763
  - # 23
    frequency:   15.4476470299
  - # 24
    frequency:   20.2230216628
  - # 25
    frequency:   20.2292674738
  - # 26
    frequency:   64.8301106979
  - # 27
    frequency:   64.8364057813

- q-position: [    0.1161616,    0.0000000,    0.0000000 ]
  distance:    0.0375235
  band:
  - # 1
    frequency:    0.7244862099
  - # 2
    frequency:    0.9749102242
  - # 3
    frequency:    0.9781512228
  - # 4
    frequency:    1.3704905102
  - # 5
    frequency:    1.4040485524
  - # 6
    frequency:    1.4264073104
  - # 7
    frequency:    2.1041181160
  - # 8
    frequency:    3.8118661134
  - # 9
    frequency:    4.1390712021
  - # 10
    frequency:    4.5653241577
  - # 11
    frequency:    6.3595786357
  - # 12
    frequency:    6.5466653051
  - # 13
    frequency:    6.6820690916
  - # 14
    frequency:    6.8109627350
  - # 15
    frequency:    6.9954704688
  - # 16
    frequency:    8.7487571375
  - # 17
    frequency:   10.7245025507
  - # 18
    frequency:   10.8067910702
  - # 19
    frequency:   10.8312499869
  - # 20
    frequency:   10.8659958868
  - # 21
    frequency:   13.6507081208
  - # 22
    frequency:   15.3342764224
  - # 23
    frequency:   15.4675619546
  - # 24
    frequency:   20.2211512433
  - # 25
    frequency:   20.2277661860
  - # 26
    frequency:   64.8278685248
  - # 27
    frequency:   64.8339658196

- q-position: [    0.1212121,    0.0000000,    0.0000000 ]
  distance:    0.0391549
  band:
  - # 1
    frequency:    0.7831270924
  - # 2
    frequency:    0.9867446095
  - # 3
    frequency:    0.9913307117
  - # 4
    frequency:    1.4212958337
  - # 5
    frequency:    1.4432570134
  - # 6
    frequency:    1.4652453735
  - # 7
    frequency:    2.1841215255
  - # 8
    frequency:    3.8276834746
  - # 9
    frequency:    4.1733601713
  - # 10
    frequency:    4.5659750766