nqpoint: 300    
npath: 3      
segment_nqpoint:
- 100
- 100
- 100
labels:
- [ 'G', 'M' ]
- [ 'M', 'K' ]
- [ 'K', 'G' ]
reciprocal_lattice:
- [   0.30502442,   0.17610593,   0.00000000 ] # a*
- [   0.00000000,   0.35221186,   0.00000000 ] # b*
- [   0.00000000,   0.00000000,   0.03705768 ] # c*
natom: 8      
lattice:
- [     3.278426025028923,     0.000000000000000,     0.000000000000000 ] # a
- [    -1.639213012514461,     2.839200222096844,     0.000000000000000 ] # b
- [     0.000000000000000,     0.000000000000000,    26.984962028604969 ] # c
points:
- symbol: C # 1
  coordinates: [  0.000000000000000,  0.000000000000000,  0.536262276589471 ]
  mass: 12.010700
- symbol: C # 2
  coordinates: [  0.666666984744047,  0.333332985985145,  0.377666972797414 ]
  mass: 12.010700
- symbol: N # 3
  coordinates: [  0.333332985432215,  0.666666983183674,  0.617810447514927 ]
  mass: 14.006700
- symbol: N # 4
  coordinates: [  0.666666984744047,  0.333332985985145,  0.333519090760984 ]
  mass: 14.006700
- symbol: O # 5
  coordinates: [  0.333332985432215,  0.666666983183674,  0.666480909239016 ]
  mass: 15.999400
- symbol: S # 6
  coordinates: [  0.666666984744047,  0.333332985985145,  0.439666513466046 ]
  mass: 32.065000
- symbol: Ti # 7
  coordinates: [  0.333332985432215,  0.666666983183674,  0.498430930185878 ]
  mass: 47.867000
- symbol: Ti # 8
  coordinates: [  0.666666984744047,  0.333332985985145,  0.584501824167029 ]
  mass: 47.867000

phonon:
- q-position: [    0.0000000,    0.0000000,    0.0000000 ]
  distance:    0.0000000
  band:
  - # 1
    frequency:   -3.8499758986
  - # 2
    frequency:   -3.8499758986
  - # 3
    frequency:   -0.0000170848
  - # 4
    frequency:    0.0000005355
  - # 5
    frequency:    0.0000163539
  - # 6
    frequency:    0.7327797944
  - # 7
    frequency:    0.7327797945
  - # 8
    frequency:    4.3426000937
  - # 9
    frequency:    4.3426000937
  - # 10
    frequency:    5.4378379220
  - # 11
    frequency:    7.6028271959
  - # 12
    frequency:    7.6028271960
  - # 13
    frequency:    9.4460635588
  - # 14
    frequency:    9.8467431978
  - # 15
    frequency:    9.8467431979
  - # 16
    frequency:   10.3290034262
  - # 17
    frequency:   10.5859020400
  - # 18
    frequency:   10.5859020400
  - # 19
    frequency:   16.0175794892
  - # 20
    frequency:   16.0175794892
  - # 21
    frequency:   16.0897252292
  - # 22
    frequency:   20.6827685459
  - # 23
    frequency:   41.1506938682
  - # 24
    frequency:   64.6882267973

- q-position: [    0.0050505,    0.0000000,    0.0000000 ]
  distance:    0.0017788
  band:
  - # 1
    frequency:   -3.8507048690
  - # 2
    frequency:   -3.8498503052
  - # 3
    frequency:    0.0027640122
  - # 4
    frequency:    0.0481576350
  - # 5
    frequency:    0.1148098214
  - # 6
    frequency:    0.7356955329
  - # 7
    frequency:    0.7395329973
  - # 8
    frequency:    4.3429342991
  - # 9
    frequency:    4.3440310241
  - # 10
    frequency:    5.4375836069
  - # 11
    frequency:    7.6028386565
  - # 12
    frequency:    7.6033953761
  - # 13
    frequency:    9.4415777785
  - # 14
    frequency:    9.8466519012
  - # 15
    frequency:    9.8492420502
  - # 16
    frequency:   10.3286310577
  - # 17
    frequency:   10.5861438909
  - # 18
    frequency:   10.5865536384
  - # 19
    frequency:   16.0170455551
  - # 20
    frequency:   16.0174877363
  - # 21
    frequency:   16.0900000530
  - # 22
    frequency:   20.6827361842
  - # 23
    frequency:   41.1500307176
  - # 24
    frequency:   64.6881242888

- q-position: [    0.0101010,    0.0000000,    0.0000000 ]
  distance:    0.0035577
  band:
  - # 1
    frequency:   -3.8528904681
  - # 2
    frequency:   -3.8494805663
  - # 3
    frequency:    0.0109588974
  - # 4
    frequency:    0.0962488909
  - # 5
    frequency:    0.2283638845
  - # 6
    frequency:    0.7443865576
  - # 7
    frequency:    0.7597967389
  - # 8
    frequency:    4.3439367115
  - # 9
    frequency:    4.3483126757
  - # 10
    frequency:    5.4368236608
  - # 11
    frequency:    7.6028740814
  - # 12
    frequency:    7.6050996600
  - # 13
    frequency:    9.4284851166
  - # 14
    frequency:    9.8463801216
  - # 15
    frequency:    9.8563834204
  - # 16
    frequency:   10.3275247778
  - # 17
    frequency:   10.5868679723
  - # 18
    frequency:   10.5884986805
  - # 19
    frequency:   16.0154446100
  - # 20
    frequency:   16.0172111539
  - # 21
    frequency:   16.0908232533
  - # 22
    frequency:   20.6826390137
  - # 23
    frequency:   41.1480422067
  - # 24
    frequency:   64.6878169225

- q-position: [    0.0151515,    0.0000000,    0.0000000 ]
  distance:    0.0053365
  band:
  - # 1
    frequency:   -3.8565287369
  - # 2
    frequency:   -3.8488875052
  - # 3
    frequency:    0.0243297938
  - # 4
    frequency:    0.1442090851
  - # 5
    frequency:    0.3392308894
  - # 6
    frequency:    0.7586902170
  - # 7
    frequency:    0.7936537478
  - # 8
    frequency:    4.3456067206
  - # 9
    frequency:    4.3554119107
  - # 10
    frequency:    5.4355670897
  - # 11
    frequency:    7.6029365853
  - # 12
    frequency:    7.6079392824
  - # 13
    frequency:    9.4077236957
  - # 14
    frequency:    9.8459341513
  - # 15
    frequency:    9.8672579308
  - # 16
    frequency:   10.3257156499
  - # 17
    frequency:   10.5880699042
  - # 18
    frequency:   10.5917089973
  - # 19
    frequency:   16.0127792258
  - # 20
    frequency:   16.0167457640
  - # 21
    frequency:   16.0921910647
  - # 22
    frequency:   20.6824767797
  - # 23
    frequency:   41.1447311568
  - # 24
    frequency:   64.6873051764

- q-position: [    0.0202020,    0.0000000,    0.0000000 ]
  distance:    0.0071154
  band:
  - # 1
    frequency:   -3.8616130027
  - # 2
    frequency:   -3.8481048337
  - # 3
    frequency:    0.0425382489
  - # 4
    frequency:    0.1919768214
  - # 5
    frequency:    0.4457062598
  - # 6
    frequency:    0.7783537134
  - # 7
    frequency:    0.8413902907
  - # 8
    frequency:    4.3479433120
  - # 9
    frequency:    4.3652744171
  - # 10
    frequency:    5.4338289315
  - # 11
    frequency:    7.6030313106
  - # 12
    frequency:    7.6119129830
  - # 13
    frequency:    9.3804731194
  - # 14
    frequency:    9.8453243490
  - # 15
    frequency:    9.8807347597
  - # 16
    frequency:   10.3232510616
  - # 17
    frequency:   10.5897424986
  - # 18
    frequency:   10.5961409738
  - # 19
    frequency:   16.0090536912
  - # 20
    frequency:   16.0160849237
  - # 21
    frequency:   16.0940973587
  - # 22
    frequency:   20.6822490604
  - # 23
    frequency:   41.1401022627
  - # 24
    frequency:   64.6865898457

- q-position: [    0.0252525,    0.0000000,    0.0000000 ]
  distance:    0.0088942
  band:
  - # 1
    frequency:   -3.8681337710
  - # 2
    frequency:   -3.8471777047
  - # 3
    frequency:    0.0652380209
  - # 4
    frequency:    0.2394953999
  - # 5
    frequency:    0.5459648374
  - # 6
    frequency:    0.8030570721
  - # 7
    frequency:    0.9034286999
  - # 8
    frequency:    4.3509450709
  - # 9
    frequency:    4.3778260279
  - # 10
    frequency:    5.4316303036
  - # 11
    frequency:    7.6031653550
  - # 12
    frequency:    7.6170190267
  - # 13
    frequency:    9.3478755012
  - # 14
    frequency:    9.8445649533
  - # 15
    frequency:    9.8957418431
  - # 16
    frequency:   10.3201891564
  - # 17
    frequency:   10.5918759201
  - # 18
    frequency:   10.6017396225
  - # 19
    frequency:   16.0042740139
  - # 20
    frequency:   16.0152193378
  - # 21
    frequency:   16.0965338302
  - # 22
    frequency:   20.6819552705
  - # 23
    frequency:   41.1341620830
  - # 24
    frequency:   64.6856720412

- q-position: [    0.0303030,    0.0000000,    0.0000000 ]
  distance:    0.0106731
  band:
  - # 1
    frequency:   -3.8760785825
  - # 2
    frequency:   -3.8461607680
  - # 3
    frequency:    0.0921206440
  - # 4
    frequency:    0.2867139396
  - # 5
    frequency:    0.6386569203
  - # 6
    frequency:    0.8324381789
  - # 7
    frequency:    0.9798100950
  - # 8
    frequency:    4.3546101873
  - # 9
    frequency:    4.3929744563
  - # 10
    frequency:    5.4289984797
  - # 11
    frequency:    7.6033476714
  - # 12
    frequency:    7.6232552305
  - # 13
    frequency:    9.3109025712
  - # 14
    frequency:    9.8436738327
  - # 15
    frequency:    9.9114003268
  - # 16
    frequency:   10.3165926611
  - # 17
    frequency:   10.5944579024
  - # 18
    frequency:   10.6084428305
  - # 19
    frequency:   15.9984479249
  - # 20
    frequency:   16.0141371256
  - # 21
    frequency:   16.0994902019
  - # 22
    frequency:   20.6815946675
  - # 23
    frequency:   41.1269190251
  - # 24
    frequency:   64.6845531862

- q-position: [    0.0353535,    0.0000000,    0.0000000 ]
  distance:    0.0124519
  band:
  - # 1
    frequency:   -3.8854318430
  - # 2
    frequency:   -3.8451158119
  - # 3
    frequency:    0.1229286957
  - # 4
    frequency:    0.3335881376
  - # 5
    frequency:    0.7236943781
  - # 6
    frequency:    0.8661159295
  - # 7
    frequency:    1.0694534003
  - # 8
    frequency:    4.3589364621
  - # 9
    frequency:    4.4106113506
  - # 10
    frequency:    5.4259670068
  - # 11
    frequency:    7.6035889412
  - # 12
    frequency:    7.6306189933
  - # 13
    frequency:    9.2703337900
  - # 14
    frequency:    9.8426721823
  - # 15
    frequency:    9.9270481733
  - # 16
    frequency:   10.3125230480
  - # 17
    frequency:   10.5974740065
  - # 18
    frequency:   10.6161850143
  - # 19
    frequency:   15.9915848823
  - # 20
    frequency:   16.0128239679
  - # 21
    frequency:   16.1029544170
  - # 22
    frequency:   20.6811663583
  - # 23
    frequency:   41.1183833272
  - # 24
    frequency:   64.6832350135

- q-position: [    0.0404040,    0.0000000,    0.0000000 ]
  distance:    0.0142308
  band:
  - # 1
    frequency:   -3.8961746341
  - # 2
    frequency:   -3.8441090875
  - # 3
    frequency:    0.1574490461
  - # 4
    frequency:    0.3800806167
  - # 5
    frequency:    0.8023784948
  - # 6
    frequency:    0.9037090182
  - # 7
    frequency:    1.1700399134
  - # 8
    frequency:    4.3639213139
  - # 9
    frequency:    4.4306145571
  - # 10
    frequency:    5.4225758774
  - # 11
    frequency:    7.6039014229
  - # 12
    frequency:    7.6391073270
  - # 13
    frequency:    9.2267845532
  - # 14
    frequency:    9.8415841803
  - # 15
    frequency:    9.9422136242
  - # 16
    frequency:   10.3080356721
  - # 17
    frequency:   10.6009079138
  - # 18
    frequency:   10.6248997606
  - # 19
    frequency:   15.9836960764
  - # 20
    frequency:   16.0112633457
  - # 21
    frequency:   16.1069127995
  - # 22
    frequency:   20.6806693077
  - # 23
    frequency:   41.1085670356
  - # 24
    frequency:   64.6817195611

- q-position: [    0.0454545,    0.0000000,    0.0000000 ]
  distance:    0.0160096
  band:
  - # 1
    frequency:   -3.9082845162
  - # 2
    frequency:   -3.8432084318
  - # 3
    frequency:    0.1954990074
  - # 4
    frequency:    0.4261608559
  - # 5
    frequency:    0.8766317893
  - # 6
    frequency:    0.9448494740
  - # 7
    frequency:    1.2787725024
  - # 8
    frequency:    4.3695617859
  - # 9
    frequency:    4.4528504788
  - # 10
    frequency:    5.4188717756
  - # 11
    frequency:    7.6042987780
  - # 12
    frequency:    7.6487168845
  - # 13
    frequency:    9.1807460415
  - # 14
    frequency:    9.8404366139
  - # 15
    frequency:    9.9565767193
  - # 16
    frequency:   10.3031761989
  - # 17
    frequency:   10.6047417382
  - # 18
    frequency:   10.6345213887
  - # 19
    frequency:   15.9747944343
  - # 20
    frequency:   16.0094368667
  - # 21
    frequency:   16.1113501786
  - # 22
    frequency:   20.6801023487
  - # 23
    frequency:   41.0974839786
  - # 24
    frequency:   64.6800091672

- q-position: [    0.0505051,    0.0000000,    0.0000000 ]
  distance:    0.0177885
  band:
  - # 1
    frequency:   -3.9217353331
  - # 2
    frequency:   -3.8424803080
  - # 3
    frequency:    0.2369131495
  - # 4
    frequency:    0.4718047481
  - # 5
    frequency:    0.9481756172
  - # 6
    frequency:    0.9891912312
  - # 7
    frequency:    1.3931786392
  - # 8
    frequency:    4.3758545528
  - # 9
    frequency:    4.4771764149
  - # 10
    frequency:    5.4149084199
  - # 11
    frequency:    7.6047958764
  - # 12
    frequency:    7.6594439844
  - # 13
    frequency:    9.1326208907
  - # 14
    frequency:    9.8392584904
  - # 15
    frequency:    9.9699344449
  - # 16
    frequency:   10.2979783920
  - # 17
    frequency:   10.6089563495
  - # 18
    frequency:   10.6449856226
  - # 19
    frequency:   15.9648946248
  - # 20
    frequency:   16.0073246673
  - # 21
    frequency:   16.1162499811
  - # 22
    frequency:   20.6794641931
  - # 23
    frequency:   41.0851497365
  - # 24
    frequency:   64.6781064648

- q-position: [    0.0555556,    0.0000000,    0.0000000 ]
  distance:    0.0195673
  band:
  - # 1
    frequency:   -3.9364970302
  - # 2
    frequency:   -3.8419868886
  - # 3
    frequency:    0.2815337276
  - # 4
    frequency:    0.5169938701
  - # 5
    frequency:    1.0182163967
  - # 6
    frequency:    1.0364146432
  - # 7
    frequency:    1.5114017961
  - # 8
    frequency:    4.3827959266
  - # 9
    frequency:    4.5034427784
  - # 10
    frequency:    5.4107470349
  - # 11
    frequency:    7.6054085839
  - # 12
    frequency:    7.6712846272
  - # 13
    frequency:    9.0827507377
  - # 14
    frequency:    9.8380806421
  - # 15
    frequency:    9.9821732309
  - # 16
    frequency:   10.2924631826
  - # 17
    frequency:   10.6135316935
  - # 18
    frequency:   10.6562296840
  - # 19
    frequency:   15.9540130618
  - # 20
    frequency:   16.0049058675
  - # 21
    frequency:   16.1215943031
  - # 22
    frequency:   20.6787534440
  - # 23
    frequency:   41.0715816075
  - # 24
    frequency:   64.6760143754

- q-position: [    0.0606061,    0.0000000,    0.0000000 ]
  distance:    0.0213462
  band:
  - # 1
    frequency:   -3.9525354953
  - # 2
    frequency:   -3.8417832936
  - # 3
    frequency:    0.3292049465
  - # 4
    frequency:    0.5617145747
  - # 5
    frequency:    1.0862280248
  - # 6
    frequency:    1.0874925606
  - # 7
    frequency:    1.6321330737
  - # 8
    frequency:    4.3903818620
  - # 9
    frequency:    4.5314950927
  - # 10
    frequency:    5.4064569879
  - # 11
    frequency:    7.6061535340
  - # 12
    frequency:    7.6842345028
  - # 13
    frequency:    9.0314361817
  - # 14
    frequency:    9.8369353369
  - # 15
    frequency:    9.9932481002
  - # 16
    frequency:   10.2866388675
  - # 17
    frequency:   10.6184471033
  - # 18
    frequency:   10.6681921215
  - # 19
    frequency:   15.9421679077
  - # 20
    frequency:   16.0021590588
  - # 21
    frequency:   16.1273639731
  - # 22
    frequency:   20.6779686091
  - # 23
    frequency:   41.0567985708
  - # 24
    frequency:   64.6737361020

- q-position: [    0.0656566,    0.0000000,    0.0000000 ]
  distance:    0.0231250
  band:
  - # 1
    frequency:   -3.9698124328
  - # 2
    frequency:   -3.8419150879
  - # 3
    frequency:    0.3797702303
  - # 4
    frequency:    0.6059570174
  - # 5
    frequency:    1.1383672126
  - # 6
    frequency:    1.1564179212
  - # 7
    frequency:    1.7544490901
  - # 8
    frequency:    4.3986079593
  - # 9
    frequency:    4.5611756758
  - # 10
    frequency:    5.4021166420
  - # 11
    frequency:    7.6070478891
  - # 12
    frequency:    7.6982889873
  - # 13
    frequency:    8.9789508295
  - # 14
    frequency:    9.8358559024
  - # 15
    frequency:   10.0031667410
  - # 16
    frequency:   10.2805022520
  - # 17
    frequency:   10.6236815901
  - # 18
    frequency:   10.6808126256
  - # 19
    frequency:   15.9293790744
  - # 20
    frequency:   15.9990628039
  - # 21
    frequency:   16.1335386169
  - # 22
    frequency:   20.6771081149
  - # 23
    frequency:   41.0408212459
  - # 24
    frequency:   64.6712751215

- q-position: [    0.0707071,    0.0000000,    0.0000000 ]
  distance:    0.0249039
  band:
  - # 1
    frequency:   -3.9882852775
  - # 2
    frequency:   -3.8424161159
  - # 3
    frequency:    0.4330715059
  - # 4
    frequency:    0.6497142124
  - # 5
    frequency:    1.1925939268
  - # 6
    frequency:    1.2252048714
  - # 7
    frequency:    1.8776731518
  - # 8
    frequency:    4.4074694652
  - # 9
    frequency:    4.5923249206
  - # 10
    frequency:    5.3978144878
  - # 11
    frequency:    7.6081090915
  - # 12
    frequency:    7.7134431274
  - # 13
    frequency:    8.9255510311
  - # 14
    frequency:    9.8348763708
  - # 15
    frequency:   10.0119769534
  - # 16
    frequency:   10.2740405298
  - # 17
    frequency:   10.6292141110
  - # 18
    frequency:   10.6940319855
  - # 19
    frequency:   15.9156682223
  - # 20
    frequency:   15.9955961321
  - # 21
    frequency:   16.1400967320
  - # 22
    frequency:   20.6761703222
  - # 23
    frequency:   41.0236718484
  - # 24
    frequency:   64.6686351766

- q-position: [    0.0757576,    0.0000000,    0.0000000 ]
  distance:    0.0266827
  band:
  - # 1
    frequency:   -4.0079071567
  - # 2
    frequency:   -3.8433067322
  - # 3
    frequency:    0.4889496769
  - # 4
    frequency:    0.6929811901
  - # 5
    frequency:    1.2486934984
  - # 6
    frequency:    1.2939470120
  - # 7
    frequency:    2.0012799447
  - # 8
    frequency:    4.4169612714
  - # 9
    frequency:    4.6247820736
  - # 10
    frequency:    5.3936506381
  - # 11
    frequency:    7.6093546105
  - # 12
    frequency:    7.7296916135
  - # 13
    frequency:    8.8714825585
  - # 14
    frequency:    9.8340311489
  - # 15
    frequency:   10.0197563811
  - # 16
    frequency:   10.2672336818
  - # 17
    frequency:   10.6350238072
  - # 18
    frequency:   10.7077922508
  - # 19
    frequency:   15.9010587573
  - # 20
    frequency:   15.9917390164
  - # 21
    frequency:   16.1470157751
  - # 22
    frequency:   20.6751535408
  - # 23
    frequency:   41.0053741434
  - # 24
    frequency:   64.6658202668

- q-position: [    0.0808081,    0.0000000,    0.0000000 ]
  distance:    0.0284616
  band:
  - # 1
    frequency:   -4.0286269028
  - # 2
    frequency:   -3.8445924564
  - # 3
    frequency:    0.5472457067
  - # 4
    frequency:    0.7357542921
  - # 5
    frequency:    1.3064723419
  - # 6
    frequency:    1.3626697805
  - # 7
    frequency:    2.1248347511
  - # 8
    frequency:    4.4270779092
  - # 9
    frequency:    4.6583853915
  - # 10
    frequency:    5.3897387943
  - # 11
    frequency:    7.6108016866
  - # 12
    frequency:    7.7470287395
  - # 13
    frequency:    8.8169851265
  - # 14
    frequency:    9.8333547166
  - # 15
    frequency:   10.0266038672
  - # 16
    frequency:   10.2600571671
  - # 17
    frequency:   10.6410902113
  - # 18
    frequency:   10.7220370851
  - # 19
    frequency:   15.8855758240
  - # 20
    frequency:   15.9874728231
  - # 21
    frequency:   16.1542722662
  - # 22
    frequency:   20.6740560470
  - # 23
    frequency:   40.9859533948
  - # 24
    frequency:   64.6628346395

- q-position: [    0.0858586,    0.0000000,    0.0000000 ]
  distance:    0.0302404
  band:
  - # 1
    frequency:   -4.0503891220
  - # 2
    frequency:   -3.8462630585
  - # 3
    frequency:    0.6078019325
  - # 4
    frequency:    0.7780306192
  - # 5
    frequency:    1.3657554132
  - # 6
    frequency:    1.4313604075
  - # 7
    frequency:    2.2479553982
  - # 8
    frequency:    4.4378135416
  - # 9
    frequency:    4.6929715272
  - # 10
    frequency:    5.3862088273
  - # 11
    frequency:    7.6124670790
  - # 12
    frequency:    7.7654483489
  - # 13
    frequency:    8.7622953858
  - # 14
    frequency:    9.8328813555
  - # 15
    frequency:   10.0326320765
  - # 16
    frequency:   10.2524847023
  - # 17
    frequency:   10.6473934229
  - # 18
    frequency:   10.7367122570
  - # 19
    frequency:   15.8692462963
  - # 20
    frequency:   15.9827807257
  - # 21
    frequency:   16.1618419081
  - # 22
    frequency:   20.6728760993
  - # 23
    frequency:   40.9654363135
  - # 24
    frequency:   64.6596827794

- q-position: [    0.0909091,    0.0000000,    0.0000000 ]
  distance:    0.0320193
  band:
  - # 1
    frequency:   -4.0731343166
  - # 2
    frequency:   -3.8482920575
  - # 3
    frequency:    0.6704633831
  - # 4
    frequency:    0.8198076243
  - # 5
    frequency:    1.4263837963
  - # 6
    frequency:    1.4999854153
  - # 7
    frequency:    2.3702882954
  - # 8
    frequency:    4.4491619504
  - # 9
    frequency:    4.7283739434
  - # 10
    frequency:    5.3832101563
  - # 11
    frequency:    7.6143668170
  - # 12
    frequency:    7.7849437653
  - # 13
    frequency:    8.7076488199
  - # 14
    frequency:    9.8326449079
  - # 15
    frequency:   10.0379611903
  - # 16
    frequency:   10.2444909685
  - # 17
    frequency:   10.6539142520
  - # 18
    frequency:   10.7517661911
  - # 19
    frequency:   15.8520987625
  - # 20
    frequency:   15.9776480783
  - # 21
    frequency:   16.1696997205
  - # 22
    frequency:   20.6716119559
  - # 23
    frequency:   40.9438510010
  - # 24
    frequency:   64.6563693988

- q-position: [    0.0959596,    0.0000000,    0.0000000 ]
  distance:    0.0337981
  band:
  - # 1
    frequency:   -4.0967990630
  - # 2
    frequency:   -3.8506365992
  - # 3
    frequency:    0.7350789721
  - # 4
    frequency:    0.8610828329
  - # 5
    frequency:    1.4882124937
  - # 6
    frequency:    1.5685007906
  - # 7
    frequency:    2.4914930932
  - # 8
    frequency:    4.4611165196
  - # 9
    frequency:    4.7644200970
  - # 10
    frequency:    5.3809161501
  - # 11
    frequency:    7.6165159616
  - # 12
    frequency:    7.8055077004
  - # 13
    frequency:    8.6532808499
  - # 14
    frequency:    9.8326785648
  - # 15
    frequency:   10.0427135380
  - # 16
    frequency:   10.2360541625
  - # 17
    frequency:   10.6606343321
  - # 18
    frequency:   10.7671505066
  - # 19
    frequency:   15.8341635074
  - # 20
    frequency:   15.9720627447
  - # 21
    frequency:   16.1778201877
  - # 22
    frequency:   20.6702618916
  - # 23
    frequency:   40.9212268924
  - # 24
    frequency:   64.6528994262

- q-position: [    0.1010101,    0.0000000,    0.0000000 ]
  distance:    0.0355770
  band:
  - # 1
    frequency:   -4.1213162414
  - # 2
    frequency:   -3.8532376681
  - # 3
    frequency:    0.8015025010
  - # 4
    frequency:    0.9018536667
  - # 5
    frequency:    1.5511084573
  - # 6
    frequency:    1.6368578716
  - # 7
    frequency:    2.6112326904
  - # 8
    frequency:    4.4736702148
  - # 9
    frequency:    4.8009270810
  - # 10
    frequency:    5.3795298045
  - # 11
    frequency:    7.6189283783
  - # 12
    frequency:    7.8271321252
  - # 13
    frequency:    8.5994273656
  - # 14
    frequency:    9.8330146825
  - # 15
    frequency:   10.0470089952
  - # 16
    frequency:   10.2271584184
  - # 17
    frequency:   10.6675362051
  - # 18
    frequency:   10.7828204857
  - # 19
    frequency:   15.8154724883
  - # 20
    frequency:   15.9660153808
  - # 21
    frequency:   16.1861774159
  - # 22
    frequency:   20.6688242151
  - # 23
    frequency:   40.8975946960
  - # 24
    frequency:   64.6492779953

- q-position: [    0.1060606,    0.0000000,    0.0000000 ]
  distance:    0.0373558
  band:
  - # 1
    frequency:   -4.1466153131
  - # 2
    frequency:   -3.8560205789
  - # 3
    frequency:    0.8695934466
  - # 4
    frequency:    0.9421173477
  - # 5
    frequency:    1.6149488642
  - # 6
    frequency:    1.7050067252
  - # 7
    frequency:    2.7291666926
  - # 8
    frequency:    4.4868155575
  - # 9
    frequency:    4.8376954012
  - # 10
    frequency:    5.3792909209
  - # 11
    frequency:    7.6216165260
  - # 12
    frequency:    7.8498080765
  - # 13
    frequency:    8.5463248543
  - # 14
    frequency:    9.8336846241
  - # 15
    frequency:   10.0509608728
  - # 16
    frequency:   10.2177962711
  - # 17
    frequency:   10.6746033800
  - # 18
    frequency:   10.7987354337
  - # 19
    frequency:   15.7960593061
  - # 20
    frequency:   15.9594996692
  - # 21
    frequency:   16.1947452996
  - # 22
    frequency:   20.6672972856
  - # 23
    frequency:   40.8729863315
  - # 24
    frequency:   64.6455104331

- q-position: [    0.1111111,    0.0000000,    0.0000000 ]
  distance:    0.0391347
  band:
  - # 1
    frequency:   -4.1726226407
  - # 2
    frequency:   -3.8588956964
  - # 3
    frequency:    0.9392175284
  - # 4
    frequency:    0.9818708596
  - # 5
    frequency:    1.6796196299
  - # 6
    frequency:    1.7728980451
  - # 7
    frequency:    2.8449472837
  - # 8
    frequency:    4.5005445959
  - # 9
    frequency:    4.8745006871
  - # 10
    frequency:    5.3804848380
  - # 11
    frequency:    7.6245912634
  - # 12
    frequency:    7.8735253360
  - # 13
    frequency:    8.4942102851
  - # 14
    frequency:    9.8347186245
  - # 15
    frequency:   10.0546718286
  - # 16
    frequency:   10.2079715483
  - # 17
    frequency:   10.6818203686
  - # 18
    frequency:   10.8148589137
  - # 19
    frequency:   15.7759591697
  - # 20
    frequency:   15.9525125052
  - # 21
    frequency:   16.2034976934
  - # 22
    frequency:   20.6656795306
  - # 23
    frequency:   40.8474348659
  - # 24
    frequency:   64.6416022481

- q-position: [    0.1161616,    0.0000000,    0.0000000 ]
  distance:    0.0409135
  band:
  - # 1
    frequency:   -4.1992618452
  - # 2
    frequency:   -3.8617593289
  - # 3
    frequency:    1.0102470678
  - # 4
    frequency:    1.0211109500
  - # 5
    frequency:    1.7450141407
  - # 6
    frequency:    1.8404841809
  - # 7
    frequency:    2.9582170081
  - # 8
    frequency:    4.5148488707
  - # 9
    frequency:    4.9110835831
  - # 10
    frequency:    5.3834522646
  - # 11
    frequency:    7.6278616762
  - # 12
    frequency:    7.8982718522
  - # 13
    frequency:    8.4433209443
  - # 14
    frequency:    9.8361456761
  - # 15
    frequency:   10.0582289730
  - # 16
    frequency:   10.1977034478
  - # 17
    frequency:   10.6891727012
  - # 18
    frequency:   10.8311588559
  - # 19
    frequency:   15.7552088553
  - # 20
    frequency:   15.9450541343
  - # 21
    frequency:   16.2124085885
  - # 22
    frequency:   20.6639694614
  - # 23
    frequency:   40.8209744482
  - # 24
    frequency:   64.6375591176

- q-position: [    0.1212121,    0.0000000,    0.0000000 ]
  distance:    0.0426923
  band:
  - # 1
    frequency:   -4.2264541941
  - # 2
    frequency:   -3.8644947502
  - # 3
    frequency:    1.0598341578
  - # 4
    frequency:    1.0825611569
  - # 5
    frequency:    1.8110321815
  - # 6
    frequency:    1.9077196522
  - # 7
    frequency:    3.0686083205
  - # 8
    frequency:    4.5297193778
  - # 9
    frequency:    4.9471391348
  - # 10
    frequency:    5.3885986204
  - # 11
    frequency:    7.6314349277
  - # 12
    frequency:    7.9240326121
  - # 13
    frequency:    8.3938945587
  - # 14
    frequency:    9.8379934313
  - # 15
    frequency:   10.0616966281
  - # 16
    frequency:   10.1870332821
  - # 17
    frequency:   10.6966469242
  - # 18
    frequency:   10.8476075523
  - # 19
    frequency:   15.7338466584
  - # 20
    frequency:   15.9371282421
  - # 21
    frequency:   16.2214522897
  - # 22
    frequency:   20.6621656899
  - # 23
    frequency:   40.7936402422
  - # 24
    frequency:   64.6333868753

- q-position: [    0.1262626,    0.0000000,    0.0000000 ]
  distance:    0.0444712
  band:
  - # 1
    frequency:   -4.2541190130
  - # 2
    frequency:   -3.8669733083
  - # 3
    frequency:    1.0980368562
  - # 4
    frequency:    1.1560456585
  - # 5
    frequency:    1.8775790375
  - # 6
    frequency:    1.9745613626
  - # 7
    frequency:    3.1757449987
  - # 8
    frequency:    4.5451465266
  - # 9
    frequency:    4.9823090908
  - # 10
    frequency:    5.3963991342
  - # 11
    frequency:    7.6353161329
  - # 12
    frequency:    7.9507872509
  - # 13
    frequency:    8.3461704396
  - # 14
    frequency:    9.8402881213
  - # 15
    frequency:   10.0651036310
  - # 16
    frequency:   10.1760369416
  - # 17
    frequency:   10.7042305843
  - # 18
    frequency:   10.8641815545
  - # 19
    frequency:   15.7119123386
  - # 20
    frequency:   15.9287419974
  - # 21
    frequency:   16.2306035939
  - # 22
    frequency:   20.6602669443
  - # 23
    frequency:   40.7654683584
  - # 24
    frequency:   64.6290914980

- q-position: [    0.1313131,    0.0000000,    0.0000000 ]
  distance:    0.0462500
  band:
  - # 1
    frequency:   -4.2821741139
  - # 2
    frequency:   -3.8690555880
  - # 3
    frequency:    1.1357153031
  - # 4
    frequency:    1.2305930629
  - # 5
    frequency:    1.9445647443
  - # 6
    frequency:    2.0409686409
  - # 7
    frequency:    3.2792456648
  - # 8
    frequency:    4.5611200967
  - # 9
    frequency:    5.0161837632
  - # 10
    frequency:    5.4073926770
  - # 11
    frequency:    7.6395082595
  - # 12
    frequency:    7.9785044574
  - # 13
    frequency:    8.3003935977
  - # 14
    frequency:    9.8430544863
  - # 15
    frequency:   10.0684184926
  - # 16
    frequency:   10.1648497215
  - # 17
    frequency:   10.7119121992
  - # 18
    frequency:   10.8808614944
  - # 19
    frequency:   15.6894470580
  - # 20
    frequency:   15.9199060503
  - # 21
    frequency:   16.2398379658
  - # 22
    frequency:   20.6582720838
  - # 23
    frequency:   40.7364957850
  - # 24
    frequency:   64.6246790931

- q-position: [    0.1363636,    0.0000000,    0.0000000 ]
  distance:    0.0480289
  band:
  - # 1
    frequency:   -4.3105362348
  - # 2
    frequency:   -3.8705925994
  - # 3
    frequency:    1.1728656942
  - # 4
    frequency:    1.3061022259
  - # 5
    frequency:    2.0119034656
  - # 6
    frequency:    2.1069031850
  - # 7