nqpoint: 300    
npath: 3      
segment_nqpoint:
- 100
- 100
- 100
labels:
- [ 'G', 'M' ]
- [ 'M', 'K' ]
- [ 'K', 'G' ]
reciprocal_lattice:
- [   0.30502442,   0.17610593,   0.00000000 ] # a*
- [   0.00000000,   0.35221186,   0.00000000 ] # b*
- [   0.00000000,   0.00000000,   0.03705768 ] # c*
natom: 8      
lattice:
- [     3.278426025028923,     0.000000000000000,     0.000000000000000 ] # a
- [    -1.639213012514461,     2.839200222096844,     0.000000000000000 ] # b
- [     0.000000000000000,     0.000000000000000,    26.984962028604969 ] # c
points:
- symbol: C # 1
  coordinates: [  0.000000000000000,  0.000000000000000,  0.536262276589471 ]
  mass: 12.010700
- symbol: C # 2
  coordinates: [  0.666666984744047,  0.333332985985145,  0.377666972797414 ]
  mass: 12.010700
- symbol: N # 3
  coordinates: [  0.333332985432215,  0.666666983183674,  0.617810447514927 ]
  mass: 14.006700
- symbol: N # 4
  coordinates: [  0.666666984744047,  0.333332985985145,  0.333519090760984 ]
  mass: 14.006700
- symbol: O # 5
  coordinates: [  0.333332985432215,  0.666666983183674,  0.666480909239016 ]
  mass: 15.999400
- symbol: S # 6
  coordinates: [  0.666666984744047,  0.333332985985145,  0.439666513466046 ]
  mass: 32.065000
- symbol: Ti # 7
  coordinates: [  0.333332985432215,  0.666666983183674,  0.498430930185878 ]
  mass: 47.867000
- symbol: Ti # 8
  coordinates: [  0.666666984744047,  0.333332985985145,  0.584501824167029 ]
  mass: 47.867000

phonon:
- q-position: [    0.0000000,    0.0000000,    0.0000000 ]
  distance:    0.0000000
  band:
  - # 1
    frequency:   -4.1944779118
  - # 2
    frequency:   -4.1944779118
  - # 3
    frequency:   -0.0000019068
  - # 4
    frequency:    0.0000016833
  - # 5
    frequency:    0.0000018848
  - # 6
    frequency:    0.9247097238
  - # 7
    frequency:    0.9247097238
  - # 8
    frequency:    4.2443298056
  - # 9
    frequency:    4.2443298056
  - # 10
    frequency:    5.4086718868
  - # 11
    frequency:    7.6081186086
  - # 12
    frequency:    7.6081186086
  - # 13
    frequency:    9.3784901447
  - # 14
    frequency:    9.6547335065
  - # 15
    frequency:    9.6547335065
  - # 16
    frequency:   10.2783910030
  - # 17
    frequency:   10.5333278925
  - # 18
    frequency:   10.5333278925
  - # 19
    frequency:   15.6586956897
  - # 20
    frequency:   15.6586956897
  - # 21
    frequency:   15.9732031955
  - # 22
    frequency:   20.6874590200
  - # 23
    frequency:   41.1782729992
  - # 24
    frequency:   64.6915088059

- q-position: [    0.0050505,    0.0000000,    0.0000000 ]
  distance:    0.0017788
  band:
  - # 1
    frequency:   -4.1947969692
  - # 2
    frequency:   -4.1940748863
  - # 3
    frequency:   -0.0906845921
  - # 4
    frequency:    0.0705731553
  - # 5
    frequency:    0.1521803764
  - # 6
    frequency:    0.9260145068
  - # 7
    frequency:    0.9290861504
  - # 8
    frequency:    4.2448872951
  - # 9
    frequency:    4.2460749357
  - # 10
    frequency:    5.4085414785
  - # 11
    frequency:    7.6081946964
  - # 12
    frequency:    7.6087561361
  - # 13
    frequency:    9.3719603928
  - # 14
    frequency:    9.6550069716
  - # 15
    frequency:    9.6602639242
  - # 16
    frequency:   10.2779185741
  - # 17
    frequency:   10.5337719186
  - # 18
    frequency:   10.5339920037
  - # 19
    frequency:   15.6585981145
  - # 20
    frequency:   15.6591054572
  - # 21
    frequency:   15.9737825508
  - # 22
    frequency:   20.6874266632
  - # 23
    frequency:   41.1775482070
  - # 24
    frequency:   64.6913993905

- q-position: [    0.0101010,    0.0000000,    0.0000000 ]
  distance:    0.0035577
  band:
  - # 1
    frequency:   -4.1957557523
  - # 2
    frequency:   -4.1928691868
  - # 3
    frequency:   -0.1101823065
  - # 4
    frequency:    0.1410324683
  - # 5
    frequency:    0.2679699857
  - # 6
    frequency:    0.9299353871
  - # 7
    frequency:    0.9421649992
  - # 8
    frequency:    4.2465583120
  - # 9
    frequency:    4.2512931016
  - # 10
    frequency:    5.4081523850
  - # 11
    frequency:    7.6084233396
  - # 12
    frequency:    7.6106666744
  - # 13
    frequency:    9.3537572843
  - # 14
    frequency:    9.6558257341
  - # 15
    frequency:    9.6754568442
  - # 16
    frequency:   10.2765228185
  - # 17
    frequency:   10.5351020040
  - # 18
    frequency:   10.5359797112
  - # 19
    frequency:   15.6583031750
  - # 20
    frequency:   15.6603314141
  - # 21
    frequency:   15.9755152353
  - # 22
    frequency:   20.6873294991
  - # 23
    frequency:   41.1753751949
  - # 24
    frequency:   64.6910713503

- q-position: [    0.0151515,    0.0000000,    0.0000000 ]
  distance:    0.0053365
  band:
  - # 1
    frequency:   -4.1973590368
  - # 2
    frequency:   -4.1908708393
  - # 3
    frequency:   -0.1244139261
  - # 4
    frequency:    0.2112545205
  - # 5
    frequency:    0.3865093318
  - # 6
    frequency:    0.9364936206
  - # 7
    frequency:    0.9638351470
  - # 8
    frequency:    4.2493385105
  - # 9
    frequency:    4.2599332182
  - # 10
    frequency:    5.4075109953
  - # 11
    frequency:    7.6088056628
  - # 12
    frequency:    7.6138441295
  - # 13
    frequency:    9.3268342248
  - # 14
    frequency:    9.6571849429
  - # 15
    frequency:    9.6973224984
  - # 16
    frequency:   10.2742662683
  - # 17
    frequency:   10.5373121638
  - # 18
    frequency:   10.5392789833
  - # 19
    frequency:   15.6578042562
  - # 20
    frequency:   15.6623634625
  - # 21
    frequency:   15.9783852686
  - # 22
    frequency:   20.6871672469
  - # 23
    frequency:   41.1717580501
  - # 24
    frequency:   64.6905253024

- q-position: [    0.0202020,    0.0000000,    0.0000000 ]
  distance:    0.0071154
  band:
  - # 1
    frequency:   -4.1996145942
  - # 2
    frequency:   -4.1880962076
  - # 3
    frequency:   -0.1365752802
  - # 4
    frequency:    0.2810959385
  - # 5
    frequency:    0.5055635297
  - # 6
    frequency:    0.9457302503
  - # 7
    frequency:    0.9940432691
  - # 8
    frequency:    4.2532206798
  - # 9
    frequency:    4.2719120560
  - # 10
    frequency:    5.4066279436
  - # 11
    frequency:    7.6093434908
  - # 12
    frequency:    7.6182784721
  - # 13
    frequency:    9.2939315383
  - # 14
    frequency:    9.6590766668
  - # 15
    frequency:    9.7230606833
  - # 16
    frequency:   10.2712467788
  - # 17
    frequency:   10.5403924046
  - # 18
    frequency:   10.5438753447
  - # 19
    frequency:   15.6570904226
  - # 20
    frequency:   15.6651845767
  - # 21
    frequency:   15.9823665541
  - # 22
    frequency:   20.6869394406
  - # 23
    frequency:   41.1667035667
  - # 24
    frequency:   64.6897622732

- q-position: [    0.0252525,    0.0000000,    0.0000000 ]
  distance:    0.0088942
  band:
  - # 1
    frequency:   -4.2025329155
  - # 2
    frequency:   -4.1845674833
  - # 3
    frequency:   -0.1455681958
  - # 4
    frequency:    0.3503814227
  - # 5
    frequency:    0.6231920344
  - # 6
    frequency:    0.9577147698
  - # 7
    frequency:    1.0329887944
  - # 8
    frequency:    4.2581947914
  - # 9
    frequency:    4.2871169588
  - # 10
    frequency:    5.4055180943
  - # 11
    frequency:    7.6100392764
  - # 12
    frequency:    7.6239559238
  - # 13
    frequency:    9.2569609664
  - # 14
    frequency:    9.6614901201
  - # 15
    frequency:    9.7506775922
  - # 16
    frequency:   10.2675895028
  - # 17
    frequency:   10.5443287002
  - # 18
    frequency:   10.5497584818
  - # 19
    frequency:   15.6561465515
  - # 20
    frequency:   15.6687705390
  - # 21
    frequency:   15.9874236500
  - # 22
    frequency:   20.6866454322
  - # 23
    frequency:   41.1602212191
  - # 24
    frequency:   64.6887836939

- q-position: [    0.0303030,    0.0000000,    0.0000000 ]
  distance:    0.0106731
  band:
  - # 1
    frequency:   -4.2061268364
  - # 2
    frequency:   -4.1803119929
  - # 3
    frequency:   -0.1494402925
  - # 4
    frequency:    0.4188895221
  - # 5
    frequency:    0.7374296775
  - # 6
    frequency:    0.9725575672
  - # 7
    frequency:    1.0813873815
  - # 8
    frequency:    4.2642480652
  - # 9
    frequency:    4.3054093640
  - # 10
    frequency:    5.4042005326
  - # 11
    frequency:    7.6108960040
  - # 12
    frequency:    7.6308592109
  - # 13
    frequency:    9.2171352833
  - # 14
    frequency:    9.6644119631
  - # 15
    frequency:    9.7788585647
  - # 16
    frequency:   10.2634379571
  - # 17
    frequency:   10.5491029654
  - # 18
    frequency:   10.5569286873
  - # 19
    frequency:   15.6549535174
  - # 20
    frequency:   15.6730896234
  - # 21
    frequency:   15.9935127797
  - # 22
    frequency:   20.6862843954
  - # 23
    frequency:   41.1523231240
  - # 24
    frequency:   64.6875913959

- q-position: [    0.0353535,    0.0000000,    0.0000000 ]
  distance:    0.0124519
  band:
  - # 1
    frequency:   -4.2104110744
  - # 2
    frequency:   -4.1753613404
  - # 3
    frequency:   -0.1455811536
  - # 4
    frequency:    0.4863359985
  - # 5
    frequency:    0.8458129338
  - # 6
    frequency:    0.9904259044
  - # 7
    frequency:    1.1407026414
  - # 8
    frequency:    4.2713650532
  - # 9
    frequency:    4.3266288872
  - # 10
    frequency:    5.4026985748
  - # 11
    frequency:    7.6119170720
  - # 12
    frequency:    7.6389678768
  - # 13
    frequency:    9.1752189389
  - # 14
    frequency:    9.6678266670
  - # 15
    frequency:    9.8067213584
  - # 16
    frequency:   10.2589452470
  - # 17
    frequency:   10.5546930353
  - # 18
    frequency:   10.5654015730
  - # 19
    frequency:   15.6534884254
  - # 20
    frequency:   15.6781022747
  - # 21
    frequency:   16.0005830248
  - # 22
    frequency:   20.6858553314
  - # 23
    frequency:   41.1430239933
  - # 24
    frequency:   64.6861876039

- q-position: [    0.0404040,    0.0000000,    0.0000000 ]
  distance:    0.0142308
  band:
  - # 1
    frequency:   -4.2154016929
  - # 2
    frequency:   -4.1697504106
  - # 3
    frequency:   -0.1296990980
  - # 4
    frequency:    0.5523560765
  - # 5
    frequency:    0.9455179956
  - # 6
    frequency:    1.0115618046
  - # 7
    frequency:    1.2129085955
  - # 8
    frequency:    4.2795277405
  - # 9
    frequency:    4.3505977154
  - # 10
    frequency:    5.4010398109
  - # 11
    frequency:    7.6131061600
  - # 12
    frequency:    7.6482586449
  - # 13
    frequency:    9.1317108161
  - # 14
    frequency:    9.6717169269
  - # 15
    frequency:    9.8336394960
  - # 16
    frequency:   10.2542658621
  - # 17
    frequency:   10.5610726570
  - # 18
    frequency:   10.5752099961
  - # 19
    frequency:   15.6517248916
  - # 20
    frequency:   15.6837608329
  - # 21
    frequency:   16.0085776318
  - # 22
    frequency:   20.6853570752
  - # 23
    frequency:   41.1323410765
  - # 24
    frequency:   64.6845749279

- q-position: [    0.0454545,    0.0000000,    0.0000000 ]
  distance:    0.0160096
  band:
  - # 1
    frequency:   -4.2211155067
  - # 2
    frequency:   -4.1635162625
  - # 3
    frequency:   -0.0907179540
  - # 4
    frequency:    0.6164902487
  - # 5
    frequency:    1.0346909008
  - # 6
    frequency:    1.0362969102
  - # 7
    frequency:    1.2991175932
  - # 8
    frequency:    4.2887156622
  - # 9
    frequency:    4.3771250639
  - # 10
    frequency:    5.3992562005
  - # 11
    frequency:    7.6144670844
  - # 12
    frequency:    7.6587058226
  - # 13
    frequency:    9.0869549425
  - # 14
    frequency:    9.6760641069
  - # 15
    frequency:    9.8591405308
  - # 16
    frequency:   10.2495478676
  - # 17
    frequency:   10.5682115042
  - # 18
    frequency:   10.5864026995
  - # 19
    frequency:   15.6496333659
  - # 20
    frequency:   15.6900093541
  - # 21
    frequency:   16.0174353657
  - # 22
    frequency:   20.6847883034
  - # 23
    frequency:   41.1202940932
  - # 24
    frequency:   64.6827563536

- q-position: [    0.0505051,    0.0000000,    0.0000000 ]
  distance:    0.0177885
  band:
  - # 1
    frequency:   -4.2275694479
  - # 2
    frequency:   -4.1566969444
  - # 3
    frequency:    0.0746988119
  - # 4
    frequency:    0.6781845617
  - # 5
    frequency:    1.0650531706
  - # 6
    frequency:    1.1140660495
  - # 7
    frequency:    1.3979395912
  - # 8
    frequency:    4.2989060358
  - # 9
    frequency:    4.4060114789
  - # 10
    frequency:    5.3973842434
  - # 11
    frequency:    7.6160036500
  - # 12
    frequency:    7.6702817358
  - # 13
    frequency:    9.0412048507
  - # 14
    frequency:    9.6808487006
  - # 15
    frequency:    9.8828540650
  - # 16
    frequency:   10.2449249891
  - # 17
    frequency:   10.5760752213
  - # 18
    frequency:   10.5990396466
  - # 19
    frequency:   15.6471814954
  - # 20
    frequency:   15.6967835725
  - # 21
    frequency:   16.0270918448
  - # 22
    frequency:   20.6841475432
  - # 23
    frequency:   41.1069051567
  - # 24
    frequency:   64.6807352319

- q-position: [    0.0555556,    0.0000000,    0.0000000 ]
  distance:    0.0195673
  band:
  - # 1
    frequency:   -4.2347799103
  - # 2
    frequency:   -4.1493302671
  - # 3
    frequency:    0.1599887045
  - # 4
    frequency:    0.7368242224
  - # 5
    frequency:    1.0983103618
  - # 6
    frequency:    1.1864286000
  - # 7
    frequency:    1.5060045376
  - # 8
    frequency:    4.3100739063
  - # 9
    frequency:    4.4370528097
  - # 10
    frequency:    5.3954652512
  - # 11
    frequency:    7.6177195005
  - # 12
    frequency:    7.6829571836
  - # 13
    frequency:    8.9946612512
  - # 14
    frequency:    9.6860507894
  - # 15
    frequency:    9.9044899091
  - # 16
    frequency:   10.2405081408
  - # 17
    frequency:   10.5846255070
  - # 18
    frequency:   10.6131844477
  - # 19
    frequency:   15.6443345237
  - # 20
    frequency:   15.7040110442
  - # 21
    frequency:   16.0374807961
  - # 22
    frequency:   20.6834331827
  - # 23
    frequency:   41.0921986895
  - # 24
    frequency:   64.6785152671

- q-position: [    0.0606061,    0.0000000,    0.0000000 ]
  distance:    0.0213462
  band:
  - # 1
    frequency:   -4.2427620910
  - # 2
    frequency:   -4.1414525687
  - # 3
    frequency:    0.2297475051
  - # 4
    frequency:    0.7918206113
  - # 5
    frequency:    1.1365202337
  - # 6
    frequency:    1.2546448897
  - # 7
    frequency:    1.6199196437
  - # 8
    frequency:    4.3221923047
  - # 9
    frequency:    4.4700437150
  - # 10
    frequency:    5.3935457535
  - # 11
    frequency:    7.6196179755
  - # 12
    frequency:    7.6967019045
  - # 13
    frequency:    8.9474946068
  - # 14
    frequency:    9.6916504831
  - # 15
    frequency:    9.9238339498
  - # 16
    frequency:   10.2363764223
  - # 17
    frequency:   10.5938202430
  - # 18
    frequency:   10.6288947057
  - # 19
    frequency:   15.6410557212
  - # 20
    frequency:   15.7116115015
  - # 21
    frequency:   16.0485351798
  - # 22
    frequency:   20.6826434818
  - # 23
    frequency:   41.0762013294
  - # 24
    frequency:   64.6761005032

- q-position: [    0.0656566,    0.0000000,    0.0000000 ]
  distance:    0.0231250
  band:
  - # 1
    frequency:   -4.2515293482
  - # 2
    frequency:   -4.1330975092
  - # 3
    frequency:    0.2967604610
  - # 4
    frequency:    0.8427495293
  - # 5
    frequency:    1.1799693843
  - # 6
    frequency:    1.3206842710
  - # 7
    frequency:    1.7372368951
  - # 8
    frequency:    4.3352324168
  - # 9
    frequency:    4.5047806081
  - # 10
    frequency:    5.3916780766
  - # 11
    frequency:    7.6217019770
  - # 12
    frequency:    7.7114850431
  - # 13
    frequency:    8.8998590201
  - # 14
    frequency:    9.6976283304
  - # 15
    frequency:    9.9407531978
  - # 16
    frequency:   10.2325684535
  - # 17
    frequency:   10.6036136722
  - # 18
    frequency:   10.6462115285
  - # 19
    frequency:   15.6373068433
  - # 20
    frequency:   15.7194974387
  - # 21
    frequency:   16.0601881420
  - # 22
    frequency:   20.6817765853
  - # 23
    frequency:   41.0589418292
  - # 24
    frequency:   64.6734953101

- q-position: [    0.0707071,    0.0000000,    0.0000000 ]
  distance:    0.0249039
  band:
  - # 1
    frequency:   -4.2610925924
  - # 2
    frequency:   -4.1242949266
  - # 3
    frequency:    0.3637530588
  - # 4
    frequency:    0.8894883522
  - # 5
    frequency:    1.2286431390
  - # 6
    frequency:    1.3856788591
  - # 7
    frequency:    1.8563839118
  - # 8
    frequency:    4.3491637604
  - # 9
    frequency:    4.5410639731
  - # 10
    frequency:    5.3899211477
  - # 11
    frequency:    7.6239738501
  - # 12
    frequency:    7.7272756104
  - # 13
    frequency:    8.8519009669
  - # 14
    frequency:    9.7039656865
  - # 15
    frequency:    9.9552030757
  - # 16
    frequency:   10.2290758934
  - # 17
    frequency:   10.6139566309
  - # 18
    frequency:   10.6651497713
  - # 19
    frequency:   15.6330486098
  - # 20
    frequency:   15.7275749389
  - # 21
    frequency:   16.0723737630
  - # 22
    frequency:   20.6808305364
  - # 23
    frequency:   41.0404509485
  - # 24
    frequency:   64.6707043687

- q-position: [    0.0757576,    0.0000000,    0.0000000 ]
  distance:    0.0266827
  band:
  - # 1
    frequency:   -4.2714597260
  - # 2
    frequency:   -4.1150697845
  - # 3
    frequency:    0.4316713455
  - # 4
    frequency:    0.9322666192
  - # 5
    frequency:    1.2821758873
  - # 6
    frequency:    1.4502257706
  - # 7
    frequency:    1.9763534168
  - # 8
    frequency:    4.3639543709
  - # 9
    frequency:    4.5786999951
  - # 10
    frequency:    5.3883415901
  - # 11
    frequency:    7.6264352817
  - # 12
    frequency:    7.7440429273
  - # 13
    frequency:    8.8037648561
  - # 14
    frequency:    9.7106450296
  - # 15
    frequency:    9.9672309485
  - # 16
    frequency:   10.2258415665
  - # 17
    frequency:   10.6247968349
  - # 18
    frequency:   10.6856906064
  - # 19
    frequency:   15.6282412031
  - # 20
    frequency:   15.7357447408
  - # 21
    frequency:   16.0850275852
  - # 22
    frequency:   20.6798032917
  - # 23
    frequency:   41.0207613404
  - # 24
    frequency:   64.6677326538

- q-position: [    0.0808081,    0.0000000,    0.0000000 ]
  distance:    0.0284616
  band:
  - # 1
    frequency:   -4.2826351458
  - # 2
    frequency:   -4.1054412379
  - # 3
    frequency:    0.5008732871
  - # 4
    frequency:    0.9715901405
  - # 5
    frequency:    1.3399277830
  - # 6
    frequency:    1.5146184021
  - # 7
    frequency:    2.0964646620
  - # 8
    frequency:    4.3795709908
  - # 9
    frequency:    4.6175014434
  - # 10
    frequency:    5.3870152006
  - # 11
    frequency:    7.6290872183
  - # 12
    frequency:    7.7617570449
  - # 13
    frequency:    8.7555965577
  - # 14
    frequency:    9.7176502226
  - # 15
    frequency:    9.9769715519
  - # 16
    frequency:   10.2227641590
  - # 17
    frequency:   10.6360792176
  - # 18
    frequency:   10.7077776595
  - # 19
    frequency:   15.6228447776
  - # 20
    frequency:   15.7439035314
  - # 21
    frequency:   16.0980869123
  - # 22
    frequency:   20.6786927371
  - # 23
    frequency:   40.9999074311
  - # 24
    frequency:   64.6645854181

- q-position: [    0.0858586,    0.0000000,    0.0000000 ]
  distance:    0.0302404
  band:
  - # 1
    frequency:   -4.2946193181
  - # 2
    frequency:   -4.0954218342
  - # 3
    frequency:    0.5714680578
  - # 4
    frequency:    1.0080908654
  - # 5
    frequency:    1.4011355699
  - # 6
    frequency:    1.5789836183
  - # 7
    frequency:    2.2162198468
  - # 8
    frequency:    4.3959792635
  - # 9
    frequency:    4.6572877154
  - # 10
    frequency:    5.3860289348
  - # 11
    frequency:    7.6319298059
  - # 12
    frequency:    7.7803891287
  - # 13
    frequency:    8.7075455801
  - # 14
    frequency:    9.7249667146
  - # 15
    frequency:    9.9846328556
  - # 16
    frequency:   10.2197097494
  - # 17
    frequency:   10.6477463166
  - # 18
    frequency:   10.7313172346
  - # 19
    frequency:   15.6168199772
  - # 20
    frequency:   15.7519454380
  - # 21
    frequency:   16.1114908913
  - # 22
    frequency:   20.6774967053
  - # 23
    frequency:   40.9779252962
  - # 24
    frequency:   64.6612681737

- q-position: [    0.0909091,    0.0000000,    0.0000000 ]
  distance:    0.0320193
  band:
  - # 1
    frequency:   -4.3074084340
  - # 2
    frequency:   -4.0850168640
  - # 3
    frequency:    0.6434449613
  - # 4
    frequency:    1.0423898088
  - # 5
    frequency:    1.4650502430
  - # 6
    frequency:    1.6433578180
  - # 7
    frequency:    2.3352224787
  - # 8
    frequency:    4.4131439274
  - # 9
    frequency:    4.6978838920
  - # 10
    frequency:    5.3854835743
  - # 11
    frequency:    7.6349623522
  - # 12
    frequency:    7.7999117955
  - # 13
    frequency:    8.6597663237
  - # 14
    frequency:    9.7325816851
  - # 15
    frequency:    9.9904743000
  - # 16
    frequency:   10.2165281414
  - # 17
    frequency:   10.6597387038
  - # 18
    frequency:   10.7561822981
  - # 19
    frequency:   15.6101284549
  - # 20
    frequency:   15.7597636818
  - # 21
    frequency:   16.1251803989
  - # 22
    frequency:   20.6762129941
  - # 23
    frequency:   40.9548525321
  - # 24
    frequency:   64.6577866745

- q-position: [    0.0959596,    0.0000000,    0.0000000 ]
  distance:    0.0337981
  band:
  - # 1
    frequency:   -4.3209941490
  - # 2
    frequency:   -4.0742238675
  - # 3
    frequency:    0.7167316210
  - # 4
    frequency:    1.0750189636
  - # 5
    frequency:    1.5310156268
  - # 6
    frequency:    1.7077287144
  - # 7
    frequency:    2.4531307735
  - # 8
    frequency:    4.4310290101
  - # 9
    frequency:    4.7391185717
  - # 10
    frequency:    5.3854973219
  - # 11
    frequency:    7.6381833100
  - # 12
    frequency:    7.8202993795
  - # 13
    frequency:    8.6124186926
  - # 14
    frequency:    9.7404841315
  - # 15
    frequency:    9.9947817823
  - # 16
    frequency:   10.2130703784
  - # 17
    frequency:   10.6719954506
  - # 18
    frequency:   10.7822191988
  - # 19
    frequency:   15.6027333898
  - # 20
    frequency:   15.7672523404
  - # 21
    frequency:   16.1390977698
  - # 22
    frequency:   20.6748393856
  - # 23
    frequency:   40.9307281241
  - # 24
    frequency:   64.6541468964

- q-position: [    0.1010101,    0.0000000,    0.0000000 ]
  distance:    0.0355770
  band:
  - # 1
    frequency:   -4.3353634099
  - # 2
    frequency:   -4.0630322949
  - # 3
    frequency:    0.7912234913
  - # 4
    frequency:    1.1063977048
  - # 5
    frequency:    1.5984923759
  - # 6
    frequency:    1.7720584990
  - # 7
    frequency:    2.5696303926
  - # 8
    frequency:    4.4495980186
  - # 9
    frequency:    4.7808201238
  - # 10
    frequency:    5.3862106621
  - # 11
    frequency:    7.6415902829
  - # 12
    frequency:    7.8415280951
  - # 13
    frequency:    8.5656682701
  - # 14
    frequency:    9.7486649056
  - # 15
    frequency:    9.9978441696
  - # 16
    frequency:   10.2092038347
  - # 17
    frequency:   10.6844546208
  - # 18
    frequency:   10.8092557686
  - # 19
    frequency:   15.5945999963
  - # 20
    frequency:   15.7743081584
  - # 21
    frequency:   16.1531864167
  - # 22
    frequency:   20.6733736670
  - # 23
    frequency:   40.9055923127
  - # 24
    frequency:   64.6503550187

- q-position: [    0.1060606,    0.0000000,    0.0000000 ]
  distance:    0.0373558
  band:
  - # 1
    frequency:   -4.3504983649
  - # 2
    frequency:   -4.0514233154
  - # 3
    frequency:    0.8668001220
  - # 4
    frequency:    1.1368402860
  - # 5
    frequency:    1.6670508053
  - # 6
    frequency:    1.8362968507
  - # 7
    frequency:    2.6844180693
  - # 8
    frequency:    4.4688141264
  - # 9
    frequency:    4.8228108552
  - # 10
    frequency:    5.3877929402
  - # 11
    frequency:    7.6451800500
  - # 12
    frequency:    7.8635760290
  - # 13
    frequency:    8.5196862396
  - # 14
    frequency:    9.7571167038
  - # 15
    frequency:    9.9999346557
  - # 16
    frequency:   10.2048227302
  - # 17
    frequency:   10.6970537821
  - # 18
    frequency:   10.8371095152
  - # 19
    frequency:   15.5856960220
  - # 20
    frequency:   15.7808323365
  - # 21
    frequency:   16.1673903997
  - # 22
    frequency:   20.6718136513
  - # 23
    frequency:   40.8794864574
  - # 24
    frequency:   64.6464174040

- q-position: [    0.1111111,    0.0000000,    0.0000000 ]
  distance:    0.0391347
  band:
  - # 1
    frequency:   -4.3663763556
  - # 2
    frequency:   -4.0393697631
  - # 3
    frequency:    0.9433346751
  - # 4
    frequency:    1.1665749236
  - # 5
    frequency:    1.7363520644
  - # 6
    frequency:    1.9003883075
  - # 7
    frequency:    2.7971916683
  - # 8
    frequency:    4.4886403520
  - # 9
    frequency:    4.8648984291
  - # 10
    frequency:    5.3904512142
  - # 11
    frequency:    7.6489486080
  - # 12
    frequency:    7.8864228452
  - # 13
    frequency:    8.4746492466
  - # 14
    frequency:    9.7658340189
  - # 15
    frequency:   10.0012980741
  - # 16
    frequency:   10.1998538150
  - # 17
    frequency:   10.7097305265
  - # 18
    frequency:   10.8655949573
  - # 19
    frequency:   15.5759922273
  - # 20
    frequency:   15.7867322286
  - # 21
    frequency:   16.1816540084
  - # 22
    frequency:   20.6701572000
  - # 23
    frequency:   40.8524529006
  - # 24
    frequency:   64.6423405784

- q-position: [    0.1161616,    0.0000000,    0.0000000 ]
  distance:    0.0409135
  band:
  - # 1
    frequency:   -4.3829699832
  - # 2
    frequency:   -4.0268362045
  - # 3
    frequency:    1.0206997249
  - # 4
    frequency:    1.1957639647
  - # 5
    frequency:    1.8061281636
  - # 6
    frequency:    1.9642764476
  - # 7
    frequency:    2.9076443593
  - # 8
    frequency:    4.5090397304
  - # 9
    frequency:    4.9068638125
  - # 10
    frequency:    5.3944419507
  - # 11
    frequency:    7.6528912294
  - # 12
    frequency:    7.9100489636
  - # 13
    frequency:    8.4307394952
  - # 14
    frequency:    9.7748130598
  - # 15
    frequency:   10.0021434653
  - # 16
    frequency:   10.1942583820
  - # 17
    frequency:   10.7224229911
  - # 18
    frequency:   10.8945295779
  - # 19
    frequency:   15.5654628453
  - # 20
    frequency:   15.7919228794
  - # 21
    frequency:   16.1959214132
  - # 22
    frequency:   20.6684022460
  - # 23
    frequency:   40.8245348305
  - # 24
    frequency:   64.6381312114

- q-position: [    0.1212121,    0.0000000,    0.0000000 ]
  distance:    0.0426923
  band:
  - # 1
    frequency:   -4.4002472428
  - # 2
    frequency:   -4.0137791090
  - # 3
    frequency:    1.0987708758
  - # 4
    frequency:    1.2245210702
  - # 5
    frequency:    1.8761649289
  - # 6
    frequency:    2.0279062303
  - # 7
    frequency:    3.0154617455
  - # 8
    frequency:    4.5299754740
  - # 9
    frequency:    4.9484452730
  - # 10
    frequency:    5.4000858245
  - # 11
    frequency:    7.6570025320
  - # 12
    frequency:    7.9344337107
  - # 13
    frequency:    8.3881456146
  - # 14
    frequency:    9.7840516457
  - # 15
    frequency:   10.0026402158
  - # 16
    frequency:   10.1880323819
  - # 17
    frequency:   10.7350703706
  - # 18
    frequency:   10.9237382551
  - # 19
    frequency:   15.5540860151
  - # 20
    frequency:   15.7963283454
  - # 21
    frequency:   16.2101364410
  - # 22
    frequency:   20.6665468164
  - # 23
    frequency:   40.7957761454
  - # 24
    frequency:   64.6337960959

- q-position: [    0.1262626,    0.0000000,    0.0000000 ]
  distance:    0.0444712
  band:
  - # 1
    frequency:   -4.4181717162
  - # 2
    frequency:   -4.0001471039
  - # 3
    frequency:    1.1774290304
  - # 4
    frequency:    1.2529245637
  - # 5
    frequency:    1.9462887376
  - # 6
    frequency:    2.0912252605
  - # 7
    frequency:    3.1203214304
  - # 8
    frequency:    4.5514111222
  - # 9
    frequency:    4.9893190159
  - # 10
    frequency:    5.4077847719
  - # 11
    frequency:    7.6612765578
  - # 12
    frequency:    7.9595513041
  - # 13
    frequency:    8.3470654569
  - # 14
    frequency:    9.7935490834
  - # 15
    frequency:   10.0029158486
  - # 16
    frequency:   10.1812064115
  - # 17
    frequency:   10.7476134140
  - # 18
    frequency:   10.9530562795
  - # 19
    frequency:   15.5418441861
  - # 20
    frequency:   15.7998827567
  - # 21
    frequency:   16.2242425088
  - # 22
    frequency:   20.6645890573
  - # 23
    frequency:   40.7662213195
  - # 24
    frequency:   64.6293421282

- q-position: [    0.1313131,    0.0000000,    0.0000000 ]
  distance:    0.0462500
  band:
  - # 1
    frequency:   -4.4367028158
  - # 2
    frequency:   -3.9858812947
  - # 3
    frequency:    1.2565617816
  - # 4
    frequency:    1.2810273495
  - # 5
    frequency:    2.0163566360
  - # 6
    frequency:    2.1541844179
  - # 7
    frequency:    3.2218948741
  - # 8
    frequency:    4.5733106785
  - # 9
    frequency:    5.0290798241
  - # 10
    frequency:    5.4180376357
  - # 11
    frequency:    7.6657068594
  - # 12
    frequency:    7.9853618206
  - # 13
    frequency:    8.3077136817
  - # 14
    frequency:    9.8033060315
  - # 15
    frequency:   10.0030536814
  - # 16
    frequency:   10.1738470860
  - # 17
    frequency:   10.7599948982
  - # 18
    frequency:   10.9823312050
  - # 19
    frequency:   15.5287244895
  - # 20
    frequency:   15.8025310962
  - # 21
    frequency:   16.2381827377
  - # 22
    frequency:   20.6625272575
  - # 23
    frequency:   40.7359152710
  - # 24
    frequency:   64.6247762880

- q-position: [    0.1363636,    0.0000000,    0.0000000 ]
  distance:    0.0480289
  band:
  - # 1
    frequency:   -4.4557960688
  - # 2
    frequency:   -3.9709156311
  - # 3
    frequency:    1.3088641210
  - # 4
    frequency:    1.3360642175
  - # 5
    frequency:    2.0862491229
  - # 6
    frequency:    2.2167381093
  - # 7