nqpoint: 300    
npath: 3      
segment_nqpoint:
- 100
- 100
- 100
labels:
- [ 'G', 'M' ]
- [ 'M', 'K' ]
- [ 'K', 'G' ]
reciprocal_lattice:
- [   0.31277121,   0.18057854,   0.00000000 ] # a*
- [   0.00000000,   0.36115709,   0.00000000 ] # b*
- [   0.00000000,   0.00000000,   0.04442398 ] # c*
natom: 5      
lattice:
- [     3.197225180238898,     0.000000000000000,     0.000000000000000 ] # a
- [    -1.598612590119449,     2.768878227704744,     0.000000000000000 ] # b
- [     0.000000000000000,     0.000000000000000,    22.510362754705600 ] # c
points:
- symbol: H # 1
  coordinates: [  0.333332985432215,  0.666666983183674,  0.600184141940644 ]
  mass: 1.007940
- symbol: H # 2
  coordinates: [  0.666666984744047,  0.333332985985145,  0.399815858059356 ]
  mass: 1.007940
- symbol: N # 3
  coordinates: [  0.000000000000000,  0.000000000000000,  0.500000040597048 ]
  mass: 14.006700
- symbol: Sc # 4
  coordinates: [  0.333332985432215,  0.666666983183674,  0.445226916276390 ]
  mass: 44.955912
- symbol: Sc # 5
  coordinates: [  0.666666984744047,  0.333332985985145,  0.554773083117674 ]
  mass: 44.955912

phonon:
- q-position: [    0.0000000,    0.0000000,    0.0000000 ]
  distance:    0.0000000
  band:
  - # 1
    frequency:   -0.0000111988
  - # 2
    frequency:   -0.0000003095
  - # 3
    frequency:    0.0000086894
  - # 4
    frequency:    6.1206105092
  - # 5
    frequency:    6.1206105092
  - # 6
    frequency:    9.6498289797
  - # 7
    frequency:   14.0361745320
  - # 8
    frequency:   14.2196621356
  - # 9
    frequency:   14.2196621356
  - # 10
    frequency:   27.8017675220
  - # 11
    frequency:   27.8017675220
  - # 12
    frequency:   28.4575873507
  - # 13
    frequency:   28.4575873507
  - # 14
    frequency:   28.8128129959
  - # 15
    frequency:   29.1312464376

- q-position: [    0.0050505,    0.0000000,    0.0000000 ]
  distance:    0.0018240
  band:
  - # 1
    frequency:    0.0020001139
  - # 2
    frequency:    0.1243587268
  - # 3
    frequency:    0.1501637691
  - # 4
    frequency:    6.1205496807
  - # 5
    frequency:    6.1217926741
  - # 6
    frequency:    9.6493280618
  - # 7
    frequency:   14.0361321789
  - # 8
    frequency:   14.2195518127
  - # 9
    frequency:   14.2197036367
  - # 10
    frequency:   27.8015536781
  - # 11
    frequency:   27.8021659436
  - # 12
    frequency:   28.4564952607
  - # 13
    frequency:   28.4570365726
  - # 14
    frequency:   28.8122787015
  - # 15
    frequency:   29.1310465504

- q-position: [    0.0101010,    0.0000000,    0.0000000 ]
  distance:    0.0036481
  band:
  - # 1
    frequency:    0.0079950038
  - # 2
    frequency:    0.2486295201
  - # 3
    frequency:    0.3002740973
  - # 4
    frequency:    6.1203694796
  - # 5
    frequency:    6.1253357127
  - # 6
    frequency:    9.6478268551
  - # 7
    frequency:   14.0359975265
  - # 8
    frequency:   14.2192213897
  - # 9
    frequency:   14.2198349668
  - # 10
    frequency:   27.8009124029
  - # 11
    frequency:   27.8033565128
  - # 12
    frequency:   28.4532221527
  - # 13
    frequency:   28.4553853101
  - # 14
    frequency:   28.8106815867
  - # 15
    frequency:   29.1304471297

- q-position: [    0.0151515,    0.0000000,    0.0000000 ]
  distance:    0.0054721
  band:
  - # 1
    frequency:    0.0179683747
  - # 2
    frequency:    0.3727245893
  - # 3
    frequency:    0.4502775949
  - # 4
    frequency:    6.1200767440
  - # 5
    frequency:    6.1312293040
  - # 6
    frequency:    9.6453299855
  - # 7
    frequency:   14.0357481445
  - # 8
    frequency:   14.2186724982
  - # 9
    frequency:   14.2200762799
  - # 10
    frequency:   27.7998444679
  - # 11
    frequency:   27.8053250573
  - # 12
    frequency:   28.4477775026
  - # 13
    frequency:   28.4526367759
  - # 14
    frequency:   28.8080389587
  - # 15
    frequency:   29.1294489745

- q-position: [    0.0202020,    0.0000000,    0.0000000 ]
  distance:    0.0072961
  band:
  - # 1
    frequency:    0.0318932700
  - # 2
    frequency:    0.4965564287
  - # 3
    frequency:    0.6001209746
  - # 4
    frequency:    6.1196828210
  - # 5
    frequency:    6.1394564002
  - # 6
    frequency:    9.6418451110
  - # 7
    frequency:   14.0353478338
  - # 8
    frequency:   14.2179078407
  - # 9
    frequency:   14.2204600579
  - # 10
    frequency:   27.7983511640
  - # 11
    frequency:   27.8080476695
  - # 12
    frequency:   28.4401770691
  - # 13
    frequency:   28.4487963146
  - # 14
    frequency:   28.8043796814
  - # 15
    frequency:   29.1280536655

- q-position: [    0.0252525,    0.0000000,    0.0000000 ]
  distance:    0.0091201
  band:
  - # 1
    frequency:    0.0497323669
  - # 2
    frequency:    0.6200379613
  - # 3
    frequency:    0.7497510967
  - # 4
    frequency:    6.1192034933
  - # 5
    frequency:    6.1499934524
  - # 6
    frequency:    9.6373828462
  - # 7
    frequency:   14.0347484638
  - # 8
    frequency:   14.2169311649
  - # 9
    frequency:   14.2210293863
  - # 10
    frequency:   27.7964343099
  - # 11
    frequency:   27.8114902725
  - # 12
    frequency:   28.4304428373
  - # 13
    frequency:   28.4438713880
  - # 14
    frequency:   28.7997442437
  - # 15
    frequency:   29.1262639074

- q-position: [    0.0303030,    0.0000000,    0.0000000 ]
  distance:    0.0109442
  band:
  - # 1
    frequency:    0.0714383761
  - # 2
    frequency:    0.7430826842
  - # 3
    frequency:    0.8991150086
  - # 4
    frequency:    6.1186588747
  - # 5
    frequency:    6.1628107138
  - # 6
    frequency:    9.6319566588
  - # 7
    frequency:   14.0338926251
  - # 8
    frequency:   14.2157472284
  - # 9
    frequency:   14.2218354555
  - # 10
    frequency:   27.7940962625
  - # 11
    frequency:   27.8156080020
  - # 12
    frequency:   28.4186029319
  - # 13
    frequency:   28.4378715554
  - # 14
    frequency:   28.7941849263
  - # 15
    frequency:   29.1240839540

- q-position: [    0.0353535,    0.0000000,    0.0000000 ]
  distance:    0.0127682
  band:
  - # 1
    frequency:    0.0969545354
  - # 2
    frequency:    0.8656048150
  - # 3
    frequency:    1.0481599765
  - # 4
    frequency:    6.1180732778
  - # 5
    frequency:    6.1778726111
  - # 6
    frequency:    9.6255827402
  - # 7
    frequency:   14.0327170873
  - # 8
    frequency:   14.2143617534
  - # 9
    frequency:   14.2229342965
  - # 10
    frequency:   27.7913399305
  - # 11
    frequency:   27.8203444010
  - # 12
    frequency:   28.4046914969
  - # 13
    frequency:   28.4308084472
  - # 14
    frequency:   28.7877661226
  - # 15
    frequency:   29.1215200709

- q-position: [    0.0404040,    0.0000000,    0.0000000 ]
  distance:    0.0145922
  band:
  - # 1
    frequency:    0.1262151797
  - # 2
    frequency:    0.9875194404
  - # 3
    frequency:    1.1968335072
  - # 4
    frequency:    6.1174750516
  - # 5
    frequency:    6.1951381702
  - # 6
    frequency:    9.6182798557
  - # 7
    frequency:   14.0311569384
  - # 8
    frequency:   14.2127813728
  - # 9
    frequency:   14.2243828674
  - # 10
    frequency:   27.7881687900
  - # 11
    frequency:   27.8256304193
  - # 12
    frequency:   28.3887485397
  - # 13
    frequency:   28.4226957337
  - # 14
    frequency:   28.7805648626
  - # 15
    frequency:   29.1185809932

- q-position: [    0.0454545,    0.0000000,    0.0000000 ]
  distance:    0.0164162
  band:
  - # 1
    frequency:    0.1591463743
  - # 2
    frequency:    1.1087426677
  - # 3
    frequency:    1.3450833583
  - # 4
    frequency:    6.1168963908
  - # 5
    frequency:    6.2145614834
  - # 6
    frequency:    9.6100691742
  - # 7
    frequency:   14.0291501286
  - # 8
    frequency:   14.2110135662
  - # 9
    frequency:   14.2262347660
  - # 10
    frequency:   27.7845869017
  - # 11
    frequency:   27.8313832197
  - # 12
    frequency:   28.3708197470
  - # 13
    frequency:   28.4135490889
  - # 14
    frequency:   28.7726715741
  - # 15
    frequency:   29.1152783404

- q-position: [    0.0505051,    0.0000000,    0.0000000 ]
  distance:    0.0182403
  band:
  - # 1
    frequency:    0.1956665920
  - # 2
    frequency:    1.2291917786
  - # 3
    frequency:    1.4928575364
  - # 4
    frequency:    6.1163731168
  - # 5
    frequency:    6.2360922027
  - # 6
    frequency:    9.6009740844
  - # 7
    frequency:   14.0266419917
  - # 8
    frequency:   14.2090665888
  - # 9
    frequency:   14.2285359871
  - # 10
    frequency:   27.7805989304
  - # 11
    frequency:   27.8375048006
  - # 12
    frequency:   28.3509562809
  - # 13
    frequency:   28.4033861487
  - # 14
    frequency:   28.7641910890
  - # 15
    frequency:   29.1116269591

- q-position: [    0.0555556,    0.0000000,    0.0000000 ]
  distance:    0.0200643
  band:
  - # 1
    frequency:    0.2356874201
  - # 2
    frequency:    1.3487853866
  - # 3
    frequency:    1.6401042813
  - # 4
    frequency:    6.1159444300
  - # 5
    frequency:    6.2596760470
  - # 6
    frequency:    9.5910199994
  - # 7
    frequency:   14.0235892321
  - # 8
    frequency:   14.2069493908
  - # 9
    frequency:   14.2313212340
  - # 10
    frequency:   27.7762101640
  - # 11
    frequency:   27.8438804604
  - # 12
    frequency:   28.3292145771
  - # 13
    frequency:   28.3922264649
  - # 14
    frequency:   28.7552438656
  - # 15
    frequency:   29.1076451792

- q-position: [    0.0606061,    0.0000000,    0.0000000 ]
  distance:    0.0218883
  band:
  - # 1
    frequency:    0.2791142798
  - # 2
    frequency:    1.4674435974
  - # 3
    frequency:    1.7867720350
  - # 4
    frequency:    6.1156526354
  - # 5
    frequency:    6.2852553083
  - # 6
    frequency:    9.5802341547
  - # 7
    frequency:   14.0199628987
  - # 8
    frequency:   14.2046715309
  - # 9
    frequency:   14.2346112530
  - # 10
    frequency:   27.7714265341
  - # 11
    frequency:   27.8503771570
  - # 12
    frequency:   28.3056561749
  - # 13
    frequency:   28.3800914539
  - # 14
    frequency:   28.7459673537
  - # 15
    frequency:   29.1033549742

- q-position: [    0.0656566,    0.0000000,    0.0000000 ]
  distance:    0.0237123
  band:
  - # 1
    frequency:    0.3258471435
  - # 2
    frequency:    1.5850881732
  - # 3
    frequency:    1.9328093970
  - # 4
    frequency:    6.1155428415
  - # 5
    frequency:    6.3127693472
  - # 6
    frequency:    9.5686454024
  - # 7
    frequency:   14.0157500325
  - # 8
    frequency:   14.2022430821
  - # 9
    frequency:   14.2384115023
  - # 10
    frequency:   27.7662546353
  - # 11
    frequency:   27.8568418495
  - # 12
    frequency:   28.2803476218
  - # 13
    frequency:   28.3670043425
  - # 14
    frequency:   28.7365173665
  - # 15
    frequency:   29.0987820332

- q-position: [    0.0707071,    0.0000000,    0.0000000 ]
  distance:    0.0255364
  band:
  - # 1
    frequency:    0.3757812389
  - # 2
    frequency:    1.7016427012
  - # 3
    frequency:    2.0781650633
  - # 4
    frequency:    6.1156626326
  - # 5
    frequency:    6.3421550676
  - # 6
    frequency:    9.5562840065
  - # 7
    frequency:   14.0109539158
  - # 8
    frequency:   14.1996745320
  - # 9
    frequency:   14.2427122174
  - # 10
    frequency:   27.7607017443
  - # 11
    frequency:   27.8630999528
  - # 12
    frequency:   28.2533605213
  - # 13
    frequency:   28.3529901084
  - # 14
    frequency:   28.7270692527
  - # 15
    frequency:   29.0939557520

- q-position: [    0.0757576,    0.0000000,    0.0000000 ]
  distance:    0.0273604
  band:
  - # 1
    frequency:    0.4288077282
  - # 2
    frequency:    1.8170327657
  - # 3
    frequency:    2.2227877514
  - # 4
    frequency:    6.1160617169
  - # 5
    frequency:    6.3733473621
  - # 6
    frequency:    9.5431814409
  - # 7
    frequency:   14.0055931049
  - # 8
    frequency:   14.1969766773
  - # 9
    frequency:   14.2474896894
  - # 10
    frequency:   27.7547758375
  - # 11
    frequency:   27.8689540762
  - # 12
    frequency:   28.2247718316
  - # 13
    frequency:   28.3380754178
  - # 14
    frequency:   28.7178185745
  - # 15
    frequency:   29.0889091631

- q-position: [    0.0808081,    0.0000000,    0.0000000 ]
  distance:    0.0291844
  band:
  - # 1
    frequency:    0.4848143544
  - # 2
    frequency:    1.9311861253
  - # 3
    frequency:    2.3666261097
  - # 4
    frequency:    6.1167915505
  - # 5
    frequency:    6.4062795245
  - # 6
    frequency:    9.5293701955
  - # 7
    frequency:   13.9996995913
  - # 8
    frequency:   14.1941605142
  - # 9
    frequency:   14.2527084013
  - # 10
    frequency:   27.7484856061
  - # 11
    frequency:   27.8741832305
  - # 12
    frequency:   28.1946646019
  - # 13
    frequency:   28.3222885599
  - # 14
    frequency:   28.7089809015
  - # 15
    frequency:   29.0836788227

- q-position: [    0.0858586,    0.0000000,    0.0000000 ]
  distance:    0.0310084
  band:
  - # 1
    frequency:    0.5436860481
  - # 2
    frequency:    2.0440328937
  - # 3
    frequency:    2.5096286153
  - # 4
    frequency:    6.1179049385
  - # 5
    frequency:    6.4408836237
  - # 6
    frequency:    9.5148835900
  - # 7
    frequency:   13.9933164987
  - # 8
    frequency:   14.1912371252
  - # 9
    frequency:   14.2583236140
  - # 10
    frequency:   27.7418404691
  - # 11
    frequency:   27.8785426052
  - # 12
    frequency:   28.1631294996
  - # 13
    frequency:   28.3056593782
  - # 14
    frequency:   28.7007902462
  - # 15
    frequency:   29.0783046759

- q-position: [    0.0909091,    0.0000000,    0.0000000 ]
  distance:    0.0328325
  band:
  - # 1
    frequency:    0.6053054923
  - # 2
    frequency:    2.1555057261
  - # 3
    frequency:    2.6517434578
  - # 4
    frequency:    6.1194556157
  - # 5
    frequency:    6.4770908388
  - # 6
    frequency:    9.4997556003
  - # 7
    frequency:   13.9864956775
  - # 8
    frequency:   14.1882175623
  - # 9
    frequency:   14.2642840317
  - # 10
    frequency:   27.7348505829
  - # 11
    frequency:   27.8817637024
  - # 12
    frequency:   28.1302678339
  - # 13
    frequency:   28.2882191990
  - # 14
    frequency:   28.6934956273
  - # 15
    frequency:   29.0728299250

- q-position: [    0.0959596,    0.0000000,    0.0000000 ]
  distance:    0.0346565
  band:
  - # 1
    frequency:    0.6695536408
  - # 2
    frequency:    2.2655400096
  - # 3
    frequency:    2.7929184145
  - # 4
    frequency:    6.1214978075
  - # 5
    frequency:    6.5148317546
  - # 6
    frequency:    9.4840206978
  - # 7
    frequency:   13.9792954572
  - # 8
    frequency:   14.1851127293
  - # 9
    frequency:   14.2705342850
  - # 10
    frequency:   27.7275268476
  - # 11
    frequency:   27.8835537382
  - # 12
    frequency:   28.0961976099
  - # 13
    frequency:   28.2700007579
  - # 14
    frequency:   28.6873552947
  - # 15
    frequency:   29.0673009221

- q-position: [    0.1010101,    0.0000000,    0.0000000 ]
  distance:    0.0364805
  band:
  - # 1
    frequency:    0.7363101911
  - # 2
    frequency:    2.3740740582
  - # 3
    frequency:    2.9331007167
  - # 4
    frequency:    6.1240857735
  - # 5
    frequency:    6.5540366176
  - # 6
    frequency:    9.4677137042
  - # 7
    frequency:   13.9717787037
  - # 8
    frequency:   14.1819332621
  - # 9
    frequency:   14.2770170784
  - # 10
    frequency:   27.7198809083
  - # 11
    frequency:   27.8835909577
  - # 12
    frequency:   28.0610662010
  - # 13
    frequency:   28.2510381246
  - # 14
    frequency:   28.6826283583
  - # 15
    frequency:   29.0617671136

- q-position: [    0.1060606,    0.0000000,    0.0000000 ]
  distance:    0.0383045
  band:
  - # 1
    frequency:    0.8054540122
  - # 2
    frequency:    2.4810493125
  - # 3
    frequency:    3.0722369102
  - # 4
    frequency:    6.1272733361
  - # 5
    frequency:    6.5946355564
  - # 6
    frequency:    9.4508696622
  - # 7
    frequency:   13.9640112328
  - # 8
    frequency:   14.1786894090
  - # 9
    frequency:   14.2836749482
  - # 10
    frequency:   27.7119251536
  - # 11
    frequency:   27.8815065195
  - # 12
    frequency:   28.0250788307
  - # 13
    frequency:   28.2313666250
  - # 14
    frequency:   28.6795639459
  - # 15
    frequency:   29.0562810637

- q-position: [    0.1111111,    0.0000000,    0.0000000 ]
  distance:    0.0401286
  band:
  - # 1
    frequency:    0.8768635295
  - # 2
    frequency:    2.5864105438
  - # 3
    frequency:    3.2102727134
  - # 4
    frequency:    6.1311133964
  - # 5
    frequency:    6.6365587660
  - # 6
    frequency:    9.4335237245
  - # 7
    frequency:   13.9560605657
  - # 8
    frequency:   14.1753909124
  - # 9
    frequency:   14.2904516416
  - # 10
    frequency:   27.7036727074
  - # 11
    frequency:   27.8768264510
  - # 12
    frequency:   27.9885686484
  - # 13
    frequency:   28.2110227634
  - # 14
    frequency:   28.6783885720
  - # 15
    frequency:   29.0508985927

- q-position: [    0.1161616,    0.0000000,    0.0000000 ]
  distance:    0.0419526
  band:
  - # 1
    frequency:    0.9504170682
  - # 2
    frequency:    2.6901060614
  - # 3
    frequency:    3.3471528758
  - # 4
    frequency:    6.1356574399
  - # 5
    frequency:    6.6797366604
  - # 6
    frequency:    9.4157110616
  - # 7
    frequency:   13.9479949773
  - # 8
    frequency:   14.1720468913
  - # 9
    frequency:   14.2972931641
  - # 10
    frequency:   27.6951374171
  - # 11
    frequency:   27.8687955078
  - # 12
    frequency:   27.9521852504
  - # 13
    frequency:   28.1900441422
  - # 14
    frequency:   28.6792929922
  - # 15
    frequency:   29.0456790737

- q-position: [    0.1212121,    0.0000000,    0.0000000 ]
  distance:    0.0437766
  band:
  - # 1
    frequency:    1.0259931603
  - # 2
    frequency:    2.7920879237
  - # 3
    frequency:    3.4828210398
  - # 4
    frequency:    6.1409550362
  - # 5
    frequency:    6.7240999956
  - # 6
    frequency:    9.3974667903
  - # 7
    frequency:   13.9398827745
  - # 8
    frequency:   14.1686657268
  - # 9
    frequency:   14.3041485531
  - # 10
    frequency:   27.6863338359
  - # 11
    frequency:   27.8558884580
  - # 12
    frequency:   27.9173943739
  - # 13
    frequency:   28.1684693813
  - # 14
    frequency:   28.6824202306
  - # 15
    frequency:   29.0406859486

- q-position: [    0.1262626,    0.0000000,    0.0000000 ]
  distance:    0.0456006
  band:
  - # 1
    frequency:    1.1034708175
  - # 2
    frequency:    2.8923121509
  - # 3
    frequency:    3.6172196099
  - # 4
    frequency:    6.1470533348
  - # 5
    frequency:    6.7695799638
  - # 6
    frequency:    9.3788259245
  - # 7
    frequency:   13.9317917440
  - # 8
    frequency:   14.1652549512
  - # 9
    frequency:   14.3109704397
  - # 10
    frequency:   27.6772771999
  - # 11
    frequency:   27.8352006473
  - # 12
    frequency:   27.8870951287
  - # 13
    frequency:   28.1463380372
  - # 14
    frequency:   28.6878564850
  - # 15
    frequency:   29.0359875463

- q-position: [    0.1313131,    0.0000000,    0.0000000 ]
  distance:    0.0474247
  band:
  - # 1
    frequency:    1.1827297733
  - # 2
    frequency:    2.9907389394
  - # 3
    frequency:    3.7502896333
  - # 4
    frequency:    6.1539965622
  - # 5
    frequency:    6.8161082612
  - # 6
    frequency:    9.3598233496
  - # 7
    frequency:   13.9237887150
  - # 8
    frequency:   14.1618211414
  - # 9
    frequency:   14.3177154479
  - # 10
    frequency:   27.6679833997
  - # 11
    frequency:   27.8049758905
  - # 12
    frequency:   27.8630954125
  - # 13
    frequency:   28.1236905205
  - # 14
    frequency:   28.6956260915
  - # 15
    frequency:   29.0316583263

- q-position: [    0.1363636,    0.0000000,    0.0000000 ]
  distance:    0.0492487
  band:
  - # 1
    frequency:    1.2636507002
  - # 2
    frequency:    3.0873328747
  - # 3
    frequency:    3.8819706948
  - # 4
    frequency:    6.1618255239
  - # 5
    frequency:    6.8636171281
  - # 6
    frequency:    9.3404938248
  - # 7
    frequency:   13.9159391939
  - # 8
    frequency:   14.1583698174
  - # 9
    frequency:   14.3243444757
  - # 10
    frequency:   27.6584689470
  - # 11
    frequency:   27.7681864555
  - # 12
    frequency:   27.8425303247
  - # 13
    frequency:   28.1005680139
  - # 14
    frequency:   28.7056907946
  - # 15
    frequency:   29.0277807231

- q-position: [    0.1414141,    0.0000000,    0.0000000 ]
  distance:    0.0510727
  band:
  - # 1
    frequency:    1.3461154025
  - # 2
    frequency:    3.1820631424
  - # 3
    frequency:    4.0122008306
  - # 4
    frequency:    6.1705771164
  - # 5
    frequency:    6.9120393627
  - # 6
    frequency:    9.3208720150
  - # 7
    frequency:   13.9083070364
  - # 8
    frequency:   14.1549053475
  - # 9
    frequency:   14.3308228887
  - # 10
    frequency:   27.6487509358
  - # 11
    frequency:   27.7281762094
  - # 12
    frequency:   27.8222130808
  - # 13
    frequency:   28.0770123899
  - # 14
    frequency:   28.7179524956
  - # 15
    frequency:   29.0244478515

- q-position: [    0.1464646,    0.0000000,    0.0000000 ]
  distance:    0.0528967
  band:
  - # 1
    frequency:    1.4300069909
  - # 2
    frequency:    3.2749037333
  - # 3
    frequency:    4.1409164642
  - # 4
    frequency:    6.1802838544
  - # 5
    frequency:    6.9613083034
  - # 6
    frequency:    9.3009925579
  - # 7
    frequency:   13.9009541344
  - # 8
    frequency:   14.1514308602
  - # 9
    frequency:   14.3371206519
  - # 10
    frequency:   27.6388469981
  - # 11
    frequency:   27.6865176864
  - # 12
    frequency:   27.8007689842
  - # 13
    frequency:   28.0530661274
  - # 14
    frequency:   28.7322577847
  - # 15
    frequency:   29.0217674476

- q-position: [    0.1515152,    0.0000000,    0.0000000 ]
  distance:    0.0547208
  band:
  - # 1
    frequency:    1.5152100399
  - # 2
    frequency:    3.3658336400
  - # 3
    frequency:    4.2680523692
  - # 4
    frequency:    6.1909734193
  - # 5
    frequency:    7.0113577775
  - # 6
    frequency:    9.2808901704
  - # 7
    frequency:   13.8939400964
  - # 8
    frequency:   14.1479481639
  - # 9
    frequency:   14.3432124158
  - # 10
    frequency:   27.6287752558
  - # 11
    frequency:   27.6438891822
  - # 12
    frequency:   27.7777479748
  - # 13
    frequency:   28.0287722291
  - # 14
    frequency:   28.7484021125
  - # 15
    frequency:   29.0198675703

- q-position: [    0.1565657,    0.0000000,    0.0000000 ]
  distance:    0.0565448
  band:
  - # 1
    frequency:    1.6016107323
  - # 2
    frequency:    3.4548370414
  - # 3
    frequency:    4.3935416600
  - # 4
    frequency:    6.2026682340
  - # 5
    frequency:    7.0621220094
  - # 6
    frequency:    9.2605998034
  - # 7
    frequency:   13.8873219127
  - # 8
    frequency:   14.1444576758
  - # 9
    frequency:   14.3490775716
  - # 10
    frequency:   27.6006345016
  - # 11
    frequency:   27.6185542668
  - # 12
    frequency:   27.7530546033
  - # 13
    frequency:   28.0041741385
  - # 14
    frequency:   28.7661314406
  - # 15
    frequency:   29.0189047474

- q-position: [    0.1616162,    0.0000000,    0.0000000 ]
  distance:    0.0583688
  band:
  - # 1
    frequency:    1.6890969921
  - # 2
    frequency:    3.5419034703
  - # 3
    frequency:    4.5173158168
  - # 4
    frequency:    6.2153850729
  - # 5
    frequency:    7.1135354805
  - # 6
    frequency:    9.2401568514
  - # 7
    frequency:   13.8811535935
  - # 8
    frequency:   14.1409583599
  - # 9
    frequency:   14.3547002828
  - # 10
    frequency:   27.5569646389
  - # 11
    frequency:   27.6082029683
  - # 12
    frequency:   27.7267372067
  - # 13
    frequency:   27.9793156560
  - # 14
    frequency:   28.7851395981
  - # 15
    frequency:   29.0190752861

- q-position: [    0.1666667,    0.0000000,    0.0000000 ]
  distance:    0.0601928
  band:
  - # 1
    frequency:    1.7775586080
  - # 2
    frequency:    3.6270279599
  - # 3
    frequency:    4.6393047443
  - # 4
    frequency:    6.2291347111
  - # 5
    frequency:    7.1655327282
  - # 6
    frequency:    9.2195974300
  - # 7
    frequency:   13.8754857777
  - # 8
    frequency:   14.1374476753
  - # 9
    frequency:   14.3600695014
  - # 10
    frequency:   27.5130313686
  - # 11
    frequency:   27.5977406150
  - # 12
    frequency:   27.6989068618
  - # 13
    frequency:   27.9542408555
  - # 14
    frequency:   28.8050605220
  - # 15
    frequency:   29.0206300164

- q-position: [    0.1717172,    0.0000000,    0.0000000 ]
  distance:    0.0620169
  band:
  - # 1
    frequency:    1.8668873503
  - # 2
    frequency:    3.7102111625
  - # 3
    frequency:    4.7594368695
  - # 4
    frequency:    6.2439216216
  - # 5
    frequency:    7.2180480711
  - # 6
    frequency:    9.1989587349
  - # 7
    frequency:   13.8703653076
  - # 8
    frequency:   14.1339215357
  - # 9
    frequency:   14.3651789726
  - # 10
    frequency:   27.4689568925
  - # 11
    frequency:   27.5871867148
  - # 12
    frequency:   27.6697021032
  - # 13
    frequency:   27.9289940002
  - # 14
    frequency:   28.8254568552
  - # 15
    frequency:   29.0238908616

- q-position: [    0.1767677,    0.0000000,    0.0000000 ]
  distance:    0.0638409
  band:
  - # 1
    frequency:    1.9569770813
  - # 2
    frequency:    3.7914594367
  - # 3
    frequency:    4.8776392778
  - # 4
    frequency:    6.2597437275
  - # 5
    frequency:    7.2710152396
  - # 6
    frequency:    9.1782794986
  - # 7
    frequency:   13.8658347698
  - # 8
    frequency:   14.1303742805
  - # 9
    frequency:   14.3700272325
  - # 10
    frequency:   27.4248470007
  - # 11
    frequency:   27.5765609610
  - # 12
    frequency:   27.6392718019
  - # 13
    frequency:   27.9036194583
  - # 14
    frequency:   28.8458117110
  - # 15
    frequency:   29.0292625756

- q-position: [    0.1818182,    0.0000000,    0.0000000 ]
  distance:    0.0656649
  band:
  - # 1
    frequency:    2.0477238599
  - # 2
    frequency:    3.8707848957
  - # 3
    frequency:    4.9938378905
  - # 4
    frequency:    6.2765922150
  - # 5
    frequency:    7.3243668891
  - # 6
    frequency:    9.1576005709
  - # 7
    frequency:   13.8619320039
  - # 8
    frequency:   14.1267986580
  - # 9
    frequency:   14.3746176006
  - # 10
    frequency:   27.3807973956
  - # 11
    frequency:   27.5658831622
  - # 12
    frequency:   27.6077662634
  - # 13
    frequency:   27.8781616174
  - # 14
    frequency:   28.8655403505
  - # 15
    frequency:   29.0372231904

- q-position: [    0.1868687,    0.0000000,    0.0000000 ]
  distance:    0.0674890
  band:
  - # 1
    frequency:    2.1390260435
  - # 2
    frequency:    3.9482054120
  - # 3
    frequency:    5.1079576837
  - # 4
    frequency:    6.2944514132
  - # 5
    frequency:    7.3780339633
  - # 6
    frequency:    9.1369656485
  - # 7
    frequency:   13.8586895819
  - # 8
    frequency:   14.1231858220
  - # 9
    frequency:   14.3789581697
  - # 10
    frequency:   27.3368969191
  - # 11
    frequency:   27.5551731699
  - # 12
    frequency:   27.5753324820
  - # 13
    frequency:   27.8526647992
  - # 14
    frequency:   28.8840485621
  - # 15
    frequency:   29.0482667116

- q-position: [    0.1919192,    0.0000000,    0.0000000 ]
  distance:    0.0693130
  band:
  - # 1
    frequency:    2.2307843847
  - # 2
    frequency:    4.0237445731
  - # 3
    frequency:    5.2199229476
  - # 4
    frequency:    6.3132987471
  - # 5
    frequency:    7.4319448680
  - # 6
    frequency:    9.1164221939
  - # 7
    frequency:   13.8561342641
  - # 8
    frequency:   14.1195253418
  - # 9
    frequency:   14.3830617924
  - # 10
    frequency:   27.2932292682
  - # 11
    frequency:   27.5421116637
  - # 12
    frequency:   27.5444508046
  - # 13
    frequency:   27.8271731726
  - # 14
    frequency:   28.9008537535
  - # 15
    frequency:   29.0627823532

- q-position: [    0.1969697,    0.0000000,    0.0000000 ]
  distance:    0.0711370
  band:
  - # 1
    frequency:    2.3229021251
  - # 2
    frequency:    4.0974315841
  - # 3
    frequency:    5.3296575867
  - # 4
    frequency:    6.3331047668
  - # 5
    frequency:    7.4860244039
  - # 6
    frequency:    9.0960225908
  - # 7
    frequency:   13.8542864381
  - # 8
    frequency:   14.1158052263
  - # 9
    frequency:   14.3869460653
  - # 10
    frequency:   27.2498739248
  - # 11
    frequency:   27.5082380415
  - # 12
    frequency:   27.5337357798
  - # 13
    frequency:   27.8017306660
  - # 14
    frequency:   28.9157289287
  - # 15
    frequency:   29.0809103878

- q-position: [    0.2020202,    0.0000000,    0.0000000 ]
  distance:    0.0729610
  band:
  - # 1
    frequency:    2.4152850854
  - # 2
    frequency:    4.1693011138
  - # 3
    frequency:    5.4370854577
  - # 4
    frequency:    6.3538332553
  - # 5
    frequency:    7.5401923920
  - # 6
    frequency:    9.0758255997
  - # 7
    frequency:   13.8531595526
  - # 8
    frequency:   14.1120119628
  - # 9
    frequency:   14.3906333079
  - # 10
    frequency:   27.2069066595
  - # 11
    frequency:   27.4738384376
  - # 12
    frequency:   27.5230476258
  - # 13
    frequency:   27.7763808789
  - # 14
    frequency:   28.9287698022
  - # 15
    frequency:   29.1024745528

- q-position: [    0.2070707,    0.0000000,    0.0000000 ]
  distance:    0.0747851
  band:
  - # 1
    frequency:    2.5078417515
  - # 2
    frequency:    4.2393930823
  - # 3
    frequency:    5.5421307426
  - # 4
    frequency:    6.3754414162
  - # 5
    frequency:    7.5943619056
  - # 6
    frequency:    9.0558981951
  - # 7
    frequency:   13.8527595568
  - # 8
    frequency:   14.1081305712
  - # 9
    frequency:   14.3941505320
  - # 10
    frequency:   27.1643997910
  - # 11
    frequency:   27.4390322484
  - # 12
    frequency:   27.5124056124
  - # 13
    frequency:   27.7511669929
  - # 14
    frequency:   28.9403260348
  - # 15
    frequency:   29.1270501619

- q-position: [    0.2121212,    0.0000000,    0.0000000 ]
  distance:    0.0766091
  band:
  - # 1
    frequency:    2.6004833570
  - # 2