nqpoint: 300    
npath: 3      
segment_nqpoint:
- 100
- 100
- 100
labels:
- [ 'G', 'M' ]
- [ 'M', 'K' ]
- [ 'K', 'G' ]
reciprocal_lattice:
- [   0.31277121,   0.18057854,   0.00000000 ] # a*
- [   0.00000000,   0.36115709,   0.00000000 ] # b*
- [   0.00000000,   0.00000000,   0.04442398 ] # c*
natom: 5      
lattice:
- [     3.197225180238898,     0.000000000000000,     0.000000000000000 ] # a
- [    -1.598612590119449,     2.768878227704744,     0.000000000000000 ] # b
- [     0.000000000000000,     0.000000000000000,    22.510362754705600 ] # c
points:
- symbol: H # 1
  coordinates: [  0.333332985432215,  0.666666983183674,  0.600184141940644 ]
  mass: 1.007940
- symbol: H # 2
  coordinates: [  0.666666984744047,  0.333332985985145,  0.399815858059356 ]
  mass: 1.007940
- symbol: N # 3
  coordinates: [  0.000000000000000,  0.000000000000000,  0.500000040597048 ]
  mass: 14.006700
- symbol: Sc # 4
  coordinates: [  0.333332985432215,  0.666666983183674,  0.445226916276390 ]
  mass: 44.955912
- symbol: Sc # 5
  coordinates: [  0.666666984744047,  0.333332985985145,  0.554773083117674 ]
  mass: 44.955912

phonon:
- q-position: [    0.0000000,    0.0000000,    0.0000000 ]
  distance:    0.0000000
  band:
  - # 1
    frequency:   -0.0000013221
  - # 2
    frequency:   -0.0000007699
  - # 3
    frequency:    0.0000010591
  - # 4
    frequency:    5.9308878041
  - # 5
    frequency:    5.9308878041
  - # 6
    frequency:    9.7715167654
  - # 7
    frequency:   14.0743146683
  - # 8
    frequency:   14.0743146683
  - # 9
    frequency:   14.2329394547
  - # 10
    frequency:   28.9580648186
  - # 11
    frequency:   28.9580648186
  - # 12
    frequency:   28.9866431407
  - # 13
    frequency:   29.0411496146
  - # 14
    frequency:   29.0411496146
  - # 15
    frequency:   29.3946414910

- q-position: [    0.0050505,    0.0000000,    0.0000000 ]
  distance:    0.0018240
  band:
  - # 1
    frequency:   -0.0199930017
  - # 2
    frequency:    0.0976351459
  - # 3
    frequency:    0.1720520029
  - # 4
    frequency:    5.9313451962
  - # 5
    frequency:    5.9330665988
  - # 6
    frequency:    9.7707584885
  - # 7
    frequency:   14.0742289146
  - # 8
    frequency:   14.0748176459
  - # 9
    frequency:   14.2323930406
  - # 10
    frequency:   28.9559968344
  - # 11
    frequency:   28.9578393011
  - # 12
    frequency:   28.9785307860
  - # 13
    frequency:   29.0409184593
  - # 14
    frequency:   29.0489196867
  - # 15
    frequency:   29.3949005326

- q-position: [    0.0101010,    0.0000000,    0.0000000 ]
  distance:    0.0036481
  band:
  - # 1
    frequency:   -0.0390555880
  - # 2
    frequency:    0.1952860084
  - # 3
    frequency:    0.3439909331
  - # 4
    frequency:    5.9327167169
  - # 5
    frequency:    5.9395858549
  - # 6
    frequency:    9.7684871781
  - # 7
    frequency:   14.0739724864
  - # 8
    frequency:   14.0762993051
  - # 9
    frequency:   14.2307799054
  - # 10
    frequency:   28.9496699682
  - # 11
    frequency:   28.9571632693
  - # 12
    frequency:   28.9610942433
  - # 13
    frequency:   29.0402242845
  - # 14
    frequency:   29.0654778709
  - # 15
    frequency:   29.3956613832

- q-position: [    0.0151515,    0.0000000,    0.0000000 ]
  distance:    0.0054721
  band:
  - # 1
    frequency:   -0.0561994758
  - # 2
    frequency:    0.2929679389
  - # 3
    frequency:    0.5157037955
  - # 4
    frequency:    5.9350004021
  - # 5
    frequency:    5.9503946159
  - # 6
    frequency:    9.7647133488
  - # 7
    frequency:   14.0735478750
  - # 8
    frequency:   14.0786742563
  - # 9
    frequency:   14.2281819888
  - # 10
    frequency:   28.9370086146
  - # 11
    frequency:   28.9425607153
  - # 12
    frequency:   28.9560382563
  - # 13
    frequency:   29.0390650016
  - # 14
    frequency:   29.0847463254
  - # 15
    frequency:   29.3968781459

- q-position: [    0.0202020,    0.0000000,    0.0000000 ]
  distance:    0.0072961
  band:
  - # 1
    frequency:   -0.0702975513
  - # 2
    frequency:    0.3906955622
  - # 3
    frequency:    0.6870777505
  - # 4
    frequency:    5.9381929851
  - # 5
    frequency:    5.9654093522
  - # 6
    frequency:    9.7594543706
  - # 7
    frequency:   14.0729592074
  - # 8
    frequency:   14.0817875860
  - # 9
    frequency:   14.2247486181
  - # 10
    frequency:   28.9154236690
  - # 11
    frequency:   28.9274050227
  - # 12
    frequency:   28.9544667182
  - # 13
    frequency:   29.0374372560
  - # 14
    frequency:   29.1049532206
  - # 15
    frequency:   29.3984832105

- q-position: [    0.0252525,    0.0000000,    0.0000000 ]
  distance:    0.0091201
  band:
  - # 1
    frequency:   -0.0799360595
  - # 2
    frequency:    0.4884824234
  - # 3
    frequency:    0.8580001918
  - # 4
    frequency:    5.9422899075
  - # 5
    frequency:    5.9845159755
  - # 6
    frequency:    9.7527342431
  - # 7
    frequency:   14.0722122104
  - # 8
    frequency:   14.0853937708
  - # 9
    frequency:   14.2207178337
  - # 10
    frequency:   28.8913548187
  - # 11
    frequency:   28.9098339479
  - # 12
    frequency:   28.9524518925
  - # 13
    frequency:   29.0353366098
  - # 14
    frequency:   29.1255951370
  - # 15
    frequency:   29.4003979886

- q-position: [    0.0303030,    0.0000000,    0.0000000 ]
  distance:    0.0109442
  band:
  - # 1
    frequency:   -0.0830749786
  - # 2
    frequency:    0.5863406473
  - # 3
    frequency:    1.0283588241
  - # 4
    frequency:    5.9472853331
  - # 5
    frequency:    6.0075725012
  - # 6
    frequency:    9.7445832927
  - # 7
    frequency:   14.0713141586
  - # 8
    frequency:   14.0891245023
  - # 9
    frequency:   14.2164488845
  - # 10
    frequency:   28.8660124632
  - # 11
    frequency:   28.8889520995
  - # 12
    frequency:   28.9499976098
  - # 13
    frequency:   29.0327577875
  - # 14
    frequency:   29.1465178405
  - # 15
    frequency:   29.4025440313

- q-position: [    0.0353535,    0.0000000,    0.0000000 ]
  distance:    0.0127682
  band:
  - # 1
    frequency:   -0.0759998896
  - # 2
    frequency:    0.6842806134
  - # 3
    frequency:    1.1980417412
  - # 4
    frequency:    5.9531721658
  - # 5
    frequency:    6.0344122218
  - # 6
    frequency:    9.7350378016
  - # 7
    frequency:   14.0702738095
  - # 8
    frequency:   14.0924502465
  - # 9
    frequency:   14.2124610580
  - # 10
    frequency:   28.8395203223
  - # 11
    frequency:   28.8648453252
  - # 12
    frequency:   28.9471080682
  - # 13
    frequency:   29.0296949734
  - # 14
    frequency:   29.1676801388
  - # 15
    frequency:   29.4048527370

- q-position: [    0.0404040,    0.0000000,    0.0000000 ]
  distance:    0.0145922
  band:
  - # 1
    frequency:   -0.0472214097
  - # 2
    frequency:    0.7823106504
  - # 3
    frequency:    1.3669375040
  - # 4
    frequency:    5.9599420712
  - # 5
    frequency:    6.0648472364
  - # 6
    frequency:    9.7241395842
  - # 7
    frequency:   14.0691013244
  - # 8
    frequency:   14.0946613264
  - # 9
    frequency:   14.2094530408
  - # 10
    frequency:   28.8118598103
  - # 11
    frequency:   28.8377031463
  - # 12
    frequency:   28.9437875807
  - # 13
    frequency:   29.0261421514
  - # 14
    frequency:   29.1890789716
  - # 15
    frequency:   29.4072729485

- q-position: [    0.0454545,    0.0000000,    0.0000000 ]
  distance:    0.0164162
  band:
  - # 1
    frequency:    0.0677155639
  - # 2
    frequency:    0.8804367534
  - # 3
    frequency:    1.5349352189
  - # 4
    frequency:    5.9675855001
  - # 5
    frequency:    6.0986721820
  - # 6
    frequency:    9.7119355233
  - # 7
    frequency:   14.0678081760
  - # 8
    frequency:   14.0949320439
  - # 9
    frequency:   14.2082392773
  - # 10
    frequency:   28.7829459197
  - # 11
    frequency:   28.8077664529
  - # 12
    frequency:   28.9400403037
  - # 13
    frequency:   29.0220934767
  - # 14
    frequency:   29.2107193951
  - # 15
    frequency:   29.4097767991

- q-position: [    0.0505051,    0.0000000,    0.0000000 ]
  distance:    0.0182403
  band:
  - # 1
    frequency:    0.1247624652
  - # 2
    frequency:    0.9786623271
  - # 3
    frequency:    1.7019246168
  - # 4
    frequency:    5.9760917148
  - # 5
    frequency:    6.1356680173
  - # 6
    frequency:    9.6984770815
  - # 7
    frequency:   14.0664070435
  - # 8
    frequency:   14.0925317195
  - # 9
    frequency:   14.2095394292
  - # 10
    frequency:   28.7526110260
  - # 11
    frequency:   28.7753537652
  - # 12
    frequency:   28.9358699552
  - # 13
    frequency:   29.0175436712
  - # 14
    frequency:   29.2325985017
  - # 15
    frequency:   29.4123650483

- q-position: [    0.0555556,    0.0000000,    0.0000000 ]
  distance:    0.0200643
  band:
  - # 1
    frequency:    0.1778692663
  - # 2
    frequency:    1.0769879572
  - # 3
    frequency:    1.8677961321
  - # 4
    frequency:    5.9854488181
  - # 5
    frequency:    6.1756057311
  - # 6
    frequency:    9.6838198025
  - # 7
    frequency:   14.0649116956
  - # 8
    frequency:   14.0871028204
  - # 9
    frequency:   14.2137007502
  - # 10
    frequency:   28.7205291302
  - # 11
    frequency:   28.7409423096
  - # 12
    frequency:   28.9312795290
  - # 13
    frequency:   29.0124884340
  - # 14
    frequency:   29.2546923887
  - # 15
    frequency:   29.4150740341

- q-position: [    0.0606061,    0.0000000,    0.0000000 ]
  distance:    0.0218883
  band:
  - # 1
    frequency:    0.2318243981
  - # 2
    frequency:    1.1754112124
  - # 3
    frequency:    2.0324409826
  - # 4
    frequency:    5.9956437828
  - # 5
    frequency:    6.2182498673
  - # 6
    frequency:    9.6680228142
  - # 7
    frequency:   14.0633368616
  - # 8
    frequency:   14.0787606594
  - # 9
    frequency:   14.2205988754
  - # 10
    frequency:   28.6861034289
  - # 11
    frequency:   28.7052838052
  - # 12
    frequency:   28.9262710090
  - # 13
    frequency:   29.0069248619
  - # 14
    frequency:   29.2769398251
  - # 15
    frequency:   29.4179878068

- q-position: [    0.0656566,    0.0000000,    0.0000000 ]
  distance:    0.0237123
  band:
  - # 1
    frequency:    0.2877919569
  - # 2
    frequency:    1.2739264794
  - # 3
    frequency:    2.1957512512
  - # 4
    frequency:    6.0066624834
  - # 5
    frequency:    6.2633617879
  - # 6
    frequency:    9.6511483464
  - # 7
    frequency:   14.0616980919
  - # 8
    frequency:   14.0679306132
  - # 9
    frequency:   14.2298010636
  - # 10
    frequency:   28.6485962808
  - # 11
    frequency:   28.6692768135
  - # 12
    frequency:   28.9208450873
  - # 13
    frequency:   29.0008518756
  - # 14
    frequency:   29.2992151741
  - # 15
    frequency:   29.4212619729

- q-position: [    0.0707071,    0.0000000,    0.0000000 ]
  distance:    0.0255364
  band:
  - # 1
    frequency:    0.3461439265
  - # 2
    frequency:    1.3725248313
  - # 3
    frequency:    2.3576199679
  - # 4
    frequency:    6.0184897286
  - # 5
    frequency:    6.3107026168
  - # 6
    frequency:    9.6332612727
  - # 7
    frequency:   14.0551203673
  - # 8
    frequency:   14.0600116087
  - # 9
    frequency:   14.2407943713
  - # 10
    frequency:   28.6077745066
  - # 11
    frequency:   28.6333230215
  - # 12
    frequency:   28.9150008878
  - # 13
    frequency:   28.9942706478
  - # 14
    frequency:   29.3212777089
  - # 15
    frequency:   29.4251718020

- q-position: [    0.0757576,    0.0000000,    0.0000000 ]
  distance:    0.0273604
  band:
  - # 1
    frequency:    0.4069767980
  - # 2
    frequency:    1.4711939325
  - # 3
    frequency:    2.5179411945
  - # 4
    frequency:    6.0311092941
  - # 5
    frequency:    6.3600358357
  - # 6
    frequency:    9.6144286817
  - # 7
    frequency:   14.0407902274
  - # 8
    frequency:   14.0582941465
  - # 9
    frequency:   14.2531157099
  - # 10
    frequency:   28.5640621755
  - # 11
    frequency:   28.5971754372
  - # 12
    frequency:   28.9087356985
  - # 13
    frequency:   28.9871850276
  - # 14
    frequency:   29.3426761377
  - # 15
    frequency:   29.4302056590

- q-position: [    0.0808081,    0.0000000,    0.0000000 ]
  distance:    0.0291844
  band:
  - # 1
    frequency:    0.4702696339
  - # 2
    frequency:    1.5699179790
  - # 3
    frequency:    2.6766101120
  - # 4
    frequency:    6.0445039569
  - # 5
    frequency:    6.4111295186
  - # 6
    frequency:    9.5947194857
  - # 7
    frequency:   14.0253196113
  - # 8
    frequency:   14.0565627849
  - # 9
    frequency:   14.2663856640
  - # 10
    frequency:   28.5179852125
  - # 11
    frequency:   28.5604942381
  - # 12
    frequency:   28.9020447174
  - # 13
    frequency:   28.9796019567
  - # 14
    frequency:   29.3625997249
  - # 15
    frequency:   29.4372123011

- q-position: [    0.0858586,    0.0000000,    0.0000000 ]
  distance:    0.0310084
  band:
  - # 1
    frequency:    0.5359462242
  - # 2
    frequency:    1.6686776756
  - # 3
    frequency:    2.8335231106
  - # 4
    frequency:    6.0586555294
  - # 5
    frequency:    6.4637582122
  - # 6
    frequency:    9.5742040660
  - # 7
    frequency:   14.0090161392
  - # 8
    frequency:   14.0548347732
  - # 9
    frequency:   14.2802996479
  - # 10
    frequency:   28.4699327370
  - # 11
    frequency:   28.5230854346
  - # 12
    frequency:   28.8949208210
  - # 13
    frequency:   28.9715318648
  - # 14
    frequency:   29.3798212726
  - # 15
    frequency:   29.4474567101

- q-position: [    0.0909091,    0.0000000,    0.0000000 ]
  distance:    0.0328325
  band:
  - # 1
    frequency:    0.6039036312
  - # 2
    frequency:    1.7674502503
  - # 3
    frequency:    2.9885778852
  - # 4
    frequency:    6.0735448947
  - # 5
    frequency:    6.5177044752
  - # 6
    frequency:    9.5529539581
  - # 7
    frequency:   13.9921339388
  - # 8
    frequency:   14.0531273476
  - # 9
    frequency:   14.2946097818
  - # 10
    frequency:   28.4201886264
  - # 11
    frequency:   28.4848689238
  - # 12
    frequency:   28.8873543739
  - # 13
    frequency:   28.9629890252
  - # 14
    frequency:   29.3932388918
  - # 15
    frequency:   29.4620774680

- q-position: [    0.0959596,    0.0000000,    0.0000000 ]
  distance:    0.0346565
  band:
  - # 1
    frequency:    0.6740267319
  - # 2
    frequency:    1.8662095051
  - # 3
    frequency:    3.1416735352
  - # 4
    frequency:    6.0891520415
  - # 5
    frequency:    6.5727601036
  - # 6
    frequency:    9.5310415720
  - # 7
    frequency:   13.9748894479
  - # 8
    frequency:   14.0514575433
  - # 9
    frequency:   14.3091092059
  - # 10
    frequency:   28.3689819596
  - # 11
    frequency:   28.4458273468
  - # 12
    frequency:   28.8793331050
  - # 13
    frequency:   28.9539918426
  - # 14
    frequency:   29.4029215760
  - # 15
    frequency:   29.4810405997

- q-position: [    0.1010101,    0.0000000,    0.0000000 ]
  distance:    0.0364805
  band:
  - # 1
    frequency:    0.7461961524
  - # 2
    frequency:    1.9649259035
  - # 3
    frequency:    3.2927106724
  - # 4
    frequency:    6.1054561012
  - # 5
    frequency:    6.6287270683
  - # 6
    frequency:    9.5085399480
  - # 7
    frequency:   13.9574726139
  - # 8
    frequency:   14.0498420005
  - # 9
    frequency:   14.3236209344
  - # 10
    frequency:   28.3165144700
  - # 11
    frequency:   28.4059776856
  - # 12
    frequency:   28.8708420956
  - # 13
    frequency:   28.9445630263
  - # 14
    frequency:   29.4100014790
  - # 15
    frequency:   29.5032469273

- q-position: [    0.1060606,    0.0000000,    0.0000000 ]
  distance:    0.0383045
  band:
  - # 1
    frequency:    0.8202927694
  - # 2
    frequency:    2.0635666925
  - # 3
    frequency:    3.4415915362
  - # 4
    frequency:    6.1224353841
  - # 5
    frequency:    6.6854181955
  - # 6
    frequency:    9.4855225405
  - # 7
    frequency:   13.9400542199
  - # 8
    frequency:   14.0482967668
  - # 9
    frequency:   14.3379905237
  - # 10
    frequency:   28.2629734536
  - # 11
    frequency:   28.3653572092
  - # 12
    frequency:   28.8618639351
  - # 13
    frequency:   28.9347295906
  - # 14
    frequency:   29.4156396803
  - # 15
    frequency:   29.5275660991

- q-position: [    0.1111111,    0.0000000,    0.0000000 ]
  distance:    0.0401286
  band:
  - # 1
    frequency:    0.8962002862
  - # 2
    frequency:    2.1620960601
  - # 3
    frequency:    3.5882201198
  - # 4
    frequency:    6.1400674184
  - # 5
    frequency:    6.7426576196
  - # 6
    frequency:    9.4620630267
  - # 7
    frequency:   13.9227904744
  - # 8
    frequency:   14.0468370964
  - # 9
    frequency:   14.3520814242
  - # 10
    frequency:   28.2085376768
  - # 11
    frequency:   28.3240162797
  - # 12
    frequency:   28.8523791195
  - # 13
    frequency:   28.9245226073
  - # 14
    frequency:   29.4206071808
  - # 15
    frequency:   29.5532555109

- q-position: [    0.1161616,    0.0000000,    0.0000000 ]
  distance:    0.0419526
  band:
  - # 1
    frequency:    0.9738066598
  - # 2
    frequency:    2.2604753247
  - # 3
    frequency:    3.7325023084
  - # 4
    frequency:    6.1583289885
  - # 5
    frequency:    6.8002810354
  - # 6
    frequency:    9.4382351351
  - # 7
    frequency:   13.9058257876
  - # 8
    frequency:   14.0454772469
  - # 9
    frequency:   14.3657720981
  - # 10
    frequency:   28.1533799753
  - # 11
    frequency:   28.2820143669
  - # 12
    frequency:   28.8423667668
  - # 13
    frequency:   28.9139766322
  - # 14
    frequency:   29.4253655721
  - # 15
    frequency:   29.5798796391

- q-position: [    0.1212121,    0.0000000,    0.0000000 ]
  distance:    0.0437766
  band:
  - # 1
    frequency:    1.0530048114
  - # 2
    frequency:    2.3586631562
  - # 3
    frequency:    3.8743460317
  - # 4
    frequency:    6.1771961767
  - # 5
    frequency:    6.8581357760
  - # 6
    frequency:    9.4141124877
  - # 7
    frequency:   13.8892943784
  - # 8
    frequency:   14.0442302762
  - # 9
    frequency:   14.3789542656
  - # 10
    frequency:   28.0976682305
  - # 11
    frequency:   28.2394176253
  - # 12
    frequency:   28.8318057108
  - # 13
    frequency:   28.9031287428
  - # 14
    frequency:   29.4302000517
  - # 15
    frequency:   29.6071770854

- q-position: [    0.1262626,    0.0000000,    0.0000000 ]
  distance:    0.0456006
  band:
  - # 1
    frequency:    1.1336928717
  - # 2
    frequency:    2.4566158262
  - # 3
    frequency:    4.0136614331
  - # 4
    frequency:    6.1966444043
  - # 5
    frequency:    6.9160807361
  - # 6
    frequency:    9.3897684532
  - # 7
    frequency:   13.8733211369
  - # 8
    frequency:   14.0431078391
  - # 9
    frequency:   14.3915318626
  - # 10
    frequency:   28.0415655163
  - # 11
    frequency:   28.1962972739
  - # 12
    frequency:   28.8206759852
  - # 13
    frequency:   28.8920171754
  - # 14
    frequency:   29.4353011961
  - # 15
    frequency:   29.6349788992

- q-position: [    0.1313131,    0.0000000,    0.0000000 ]
  distance:    0.0474247
  band:
  - # 1
    frequency:    1.2157741216
  - # 2
    frequency:    2.5542874843
  - # 3
    frequency:    4.1503610581
  - # 4
    frequency:    6.2166484758
  - # 5
    frequency:    6.9739861608
  - # 6
    frequency:    9.3652760078
  - # 7
    frequency:   13.8580220195
  - # 8
    frequency:   14.0421199870
  - # 9
    frequency:   14.4034204388
  - # 10
    frequency:   27.9852298058
  - # 11
    frequency:   28.1527284138
  - # 12
    frequency:   28.8089606276
  - # 13
    frequency:   28.8806796274
  - # 14
    frequency:   29.4408077014
  - # 15
    frequency:   29.6631659493

- q-position: [    0.1363636,    0.0000000,    0.0000000 ]
  distance:    0.0492487
  band:
  - # 1
    frequency:    1.2991567292
  - # 2
    frequency:    2.6516304599
  - # 3
    frequency:    4.2843600647
  - # 4
    frequency:    6.2371826241
  - # 5
    frequency:    7.0317333132
  - # 6
    frequency:    9.3407076031
  - # 7
    frequency:   13.8435041561
  - # 8
    frequency:   14.0412749709
  - # 9
    frequency:   14.4145468207
  - # 10
    frequency:   27.9288134476
  - # 11
    frequency:   28.1087891005
  - # 12
    frequency:   28.7966476288
  - # 13
    frequency:   28.8691514002
  - # 14
    frequency:   29.4468283352
  - # 15
    frequency:   29.6916470886

- q-position: [    0.1414141,    0.0000000,    0.0000000 ]
  distance:    0.0510727
  band:
  - # 1
    frequency:    1.3837533566
  - # 2
    frequency:    2.7485955838
  - # 3
    frequency:    4.4155764566
  - # 4
    frequency:    6.2582205569
  - # 5
    frequency:    7.0892140329
  - # 6
    frequency:    9.3161350416
  - # 7
    frequency:   13.8298657888
  - # 8
    frequency:   14.0405790503
  - # 9
    frequency:   14.4248489290
  - # 10
    frequency:   27.8724625281
  - # 11
    frequency:   28.0645595731
  - # 12
    frequency:   28.7837317617
  - # 13
    frequency:   28.8574636458
  - # 14
    frequency:   29.4534534674
  - # 15
    frequency:   29.7203477335

- q-position: [    0.1464646,    0.0000000,    0.0000000 ]
  distance:    0.0528967
  band:
  - # 1
    frequency:    1.4694806823
  - # 2
    frequency:    2.8451325286
  - # 3
    frequency:    4.5439313446
  - # 4
    frequency:    6.2797355052
  - # 5
    frequency:    7.1463301943
  - # 6
    frequency:    9.2916293637
  - # 7
    frequency:   13.8171961176
  - # 8
    frequency:   14.0400363101
  - # 9
    frequency:   14.4342756735
  - # 10
    frequency:   27.8163161910
  - # 11
    frequency:   28.0201215866
  - # 12
    frequency:   28.7702159921
  - # 13
    frequency:   28.8456420129
  - # 14
    frequency:   29.4607613172
  - # 15
    frequency:   29.7492037146

- q-position: [    0.1515152,    0.0000000,    0.0000000 ]
  distance:    0.0547208
  band:
  - # 1
    frequency:    1.5562588794
  - # 2
    frequency:    2.9411901631
  - # 3
    frequency:    4.6693492342
  - # 4
    frequency:    6.3017002719
  - # 5
    frequency:    7.2029930681
  - # 6
    frequency:    9.2672607536
  - # 7
    frequency:   13.8055751042
  - # 8
    frequency:   14.0396484874
  - # 9
    frequency:   14.4427868800
  - # 10
    frequency:   27.7605059620
  - # 11
    frequency:   27.9755578146
  - # 12
    frequency:   28.7561122311
  - # 13
    frequency:   28.8337059332
  - # 14
    frequency:   29.4688214235
  - # 15
    frequency:   29.7781578841

- q-position: [    0.1565657,    0.0000000,    0.0000000 ]
  distance:    0.0565448
  band:
  - # 1
    frequency:    1.6440110727
  - # 2
    frequency:    3.0367169179
  - # 3
    frequency:    4.7917583444
  - # 4
    frequency:    6.3240872824
  - # 5
    frequency:    7.2591225917
  - # 6
    frequency:    9.2430984711
  - # 7
    frequency:   13.7950732668
  - # 8
    frequency:   14.0394148104
  - # 9
    frequency:   14.4503532160
  - # 10
    frequency:   27.7051551101
  - # 11
    frequency:   27.9309513043
  - # 12
    frequency:   28.7414413297
  - # 13
    frequency:   28.8216686433
  - # 14
    frequency:   29.4776966019
  - # 15
    frequency:   29.8071582159

- q-position: [    0.1616162,    0.0000000,    0.0000000 ]
  distance:    0.0583688
  band:
  - # 1
    frequency:    1.7326627979
  - # 2
    frequency:    3.1316611564
  - # 3
    frequency:    4.9110909559
  - # 4
    frequency:    6.3468686350
  - # 5
    frequency:    7.3146465450
  - # 6
    frequency:    9.2192108256
  - # 7
    frequency:   13.7857514836
  - # 8
    frequency:   14.0393318537
  - # 9
    frequency:   14.4569560965
  - # 10
    frequency:   27.6503780705
  - # 11
    frequency:   27.8863849692
  - # 12
    frequency:   28.7262323868
  - # 13
    frequency:   28.8095378735
  - # 14
    frequency:   29.4874440408
  - # 15
    frequency:   29.8361567416

- q-position: [    0.1666667,    0.0000000,    0.0000000 ]
  distance:    0.0601928
  band:
  - # 1
    frequency:    1.8221414749
  - # 2
    frequency:    3.2259715493
  - # 3
    frequency:    5.0272837901
  - # 4
    frequency:    6.3700161510
  - # 5
    frequency:    7.3694996321
  - # 6
    frequency:    9.1956652050
  - # 7
    frequency:   13.7776608179
  - # 8
    frequency:   14.0393934095
  - # 9
    frequency:   14.4625875567
  - # 10
    frequency:   27.5962799478
  - # 11
    frequency:   27.8419411097
  - # 12
    frequency:   28.7105215682
  - # 13
    frequency:   28.7973170004
  - # 14
    frequency:   29.4981158912
  - # 15
    frequency:   29.8651089686

- q-position: [    0.1717172,    0.0000000,    0.0000000 ]
  distance:    0.0620169
  band:
  - # 1
    frequency:    1.9123759095
  - # 2
    frequency:    3.3195974460
  - # 3
    frequency:    5.1402784169
  - # 4
    frequency:    6.3935014251
  - # 5
    frequency:    7.4236224603
  - # 6
    frequency:    9.1725281818
  - # 7
    frequency:   13.7708423652
  - # 8
    frequency:   14.0395903814
  - # 9
    frequency:   14.4672500862
  - # 10
    frequency:   27.5429561143
  - # 11
    frequency:   27.7977009550
  - # 12
    frequency:   28.6943506951
  - # 13
    frequency:   28.7850064093
  - # 14
    frequency:   29.5097595488
  - # 15
    frequency:   29.8939735796

- q-position: [    0.1767677,    0.0000000,    0.0000000 ]
  distance:    0.0638409
  band:
  - # 1
    frequency:    2.0032958312
  - # 2
    frequency:    3.4124892395
  - # 3
    frequency:    5.2500216887
  - # 4
    frequency:    6.4172958741
  - # 5
    frequency:    7.4769604108
  - # 6
    frequency:    9.1498657195
  - # 7
    frequency:   13.7653271240
  - # 8
    frequency:   14.0399107008
  - # 9
    frequency:   14.4709564231
  - # 10
    frequency:   27.4904919159
  - # 11
    frequency:   27.7537442194
  - # 12
    frequency:   28.6777658248
  - # 13
    frequency:   28.7726048383
  - # 14
    frequency:   29.5224177442
  - # 15
    frequency:   29.9227123012

- q-position: [    0.1818182,    0.0000000,    0.0000000 ]
  distance:    0.0656649
  band:
  - # 1
    frequency:    2.0948314721
  - # 2
    frequency:    3.5045987196
  - # 3
    frequency:    5.3564661964
  - # 4
    frequency:    6.4413707842
  - # 5
    frequency:    7.5294623879
  - # 6
    frequency:    9.1277435063
  - # 7
    frequency:   13.7611358846
  - # 8
    frequency:   14.0403392705
  - # 9
    frequency:   14.4737293077
  - # 10
    frequency:   27.4389624965
  - # 11
    frequency:   27.7101486666
  - # 12
    frequency:   28.6608159818
  - # 13
    frequency:   28.7601105481
  - # 14
    frequency:   29.5361285110
  - # 15
    frequency:   29.9512898696

- q-position: [    0.1868687,    0.0000000,    0.0000000 ]
  distance:    0.0674890
  band:
  - # 1
    frequency:    2.1869131946
  - # 2
    frequency:    3.5958794096
  - # 3
    frequency:    5.4595707417
  - # 4
    frequency:    6.4656973562
  - # 5
    frequency:    7.5810794312
  - # 6
    frequency:    9.1062274487
  - # 7
    frequency:   13.7582791272
  - # 8
    frequency:   14.0408579374
  - # 9
    frequency:   14.4756012020
  - # 10
    frequency:   27.3884327469
  - # 11
    frequency:   27.6669896780
  - # 12
    frequency:   28.6435521118
  - # 13
    frequency:   28.7475222443
  - # 14
    frequency:   29.5509250760
  - # 15
    frequency:   29.9796740547

- q-position: [    0.1919192,    0.0000000,    0.0000000 ]
  distance:    0.0693130
  band:
  - # 1
    frequency:    2.2794711678
  - # 2
    frequency:    3.6862868827
  - # 3
    frequency:    5.5593008165
  - # 4
    frequency:    6.4902467481
  - # 5
    frequency:    7.6317631732
  - # 6
    frequency:    9.0853843604
  - # 7
    frequency:   13.7567569233
  - # 8
    frequency:   14.0414454982
  - # 9
    frequency:   14.4766139797
  - # 10
    frequency:   27.3389573852
  - # 11
    frequency:   27.6243398192
  - # 12
    frequency:   28.6260262700
  - # 13
    frequency:   28.7348397411
  - # 14
    frequency:   29.5668357002
  - # 15
    frequency:   30.0078357133

- q-position: [    0.1969697,    0.0000000,    0.0000000 ]
  distance:    0.0711370
  band:
  - # 1
    frequency:    2.3724350970
  - # 2
    frequency:    3.7757790518
  - # 3
    frequency:    5.6556290805
  - # 4
    frequency:    6.5149901142
  - # 5
    frequency:    7.6814641181
  - # 6
    frequency:    9.0652828868
  - # 7
    frequency:   13.7565588289
  - # 8
    frequency:   14.0420777399
  - # 9
    frequency:   14.4768185954
  - # 10
    frequency:   27.2905811721
  - # 11
    frequency:   27.5822684018
  - # 12
    frequency:   28.6082910136
  - # 13
    frequency:   28.7220643949
  - # 14
    frequency:   29.5838834894
  - # 15
    frequency:   30.0357488565

- q-position: [    0.2020202,    0.0000000,    0.0000000 ]
  distance:    0.0729610
  band:
  - # 1
    frequency:    2.4657340059
  - # 2
    frequency:    3.8643164312
  - # 3
    frequency:    5.7485358232
  - # 4
    frequency:    6.5398986408
  - # 5
    frequency:    7.7301297150
  - # 6
    frequency:    9.0459947072
  - # 7
    frequency:   13.7576637612
  - # 8
    frequency:   14.0427275176
  - # 9
    frequency:   14.4762747417
  - # 10
    frequency:   27.2433392597
  - # 11
    frequency:   27.5408410378
  - # 12
    frequency:   28.5903989563
  - # 13
    frequency:   28.7091993539
  - # 14
    frequency:   29.6020861894
  - # 15
    frequency:   30.0633907193

- q-position: [    0.2070707,    0.0000000,    0.0000000 ]
  distance:    0.0747851
  band:
  - # 1
    frequency:    2.5592960720
  - # 2
    frequency:    3.9518623628
  - # 3
    frequency:    5.8380093986
  - # 4
    frequency:    6.5649435784
  - # 5
    frequency:    7.7777021978
  - # 6
    frequency:    9.0275960588
  - # 7
    frequency:   13.7600398512
  - # 8
    frequency:   14.0433648717
  - # 9
    frequency:   14.4750505035
  - # 10
    frequency:   27.1972576730
  - # 11
    frequency:   27.5001191853
  - # 12
    frequency:   28.5724024364
  - # 13
    frequency:   28.6962496696
  - # 14
    frequency:   29.6214559761
  - # 15
    frequency:   30.0907418258

- q-position: [    0.2121212,    0.0000000,    0.0000000 ]
  distance:    0.0766091
  band:
  - # 1
    frequency:    2.6530485139
  - # 2