nqpoint: 300    
npath: 3      
segment_nqpoint:
- 100
- 100
- 100
labels:
- [ 'G', 'M' ]
- [ 'M', 'K' ]
- [ 'K', 'G' ]
reciprocal_lattice:
- [   0.29970082,   0.17303235,   0.00000000 ] # a*
- [   0.00000000,   0.34606469,   0.00000000 ] # b*
- [   0.00000000,   0.00000000,   0.03951991 ] # c*
natom: 7      
lattice:
- [     3.336660929029575,     0.000000000000000,     0.000000000000000 ] # a
- [    -1.668330464514787,     2.889633128348930,     0.000000000000000 ] # b
- [     0.000000000000000,     0.000000000000000,    25.303703165825471 ] # c
points:
- symbol: C # 1
  coordinates: [  0.000000000000000,  0.000000000000000,  0.444586431444089 ]
  mass: 12.010700
- symbol: C # 2
  coordinates: [  0.333332985432214,  0.666666983183674,  0.596711837774449 ]
  mass: 12.010700
- symbol: H # 3
  coordinates: [  0.666666984744047,  0.333332985985145,  0.355679164469301 ]
  mass: 1.007940
- symbol: N # 4
  coordinates: [  0.333332985432214,  0.666666983183674,  0.547508763541960 ]
  mass: 14.006700
- symbol: O # 5
  coordinates: [  0.333332985432214,  0.666666983183674,  0.644320835530700 ]
  mass: 15.999400
- symbol: Sc # 6
  coordinates: [  0.333332985432214,  0.666666983183674,  0.395262366891374 ]
  mass: 44.955912
- symbol: Sc # 7
  coordinates: [  0.666666984744047,  0.333332985985145,  0.494390526047882 ]
  mass: 44.955912

phonon:
- q-position: [    0.0000000,    0.0000000,    0.0000000 ]
  distance:    0.0000000
  band:
  - # 1
    frequency:   -0.9284940862
  - # 2
    frequency:   -0.9284940861
  - # 3
    frequency:   -0.0000191006
  - # 4
    frequency:   -0.0000006146
  - # 5
    frequency:    0.0000128006
  - # 6
    frequency:    5.2648930326
  - # 7
    frequency:    5.2648930326
  - # 8
    frequency:    6.8404598972
  - # 9
    frequency:    6.8404598972
  - # 10
    frequency:    6.9280982839
  - # 11
    frequency:   11.4712411442
  - # 12
    frequency:   11.4730029552
  - # 13
    frequency:   11.4730029553
  - # 14
    frequency:   17.7044233041
  - # 15
    frequency:   17.7044233041
  - # 16
    frequency:   19.1553897360
  - # 17
    frequency:   25.2465583181
  - # 18
    frequency:   25.2465583181
  - # 19
    frequency:   27.1435875115
  - # 20
    frequency:   38.9200433024
  - # 21
    frequency:   69.4233600073

- q-position: [    0.0050505,    0.0000000,    0.0000000 ]
  distance:    0.0017478
  band:
  - # 1
    frequency:   -0.9275859651
  - # 2
    frequency:   -0.9249707276
  - # 3
    frequency:    0.0022404126
  - # 4
    frequency:    0.0859369571
  - # 5
    frequency:    0.1436898555
  - # 6
    frequency:    5.2648752551
  - # 7
    frequency:    5.2662582150
  - # 8
    frequency:    6.8377209638
  - # 9
    frequency:    6.8404343465
  - # 10
    frequency:    6.9324470952
  - # 11
    frequency:   11.4618925213
  - # 12
    frequency:   11.4726417913
  - # 13
    frequency:   11.4886566951
  - # 14
    frequency:   17.7044612137
  - # 15
    frequency:   17.7046629612
  - # 16
    frequency:   19.1531781631
  - # 17
    frequency:   25.2464721923
  - # 18
    frequency:   25.2480609587
  - # 19
    frequency:   27.1431325861
  - # 20
    frequency:   38.9199983732
  - # 21
    frequency:   69.4221317079

- q-position: [    0.0101010,    0.0000000,    0.0000000 ]
  distance:    0.0034956
  band:
  - # 1
    frequency:   -0.9249086677
  - # 2
    frequency:   -0.9147110921
  - # 3
    frequency:    0.0089576753
  - # 4
    frequency:    0.1721193359
  - # 5
    frequency:    0.2885391761
  - # 6
    frequency:    5.2648228471
  - # 7
    frequency:    5.2703404902
  - # 8
    frequency:    6.8306843516
  - # 9
    frequency:    6.8403579564
  - # 10
    frequency:    6.9442836378
  - # 11
    frequency:   11.4545239956
  - # 12
    frequency:   11.4715597283
  - # 13
    frequency:   11.5148964916
  - # 14
    frequency:   17.7045749177
  - # 15
    frequency:   17.7053792126
  - # 16
    frequency:   19.1465544636
  - # 17
    frequency:   25.2462140483
  - # 18
    frequency:   25.2525581774
  - # 19
    frequency:   27.1417742830
  - # 20
    frequency:   38.9198636720
  - # 21
    frequency:   69.4184493250

- q-position: [    0.0151515,    0.0000000,    0.0000000 ]
  distance:    0.0052434
  band:
  - # 1
    frequency:   -0.9205945717
  - # 2
    frequency:   -0.8985073082
  - # 3
    frequency:    0.0201393564
  - # 4
    frequency:    0.2587552252
  - # 5
    frequency:    0.4353328722
  - # 6
    frequency:    5.2647385754
  - # 7
    frequency:    5.2771005642
  - # 8
    frequency:    6.8213776950
  - # 9
    frequency:    6.8402315107
  - # 10
    frequency:    6.9614931626
  - # 11
    frequency:   11.4476076440
  - # 12
    frequency:   11.4697610503
  - # 13
    frequency:   11.5531179145
  - # 14
    frequency:   17.7047643411
  - # 15
    frequency:   17.7065638040
  - # 16
    frequency:   19.1355516818
  - # 17
    frequency:   25.2457845854
  - # 18
    frequency:   25.2600178070
  - # 19
    frequency:   27.1395321494
  - # 20
    frequency:   38.9196394576
  - # 21
    frequency:   69.4123203970

- q-position: [    0.0202020,    0.0000000,    0.0000000 ]
  distance:    0.0069912
  band:
  - # 1
    frequency:   -0.9148372641
  - # 2
    frequency:   -0.8772963019
  - # 3
    frequency:    0.0357668329
  - # 4
    frequency:    0.3459865806
  - # 5
    frequency:    0.5842964109
  - # 6
    frequency:    5.2646270276
  - # 7
    frequency:    5.2864746188
  - # 8
    frequency:    6.8111391376
  - # 9
    frequency:    6.8400563071
  - # 10
    frequency:    6.9825987905
  - # 11
    frequency:   11.4399490296
  - # 12
    frequency:   11.4672528886
  - # 13
    frequency:   11.6042945378
  - # 14
    frequency:   17.7050293590
  - # 15
    frequency:   17.7082026562
  - # 16
    frequency:   19.1202248609
  - # 17
    frequency:   25.2451849669
  - # 18
    frequency:   25.2703860373
  - # 19
    frequency:   27.1364391968
  - # 20
    frequency:   38.9193261604
  - # 21
    frequency:   69.4037574642

- q-position: [    0.0252525,    0.0000000,    0.0000000 ]
  distance:    0.0087390
  band:
  - # 1
    frequency:   -0.9078585826
  - # 2
    frequency:   -0.8518183704
  - # 3
    frequency:    0.0558181086
  - # 4
    frequency:    0.4338750027
  - # 5
    frequency:    0.7351680565
  - # 6
    frequency:    5.2644945767
  - # 7
    frequency:    5.2983766052
  - # 8
    frequency:    6.8006076166
  - # 9
    frequency:    6.8398341447
  - # 10
    frequency:    7.0067802591
  - # 11
    frequency:   11.4310048087
  - # 12
    frequency:   11.4640452089
  - # 13
    frequency:   11.6686602689
  - # 14
    frequency:   17.7053697964
  - # 15
    frequency:   17.7102753560
  - # 16
    frequency:   19.1006510408
  - # 17
    frequency:   25.2444168165
  - # 18
    frequency:   25.2835870893
  - # 19
    frequency:   27.1325425596
  - # 20
    frequency:   38.9189243803
  - # 21
    frequency:   69.3927780325

- q-position: [    0.0303030,    0.0000000,    0.0000000 ]
  distance:    0.0104868
  band:
  - # 1
    frequency:   -0.8998753037
  - # 2
    frequency:   -0.8224355120
  - # 3
    frequency:    0.0802720061
  - # 4
    frequency:    0.5224037194
  - # 5
    frequency:    0.8874276184
  - # 6
    frequency:    5.2643493324
  - # 7
    frequency:    5.3127010655
  - # 8
    frequency:    6.7900520415
  - # 9
    frequency:    6.8395673072
  - # 10
    frequency:    7.0335561751
  - # 11
    frequency:   11.4205334832
  - # 12
    frequency:   11.4601507919
  - # 13
    frequency:   11.7460591273
  - # 14
    frequency:   17.7057854280
  - # 15
    frequency:   17.7127543865
  - # 16
    frequency:   19.0769293436
  - # 17
    frequency:   25.2434822136
  - # 18
    frequency:   25.2995227086
  - # 19
    frequency:   27.1279044392
  - # 20
    frequency:   38.9184348847
  - # 21
    frequency:   69.3794045236

- q-position: [    0.0353535,    0.0000000,    0.0000000 ]
  distance:    0.0122346
  band:
  - # 1
    frequency:   -0.8910730936
  - # 2
    frequency:   -0.7891264695
  - # 3
    frequency:    0.1091136796
  - # 4
    frequency:    0.6114925880
  - # 5
    frequency:    1.0405169132
  - # 6
    frequency:    5.2642010792
  - # 7
    frequency:    5.3293261835
  - # 8
    frequency:    6.7795783539
  - # 9
    frequency:    6.8392585410
  - # 10
    frequency:    7.0625897671
  - # 11
    frequency:   11.4084277146
  - # 12
    frequency:   11.4555852082
  - # 13
    frequency:   11.8361145249
  - # 14
    frequency:   17.7062759778
  - # 15
    frequency:   17.7156040356
  - # 16
    frequency:   19.0491812426
  - # 17
    frequency:   25.2423836869
  - # 18
    frequency:   25.3180714295
  - # 19
    frequency:   27.1226033521
  - # 20
    frequency:   38.9178586052
  - # 21
    frequency:   69.3636642106

- q-position: [    0.0404040,    0.0000000,    0.0000000 ]
  distance:    0.0139824
  band:
  - # 1
    frequency:   -0.8815918433
  - # 2
    frequency:   -0.7515650954
  - # 3
    frequency:    0.1423413760
  - # 4
    frequency:    0.7010197839
  - # 5
    frequency:    1.1939626454
  - # 6
    frequency:    5.2640612026
  - # 7
    frequency:    5.3481167769
  - # 8
    frequency:    6.7692300612
  - # 9
    frequency:    6.8389110310
  - # 10
    frequency:    7.0936014912
  - # 11
    frequency:   11.3946423980
  - # 12
    frequency:   11.4503667863
  - # 13
    frequency:   11.9383042692
  - # 14
    frequency:   17.7068411192
  - # 15
    frequency:   17.7187788887
  - # 16
    frequency:   19.0175511395
  - # 17
    frequency:   25.2411242066
  - # 18
    frequency:   25.3390875571
  - # 19
    frequency:   27.1167357029
  - # 20
    frequency:   38.9171966341
  - # 21
    frequency:   69.3455891401

- q-position: [    0.0454545,    0.0000000,    0.0000000 ]
  distance:    0.0157302
  band:
  - # 1
    frequency:   -0.8715222350
  - # 2
    frequency:   -0.7091891189
  - # 3
    frequency:    0.1799739232
  - # 4
    frequency:    0.7908435797
  - # 5
    frequency:    1.3474092107
  - # 6
    frequency:    5.2639426042
  - # 7
    frequency:    5.3689269942
  - # 8
    frequency:    6.7590348044
  - # 9
    frequency:    6.8385283719
  - # 10
    frequency:    7.1263349533
  - # 11
    frequency:   11.3791636110
  - # 12
    frequency:   11.4445165725
  - # 13
    frequency:   12.0519964621
  - # 14
    frequency:   17.7074804742
  - # 15
    frequency:   17.7222217736
  - # 16
    frequency:   18.9822074247
  - # 17
    frequency:   25.2397071756
  - # 18
    frequency:   25.3623998143
  - # 19
    frequency:   27.1104177016
  - # 20
    frequency:   38.9164502202
  - # 21
    frequency:   69.3252160407

- q-position: [    0.0505051,    0.0000000,    0.0000000 ]
  distance:    0.0174780
  band:
  - # 1
    frequency:   -0.8609103823
  - # 2
    frequency:   -0.6612125352
  - # 3
    frequency:    0.2220571956
  - # 4
    frequency:    0.8808197204
  - # 5
    frequency:    1.5006045269
  - # 6
    frequency:    5.2638596062
  - # 7
    frequency:    5.3916025491
  - # 8
    frequency:    6.7490255735
  - # 9
    frequency:    6.8381145385
  - # 10
    frequency:    7.1605467572
  - # 11
    frequency:   11.3619945685
  - # 12
    frequency:   11.4380582826
  - # 13
    frequency:   12.1764702683
  - # 14
    frequency:   17.7081936135
  - # 15
    frequency:   17.7258609729
  - # 16
    frequency:   18.9433442435
  - # 17
    frequency:   25.2381364186
  - # 18
    frequency:   25.3878096120
  - # 19
    frequency:   27.1037876358
  - # 20
    frequency:   38.9156207644
  - # 21
    frequency:   69.3025862177

- q-position: [    0.0555556,    0.0000000,    0.0000000 ]
  distance:    0.0192258
  band:
  - # 1
    frequency:   -0.8497664999
  - # 2
    frequency:   -0.6065555893
  - # 3
    frequency:    0.2686648876
  - # 4
    frequency:    0.9708127378
  - # 5
    frequency:    1.6533723667
  - # 6
    frequency:    5.2638278473
  - # 7
    frequency:    5.4159824016
  - # 8
    frequency:    6.7392499471
  - # 9
    frequency:    6.8376738531
  - # 10
    frequency:    7.1960063749
  - # 11
    frequency:   11.3431488923
  - # 12
    frequency:   11.4310182445
  - # 13
    frequency:   12.3109311429
  - # 14
    frequency:   17.7089800559
  - # 15
    frequency:   17.7296064383
  - # 16
    frequency:   18.9011842734
  - # 17
    frequency:   25.2364161698
  - # 18
    frequency:   25.4150889193
  - # 19
    frequency:   27.0970084887
  - # 20
    frequency:   38.9147098144
  - # 21
    frequency:   69.2777454357

- q-position: [    0.0606061,    0.0000000,    0.0000000 ]
  distance:    0.0209736
  band:
  - # 1
    frequency:   -0.8380742972
  - # 2
    frequency:   -0.5436322639
  - # 3
    frequency:    0.3198831111
  - # 4
    frequency:    1.0607017077
  - # 5
    frequency:    1.8055867226
  - # 6
    frequency:    5.2638641704
  - # 7
    frequency:    5.4418998634
  - # 8
    frequency:    6.7297736514
  - # 9
    frequency:    6.8372109530
  - # 10
    frequency:    7.2324994961
  - # 11
    frequency:   11.3226471941
  - # 12
    frequency:   11.4234253299
  - # 13
    frequency:   12.4545242312
  - # 14
    frequency:   17.7098392676
  - # 15
    frequency:   17.7333446457
  - # 16
    frequency:   18.8559829130
  - # 17
    frequency:   25.2345510595
  - # 18
    frequency:   25.4439777535
  - # 19
    frequency:   27.0902708582
  - # 20
    frequency:   38.9137190591
  - # 21
    frequency:   69.2507437874

- q-position: [    0.0656566,    0.0000000,    0.0000000 ]
  distance:    0.0227214
  band:
  - # 1
    frequency:   -0.8257991338
  - # 2
    frequency:   -0.4697863692
  - # 3
    frequency:    0.3757599359
  - # 4
    frequency:    1.1503819587
  - # 5
    frequency:    1.9571524989
  - # 6
    frequency:    5.2639865045
  - # 7
    frequency:    5.4691831579
  - # 8
    frequency:    6.7206815064
  - # 9
    frequency:    6.8367307573
  - # 10
    frequency:    7.2698317912
  - # 11
    frequency:   11.3005152438
  - # 12
    frequency:   11.4153108754
  - # 13
    frequency:   12.6063472432
  - # 14
    frequency:   17.7107706624
  - # 15
    frequency:   17.7369315842
  - # 16
    frequency:   18.8080344238
  - # 17
    frequency:   25.2325460991
  - # 18
    frequency:   25.4741813776
  - # 19
    frequency:   27.0837960711
  - # 20
    frequency:   38.9126503234
  - # 21
    frequency:   69.2216355515

- q-position: [    0.0707071,    0.0000000,    0.0000000 ]
  distance:    0.0244692
  band:
  - # 1
    frequency:   -0.8128941632
  - # 2
    frequency:   -0.3795658967
  - # 3
    frequency:    0.4361987406
  - # 4
    frequency:    1.2397643426
  - # 5
    frequency:    2.1079922044
  - # 6
    frequency:    5.2642137409
  - # 7
    frequency:    5.4976555061
  - # 8
    frequency:    6.7120772899
  - # 9
    frequency:    6.8362384348
  - # 10
    frequency:    7.3078317508
  - # 11
    frequency:   11.2767829367
  - # 12
    frequency:   11.4067085905
  - # 13
    frequency:   12.7654630785
  - # 14
    frequency:   17.7117736005
  - # 15
    frequency:   17.7401832035
  - # 16
    frequency:   18.7576807350
  - # 17
    frequency:   25.2304066639
  - # 18
    frequency:   25.5053673890
  - # 19
    frequency:   27.0778392935
  - # 20
    frequency:   38.9115055618
  - # 21
    frequency:   69.1904790375

- q-position: [    0.0757576,    0.0000000,    0.0000000 ]
  distance:    0.0262170
  band:
  - # 1
    frequency:   -0.7993044321
  - # 2
    frequency:   -0.2571619572
  - # 3
    frequency:    0.5008041223
  - # 4
    frequency:    1.3287733228
  - # 5
    frequency:    2.2580371192
  - # 6
    frequency:    5.2645656065
  - # 7
    frequency:    5.5271348424
  - # 8
    frequency:    6.7040832735
  - # 9
    frequency:    6.8357393732
  - # 10
    frequency:    7.3463521627
  - # 11
    frequency:   11.2514836832
  - # 12
    frequency:   11.3976544534
  - # 13
    frequency:   12.9309120569
  - # 14
    frequency:   17.7128473882
  - # 15
    frequency:   17.7428624483
  - # 16
    frequency:   18.7053238165
  - # 17
    frequency:   25.2281384757
  - # 18
    frequency:   25.5371630365
  - # 19
    frequency:   27.0726922964
  - # 20
    frequency:   38.9102868523
  - # 21
    frequency:   69.1573364202

- q-position: [    0.0808081,    0.0000000,    0.0000000 ]
  distance:    0.0279648
  band:
  - # 1
    frequency:   -0.7849692438
  - # 2
    frequency:    0.1147105855
  - # 3
    frequency:    0.5687698643
  - # 4
    frequency:    1.4173447015
  - # 5
    frequency:    2.4072214794
  - # 6
    frequency:    5.2650625344
  - # 7
    frequency:    5.5574332872
  - # 8
    frequency:    6.6968397667
  - # 9
    frequency:    6.8352391501
  - # 10
    frequency:    7.3852702448
  - # 11
    frequency:   11.2246540338
  - # 12
    frequency:   11.3881865917
  - # 13
    frequency:   13.1017234537
  - # 14
    frequency:   17.7139912779
  - # 15
    frequency:   17.7446618709
  - # 16
    frequency:   18.6514426625
  - # 17
    frequency:   25.2257475826
  - # 18
    frequency:   25.5691532939
  - # 19
    frequency:   27.0686853483
  - # 20
    frequency:   38.9089963903
  - # 21
    frequency:   69.1222735634

- q-position: [    0.0858586,    0.0000000,    0.0000000 ]
  distance:    0.0297126
  band:
  - # 1
    frequency:   -0.7698231659
  - # 2
    frequency:    0.3075748469
  - # 3
    frequency:    0.6389500320
  - # 4
    frequency:    1.5054234326
  - # 5
    frequency:    2.5554785928
  - # 6
    frequency:    5.2657255337
  - # 7
    frequency:    5.5883565398
  - # 8
    frequency:    6.6905047589
  - # 9
    frequency:    6.8347435074
  - # 10
    frequency:    7.4244866682
  - # 11
    frequency:   11.1963334391
  - # 12
    frequency:   11.3783451493
  - # 13
    frequency:   13.2769260234
  - # 14
    frequency:   17.7152044665
  - # 15
    frequency:   17.7451809176
  - # 16
    frequency:   18.5966158286
  - # 17
    frequency:   25.2232403384
  - # 18
    frequency:   25.6008804634
  - # 19
    frequency:   27.0661874690
  - # 20
    frequency:   38.9076364821
  - # 21
    frequency:   69.0853598324

- q-position: [    0.0909091,    0.0000000,    0.0000000 ]
  distance:    0.0314604
  band:
  - # 1
    frequency:   -0.7537960101
  - # 2
    frequency:    0.4238647527
  - # 3
    frequency:    0.7101284133
  - # 4
    frequency:    1.5929617273
  - # 5
    frequency:    2.7027381477
  - # 6
    frequency:    5.2665760607
  - # 7
    frequency:    5.6197033940
  - # 8
    frequency:    6.6852535939
  - # 9
    frequency:    6.8342583285
  - # 10
    frequency:    7.4639237771
  - # 11
    frequency:   11.1665640935
  - # 12
    frequency:   11.3681721369
  - # 13
    frequency:   13.4555572386
  - # 14
    frequency:   17.7164860958
  - # 15
    frequency:   17.7438978247
  - # 16
    frequency:   18.5415496338
  - # 17
    frequency:   25.2206233804
  - # 18
    frequency:   25.6318463403
  - # 19
    frequency:   27.0656040292
  - # 20
    frequency:   38.9062095388
  - # 21
    frequency:   69.0466678981

- q-position: [    0.0959596,    0.0000000,    0.0000000 ]
  distance:    0.0332082
  band:
  - # 1
    frequency:   -0.7368120107
  - # 2
    frequency:    0.5197160381
  - # 3
    frequency:    0.7813002148
  - # 4
    frequency:    1.6799175085
  - # 5
    frequency:    2.8489242309
  - # 6
    frequency:    5.2676358912
  - # 7
    frequency:    5.6512656405
  - # 8
    frequency:    6.6812784835
  - # 9
    frequency:    6.8337896193
  - # 10
    frequency:    7.5035233076
  - # 11
    frequency:   11.1353908317
  - # 12
    frequency:   11.3577112674
  - # 13
    frequency:   13.6366710285
  - # 14
    frequency:   17.7178352516
  - # 15
    frequency:   17.7401385899
  - # 16
    frequency:   18.4871096239
  - # 17
    frequency:   25.2179036058
  - # 18
    frequency:   25.6615181653
  - # 19
    frequency:   27.0673704864
  - # 20
    frequency:   38.9047180697
  - # 21
    frequency:   69.0062735312

- q-position: [    0.1010101,    0.0000000,    0.0000000 ]
  distance:    0.0349560
  band:
  - # 1
    frequency:   -0.7187883156
  - # 2
    frequency:    0.6063478715
  - # 3
    frequency:    0.8517951301
  - # 4
    frequency:    1.7662532023
  - # 5
    frequency:    2.9939537383
  - # 6
    frequency:    5.2689269965
  - # 7
    frequency:    5.6828286925
  - # 8
    frequency:    6.6787875656
  - # 9
    frequency:    6.8333434928
  - # 10
    frequency:    7.5432438622
  - # 11
    frequency:   11.1028610621
  - # 12
    frequency:   11.3470077746
  - # 13
    frequency:   13.8193438587
  - # 14
    frequency:   17.7192509630
  - # 15
    frequency:   17.7330513503
  - # 16
    frequency:   18.4343470502
  - # 17
    frequency:   25.2150881469
  - # 18
    frequency:   25.6893396048
  - # 19
    frequency:   27.0719410406
  - # 20
    frequency:   38.9031646768
  - # 21
    frequency:   68.9642553888

- q-position: [    0.1060606,    0.0000000,    0.0000000 ]
  distance:    0.0367038
  band:
  - # 1
    frequency:   -0.6996327985
  - # 2
    frequency:    0.6883399472
  - # 3
    frequency:    0.9212483532
  - # 4
    frequency:    1.8519348190
  - # 5
    frequency:    3.1377349627
  - # 6
    frequency:    5.2704714235
  - # 7
    frequency:    5.7141733530
  - # 8
    frequency:    6.6780031153
  - # 9
    frequency:    6.8329261579
  - # 10
    frequency:    7.5830583402
  - # 11
    frequency:   11.0690247272
  - # 12
    frequency:   11.3361082159
  - # 13
    frequency:   14.0026790204
  - # 14
    frequency:   17.7207322019
  - # 15
    frequency:   17.7216051833
  - # 16
    frequency:   18.3845014768
  - # 17
    frequency:   25.2121843459
  - # 18
    frequency:   25.7147476513
  - # 19
    frequency:   27.0797713460
  - # 20
    frequency:   38.9015520480
  - # 21
    frequency:   68.9206947927

- q-position: [    0.1111111,    0.0000000,    0.0000000 ]
  distance:    0.0384516
  band:
  - # 1
    frequency:   -0.6792410872
  - # 2
    frequency:    0.7679686866
  - # 3
    frequency:    0.9895128914
  - # 4
    frequency:    1.9369312714
  - # 5
    frequency:    3.2801662034
  - # 6
    frequency:    5.2722911797
  - # 7
    frequency:    5.7450792085
  - # 8
    frequency:    6.6791584503
  - # 9
    frequency:    6.8325439122
  - # 10
    frequency:    7.6229514597
  - # 11
    frequency:   11.0339342873
  - # 12
    frequency:   11.3250602599
  - # 13
    frequency:   14.1858089876
  - # 14
    frequency:   17.7046456504
  - # 15
    frequency:   17.7222778827
  - # 16
    frequency:   18.3389473798
  - # 17
    frequency:   25.2091997279
  - # 18
    frequency:   25.7371954651
  - # 19
    frequency:   27.0912952842
  - # 20
    frequency:   38.8998829522
  - # 21
    frequency:   68.8756755009

- q-position: [    0.1161616,    0.0000000,    0.0000000 ]
  distance:    0.0401994
  band:
  - # 1
    frequency:   -0.6574925739
  - # 2
    frequency:    0.8464575043
  - # 3
    frequency:    1.0565786531
  - # 4
    frequency:    2.0212138795
  - # 5
    frequency:    3.4211342726
  - # 6
    frequency:    5.2744081247
  - # 7
    frequency:    5.7753301548
  - # 8
    frequency:    6.6824930632
  - # 9
    frequency:    6.8322031373
  - # 10
    frequency:    7.6629174613
  - # 11
    frequency:   10.9976447234
  - # 12
    frequency:   11.3139124574
  - # 13
    frequency:   14.3678956401
  - # 14
    frequency:   17.6810419561
  - # 15
    frequency:   17.7238868616
  - # 16
    frequency:   18.2990501564
  - # 17
    frequency:   25.2061419743
  - # 18
    frequency:   25.7561797705
  - # 19
    frequency:   27.1068972164
  - # 20
    frequency:   38.8981602328
  - # 21
    frequency:   68.8292834730

- q-position: [    0.1212121,    0.0000000,    0.0000000 ]
  distance:    0.0419472
  band:
  - # 1
    frequency:   -0.6342449928
  - # 2
    frequency:    0.9244741964
  - # 3
    frequency:    1.1225187400
  - # 4
    frequency:    2.1047560184
  - # 5
    frequency:    3.5605127830
  - # 6
    frequency:    5.2768438676
  - # 7
    frequency:    5.8047224727
  - # 8
    frequency:    6.6882456121
  - # 9
    frequency:    6.8319102981
  - # 10
    frequency:    7.7029580363
  - # 11
    frequency:   10.9602135614
  - # 12
    frequency:   11.3027139996
  - # 13
    frequency:   14.5481280107
  - # 14
    frequency:   17.6499263769
  - # 15
    frequency:   17.7255579361
  - # 16
    frequency:   18.2659313268
  - # 17
    frequency:   25.2030188944
  - # 18
    frequency:   25.7712697349
  - # 19
    frequency:   27.1268828145
  - # 20
    frequency:   38.8963868032
  - # 21
    frequency:   68.7816066301

- q-position: [    0.1262626,    0.0000000,    0.0000000 ]
  distance:    0.0436950
  band:
  - # 1
    frequency:   -0.6093268709
  - # 2
    frequency:    1.0023608492
  - # 3
    frequency:    1.1874617317
  - # 4
    frequency:    2.1875328737
  - # 5
    frequency:    3.6981600996
  - # 6
    frequency:    5.2796196720
  - # 7
    frequency:    5.8330756390
  - # 8
    frequency:    6.6966446588
  - # 9
    frequency:    6.8316719433
  - # 10
    frequency:    7.7430804952
  - # 11
    frequency:   10.9217009165
  - # 12
    frequency:   11.2915144622
  - # 13
    frequency:   14.7257169765
  - # 14
    frequency:   17.6109484477
  - # 15
    frequency:   17.7272898448
  - # 16
    frequency:   18.2402211367
  - # 17
    frequency:   25.1998383977
  - # 18
    frequency:   25.7821329007
  - # 19
    frequency:   27.1514529309
  - # 20
    frequency:   38.8945656407
  - # 21
    frequency:   68.7327346097

- q-position: [    0.1313131,    0.0000000,    0.0000000 ]
  distance:    0.0454428
  band:
  - # 1
    frequency:   -0.5825266864
  - # 2
    frequency:    1.0802449847
  - # 3
    frequency:    1.2515845730
  - # 4
    frequency:    2.2695212767
  - # 5
    frequency:    3.8339168221
  - # 6
    frequency:    5.2827563667
  - # 7
    frequency:    5.8602456377
  - # 8
    frequency:    6.7078974925
  - # 9
    frequency:    6.8314947082
  - # 10
    frequency:    7.7832961667
  - # 11
    frequency:   10.8821695622
  - # 12
    frequency:   11.2803635392
  - # 13
    frequency:   14.8998858908
  - # 14
    frequency:   17.5644092665
  - # 15
    frequency:   17.7290812665
  - # 16
    frequency:   18.2219343113
  - # 17
    frequency:   25.1966084658
  - # 18
    frequency:   25.7885534467
  - # 19
    frequency:   27.1806852542
  - # 20
    frequency:   38.8926997825
  - # 21
    frequency:   68.6827585170

- q-position: [    0.1363636,    0.0000000,    0.0000000 ]
  distance:    0.0471906
  band:
  - # 1
    frequency:   -0.5535767099
  - # 2
    frequency:    1.1580874116
  - # 3
    frequency:    1.3151231189
  - # 4
    frequency:    2.3506995980
  - # 5
    frequency:    3.9676026400
  - # 6
    frequency:    5.2862742646
  - # 7
    frequency:    5.8861399864
  - # 8
    frequency:    6.7221779563
  - # 9
    frequency:    6.8313853162
  - # 10
    frequency:    7.8236190068
  - # 11
    frequency:   10.8416850264
  - # 12
    frequency:   11.2693107665
  - # 13
    frequency:   15.0698554468
  - # 14
    frequency:   17.5111993074
  - # 15
    frequency:   17.7309308207
  - # 16
    frequency:   18.2105473833
  - # 17
    frequency:   25.1933371234
  - # 18
    frequency:   25.7904392757
  - # 19
    frequency:   27.2145272773
  - # 20
    frequency:   38.8907923201
  - # 21
    frequency:   68.6317706730

- q-position: [    0.1414141,    0.0000000,    0.0000000 ]
  distance:    0.0489384
  band:
  - # 1
    frequency:   -0.5221278414
  - # 2
    frequency:    1.2356883491
  - # 3
    frequency:    1.3784010153
  - # 4
    frequency:    2.4310476823
  - # 5
    frequency:    4.0990123744
  - # 6
    frequency:    5.2901930869
  - # 7
    frequency:    5.9107331554
  - # 8
    frequency:    6.7396147769
  - # 9
    frequency:    6.8313505807
  - # 10
    frequency:    7.8640643857
  - # 11
    frequency:   10.8003157203
  - # 12
    frequency:   11.2584052392
  - # 13
    frequency:   15.2348198591
  - # 14
    frequency:   17.4526027957
  - # 15
    frequency:   17.7328370662
  - # 16
    frequency:   18.2052175555
  - # 17
    frequency:   25.1900324112
  - # 18
    frequency:   25.7878168949
  - # 19
    frequency:   27.2528016271
  - # 20
    frequency:   38.8888463956
  - # 21
    frequency:   68.5798643600

- q-position: [    0.1464646,    0.0000000,    0.0000000 ]
  distance:    0.0506862
  band:
  - # 1
    frequency:   -0.4877083006
  - # 2
    frequency:    1.3126604537
  - # 3
    frequency:    1.4418787621
  - # 4
    frequency:    2.5105468119
  - # 5
    frequency:    4.2279109878
  - # 6
    frequency:    5.2945318934
  - # 7
    frequency:    5.9340807510
  - # 8
    frequency:    6.7602822284
  - # 9
    frequency:    6.8313974034
  - # 10
    frequency:    7.9046480160
  - # 11
    frequency:   10.7581331064
  - # 12
    frequency:   11.2476953245
  - # 13
    frequency:   15.3939093661
  - # 14
    frequency:   17.3901047314
  - # 15
    frequency:   17.7347985021
  - # 16
    frequency:   18.2050120889
  - # 17
    frequency:   25.1867023572
  - # 18
    frequency:   25.7808158464
  - # 19
    frequency:   27.2952220142
  - # 20
    frequency:   38.8868651962
  - # 21
    frequency:   68.5271335658

- q-position: [    0.1515152,    0.0000000,    0.0000000 ]
  distance:    0.0524340
  band:
  - # 1
    frequency:   -0.4496511820
  - # 2
    frequency:    1.3883826074
  - # 3
    frequency:    1.5062144490
  - # 4
    frequency:    2.5891796891
  - # 5
    frequency:    4.3540273285
  - # 6
    frequency:    5.2993090173
  - # 7
    frequency:    5.9563309927
  - # 8
    frequency:    6.7841948363
  - # 9
    frequency:    6.8315327693
  - # 10
    frequency:    7.9453849846
  - # 11
    frequency:   10.7152119140
  - # 12
    frequency:   11.2372283733
  - # 13
    frequency:   15.5461305002
  - # 14
    frequency:   17.3252950694
  - # 15
    frequency:   17.7368135665
  - # 16
    frequency:   18.2090623454
  - # 17
    frequency:   25.1833549507
  - # 18
    frequency:   25.7696464539
  - # 19
    frequency:   27.3414160400
  - # 20
    frequency:   38.8848519508
  - # 21
    frequency:   68.4736727275
