nqpoint: 300    
npath: 3      
segment_nqpoint:
- 100
- 100
- 100
labels:
- [ 'G', 'M' ]
- [ 'M', 'K' ]
- [ 'K', 'G' ]
reciprocal_lattice:
- [   0.29523685,   0.17045507,   0.00000000 ] # a*
- [   0.00000000,   0.34091014,   0.00000000 ] # b*
- [   0.00000000,   0.00000000,   0.04169430 ] # c*
natom: 6      
lattice:
- [     3.387111108162567,     0.000000000000000,     0.000000000000000 ] # a
- [    -1.693555554081283,     2.933324265106649,     0.000000000000000 ] # b
- [     0.000000000000000,     0.000000000000000,    23.984095480396679 ] # c
points:
- symbol: C # 1
  coordinates: [  0.000000000000000,  0.000000000000000,  0.466334593850665 ]
  mass: 12.010700
- symbol: H # 2
  coordinates: [  0.666666984744048,  0.333332985985145,  0.375248672911435 ]
  mass: 1.007940
- symbol: N # 3
  coordinates: [  0.333332985432215,  0.666666983183674,  0.569624144108093 ]
  mass: 14.006700
- symbol: O # 4
  coordinates: [  0.333332985432215,  0.666666983183674,  0.624751327088565 ]
  mass: 15.999400
- symbol: Zr # 5
  coordinates: [  0.333332985432215,  0.666666983183674,  0.417810020279178 ]
  mass: 91.224000
- symbol: Zr # 6
  coordinates: [  0.666666984744048,  0.333332985985145,  0.526694929135009 ]
  mass: 91.224000

phonon:
- q-position: [    0.0000000,    0.0000000,    0.0000000 ]
  distance:    0.0000000
  band:
  - # 1
    frequency:   -4.8558965059
  - # 2
    frequency:   -4.8558965059
  - # 3
    frequency:   -0.0000108163
  - # 4
    frequency:    0.0000002008
  - # 5
    frequency:    0.0000089426
  - # 6
    frequency:    3.9187224519
  - # 7
    frequency:    3.9187224519
  - # 8
    frequency:    6.2168518298
  - # 9
    frequency:    9.0072611075
  - # 10
    frequency:   10.5893695540
  - # 11
    frequency:   10.5893695540
  - # 12
    frequency:   14.5889115520
  - # 13
    frequency:   14.5889115520
  - # 14
    frequency:   16.0380935766
  - # 15
    frequency:   26.7893080159
  - # 16
    frequency:   26.9850938641
  - # 17
    frequency:   26.9850938641
  - # 18
    frequency:   39.8015574390

- q-position: [    0.0050505,    0.0000000,    0.0000000 ]
  distance:    0.0017218
  band:
  - # 1
    frequency:   -4.8558987588
  - # 2
    frequency:   -4.8543371145
  - # 3
    frequency:    0.0018664202
  - # 4
    frequency:    0.0746315528
  - # 5
    frequency:    0.1226733245
  - # 6
    frequency:    3.9191735884
  - # 7
    frequency:    3.9202270638
  - # 8
    frequency:    6.2169006187
  - # 9
    frequency:    9.0060332563
  - # 10
    frequency:   10.5895429719
  - # 11
    frequency:   10.5902681423
  - # 12
    frequency:   14.5885903543
  - # 13
    frequency:   14.5893388470
  - # 14
    frequency:   16.0379506751
  - # 15
    frequency:   26.7888124527
  - # 16
    frequency:   26.9852479131
  - # 17
    frequency:   26.9856980550
  - # 18
    frequency:   39.8009366586

- q-position: [    0.0101010,    0.0000000,    0.0000000 ]
  distance:    0.0034435
  band:
  - # 1
    frequency:   -4.8559063497
  - # 2
    frequency:   -4.8496618301
  - # 3
    frequency:    0.0074422555
  - # 4
    frequency:    0.1492382173
  - # 5
    frequency:    0.2453104942
  - # 6
    frequency:    3.9205263864
  - # 7
    frequency:    3.9247305197
  - # 8
    frequency:    6.2170473302
  - # 9
    frequency:    9.0023647145
  - # 10
    frequency:   10.5900621945
  - # 11
    frequency:   10.5929491493
  - # 12
    frequency:   14.5876288721
  - # 13
    frequency:   14.5906250920
  - # 14
    frequency:   16.0375212578
  - # 15
    frequency:   26.7873273910
  - # 16
    frequency:   26.9857087715
  - # 17
    frequency:   26.9875077575
  - # 18
    frequency:   39.7990752218

- q-position: [    0.0151515,    0.0000000,    0.0000000 ]
  distance:    0.0051653
  band:
  - # 1
    frequency:   -4.8559217641
  - # 2
    frequency:   -4.8418792783
  - # 3
    frequency:    0.0167016546
  - # 4
    frequency:    0.2237951092
  - # 5
    frequency:    0.3678746785
  - # 6
    frequency:    3.9227790079
  - # 7
    frequency:    3.9322019439
  - # 8
    frequency:    6.2172930027
  - # 9
    frequency:    8.9962999130
  - # 10
    frequency:   10.5909241391
  - # 11
    frequency:   10.5973689671
  - # 12
    frequency:   14.5860334225
  - # 13
    frequency:   14.5927832512
  - # 14
    frequency:   16.0368032181
  - # 15
    frequency:   26.7848575441
  - # 16
    frequency:   26.9864725813
  - # 17
    frequency:   26.9905145453
  - # 18
    frequency:   39.7959758402

- q-position: [    0.0202020,    0.0000000,    0.0000000 ]
  distance:    0.0068871
  band:
  - # 1
    frequency:   -4.8559491056
  - # 2
    frequency:   -4.8310036880
  - # 3
    frequency:    0.0295950198
  - # 4
    frequency:    0.2982773506
  - # 5
    frequency:    0.4903277039
  - # 6
    frequency:    3.9259283787
  - # 7
    frequency:    3.9425907428
  - # 8
    frequency:    6.2176393793
  - # 9
    frequency:    8.9879109533
  - # 10
    frequency:   10.5921237028
  - # 11
    frequency:   10.6034570711
  - # 12
    frequency:   14.5838144796
  - # 13
    frequency:   14.5958345455
  - # 14
    frequency:   16.0357931469
  - # 15
    frequency:   26.7814102539
  - # 16
    frequency:   26.9875329385
  - # 17
    frequency:   26.9947049358
  - # 18
    frequency:   39.7916430265

- q-position: [    0.0252525,    0.0000000,    0.0000000 ]
  distance:    0.0086088
  band:
  - # 1
    frequency:   -4.8559940384
  - # 2
    frequency:   -4.8170546713
  - # 3
    frequency:    0.0460546156
  - # 4
    frequency:    0.3726600749
  - # 5
    frequency:    0.6126293958
  - # 6
    frequency:    3.9299701714
  - # 7
    frequency:    3.9558278489
  - # 8
    frequency:    6.2180889248
  - # 9
    frequency:    8.9772948912
  - # 10
    frequency:   10.5936538155
  - # 11
    frequency:   10.6111190412
  - # 12
    frequency:   14.5809865941
  - # 13
    frequency:   14.5998078820
  - # 14
    frequency:   16.0344864838
  - # 15
    frequency:   26.7769948738
  - # 16
    frequency:   26.9888809311
  - # 17
    frequency:   27.0000610781
  - # 18
    frequency:   39.7860830850

- q-position: [    0.0303030,    0.0000000,    0.0000000 ]
  distance:    0.0103306
  band:
  - # 1
    frequency:   -4.8560637079
  - # 2
    frequency:   -4.8000569149
  - # 3
    frequency:    0.0659961531
  - # 4
    frequency:    0.4469184324
  - # 5
    frequency:    0.7347369388
  - # 6
    frequency:    3.9348987837
  - # 7
    frequency:    3.9718273610
  - # 8
    frequency:    6.2186448508
  - # 9
    frequency:    8.9645703140
  - # 10
    frequency:   10.5955055120
  - # 11
    frequency:   10.6202404027
  - # 12
    frequency:   14.5775682815
  - # 13
    frequency:   14.6047390707
  - # 14
    frequency:   16.0328777213
  - # 15
    frequency:   26.7716221435
  - # 16
    frequency:   26.9905051929
  - # 17
    frequency:   27.0065614744
  - # 18
    frequency:   39.7793040977

- q-position: [    0.0353535,    0.0000000,    0.0000000 ]
  distance:    0.0120524
  band:
  - # 1
    frequency:   -4.8561666408
  - # 2
    frequency:   -4.7800397860
  - # 3
    frequency:    0.0893206645
  - # 4
    frequency:    0.5210275978
  - # 5
    frequency:    0.8566042619
  - # 6
    frequency:    3.9407073120
  - # 7
    frequency:    3.9904884905
  - # 8
    frequency:    6.2193111451
  - # 9
    frequency:    8.9498735089
  - # 10
    frequency:   10.5976680249
  - # 11
    frequency:   10.6306909813
  - # 12
    frequency:   14.5735818785
  - # 13
    frequency:   14.6106698426
  - # 14
    frequency:   16.0309606589
  - # 15
    frequency:   26.7653036763
  - # 16
    frequency:   26.9923919710
  - # 17
    frequency:   27.0141816161
  - # 18
    frequency:   39.7713159072

- q-position: [    0.0404040,    0.0000000,    0.0000000 ]
  distance:    0.0137741
  band:
  - # 1
    frequency:   -4.8563126262
  - # 2
    frequency:   -4.7570368515
  - # 3
    frequency:    0.1159165722
  - # 4
    frequency:    0.5949627782
  - # 5
    frequency:    0.9781814563
  - # 6
    frequency:    3.9473875215
  - # 7
    frequency:    4.0116977163
  - # 8
    frequency:    6.2200926071
  - # 9
    frequency:    8.9333545186
  - # 10
    frequency:   10.6001288954
  - # 11
    frequency:   10.6423294665
  - # 12
    frequency:   14.5690533707
  - # 13
    frequency:   14.6176466906
  - # 14
    frequency:   16.0287286995
  - # 15
    frequency:   26.7580516161
  - # 16
    frequency:   26.9945252083
  - # 17
    frequency:   27.0228944720
  - # 18
    frequency:   39.7621300949

- q-position: [    0.0454545,    0.0000000,    0.0000000 ]
  distance:    0.0154959
  band:
  - # 1
    frequency:   -4.8565125793
  - # 2
    frequency:   -4.7310853145
  - # 3
    frequency:    0.1456618539
  - # 4
    frequency:    0.6686992251
  - # 5
    frequency:    1.0994142337
  - # 6
    frequency:    3.9549298141
  - # 7
    frequency:    4.0353310471
  - # 8
    frequency:    6.2209948862
  - # 9
    frequency:    8.9151733376
  - # 10
    frequency:   10.6028741022
  - # 11
    frequency:   10.6550079149
  - # 12
    frequency:   14.5640121907
  - # 13
    frequency:   14.6257195529
  - # 14
    frequency:   16.0261751809
  - # 15
    frequency:   26.7498784697
  - # 16
    frequency:   26.9968866389
  - # 17
    frequency:   27.0326708234
  - # 18
    frequency:   39.7517599572

- q-position: [    0.0505051,    0.0000000,    0.0000000 ]
  distance:    0.0172177
  band:
  - # 1
    frequency:   -4.8567783901
  - # 2
    frequency:   -4.7022253710
  - # 3
    frequency:    0.1784262130
  - # 4
    frequency:    0.7422122467
  - # 5
    frequency:    1.2202434351
  - # 6
    frequency:    3.9633231965
  - # 7
    frequency:    4.0612562997
  - # 8
    frequency:    6.2220245233
  - # 9
    frequency:    8.8954964390
  - # 10
    frequency:   10.6058882066
  - # 11
    frequency:   10.6685759876
  - # 12
    frequency:   14.5584909900
  - # 13
    frequency:   14.6349403672
  - # 14
    frequency:   16.0232937373
  - # 15
    frequency:   26.7407970777
  - # 16
    frequency:   26.9994558964
  - # 17
    frequency:   27.0434794782
  - # 18
    frequency:   39.7402204756

- q-position: [    0.0555556,    0.0000000,    0.0000000 ]
  distance:    0.0189395
  band:
  - # 1
    frequency:   -4.8571227593
  - # 2
    frequency:   -4.6704994904
  - # 3
    frequency:    0.2140731756
  - # 4
    frequency:    0.8154772236
  - # 5
    frequency:    1.3406045989
  - # 6
    frequency:    3.9725552488
  - # 7
    frequency:    4.0893353112
  - # 8
    frequency:    6.2231889929
  - # 9
    frequency:    8.8744937558
  - # 10
    frequency:   10.6091545131
  - # 11
    frequency:   10.6828847788
  - # 12
    frequency:   14.5525253842
  - # 13
    frequency:   14.6453615219
  - # 14
    frequency:   16.0200786834
  - # 15
    frequency:   26.7308206784
  - # 16
    frequency:   27.0022106343
  - # 17
    frequency:   27.0552874094
  - # 18
    frequency:   39.7275282861

- q-position: [    0.0606061,    0.0000000,    0.0000000 ]
  distance:    0.0206612
  band:
  - # 1
    frequency:   -4.8575590238
  - # 2
    frequency:   -4.6359516274
  - # 3
    frequency:    0.2524620511
  - # 4
    frequency:    0.8884696265
  - # 5
    frequency:    1.4604275994
  - # 6
    frequency:    3.9826120968
  - # 7
    frequency:    4.1194260214
  - # 8
    frequency:    6.2244967441
  - # 9
    frequency:    8.8523361689
  - # 10
    frequency:   10.6126552429
  - # 11
    frequency:   10.6977901606
  - # 12
    frequency:   14.5461536750
  - # 13
    frequency:   14.6570342351
  - # 14
    frequency:   16.0165254149
  - # 15
    frequency:   26.7199630192
  - # 16
    frequency:   27.0051266576
  - # 17
    frequency:   27.0680598580
  - # 18
    frequency:   39.7137016425

- q-position: [    0.0656566,    0.0000000,    0.0000000 ]
  distance:    0.0223830
  band:
  - # 1
    frequency:   -4.8581009750
  - # 2
    frequency:   -4.5986263714
  - # 3
    frequency:    0.2934497108
  - # 4
    frequency:    0.9611650360
  - # 5
    frequency:    1.5796363656
  - # 6
    frequency:    3.9934783882
  - # 7
    frequency:    4.1513843759
  - # 8
    frequency:    6.2259572394
  - # 9
    frequency:    8.8291935040
  - # 10
    frequency:   10.6163717194
  - # 11
    frequency:   10.7131556171
  - # 12
    frequency:   14.5394165498
  - # 13
    frequency:   14.6700068924
  - # 14
    frequency:   16.0126308234
  - # 15
    frequency:   26.7082384827
  - # 16
    frequency:   27.0081780650
  - # 17
    frequency:   27.0817604324
  - # 18
    frequency:   39.6987603783

- q-position: [    0.0707071,    0.0000000,    0.0000000 ]
  distance:    0.0241048
  band:
  - # 1
    frequency:   -4.8587626718
  - # 2
    frequency:   -4.5585680429
  - # 3
    frequency:    0.3368921571
  - # 4
    frequency:    1.0335391648
  - # 5
    frequency:    1.6981486900
  - # 6
    frequency:    4.0051372760
  - # 7
    frequency:    4.1850660221
  - # 8
    frequency:    6.2275809870
  - # 9
    frequency:    8.8052330007
  - # 10
    frequency:   10.6202845637
  - # 11
    frequency:   10.7288545791
  - # 12
    frequency:   14.5323567631
  - # 13
    frequency:   14.6843233741
  - # 14
    frequency:   16.0083937212
  - # 15
    frequency:   26.6956622048
  - # 16
    frequency:   27.0113374000
  - # 17
    frequency:   27.0963512217
  - # 18
    frequency:   39.6827258647

- q-position: [    0.0757576,    0.0000000,    0.0000000 ]
  distance:    0.0258265
  band:
  - # 1
    frequency:   -4.8595582518
  - # 2
    frequency:   -4.5158197483
  - # 3
    frequency:    0.3826458701
  - # 4
    frequency:    1.1055678812
  - # 5
    frequency:    1.8158761379
  - # 6
    frequency:    4.0175704087
  - # 7
    frequency:    4.2203277802
  - # 8
    frequency:    6.2293795658
  - # 9
    frequency:    8.7806181886
  - # 10
    frequency:   10.6243738982
  - # 11
    frequency:   10.7447722952
  - # 12
    frequency:   14.5250187991
  - # 13
    frequency:   14.7000214024
  - # 14
    frequency:   16.0038152778
  - # 15
    frequency:   26.6822501755
  - # 16
    frequency:   27.0145758104
  - # 17
    frequency:   27.1117929316
  - # 18
    frequency:   39.6656209649

- q-position: [    0.0808081,    0.0000000,    0.0000000 ]
  distance:    0.0275483
  band:
  - # 1
    frequency:   -4.8605017441
  - # 2
    frequency:   -4.4704224020
  - # 3
    frequency:    0.4305689320
  - # 4
    frequency:    1.1772272351
  - # 5
    frequency:    1.9327240644
  - # 6
    frequency:    4.0307579311
  - # 7
    frequency:    4.2570288889
  - # 8
    frequency:    6.2313656387
  - # 9
    frequency:    8.7555080994
  - # 10
    frequency:   10.6286195550
  - # 11
    frequency:   10.7608072827
  - # 12
    frequency:   14.5174485214
  - # 13
    frequency:   14.7171309359
  - # 14
    frequency:   15.9988994685
  - # 15
    frequency:   26.6680193165
  - # 16
    frequency:   27.0178632155
  - # 17
    frequency:   27.1280450436
  - # 18
    frequency:   39.6474699869

- q-position: [    0.0858586,    0.0000000,    0.0000000 ]
  distance:    0.0292701
  band:
  - # 1
    frequency:   -4.8616068848
  - # 2
    frequency:   -4.4224137313
  - # 3
    frequency:    0.4805219399
  - # 4
    frequency:    1.2484934843
  - # 5
    frequency:    2.0485917474
  - # 6
    frequency:    4.0446784944
  - # 7
    frequency:    4.2950320325
  - # 8
    frequency:    6.2335529513
  - # 9
    frequency:    8.7300567368
  - # 10
    frequency:   10.6330012891
  - # 11
    frequency:   10.7768724088
  - # 12
    frequency:   14.5096928106
  - # 13
    frequency:   14.7356726341
  - # 14
    frequency:   15.9936535414
  - # 15
    frequency:   26.6529875376
  - # 16
    frequency:   27.0211684791
  - # 17
    frequency:   27.1450659936
  - # 18
    frequency:   39.6282986317

- q-position: [    0.0909091,    0.0000000,    0.0000000 ]
  distance:    0.0309918
  band:
  - # 1
    frequency:   -4.8628869396
  - # 2
    frequency:   -4.3718272723
  - # 3
    frequency:    0.5323687245
  - # 4
    frequency:    1.3193431227
  - # 5
    frequency:    2.1633726410
  - # 6
    frequency:    4.0593092784
  - # 7
    frequency:    4.3342041655
  - # 8
    frequency:    6.2359563129
  - # 9
    frequency:    8.7044127339
  - # 10
    frequency:   10.6374989915
  - # 11
    frequency:   10.7928956446
  - # 12
    frequency:   14.5017991941
  - # 13
    frequency:   14.7556564124
  - # 14
    frequency:   15.9880885111
  - # 15
    frequency:   26.6371737725
  - # 16
    frequency:   27.0244595878
  - # 17
    frequency:   27.1628133666
  - # 18
    frequency:   39.6081339408

- q-position: [    0.0959596,    0.0000000,    0.0000000 ]
  distance:    0.0327136
  band:
  - # 1
    frequency:   -4.8643545355
  - # 2
    frequency:   -4.3186913712
  - # 3
    frequency:    0.5859768969
  - # 4
    frequency:    1.3897529083
  - # 5
    frequency:    2.2769547538
  - # 6
    frequency:    4.0746260262
  - # 7
    frequency:    4.3744171536
  - # 8
    frequency:    6.2385915541
  - # 9
    frequency:    8.6787191339
  - # 10
    frequency:   10.6420929026
  - # 11
    frequency:   10.8088205353
  - # 12
    frequency:   14.4938154699
  - # 13
    frequency:   14.7770800980
  - # 14
    frequency:   15.9822196898
  - # 15
    frequency:   26.6205979978
  - # 16
    frequency:   27.0277038334
  - # 17
    frequency:   27.1812441000
  - # 18
    frequency:   39.5870042390

- q-position: [    0.1010101,    0.0000000,    0.0000000 ]
  distance:    0.0344354
  band:
  - # 1
    frequency:   -4.8660215039
  - # 2
    frequency:   -4.2630281981
  - # 3
    frequency:    0.6412182477
  - # 4
    frequency:    1.4596998915
  - # 5
    frequency:    2.3892211539
  - # 6
    frequency:    4.0906030909
  - # 7
    frequency:    4.4155482529
  - # 8
    frequency:    6.2414754597
  - # 9
    frequency:    8.6531132392
  - # 10
    frequency:   10.6467638203
  - # 11
    frequency:   10.8246064164
  - # 12
    frequency:   14.4857893297
  - # 13
    frequency:   14.7999281887
  - # 14
    frequency:   15.9760672745
  - # 15
    frequency:   26.6032812390
  - # 16
    frequency:   27.0308679982
  - # 17
    frequency:   27.2003146907
  - # 18
    frequency:   39.5649390772

- q-position: [    0.1060606,    0.0000000,    0.0000000 ]
  distance:    0.0361571
  band:
  - # 1
    frequency:   -4.8678987369
  - # 2
    frequency:   -4.2048527816
  - # 3
    frequency:    0.6979690234
  - # 4
    frequency:    1.5291614429
  - # 5
    frequency:    2.5000505994
  - # 6
    frequency:    4.1072134955
  - # 7
    frequency:    4.4574804502
  - # 8
    frequency:    6.2446256689
  - # 9
    frequency:    8.6277264882
  - # 10
    frequency:   10.6514933035
  - # 11
    frequency:   10.8402284077
  - # 12
    frequency:   14.4777679834
  - # 13
    frequency:   14.8241707110
  - # 14
    frequency:   15.9696570088
  - # 15
    frequency:   26.5852455649
  - # 16
    frequency:   27.0339185422
  - # 17
    frequency:   27.2199814014
  - # 18
    frequency:   39.5419691710

- q-position: [    0.1111111,    0.0000000,    0.0000000 ]
  distance:    0.0378789
  band:
  - # 1
    frequency:   -4.8699960597
  - # 2
    frequency:   -4.1441720659
  - # 3
    frequency:    0.7561101046
  - # 4
    frequency:    1.5981152810
  - # 5
    frequency:    2.6093182936
  - # 6
    frequency:    4.1244290058
  - # 7
    frequency:    4.5001026862
  - # 8
    frequency:    6.2480605425
  - # 9
    frequency:    8.6026843215
  - # 10
    frequency:   10.6562638656
  - # 11
    frequency:   10.8556772055
  - # 12
    frequency:   14.4697977888
  - # 13
    frequency:   14.8497621551
  - # 14
    frequency:   15.9630209481
  - # 15
    frequency:   26.5665140733
  - # 16
    frequency:   27.0368217904
  - # 17
    frequency:   27.2402004610
  - # 18
    frequency:   39.5181263384

- q-position: [    0.1161616,    0.0000000,    0.0000000 ]
  distance:    0.0396007
  band:
  - # 1
    frequency:   -4.8723221195
  - # 2
    frequency:   -4.0809839911
  - # 3
    frequency:    0.8155271072
  - # 4
    frequency:    1.6665394979
  - # 5
    frequency:    2.7168967611
  - # 6
    frequency:    4.1422202145
  - # 7
    frequency:    4.5433099804
  - # 8
    frequency:    6.2517989899
  - # 9
    frequency:    8.5781060164
  - # 10
    frequency:   10.6610591588
  - # 11
    frequency:   10.8709586961
  - # 12
    frequency:   14.4619238905
  - # 13
    frequency:   14.8766404598
  - # 14
    frequency:   15.9561983608
  - # 15
    frequency:   26.5471108700
  - # 16
    frequency:   27.0395441212
  - # 17
    frequency:   27.2609282568
  - # 18
    frequency:   39.4934434354

- q-position: [    0.1212121,    0.0000000,    0.0000000 ]
  distance:    0.0413224
  band:
  - # 1
    frequency:   -4.8748842928
  - # 2
    frequency:   -4.0152765872
  - # 3
    frequency:    0.8761104283
  - # 4
    frequency:    1.7344125841
  - # 5
    frequency:    2.8226568395
  - # 6
    frequency:    4.1605566380
  - # 7
    frequency:    4.5870034762
  - # 8
    frequency:    6.2558602541
  - # 9
    frequency:    8.5541044699
  - # 10
    frequency:   10.6658641430
  - # 11
    frequency:   10.8860934060
  - # 12
    frequency:   14.4541898718
  - # 13
    frequency:   14.9047260012
  - # 14
    frequency:   15.9492368064
  - # 15
    frequency:   26.5270610409
  - # 16
    frequency:   27.0420521518
  - # 17
    frequency:   27.2821215145
  - # 18
    frequency:   39.4679542900

- q-position: [    0.1262626,    0.0000000,    0.0000000 ]
  distance:    0.0430442
  band:
  - # 1
    frequency:   -4.8776886120
  - # 2
    frequency:   -3.9470270695
  - # 3
    frequency:    0.9377552523
  - # 4
    frequency:    1.8017134511
  - # 5
    frequency:    2.9264687815
  - # 6
    frequency:    4.1794068228
  - # 7
    frequency:    4.6310904205
  - # 8
    frequency:    6.2602636529
  - # 9
    frequency:    8.5307859205
  - # 10
    frequency:   10.6706652411
  - # 11
    frequency:   10.9011158078
  - # 12
    frequency:   14.4466374217
  - # 13
    frequency:   14.9339205283
  - # 14
    frequency:   15.9421934395
  - # 15
    frequency:   26.5063906209
  - # 16
    frequency:   27.0443129223
  - # 17
    frequency:   27.3037374653
  - # 18
    frequency:   39.4416936346

- q-position: [    0.1313131,    0.0000000,    0.0000000 ]
  distance:    0.0447660
  band:
  - # 1
    frequency:   -4.8807397111
  - # 2
    frequency:   -3.8762009132
  - # 3
    frequency:    1.0003615334
  - # 4
    frequency:    1.8684214527
  - # 5
    frequency:    3.0282034584
  - # 6
    frequency:    4.1987384613
  - # 7
    frequency:    4.6754840885
  - # 8
    frequency:    6.2650282725
  - # 9
    frequency:    8.5082496053
  - # 10
    frequency:   10.6754504754
  - # 11
    frequency:   10.9160734965
  - # 12
    frequency:   14.4393060226
  - # 13
    frequency:   14.9641059768
  - # 14
    frequency:   15.9351365954
  - # 15
    frequency:   26.4851265566
  - # 16
    frequency:   27.0462940761
  - # 17
    frequency:   27.3257339976
  - # 18
    frequency:   39.4146970374

- q-position: [    0.1363636,    0.0000000,    0.0000000 ]
  distance:    0.0464877
  band:
  - # 1
    frequency:   -4.8840407918
  - # 2
    frequency:   -3.8027508757
  - # 3
    frequency:    1.0638339656
  - # 4
    frequency:    1.9345164033
  - # 5
    frequency:    3.1277336584
  - # 6
    frequency:    4.2185185157
  - # 7
    frequency:    4.7201036647
  - # 8
    frequency:    6.2701726165
  - # 9
    frequency:    8.4865873522
  - # 10
    frequency:   10.6802095855
  - # 11
    frequency:   10.9310262522
  - # 12
    frequency:   14.4322326600
  - # 13
    frequency:   14.9951430802
  - # 14
    frequency:   15.9281477189
  - # 15
    frequency:   26.4632966667
  - # 16
    frequency:   27.0479640356
  - # 17
    frequency:   27.3480697927
  - # 18
    frequency:   39.3870008318

- q-position: [    0.1414141,    0.0000000,    0.0000000 ]
  distance:    0.0482095
  band:
  - # 1
    frequency:   -4.8875936084
  - # 2
    frequency:   -3.7266159250
  - # 3
    frequency:    1.1280819505
  - # 4
    frequency:    1.9999785944
  - # 5
    frequency:    3.2249354669
  - # 6
    frequency:    4.2387133480
  - # 7
    frequency:    4.7648740839
  - # 8
    frequency:    6.2757142123
  - # 9
    frequency:    8.4658831142
  - # 10
    frequency:   10.6849341242
  - # 11
    frequency:   10.9460450036
  - # 12
    frequency:   14.4254515585
  - # 13
    frequency:   15.0268697003
  - # 14
    frequency:   15.9213236971
  - # 15
    frequency:   26.4409295980
  - # 16
    frequency:   27.0492921738
  - # 17
    frequency:   27.3707044435
  - # 18
    frequency:   39.3586420465

- q-position: [    0.1464646,    0.0000000,    0.0000000 ]
  distance:    0.0499313
  band:
  - # 1
    frequency:   -4.8913984721
  - # 2
    frequency:   -3.6477200172
  - # 3
    frequency:    1.1930195689
  - # 4
    frequency:    2.0647888092
  - # 5
    frequency:    3.3196897177
  - # 6
    frequency:    4.2592888543
  - # 7
    frequency:    4.8097258372
  - # 8
    frequency:    6.2816691793
  - # 9
    frequency:    8.4462124567
  - # 10
    frequency:   10.6896175316
  - # 11
    frequency:   10.9612107051
  - # 12
    frequency:   14.4189939456
  - # 13
    frequency:   15.0590988050
  - # 14
    frequency:   15.9147796415
  - # 15
    frequency:   26.4180547780
  - # 16
    frequency:   27.0502489782
  - # 17
    frequency:   27.3935985570
  - # 18
    frequency:   39.3296583333

- q-position: [    0.1515152,    0.0000000,    0.0000000 ]
  distance:    0.0516531
  band:
  - # 1
    frequency:   -4.8954542735
  - # 2
    frequency:   -3.5659706503
  - # 3
    frequency:    1.2585655624
  - # 4
    frequency:    2.1289283345
  - # 5
    frequency:    3.4118834970
  - # 6
    frequency:    4.2802106023
  - # 7
    frequency:    4.8545947444
  - # 8
    frequency:    6.2880517696
  - # 9
    frequency:    8.4276420118
  - # 10
    frequency:   10.6942551856
  - # 11
    frequency:   10.9766131408
  - # 12
    frequency:   14.4128878471
  - # 13
    frequency:   15.0916160691
  - # 14
    frequency:   15.9086521266
  - # 15
    frequency:   26.3947023647
  - # 16
    frequency:   27.0508062090
  - # 17
    frequency:   27.4167138389
  - # 18
    frequency:   39.3000878949

- q-position: [    0.1565657,    0.0000000,    0.0000000 ]
  distance:    0.0533748
  band:
  - # 1
    frequency:   -4.8997585219
  - # 2
    frequency:   -3.4812570989
  - # 3
    frequency:    1.3246433279
  - # 4
    frequency:    2.1923789706
  - # 5
    frequency:    3.5014116816
  - # 6
    frequency:    4.3014439694
  - # 7
    frequency:    4.8994216920
  - # 8
    frequency:    6.2948738915
  - # 9
    frequency:    8.4102289197
  - # 10
    frequency:   10.6988444285
  - # 11
    frequency:   10.9923496658
  - # 12
    frequency:   14.4071579150
  - # 13
    frequency:   15.1241771524
  - # 14
    frequency:   15.9031028014
  - # 15
    frequency:   26.3709031927
  - # 16
    frequency:   27.0509370496
  - # 17
    frequency:   27.4400131627
  - # 18
    frequency:   39.2699694129

- q-position: [    0.1616162,    0.0000000,    0.0000000 ]
  distance:    0.0550966
  band:
  - # 1
    frequency:   -4.9043073999
  - # 2
    frequency:   -3.3934482022
  - # 3
    frequency:    1.3911809255
  - # 4
    frequency:    2.2551230398
  - # 5
    frequency:    3.5881784844
  - # 6
    frequency:    4.3229542810
  - # 7
    frequency:    4.9441523378
  - # 8
    frequency:    6.3021446325
  - # 9
    frequency:    8.3940202809
  - # 10
    frequency:   10.7033845680
  - # 11
    frequency:   11.0085238926
  - # 12
    frequency:   14.4018252895
  - # 13
    frequency:   15.1565048837
  - # 14
    frequency:   15.8983221299
  - # 15
    frequency:   26.3466887163
  - # 16
    frequency:   27.0506162480
  - # 17
    frequency:   27.4634606224
  - # 18
    frequency:   39.2393419749

- q-position: [    0.1666667,    0.0000000,    0.0000000 ]
  distance:    0.0568184
  band:
  - # 1
    frequency:   -4.9090958331
  - # 2
    frequency:   -3.3023895390
  - # 3
    frequency:    1.4581111013
  - # 4
    frequency:    2.3171433930
  - # 5
    frequency:    3.6720989768
  - # 6
    frequency:    4.3447069452
  - # 7
    frequency:    4.9887367792
  - # 8
    frequency:    6.3098698000
  - # 9
    frequency:    8.3790526438
  - # 10
    frequency:   10.7078768552
  - # 11
    frequency:   11.0252443314
  - # 12
    frequency:   14.3969074971
  - # 13
    frequency:   15.1882868592
  - # 14
    frequency:   15.8945327279
  - # 15
    frequency:   26.3220909500
  - # 16
    frequency:   27.0498202496
  - # 17
    frequency:   27.4870215698
  - # 18
    frequency:   39.2082450016

- q-position: [    0.1717172,    0.0000000,    0.0000000 ]
  distance:    0.0585401
  band:
  - # 1
    frequency:   -4.9141175704
  - # 2
    frequency:   -3.2078997581
  - # 3
    frequency:    1.5253713220
  - # 4
    frequency:    2.3784234144
  - # 5
    frequency:    3.7531005488
  - # 6
    frequency:    4.3666675846
  - # 7
    frequency:    5.0331291875
  - # 8
    frequency:    6.3180515025
  - # 9
    frequency:    8.3653515588
  - # 10
    frequency:   10.7123244371
  - # 11
    frequency:   11.0426229894
  - # 12
    frequency:   14.3924183838
  - # 13
    frequency:   15.2191744140
  - # 14
    frequency:   15.8919913220
  - # 15
    frequency:   26.2971424050
  - # 16
    frequency:   27.0485273209
  - # 17
    frequency:   27.5106626381
  - # 18
    frequency:   39.1767181746

- q-position: [    0.1767677,    0.0000000,    0.0000000 ]
  distance:    0.0602619
  band:
  - # 1
    frequency:   -4.9193652765
  - # 2
    frequency:   -3.1097657505
  - # 3
    frequency:    1.5929038199
  - # 4
    frequency:    2.4389470268
  - # 5
    frequency:    3.8311242651
  - # 6
    frequency:    4.3888021625
  - # 7
    frequency:    5.0772874077
  - # 8
    frequency:    6.3266877923
  - # 9
    frequency:    8.3529312305
  - # 10
    frequency:   10.7167322866
  - # 11
    frequency:   11.0607739354
  - # 12
    frequency:   14.3883680851
  - # 13
    frequency:   15.2487845240
  - # 14