nqpoint: 300    
npath: 3      
segment_nqpoint:
- 100
- 100
- 100
labels:
- [ 'G', 'M' ]
- [ 'M', 'K' ]
- [ 'K', 'G' ]
reciprocal_lattice:
- [   0.30728370,   0.17741033,   0.00000000 ] # a*
- [   0.00000000,   0.35482065,   0.00000000 ] # b*
- [   0.00000000,   0.00000000,   0.03896244 ] # c*
natom: 7      
lattice:
- [     3.254321654221905,     0.000000000000000,     0.000000000000000 ] # a
- [    -1.627160827110952,     2.818325224641300,     0.000000000000000 ] # b
- [     0.000000000000000,     0.000000000000000,    25.665741583424321 ] # c
points:
- symbol: Br # 1
  coordinates: [  0.333332985432215,  0.666666983183674,  0.649338010719610 ]
  mass: 79.904000
- symbol: C # 2
  coordinates: [  0.666666984744047,  0.333332985985145,  0.396953034832394 ]
  mass: 12.010700
- symbol: N # 3
  coordinates: [  0.000000000000000,  0.000000000000000,  0.537197809559263 ]
  mass: 14.006700
- symbol: N # 4
  coordinates: [  0.666666984744047,  0.333332985985145,  0.350661989280390 ]
  mass: 14.006700
- symbol: O # 5
  coordinates: [  0.666666984744047,  0.333332985985145,  0.448960677003008 ]
  mass: 15.999400
- symbol: Ti # 6
  coordinates: [  0.333332985432215,  0.666666983183674,  0.498168308890197 ]
  mass: 47.867000
- symbol: Ti # 7
  coordinates: [  0.666666984744047,  0.333332985985145,  0.577227497803625 ]
  mass: 47.867000

phonon:
- q-position: [    0.0000000,    0.0000000,    0.0000000 ]
  distance:    0.0000000
  band:
  - # 1
    frequency:   -0.0000055729
  - # 2
    frequency:    0.0000004663
  - # 3
    frequency:    0.0000044274
  - # 4
    frequency:    0.5565279426
  - # 5
    frequency:    0.5565279426
  - # 6
    frequency:    3.4705780644
  - # 7
    frequency:    3.4705780644
  - # 8
    frequency:    5.0523628626
  - # 9
    frequency:    6.4299999876
  - # 10
    frequency:    6.4299999876
  - # 11
    frequency:    7.8080159518
  - # 12
    frequency:    7.8080159518
  - # 13
    frequency:    8.7214946029
  - # 14
    frequency:   12.1974798086
  - # 15
    frequency:   14.1797506739
  - # 16
    frequency:   14.1797506739
  - # 17
    frequency:   15.2764781999
  - # 18
    frequency:   16.9256903706
  - # 19
    frequency:   16.9256903706
  - # 20
    frequency:   31.9471740742
  - # 21
    frequency:   67.7326131682

- q-position: [    0.0050505,    0.0000000,    0.0000000 ]
  distance:    0.0017920
  band:
  - # 1
    frequency:    0.0024000930
  - # 2
    frequency:    0.0723951081
  - # 3
    frequency:    0.1181707954
  - # 4
    frequency:    0.5581663143
  - # 5
    frequency:    0.5637285219
  - # 6
    frequency:    3.4710919477
  - # 7
    frequency:    3.4722636076
  - # 8
    frequency:    5.0518719291
  - # 9
    frequency:    6.4299941595
  - # 10
    frequency:    6.4309060215
  - # 11
    frequency:    7.8076669749
  - # 12
    frequency:    7.8081121876
  - # 13
    frequency:    8.7214784204
  - # 14
    frequency:   12.1961921315
  - # 15
    frequency:   14.1797697570
  - # 16
    frequency:   14.1799742697
  - # 17
    frequency:   15.2762863704
  - # 18
    frequency:   16.9255484883
  - # 19
    frequency:   16.9257820106
  - # 20
    frequency:   31.9467822129
  - # 21
    frequency:   67.7324093702

- q-position: [    0.0101010,    0.0000000,    0.0000000 ]
  distance:    0.0035840
  band:
  - # 1
    frequency:    0.0094890213
  - # 2
    frequency:    0.1445619668
  - # 3
    frequency:    0.2356788836
  - # 4
    frequency:    0.5630945411
  - # 5
    frequency:    0.5850039136
  - # 6
    frequency:    3.4726324908
  - # 7
    frequency:    3.4773064947
  - # 8
    frequency:    5.0504066186
  - # 9
    frequency:    6.4299766798
  - # 10
    frequency:    6.4336158462
  - # 11
    frequency:    7.8066204218
  - # 12
    frequency:    7.8083994878
  - # 13
    frequency:    8.7214310374
  - # 14
    frequency:   12.1923323960
  - # 15
    frequency:   14.1798271321
  - # 16
    frequency:   14.1806443497
  - # 17
    frequency:   15.2757106577
  - # 18
    frequency:   16.9251233412
  - # 19
    frequency:   16.9260566158
  - # 20
    frequency:   31.9456075789
  - # 21
    frequency:   67.7317983878

- q-position: [    0.0151515,    0.0000000,    0.0000000 ]
  distance:    0.0053761
  band:
  - # 1
    frequency:    0.0209883576
  - # 2
    frequency:    0.2162326052
  - # 3
    frequency:    0.3516123745
  - # 4
    frequency:    0.5713654965
  - # 5
    frequency:    0.6196339401
  - # 6
    frequency:    3.4751963775
  - # 7
    frequency:    3.4856658973
  - # 8
    frequency:    5.0479891665
  - # 9
    frequency:    6.4299475638
  - # 10
    frequency:    6.4381048944
  - # 11
    frequency:    7.8048774305
  - # 12
    frequency:    7.8088736293
  - # 13
    frequency:    8.7213559390
  - # 14
    frequency:   12.1859104713
  - # 15
    frequency:   14.1799231754
  - # 16
    frequency:   14.1817588010
  - # 17
    frequency:   15.2747504049
  - # 18
    frequency:   16.9244164179
  - # 19
    frequency:   16.9265132406
  - # 20
    frequency:   31.9436530190
  - # 21
    frequency:   67.7307814548

- q-position: [    0.0202020,    0.0000000,    0.0000000 ]
  distance:    0.0071681
  band:
  - # 1
    frequency:    0.0365720947
  - # 2
    frequency:    0.2870414539
  - # 3
    frequency:    0.4643943689
  - # 4
    frequency:    0.5831187005
  - # 5
    frequency:    0.6672237896
  - # 6
    frequency:    3.4787780911
  - # 7
    frequency:    3.4972750681
  - # 8
    frequency:    5.0446558721
  - # 9
    frequency:    6.4299068376
  - # 10
    frequency:    6.4443330795
  - # 11
    frequency:    7.8024399144
  - # 12
    frequency:    7.8095275692
  - # 13
    frequency:    8.7212589102
  - # 14
    frequency:   12.1769427419
  - # 15
    frequency:   14.1800585087
  - # 16
    frequency:   14.1833141344
  - # 17
    frequency:   15.2734045678
  - # 18
    frequency:   16.9234301661
  - # 19
    frequency:   16.9271503047
  - # 20
    frequency:   31.9409232665
  - # 21
    frequency:   67.7293606231

- q-position: [    0.0252525,    0.0000000,    0.0000000 ]
  distance:    0.0089601
  band:
  - # 1
    frequency:    0.0559536669
  - # 2
    frequency:    0.3564200492
  - # 3
    frequency:    0.5711012990
  - # 4
    frequency:    0.5986834017
  - # 5
    frequency:    0.7287166511
  - # 6
    frequency:    3.4833699300
  - # 7
    frequency:    3.5120431874
  - # 8
    frequency:    5.0404560276
  - # 9
    frequency:    6.4298545404
  - # 10
    frequency:    6.4522460149
  - # 11
    frequency:    7.7993105881
  - # 12
    frequency:    7.8103514409
  - # 13
    frequency:    8.7211479967
  - # 14
    frequency:   12.1654520146
  - # 15
    frequency:   14.1802339924
  - # 16
    frequency:   14.1853055311
  - # 17
    frequency:   15.2716717906
  - # 18
    frequency:   16.9221679423
  - # 19
    frequency:   16.9279655860
  - # 20
    frequency:   31.9374249257
  - # 21
    frequency:   67.7275387565

- q-position: [    0.0303030,    0.0000000,    0.0000000 ]
  distance:    0.0107521
  band:
  - # 1
    frequency:    0.0789111141
  - # 2
    frequency:    0.4233921026
  - # 3
    frequency:    0.6187861626
  - # 4
    frequency:    0.6675657401
  - # 5
    frequency:    0.8065019577
  - # 6
    frequency:    3.4889620298
  - # 7
    frequency:    3.5298577584
  - # 8
    frequency:    5.0354505431
  - # 9
    frequency:    6.4297907265
  - # 10
    frequency:    6.4617765948
  - # 11
    frequency:    7.7954930015
  - # 12
    frequency:    7.8113325537
  - # 13
    frequency:    8.7210334492
  - # 14
    frequency:   12.1514673920
  - # 15
    frequency:   14.1804507150
  - # 16
    frequency:   14.1877269051
  - # 17
    frequency:   15.2695505077
  - # 18
    frequency:   16.9206339442
  - # 19
    frequency:   16.9289562123
  - # 20
    frequency:   31.9331664489
  - # 21
    frequency:   67.7253195215

- q-position: [    0.0353535,    0.0000000,    0.0000000 ]
  distance:    0.0125442
  band:
  - # 1
    frequency:    0.1052734985
  - # 2
    frequency:    0.4862239771
  - # 3
    frequency:    0.6449053313
  - # 4
    frequency:    0.7523119753
  - # 5
    frequency:    0.9005604833
  - # 6
    frequency:    3.4955423902
  - # 7
    frequency:    3.5505873855
  - # 8
    frequency:    5.0297103763
  - # 9
    frequency:    6.4297154686
  - # 10
    frequency:    6.4728468304
  - # 11
    frequency:    7.7909915832
  - # 12
    frequency:    7.8124554005
  - # 13
    frequency:    8.7209276455
  - # 14
    frequency:   12.1350241164
  - # 15
    frequency:   14.1807099803
  - # 16
    frequency:   14.1905709781
  - # 17
    frequency:   15.2670390717
  - # 18
    frequency:   16.9188331255
  - # 19
    frequency:   16.9301186498
  - # 20
    frequency:   31.9281581075
  - # 21
    frequency:   67.7227073767

- q-position: [    0.0404040,    0.0000000,    0.0000000 ]
  distance:    0.0143362
  band:
  - # 1
    frequency:    0.1348979618
  - # 2
    frequency:    0.5422206176
  - # 3
    frequency:    0.6794806541
  - # 4
    frequency:    0.8293488244
  - # 5
    frequency:    1.0056695738
  - # 6
    frequency:    3.5030969083
  - # 7
    frequency:    3.5740847637
  - # 8
    frequency:    5.0233148751
  - # 9
    frequency:    6.4296288610
  - # 10
    frequency:    6.4853698282
  - # 11
    frequency:    7.7858116916
  - # 12
    frequency:    7.8137016795
  - # 13
    frequency:    8.7208449876
  - # 14
    frequency:   12.1161633888
  - # 15
    frequency:   14.1810132918
  - # 16
    frequency:   14.1938293633
  - # 17
    frequency:   15.2641359025
  - # 18
    frequency:   16.9167710961
  - # 19
    frequency:   16.9314486897
  - # 20
    frequency:   31.9224119569
  - # 21
    frequency:   67.7197075580

- q-position: [    0.0454545,    0.0000000,    0.0000000 ]
  distance:    0.0161282
  band:
  - # 1
    frequency:    0.1676518924
  - # 2
    frequency:    0.5890086146
  - # 3
    frequency:    0.7246353146
  - # 4
    frequency:    0.9032574040
  - # 5
    frequency:    1.1162770694
  - # 6
    frequency:    3.5116094168
  - # 7
    frequency:    3.6001897092
  - # 8
    frequency:    5.0163501417
  - # 9
    frequency:    6.4295310239
  - # 10
    frequency:    6.4992518051
  - # 11
    frequency:    7.7799596727
  - # 12
    frequency:    7.8150503381
  - # 13
    frequency:    8.7208017707
  - # 14
    frequency:   12.0949321676
  - # 15
    frequency:   14.1813623344
  - # 16
    frequency:   14.1974926563
  - # 17
    frequency:   15.2608396550
  - # 18
    frequency:   16.9144540096
  - # 19
    frequency:   16.9329414338
  - # 20
    frequency:   31.9159417957
  - # 21
    frequency:   67.7163260635

- q-position: [    0.0505051,    0.0000000,    0.0000000 ]
  distance:    0.0179202
  band:
  - # 1
    frequency:    0.2034028979
  - # 2
    frequency:    0.6272672229
  - # 3
    frequency:    0.7794490451
  - # 4
    frequency:    0.9764068377
  - # 5
    frequency:    1.2292385567
  - # 6
    frequency:    3.5210617272
  - # 7
    frequency:    3.6287320802
  - # 8
    frequency:    5.0089075097
  - # 9
    frequency:    6.4294221078
  - # 10
    frequency:    6.5143940478
  - # 11
    frequency:    7.7734429237
  - # 12
    frequency:    7.8164776452
  - # 13
    frequency:    8.7208160167
  - # 14
    frequency:   12.0713829522
  - # 15
    frequency:   14.1817589546
  - # 16
    frequency:   14.2015505270
  - # 17
    frequency:   15.2571494009
  - # 18
    frequency:   16.9118884406
  - # 19
    frequency:   16.9345912785
  - # 20
    frequency:   31.9087631184
  - # 21
    frequency:   67.7125696342

- q-position: [    0.0555556,    0.0000000,    0.0000000 ]
  distance:    0.0197123
  band:
  - # 1
    frequency:    0.2420147259
  - # 2
    frequency:    0.6601701551
  - # 3
    frequency:    0.8405193220
  - # 4
    frequency:    1.0497068164
  - # 5
    frequency:    1.3430215081
  - # 6
    frequency:    3.5314336786
  - # 7
    frequency:    3.6595344681
  - # 8
    frequency:    5.0010822065
  - # 9
    frequency:    6.4293022990
  - # 10
    frequency:    6.5306947431
  - # 11
    frequency:    7.7662699604
  - # 12
    frequency:    7.8179573011
  - # 13
    frequency:    8.7209072711
  - # 14
    frequency:   12.0455735545
  - # 15
    frequency:   14.1822051372
  - # 16
    frequency:   14.2059918114
  - # 17
    frequency:   15.2530648207
  - # 18
    frequency:   16.9090812549
  - # 19
    frequency:   16.9363918976
  - # 20
    frequency:   31.9008930632
  - # 21
    frequency:   67.7084457336

- q-position: [    0.0606061,    0.0000000,    0.0000000 ]
  distance:    0.0215043
  band:
  - # 1
    frequency:    0.2833466821
  - # 2
    frequency:    0.6904930016
  - # 3
    frequency:    0.9048558440
  - # 4
    frequency:    1.1234366858
  - # 5
    frequency:    1.4568405995
  - # 6
    frequency:    3.5427031903
  - # 7
    frequency:    3.6924145674
  - # 8
    frequency:    4.9929722550
  - # 9
    frequency:    6.4291718247
  - # 10
    frequency:    6.5480506296
  - # 11
    frequency:    7.7584504873
  - # 12
    frequency:    7.8194605936
  - # 13
    frequency:    8.7210963552
  - # 14
    frequency:   12.0175668651
  - # 15
    frequency:   14.1827029817
  - # 16
    frequency:   14.2108045997
  - # 17
    frequency:   15.2485864013
  - # 18
    frequency:   16.9060394753
  - # 19
    frequency:   16.9383362251
  - # 20
    frequency:   31.8923503536
  - # 21
    frequency:   67.7039625251

- q-position: [    0.0656566,    0.0000000,    0.0000000 ]
  distance:    0.0232963
  band:
  - # 1
    frequency:    0.3272547481
  - # 2
    frequency:    0.7197977146
  - # 3
    frequency:    0.9706970314
  - # 4
    frequency:    1.1976271256
  - # 5
    frequency:    1.5702483021
  - # 6
    frequency:    3.5548463211
  - # 7
    frequency:    3.7271871664
  - # 8
    frequency:    4.9846776474
  - # 9
    frequency:    6.4290309589
  - # 10
    frequency:    6.5663584383
  - # 11
    frequency:    7.7499954688
  - # 12
    frequency:    7.8209566078
  - # 13
    frequency:    8.7214050729
  - # 14
    frequency:   11.9874306149
  - # 15
    frequency:   14.1832546760
  - # 16
    frequency:   14.2159763180
  - # 17
    frequency:   15.2437156348
  - # 18
    frequency:   16.9027701463
  - # 19
    frequency:   16.9404164383
  - # 20
    frequency:   31.8831552358
  - # 21
    frequency:   67.6991288467

- q-position: [    0.0707071,    0.0000000,    0.0000000 ]
  distance:    0.0250883
  band:
  - # 1
    frequency:    0.3735933195
  - # 2
    frequency:    0.7488481572
  - # 3
    frequency:    1.0370947523
  - # 4
    frequency:    1.2722145063
  - # 5
    frequency:    1.6829594830
  - # 6
    frequency:    3.5678373323
  - # 7
    frequency:    3.7636657303
  - # 8
    frequency:    4.9762998077
  - # 9
    frequency:    6.4288800293
  - # 10
    frequency:    6.5855161105
  - # 11
    frequency:    7.7409171990
  - # 12
    frequency:    7.8224124961
  - # 13
    frequency:    8.7218558661
  - # 14
    frequency:   11.9552371369
  - # 15
    frequency:   14.1838624690
  - # 16
    frequency:   14.2214938028
  - # 17
    frequency:   15.2384552138
  - # 18
    frequency:   16.8992802009
  - # 19
    frequency:   16.9426239410
  - # 20
    frequency:   31.8733294102
  - # 21
    frequency:   67.6939541846

- q-position: [    0.0757576,    0.0000000,    0.0000000 ]
  distance:    0.0268804
  band:
  - # 1
    frequency:    0.4222169977
  - # 2
    frequency:    0.7780023120
  - # 3
    frequency:    1.1035218891
  - # 4
    frequency:    1.3471032275
  - # 5
    frequency:    1.7947732715
  - # 6
    frequency:    3.5816487582
  - # 7
    frequency:    3.8016635677
  - # 8
    frequency:    4.9679413501
  - # 9
    frequency:    6.4287194237
  - # 10
    frequency:    6.6054237940
  - # 11
    frequency:    7.7312293702
  - # 12
    frequency:    7.8237938153
  - # 13
    frequency:    8.7224714199
  - # 14
    frequency:   11.9210631299
  - # 15
    frequency:   14.1845286422
  - # 16
    frequency:   14.2273433655
  - # 17
    frequency:   15.2328092195
  - # 18
    frequency:   16.8955763327
  - # 19
    frequency:   16.9449493484
  - # 20
    frequency:   31.8628959588
  - # 21
    frequency:   67.6884486439

- q-position: [    0.0808081,    0.0000000,    0.0000000 ]
  distance:    0.0286724
  band:
  - # 1
    frequency:    0.4729821715
  - # 2
    frequency:    0.8074197725
  - # 3
    frequency:    1.1696642955
  - # 4
    frequency:    1.4221911469
  - # 5
    frequency:    1.9055357981
  - # 6
    frequency:    3.5962514819
  - # 7
    frequency:    3.8409945906
  - # 8
    frequency:    4.9597061300
  - # 9
    frequency:    6.4285495971
  - # 10
    frequency:    6.6259846264
  - # 11
    frequency:    7.7209471346
  - # 12
    frequency:    7.8250649322
  - # 13
    frequency:    8.7232742164
  - # 14
    frequency:   11.8849894258
  - # 15
    frequency:   14.1852554807
  - # 16
    frequency:   14.2335108478
  - # 17
    frequency:   15.2267832988
  - # 18
    frequency:   16.8916648764
  - # 19
    frequency:   16.9473824730
  - # 20
    frequency:   31.8518792687
  - # 21
    frequency:   67.6826229188

- q-position: [    0.0858586,    0.0000000,    0.0000000 ]
  distance:    0.0304644
  band:
  - # 1
    frequency:    0.5257482893
  - # 2
    frequency:    0.8371614834
  - # 3
    frequency:    1.2353203152
  - # 4
    frequency:    1.4973797340
  - # 5
    frequency:    2.0151211412
  - # 6
    frequency:    3.6116148192
  - # 7
    frequency:    3.8814736896
  - # 8
    frequency:    4.9516995815
  - # 9
    frequency:    6.4283710801
  - # 10
    frequency:    6.6471053253
  - # 11
    frequency:    7.7100871610
  - # 12
    frequency:    7.8261894993
  - # 13
    frequency:    8.7242860414
  - # 14
    frequency:   11.8471007600
  - # 15
    frequency:   14.1860452432
  - # 16
    frequency:   14.2399816663
  - # 17
    frequency:   15.2203848254
  - # 18
    frequency:   16.8875516994
  - # 19
    frequency:   16.9499123139
  - # 20
    frequency:   31.8403049504
  - # 21
    frequency:   67.6764882600

- q-position: [    0.0909091,    0.0000000,    0.0000000 ]
  distance:    0.0322564
  band:
  - # 1
    frequency:    0.5803788115
  - # 2
    frequency:    0.8672382077
  - # 3
    frequency:    1.3003514834
  - # 4
    frequency:    1.5725777239
  - # 5
    frequency:    2.1234209202
  - # 6
    frequency:    3.6277066110
  - # 7
    frequency:    3.9229167493
  - # 8
    frequency:    4.9440293355
  - # 9
    frequency:    6.4281844866
  - # 10
    frequency:    6.6686966034
  - # 11
    frequency:    7.6986676820
  - # 12
    frequency:    7.8271309967
  - # 13
    frequency:    8.7255274492
  - # 14
    frequency:   11.8074855482
  - # 15
    frequency:   14.1869001323
  - # 16
    frequency:   14.2467408476
  - # 17
    frequency:   15.2136230442
  - # 18
    frequency:   16.8832421070
  - # 19
    frequency:   16.9525270483
  - # 20
    frequency:   31.8281997536
  - # 21
    frequency:   67.6700564416

- q-position: [    0.0959596,    0.0000000,    0.0000000 ]
  distance:    0.0340484
  band:
  - # 1
    frequency:    0.6367418655
  - # 2
    frequency:    0.8976349545
  - # 3
    frequency:    1.3646572474
  - # 4
    frequency:    1.6477019818
  - # 5
    frequency:    2.2303382398
  - # 6
    frequency:    3.6444933249
  - # 7
    frequency:    3.9651403364
  - # 8
    frequency:    4.9368061094
  - # 9
    frequency:    6.4279905228
  - # 10
    frequency:    6.6906734297
  - # 11
    frequency:    7.6867085307
  - # 12
    frequency:    7.8278533329
  - # 13
    frequency:    8.7270171957
  - # 14
    frequency:   11.7662356660
  - # 15
    frequency:   14.1878222647
  - # 16
    frequency:   14.2537730533
  - # 17
    frequency:   15.2065091937
  - # 18
    frequency:   16.8787407643
  - # 19
    frequency:   16.9552140263
  - # 20
    frequency:   31.8155914793
  - # 21
    frequency:   67.6633397259

- q-position: [    0.1010101,    0.0000000,    0.0000000 ]
  distance:    0.0358405
  band:
  - # 1
    frequency:    0.6947106475
  - # 2
    frequency:    0.9283237596
  - # 3
    frequency:    1.4281613553
  - # 4
    frequency:    1.7226772043
  - # 5
    frequency:    2.3357839286
  - # 6
    frequency:    3.6619401688
  - # 7
    frequency:    4.0079610929
  - # 8
    frequency:    4.9301448617
  - # 9
    frequency:    6.4277899974
  - # 10
    frequency:    6.7129551591
  - # 11
    frequency:    7.6742311641
  - # 12
    frequency:    7.8283214946
  - # 13
    frequency:    8.7287716517
  - # 14
    frequency:   11.7234462335
  - # 15
    frequency:   14.1888136419
  - # 16
    frequency:   14.2610625955
  - # 17
    frequency:   15.1990566071
  - # 18
    frequency:   16.8740516350
  - # 19
    frequency:   16.9579597709
  - # 20
    frequency:   31.8025088884
  - # 21
    frequency:   67.6563508272

- q-position: [    0.1060606,    0.0000000,    0.0000000 ]
  distance:    0.0376325
  band:
  - # 1
    frequency:    0.7541636158
  - # 2
    frequency:    0.9592705758
  - # 3
    frequency:    1.4908041823
  - # 4
    frequency:    1.7974351836
  - # 5
    frequency:    2.4396740289
  - # 6
    frequency:    3.6800112156
  - # 7
    frequency:    4.0511948756
  - # 8
    frequency:    4.9241661951
  - # 9
    frequency:    6.4275838310
  - # 10
    frequency:    6.7354655481
  - # 11
    frequency:    7.6612586723
  - # 12
    frequency:    7.8285022286
  - # 13
    frequency:    8.7308042132
  - # 14
    frequency:   11.6792154029
  - # 15
    frequency:   14.1898761222
  - # 16
    frequency:   14.2685934447
  - # 17
    frequency:   15.1912807887
  - # 18
    frequency:   16.8691779409
  - # 19
    frequency:   16.9607499810
  - # 20
    frequency:   31.7889816085
  - # 21
    frequency:   67.6491028750

- q-position: [    0.1111111,    0.0000000,    0.0000000 ]
  distance:    0.0394245
  band:
  - # 1
    frequency:    0.8149845164
  - # 2
    frequency:    0.9904390565
  - # 3
    frequency:    1.5525382224
  - # 4
    frequency:    1.8719139579
  - # 5
    frequency:    2.5419279771
  - # 6
    frequency:    3.6986695426
  - # 7
    frequency:    4.0946556963
  - # 8
    frequency:    4.9189979827
  - # 9
    frequency:    6.4273730683
  - # 10
    frequency:    6.7581326749
  - # 11
    frequency:    7.6478157709
  - # 12
    frequency:    7.8283647390
  - # 13
    frequency:    8.7331247256
  - # 14
    frequency:   11.6336441474
  - # 15
    frequency:   14.1910113923
  - # 16
    frequency:   14.2763492297
  - # 17
    frequency:   15.1831994647
  - # 18
    frequency:   16.8641221401
  - # 19
    frequency:   16.9635695416
  - # 20
    frequency:   31.7750400376
  - # 21
    frequency:   67.6416093752

- q-position: [    0.1161616,    0.0000000,    0.0000000 ]
  distance:    0.0412165
  band:
  - # 1
    frequency:    0.8770622819
  - # 2
    frequency:    1.0217926432
  - # 3
    frequency:    1.6133253377
  - # 4
    frequency:    1.9460569888
  - # 5
    frequency:    2.6424671597
  - # 6
    frequency:    3.7178773855
  - # 7
    frequency:    4.1381545478
  - # 8
    frequency:    4.9147771567
  - # 9
    frequency:    6.4271588895
  - # 10
    frequency:    6.7808887795
  - # 11
    frequency:    7.6339287748
  - # 12
    frequency:    7.8278813776
  - # 13
    frequency:    8.7357389439
  - # 14
    frequency:   11.5868360522
  - # 15
    frequency:   14.1922209425
  - # 16
    frequency:   14.2843132300
  - # 17
    frequency:   15.1748326102
  - # 18
    frequency:   16.8588859271
  - # 19
    frequency:   16.9664025377
  - # 20
    frequency:   31.7607152467
  - # 21
    frequency:   67.6338841718

- q-position: [    0.1212121,    0.0000000,    0.0000000 ]
  distance:    0.0430086
  band:
  - # 1
    frequency:    0.9402908331
  - # 2
    frequency:    1.0532956990
  - # 3
    frequency:    1.6731350198
  - # 4
    frequency:    2.0198124194
  - # 5
    frequency:    2.7412136559
  - # 6
    frequency:    3.7375963083
  - # 7
    frequency:    4.1814982533
  - # 8
    frequency:    4.9116515480
  - # 9
    frequency:    6.4269426237
  - # 10
    frequency:    6.8036700379
  - # 11
    frequency:    7.6196255529
  - # 12
    frequency:    7.8270283049
  - # 13
    frequency:    8.7386480476
  - # 14
    frequency:   11.5388971047
  - # 15
    frequency:   14.1935060412
  - # 16
    frequency:   14.2924683640
  - # 17
    frequency:   15.1662024501
  - # 18
    frequency:   16.8534702527
  - # 19
    frequency:   16.9692322759
  - # 20
    frequency:   31.7460388804
  - # 21
    frequency:   67.6259414066

- q-position: [    0.1262626,    0.0000000,    0.0000000 ]
  distance:    0.0448006
  band:
  - # 1
    frequency:    1.0045688101
  - # 2
    frequency:    1.0849140966
  - # 3
    frequency:    1.7319432498
  - # 4
    frequency:    2.0931324294
  - # 5
    frequency:    2.8380890491
  - # 6
    frequency:    3.7577873899
  - # 7
    frequency:    4.2244885717
  - # 8
    frequency:    4.9097815690
  - # 9
    frequency:    6.4267257629
  - # 10
    frequency:    6.8264162829
  - # 11
    frequency:    7.6049354608
  - # 12
    frequency:    7.8257860994
  - # 13
    frequency:    8.7418482310
  - # 14
    frequency:   11.4899354824
  - # 15
    frequency:   14.1948677133
  - # 16
    frequency:   14.3007971701
  - # 17
    frequency:   15.1573334359
  - # 18
    frequency:   16.8478753643
  - # 19
    frequency:   16.9720413119
  - # 20
    frequency:   31.7310430562
  - # 21
    frequency:   67.6177954797

- q-position: [    0.1313131,    0.0000000,    0.0000000 ]
  distance:    0.0465926
  band:
  - # 1
    frequency:    1.0697992546
  - # 2
    frequency:    1.1166154884
  - # 3
    frequency:    1.7897317206
  - # 4
    frequency:    2.1659726843
  - # 5
    frequency:    2.9330132323
  - # 6
    frequency:    3.7784114284
  - # 7
    frequency:    4.2669219364
  - # 8
    frequency:    4.9093413819
  - # 9
    frequency:    6.4265099766
  - # 10
    frequency:    6.8490706829
  - # 11
    frequency:    7.5898892522
  - # 12
    frequency:    7.8241402932
  - # 13
    frequency:    8.7453303879
  - # 14
    frequency:   11.4400613391
  - # 15
    frequency:   14.1963067194
  - # 16
    frequency:   14.3092817852
  - # 17
    frequency:   15.1482521992
  - # 18
    frequency:   16.8421008646
  - # 19
    frequency:   16.9748114847
  - # 20
    frequency:   31.7157602633
  - # 21
    frequency:   67.6094610086

- q-position: [    0.1363636,    0.0000000,    0.0000000 ]
  distance:    0.0483846
  band:
  - # 1
    frequency:    1.1358892594
  - # 2
    frequency:    1.1483693937
  - # 3
    frequency:    1.8464872793
  - # 4
    frequency:    2.2382918690
  - # 5
    frequency:    3.0259031582
  - # 6
    frequency:    3.7994291613
  - # 7
    frequency:    4.3085904161
  - # 8
    frequency:    4.9105189806
  - # 9
    frequency:    6.4262971277
  - # 10
    frequency:    6.8715793886
  - # 11
    frequency:    7.5745189671
  - # 12
    frequency:    7.8220818170
  - # 13
    frequency:    8.7490799022
  - # 14
    frequency:   11.3893865854
  - # 15
    frequency:   14.1978235375
  - # 16
    frequency:   14.3179039191
  - # 17
    frequency:   15.1389874836
  - # 18
    frequency:   16.8361457887
  - # 19
    frequency:   16.9775239590
  - # 20
    frequency:   31.7002232609
  - # 21
    frequency:   67.6009527873

- q-position: [    0.1414141,    0.0000000,    0.0000000 ]
  distance:    0.0501767
  band:
  - # 1
    frequency:    1.1801471794
  - # 2
    frequency:    1.2027495969
  - # 3
    frequency:    1.9022015043
  - # 4
    frequency:    2.3100512962
  - # 5
    frequency:    3.1166715066
  - # 6
    frequency:    3.8208015031
  - # 7
    frequency:    4.3492847532
  - # 8
    frequency:    4.9135143395
  - # 9
    frequency:    6.4260892887
  - # 10
    frequency:    6.8938911577
  - # 11
    frequency:    7.5588577971
  - # 12
    frequency:    7.8196073383
  - # 13
    frequency:    8.7530765568
  - # 14
    frequency:   11.3380246638
  - # 15
    frequency:   14.1994183482
  - # 16
    frequency:   14.3266448268
  - # 17
    frequency:   15.1295700557
  - # 18
    frequency:   16.8300086957
  - # 19
    frequency:   16.9801592741
  - # 20
    frequency:   31.6844649768
  - # 21
    frequency:   67.5922857462

- q-position: [    0.1464646,    0.0000000,    0.0000000 ]
  distance:    0.0519687
  band:
  - # 1
    frequency:    1.2119219822
  - # 2
    frequency:    1.2702943372
  - # 3
    frequency:    1.9568703617
  - # 4
    frequency:    2.3812145761
  - # 5
    frequency:    3.2052252644
  - # 6
    frequency:    3.8424897978
  - # 7
    frequency:    4.3888005941
  - # 8
    frequency:    4.9185345059
  - # 9
    frequency:    6.4258887582
  - # 10
    frequency:    6.9159569670
  - # 11
    frequency:    7.5429399275
  - # 12
    frequency:    7.8167194849
  - # 13
    frequency:    8.7572945632
  - # 14
    frequency:   11.2860903167
  - # 15
    frequency:   14.2010910209
  - # 16
    frequency:   14.3354852791
  - # 17
    frequency:   15.1200325976
  - # 18
    frequency:   16.8236877748
  - # 19
    frequency:   16.9826974011
  - # 20
    frequency:   31.6685184051
  - # 21
    frequency:   67.5834749108

- q-position: [    0.1515152,    0.0000000,    0.0000000 ]
  distance:    0.0537607
  band:
  - # 1
    frequency:    1.2436686009
  - # 2
    frequency:    1.3384404606
  - # 3
    frequency:    2.0104939081
  - # 4
    frequency:    2.4517473383
  - # 5
    frequency:    3.2914642413
  - # 6
    frequency:    3.8644560847
  - # 7
    frequency:    4.4269491238
  - # 8
    frequency:    4.9257843947
  - # 9
    frequency:    6.4256980772
  - # 10
    frequency:    6.9377296195
  - # 11
    frequency:    7.5268003570
  - # 12
    frequency:    7.8134269506
  - # 13
    frequency:    8.7617027116
  - # 14
    frequency:   11.2336993445
  - # 15
    frequency:   14.2028411042
  - # 16
    frequency:   14.3444055336
  - # 17
    frequency:   15.1104095821
  - # 18
    frequency:   16.8171809622
  - # 19
    frequency:   16.9851178075
  - # 20
    frequency:   31.6524165062
  - # 21