nqpoint: 300    
npath: 3      
segment_nqpoint:
- 100
- 100
- 100
labels:
- [ 'G', 'M' ]
- [ 'M', 'K' ]
- [ 'K', 'G' ]
reciprocal_lattice:
- [   0.30728370,   0.17741033,   0.00000000 ] # a*
- [   0.00000000,   0.35482065,   0.00000000 ] # b*
- [   0.00000000,   0.00000000,   0.03896244 ] # c*
natom: 7      
lattice:
- [     3.254321654221905,     0.000000000000000,     0.000000000000000 ] # a
- [    -1.627160827110952,     2.818325224641300,     0.000000000000000 ] # b
- [     0.000000000000000,     0.000000000000000,    25.665741583424321 ] # c
points:
- symbol: Br # 1
  coordinates: [  0.333332985432215,  0.666666983183674,  0.649338010719610 ]
  mass: 79.904000
- symbol: C # 2
  coordinates: [  0.666666984744047,  0.333332985985145,  0.396953034832394 ]
  mass: 12.010700
- symbol: N # 3
  coordinates: [  0.000000000000000,  0.000000000000000,  0.537197809559263 ]
  mass: 14.006700
- symbol: N # 4
  coordinates: [  0.666666984744047,  0.333332985985145,  0.350661989280390 ]
  mass: 14.006700
- symbol: O # 5
  coordinates: [  0.666666984744047,  0.333332985985145,  0.448960677003008 ]
  mass: 15.999400
- symbol: Ti # 6
  coordinates: [  0.333332985432215,  0.666666983183674,  0.498168308890197 ]
  mass: 47.867000
- symbol: Ti # 7
  coordinates: [  0.666666984744047,  0.333332985985145,  0.577227497803625 ]
  mass: 47.867000

phonon:
- q-position: [    0.0000000,    0.0000000,    0.0000000 ]
  distance:    0.0000000
  band:
  - # 1
    frequency:   -0.1923384975
  - # 2
    frequency:   -0.1923384975
  - # 3
    frequency:   -0.0000005071
  - # 4
    frequency:    0.0000003942
  - # 5
    frequency:    0.0000007697
  - # 6
    frequency:    3.4729477058
  - # 7
    frequency:    3.4729477058
  - # 8
    frequency:    5.0860340121
  - # 9
    frequency:    6.4131004917
  - # 10
    frequency:    6.4131004917
  - # 11
    frequency:    7.7372871449
  - # 12
    frequency:    7.7372871449
  - # 13
    frequency:    8.7589720014
  - # 14
    frequency:   12.2842378974
  - # 15
    frequency:   14.1815597074
  - # 16
    frequency:   14.1815597074
  - # 17
    frequency:   15.3035553581
  - # 18
    frequency:   17.0260267990
  - # 19
    frequency:   17.0260267990
  - # 20
    frequency:   32.0028688890
  - # 21
    frequency:   67.7468116682

- q-position: [    0.0050505,    0.0000000,    0.0000000 ]
  distance:    0.0017920
  band:
  - # 1
    frequency:   -0.1865562453
  - # 2
    frequency:   -0.1686311590
  - # 3
    frequency:    0.0156854126
  - # 4
    frequency:    0.0784948761
  - # 5
    frequency:    0.1267883230
  - # 6
    frequency:    3.4734657662
  - # 7
    frequency:    3.4748572723
  - # 8
    frequency:    5.0855027506
  - # 9
    frequency:    6.4130321951
  - # 10
    frequency:    6.4140878027
  - # 11
    frequency:    7.7370089844
  - # 12
    frequency:    7.7376233842
  - # 13
    frequency:    8.7588508254
  - # 14
    frequency:   12.2827880499
  - # 15
    frequency:   14.1815853530
  - # 16
    frequency:   14.1817866436
  - # 17
    frequency:   15.3033161849
  - # 18
    frequency:   17.0254941935
  - # 19
    frequency:   17.0259958263
  - # 20
    frequency:   32.0023397634
  - # 21
    frequency:   67.7465748668

- q-position: [    0.0101010,    0.0000000,    0.0000000 ]
  distance:    0.0035840
  band:
  - # 1
    frequency:   -0.1692349174
  - # 2
    frequency:   -0.0732793042
  - # 3
    frequency:    0.0471657139
  - # 4
    frequency:    0.1581844246
  - # 5
    frequency:    0.2561608218
  - # 6
    frequency:    3.4750187573
  - # 7
    frequency:    3.4805699218
  - # 8
    frequency:    5.0839166356
  - # 9
    frequency:    6.4128281682
  - # 10
    frequency:    6.4170410610
  - # 11
    frequency:    7.7361747310
  - # 12
    frequency:    7.7386284838
  - # 13
    frequency:    8.7584894993
  - # 14
    frequency:   12.2784425343
  - # 15
    frequency:   14.1816623234
  - # 16
    frequency:   14.1824665448
  - # 17
    frequency:   15.3025983701
  - # 18
    frequency:   17.0239005804
  - # 19
    frequency:   17.0259032924
  - # 20
    frequency:   32.0007543161
  - # 21
    frequency:   67.7458651098

- q-position: [    0.0151515,    0.0000000,    0.0000000 ]
  distance:    0.0053761
  band:
  - # 1
    frequency:   -0.1379780467
  - # 2
    frequency:    0.0454557591
  - # 3
    frequency:    0.1867443802
  - # 4
    frequency:    0.2387786066
  - # 5
    frequency:    0.3868912461
  - # 6
    frequency:    3.4776031094
  - # 7
    frequency:    3.4900379406
  - # 8
    frequency:    5.0812984323
  - # 9
    frequency:    6.4124909909
  - # 10
    frequency:    6.4219345143
  - # 11
    frequency:    7.7347850702
  - # 12
    frequency:    7.7402916024
  - # 13
    frequency:    8.7578946252
  - # 14
    frequency:   12.2712134082
  - # 15
    frequency:   14.1817907190
  - # 16
    frequency:   14.1835967045
  - # 17
    frequency:   15.3014010466
  - # 18
    frequency:   17.0212585224
  - # 19
    frequency:   17.0257503447
  - # 20
    frequency:   31.9981183245
  - # 21
    frequency:   67.7446843351

- q-position: [    0.0202020,    0.0000000,    0.0000000 ]
  distance:    0.0071681
  band:
  - # 1
    frequency:   -0.0782926067
  - # 2
    frequency:    0.0689200112
  - # 3
    frequency:    0.2960723123
  - # 4
    frequency:    0.3195455870
  - # 5
    frequency:    0.5173827931
  - # 6
    frequency:    3.4812128723
  - # 7
    frequency:    3.5031832264
  - # 8
    frequency:    5.0776852959
  - # 9
    frequency:    6.4120249341
  - # 10
    frequency:    6.4287261233
  - # 11
    frequency:    7.7328411473
  - # 12
    frequency:    7.7425947179
  - # 13
    frequency:    8.7570771954
  - # 14
    frequency:   12.2611206936
  - # 15
    frequency:   14.1819707064
  - # 16
    frequency:   14.1851726630
  - # 17
    frequency:   15.2997228346
  - # 18
    frequency:   17.0175887963
  - # 19
    frequency:   17.0255388752
  - # 20
    frequency:   31.9944413801
  - # 21
    frequency:   67.7430357619

- q-position: [    0.0252525,    0.0000000,    0.0000000 ]
  distance:    0.0089601
  band:
  - # 1
    frequency:    0.0926128027
  - # 2
    frequency:    0.1006211144
  - # 3
    frequency:    0.3938957724
  - # 4
    frequency:    0.4000447497
  - # 5
    frequency:    0.6471499556
  - # 6
    frequency:    3.4858397152
  - # 7
    frequency:    3.5198992998
  - # 8
    frequency:    5.0731276693
  - # 9
    frequency:    6.4114359159
  - # 10
    frequency:    6.4373588076
  - # 11
    frequency:    7.7303445722
  - # 12
    frequency:    7.7455126995
  - # 13
    frequency:    8.7560525718
  - # 14
    frequency:   12.2481922689
  - # 15
    frequency:   14.1822025174
  - # 16
    frequency:   14.1871882808
  - # 17
    frequency:   15.2975619379
  - # 18
    frequency:   17.0129201526
  - # 19
    frequency:   17.0252714914
  - # 20
    frequency:   31.9897368324
  - # 21
    frequency:   67.7409238744

- q-position: [    0.0303030,    0.0000000,    0.0000000 ]
  distance:    0.0107521
  band:
  - # 1
    frequency:    0.1184228700
  - # 2
    frequency:    0.1725368287
  - # 3
    frequency:    0.4800630688
  - # 4
    frequency:    0.4871127381
  - # 5
    frequency:    0.7760105247
  - # 6
    frequency:    3.4914729272
  - # 7
    frequency:    3.5400539008
  - # 8
    frequency:    5.0676878809
  - # 9
    frequency:    6.4107314410
  - # 10
    frequency:    6.4477620514
  - # 11
    frequency:    7.7272974257
  - # 12
    frequency:    7.7490134119
  - # 13
    frequency:    8.7548404529
  - # 14
    frequency:   12.2324637238
  - # 15
    frequency:   14.1824864472
  - # 16
    frequency:   14.1896358364
  - # 17
    frequency:   15.2949162784
  - # 18
    frequency:   17.0072889820
  - # 19
    frequency:   17.0249514750
  - # 20
    frequency:   31.9840217116
  - # 21
    frequency:   67.7383543989

- q-position: [    0.0353535,    0.0000000,    0.0000000 ]
  distance:    0.0125442
  band:
  - # 1
    frequency:    0.1468001712
  - # 2
    frequency:    0.2298260521
  - # 3
    frequency:    0.5594802490
  - # 4
    frequency:    0.5778784883
  - # 5
    frequency:    0.9038400244
  - # 6
    frequency:    3.4980994178
  - # 7
    frequency:    3.5634919841
  - # 8
    frequency:    5.0614385633
  - # 9
    frequency:    6.4099205232
  - # 10
    frequency:    6.4598537511
  - # 11
    frequency:    7.7237022695
  - # 12
    frequency:    7.7530578570
  - # 13
    frequency:    8.7534648195
  - # 14
    frequency:   12.2139781820
  - # 15
    frequency:   14.1828228527
  - # 16
    frequency:   14.1925061430
  - # 17
    frequency:   15.2917836669
  - # 18
    frequency:   17.0007388893
  - # 19
    frequency:   17.0245827298
  - # 20
    frequency:   31.9773166294
  - # 21
    frequency:   67.7353342754

- q-position: [    0.0404040,    0.0000000,    0.0000000 ]
  distance:    0.0143362
  band:
  - # 1
    frequency:    0.1779131735
  - # 2
    frequency:    0.2815537987
  - # 3
    frequency:    0.6382081759
  - # 4
    frequency:    0.6670967145
  - # 5
    frequency:    1.0305222026
  - # 6
    frequency:    3.5057037207
  - # 7
    frequency:    3.5900389178
  - # 8
    frequency:    5.0544610144
  - # 9
    frequency:    6.4090135919
  - # 10
    frequency:    6.4735421895
  - # 11
    frequency:    7.7195621581
  - # 12
    frequency:    7.7576003578
  - # 13
    frequency:    8.7519538539
  - # 14
    frequency:   12.1927860985
  - # 15
    frequency:   14.1832121495
  - # 16
    frequency:   14.1957886789
  - # 17
    frequency:   15.2881620081
  - # 18
    frequency:   16.9933201807
  - # 19
    frequency:   17.0241697192
  - # 20
    frequency:   31.9696456595
  - # 21
    frequency:   67.7318716227

- q-position: [    0.0454545,    0.0000000,    0.0000000 ]
  distance:    0.0161282
  band:
  - # 1
    frequency:    0.2118079524
  - # 2
    frequency:    0.3303127567
  - # 3
    frequency:    0.7161699926
  - # 4
    frequency:    0.7552085381
  - # 5
    frequency:    1.1559418173
  - # 6
    frequency:    3.5142679993
  - # 7
    frequency:    3.6195036970
  - # 8
    frequency:    5.0468436191
  - # 9
    frequency:    6.4080223825
  - # 10
    frequency:    6.4887280216
  - # 11
    frequency:    7.7148806550
  - # 12
    frequency:    7.7625887917
  - # 13
    frequency:    8.7503398216
  - # 14
    frequency:   12.1689450359
  - # 15
    frequency:   14.1836548093
  - # 16
    frequency:   14.1994717257
  - # 17
    frequency:   15.2840495383
  - # 18
    frequency:   16.9850892667
  - # 19
    frequency:   17.0237173933
  - # 20
    frequency:   31.9610361987
  - # 21
    frequency:   67.7279756980

- q-position: [    0.0505051,    0.0000000,    0.0000000 ]
  distance:    0.0179202
  band:
  - # 1
    frequency:    0.2484596225
  - # 2
    frequency:    0.3772157277
  - # 3
    frequency:    0.7932936560
  - # 4
    frequency:    0.8424487719
  - # 5
    frequency:    1.2799855357
  - # 6
    frequency:    3.5237720568
  - # 7
    frequency:    3.6516820115
  - # 8
    frequency:    5.0386804294
  - # 9
    frequency:    6.4069598120
  - # 10
    frequency:    6.5053061843
  - # 11
    frequency:    7.7096618523
  - # 12
    frequency:    7.7679648826
  - # 13
    frequency:    8.7486589032
  - # 14
    frequency:   12.1425194278
  - # 15
    frequency:   14.1841513560
  - # 16
    frequency:   14.2035425100
  - # 17
    frequency:   15.2794450914
  - # 18
    frequency:   16.9761079876
  - # 19
    frequency:   17.0232311076
  - # 20
    frequency:   31.9515188090
  - # 21
    frequency:   67.7236568514

- q-position: [    0.0555556,    0.0000000,    0.0000000 ]
  distance:    0.0197123
  band:
  - # 1
    frequency:    0.2877981141
  - # 2
    frequency:    0.4228359865
  - # 3
    frequency:    0.8695103348
  - # 4
    frequency:    0.9289481472
  - # 5
    frequency:    1.4025439148
  - # 6
    frequency:    3.5341933523
  - # 7
    frequency:    3.6863590374
  - # 8
    frequency:    5.0300699823
  - # 9
    frequency:    6.4058398412
  - # 10
    frequency:    6.5231676585
  - # 11
    frequency:    7.7039103947
  - # 12
    frequency:    7.7736645621
  - # 13
    frequency:    8.7469509647
  - # 14
    frequency:   12.1135803323
  - # 15
    frequency:   14.1847023612
  - # 16
    frequency:   14.2079873414
  - # 17
    frequency:   15.2743483912
  - # 18
    frequency:   16.9664428679
  - # 19
    frequency:   17.0227165327
  - # 20
    frequency:   31.9411270426
  - # 21
    frequency:   67.7189264746

- q-position: [    0.0606061,    0.0000000,    0.0000000 ]
  distance:    0.0215043
  band:
  - # 1
    frequency:    0.3297240669
  - # 2
    frequency:    0.4675021830
  - # 3
    frequency:    0.9447543621
  - # 4
    frequency:    1.0147800792
  - # 5
    frequency:    1.5235131110
  - # 6
    frequency:    3.5455070238
  - # 7
    frequency:    3.7233118621
  - # 8
    frequency:    5.0211144117
  - # 9
    frequency:    6.4046773227
  - # 10
    frequency:    6.5422010418
  - # 11
    frequency:    7.6976315080
  - # 12
    frequency:    7.7796184118
  - # 13
    frequency:    8.7452592492
  - # 14
    frequency:   12.0822051810
  - # 15
    frequency:   14.1853084396
  - # 16
    frequency:   14.2127917465
  - # 17
    frequency:   15.2687603628
  - # 18
    frequency:   16.9561643086
  - # 19
    frequency:   17.0221795566
  - # 20
    frequency:   31.9298972504
  - # 21
    frequency:   67.7137969457

- q-position: [    0.0656566,    0.0000000,    0.0000000 ]
  distance:    0.0232963
  band:
  - # 1
    frequency:    0.3741195364
  - # 2
    frequency:    0.5114163266
  - # 3
    frequency:    1.0189636464
  - # 4
    frequency:    1.0999842935
  - # 5
    frequency:    1.6427961460
  - # 6
    frequency:    3.5576859211
  - # 7
    frequency:    3.7623114871
  - # 8
    frequency:    5.0119188904
  - # 9
    frequency:    6.4034878388
  - # 10
    frequency:    6.5622939100
  - # 11
    frequency:    7.6908310324
  - # 12
    frequency:    7.7857522013
  - # 13
    frequency:    8.7436299740
  - # 14
    frequency:   12.0484775256
  - # 15
    frequency:   14.1859702434
  - # 16
    frequency:   14.2179405916
  - # 17
    frequency:   15.2626834597
  - # 18
    frequency:   16.9453457270
  - # 19
    frequency:   17.0216261809
  - # 20
    frequency:   31.9178683757
  - # 21
    frequency:   67.7082815690

- q-position: [    0.0707071,    0.0000000,    0.0000000 ]
  distance:    0.0250883
  band:
  - # 1
    frequency:    0.4208554736
  - # 2
    frequency:    0.5547086459
  - # 3
    frequency:    1.0920801719
  - # 4
    frequency:    1.1845797060
  - # 5
    frequency:    1.7603037760
  - # 6
    frequency:    3.5707006512
  - # 7
    frequency:    3.8031243809
  - # 8
    frequency:    5.0025914253
  - # 9
    frequency:    6.4022875279
  - # 10
    frequency:    6.5833339661
  - # 11
    frequency:    7.6835154601
  - # 12
    frequency:    7.7919875345
  - # 13
    frequency:    8.7421118174
  - # 14
    frequency:   12.0124867853
  - # 15
    frequency:   14.1866884558
  - # 16
    frequency:   14.2234181961
  - # 17
    frequency:   15.2561219975
  - # 18
    frequency:   16.9340626564
  - # 19
    frequency:   17.0210624112
  - # 20
    frequency:   31.9050817346
  - # 21
    frequency:   67.7023945112

- q-position: [    0.0757576,    0.0000000,    0.0000000 ]
  distance:    0.0268804
  band:
  - # 1
    frequency:    0.4697970193
  - # 2
    frequency:    0.5974658953
  - # 3
    frequency:    1.1640504743
  - # 4
    frequency:    1.2685718780
  - # 5
    frequency:    1.8759550289
  - # 6
    frequency:    3.5845196374
  - # 7
    frequency:    3.8455135770
  - # 8
    frequency:    4.9932430177
  - # 9
    frequency:    6.4010929027
  - # 10
    frequency:    6.6052099865
  - # 11
    frequency:    7.6756919778
  - # 12
    frequency:    7.7982426187
  - # 13
    frequency:    8.7407552787
  - # 14
    frequency:   11.9743279935
  - # 15
    frequency:   14.1874637841
  - # 16
    frequency:   14.2292084325
  - # 17
    frequency:   15.2490824875
  - # 18
    frequency:   16.9223918182
  - # 19
    frequency:   17.0204941436
  - # 20
    frequency:   31.8915807849
  - # 21
    frequency:   67.6961507347

- q-position: [    0.0808081,    0.0000000,    0.0000000 ]
  distance:    0.0286724
  band:
  - # 1
    frequency:    0.5208072484
  - # 2
    frequency:    0.6397471304
  - # 3
    frequency:    1.2348260535
  - # 4
    frequency:    1.3519575507
  - # 5
    frequency:    1.9896774543
  - # 6
    frequency:    3.5991091966
  - # 7
    frequency:    3.8892393243
  - # 8
    frequency:    4.9839881995
  - # 9
    frequency:    6.3999206624
  - # 10
    frequency:    6.6278125868
  - # 11
    frequency:    7.6673685122
  - # 12
    frequency:    7.8044331672
  - # 13
    frequency:    8.7396118982
  - # 14
    frequency:   11.9341015457
  - # 15
    frequency:   14.1882969518
  - # 16
    frequency:   14.2352948146
  - # 17
    frequency:   15.2415739608
  - # 18
    frequency:   16.9104101818
  - # 19
    frequency:   17.0199270481
  - # 20
    frequency:   31.8774108844
  - # 21
    frequency:   67.6895659267

- q-position: [    0.0858586,    0.0000000,    0.0000000 ]
  distance:    0.0304644
  band:
  - # 1
    frequency:    0.5737497906
  - # 2
    frequency:    0.6815930431
  - # 3
    frequency:    1.3043637212
  - # 4
    frequency:    1.4347275161
  - # 5
    frequency:    2.1014071150
  - # 6
    frequency:    3.6144336356
  - # 7
    frequency:    3.9340593018
  - # 8
    frequency:    4.9749459541
  - # 9
    frequency:    6.3987874980
  - # 10
    frequency:    6.6510348292
  - # 11
    frequency:    7.6585537801
  - # 12
    frequency:    7.8104734434
  - # 13
    frequency:    8.7387333303
  - # 14
    frequency:   11.8919129467
  - # 15
    frequency:   14.1891886906
  - # 16
    frequency:   14.2416605727
  - # 17
    frequency:   15.2336082733
  - # 18
    frequency:   16.8981940279
  - # 19
    frequency:   17.0193664503
  - # 20
    frequency:   31.8626190415
  - # 21
    frequency:   67.6826564270

- q-position: [    0.0909091,    0.0000000,    0.0000000 ]
  distance:    0.0322564
  band:
  - # 1
    frequency:    0.6284906216
  - # 2
    frequency:    0.7230317567
  - # 3
    frequency:    1.3726258802
  - # 4
    frequency:    1.5168684996
  - # 5
    frequency:    2.2110883359
  - # 6
    frequency:    3.6304553722
  - # 7
    frequency:    3.9797284088
  - # 8
    frequency:    4.9662410368
  - # 9
    frequency:    6.3977098970
  - # 10
    frequency:    6.6747726990
  - # 11
    frequency:    7.6492573398
  - # 12
    frequency:    7.8162774456
  - # 13
    frequency:    8.7381702682
  - # 14
    frequency:   11.8478725537
  - # 15
    frequency:   14.1901397302
  - # 16
    frequency:   14.2482887186
  - # 17
    frequency:   15.2252003807
  - # 18
    frequency:   16.8858180324
  - # 19
    frequency:   17.0188172120
  - # 20
    frequency:   31.8472536583
  - # 21
    frequency:   67.6754391528

- q-position: [    0.0959596,    0.0000000,    0.0000000 ]
  distance:    0.0340484
  band:
  - # 1
    frequency:    0.6848992409
  - # 2
    frequency:    0.7640825692
  - # 3
    frequency:    1.4395807424
  - # 4
    frequency:    1.5983644305
  - # 5
    frequency:    2.3186732221
  - # 6
    frequency:    3.6471350795
  - # 7
    frequency:    4.0259981400
  - # 8
    frequency:    4.9580057088
  - # 9
    frequency:    6.3967039450
  - # 10
    frequency:    6.6989254726
  - # 11
    frequency:    7.6394896446
  - # 12
    frequency:    7.8217602259
  - # 13
    frequency:    8.7379712293
  - # 14
    frequency:   11.8020953164
  - # 15
    frequency:   14.1911507894
  - # 16
    frequency:   14.2551620989
  - # 17
    frequency:   15.2163685741
  - # 18
    frequency:   16.8733543880
  - # 19
    frequency:   17.0182836142
  - # 20
    frequency:   31.8313642698
  - # 21
    frequency:   67.6679315233

- q-position: [    0.1010101,    0.0000000,    0.0000000 ]
  distance:    0.0358405
  band:
  - # 1
    frequency:    0.7428493924
  - # 2
    frequency:    0.8047584518
  - # 3
    frequency:    1.5052024853
  - # 4
    frequency:    1.6791973214
  - # 5
    frequency:    2.4241209511
  - # 6
    frequency:    3.6644318601
  - # 7
    frequency:    4.0726155563
  - # 8
    frequency:    4.9503818986
  - # 9
    frequency:    6.3957851301
  - # 10
    frequency:    6.7233959980
  - # 11
    frequency:    7.6292620961
  - # 12
    frequency:    7.8268393216
  - # 13
    frequency:    8.7381812237
  - # 14
    frequency:   11.7547005081
  - # 15
    frequency:   14.1922225644
  - # 16
    frequency:   14.2622634409
  - # 17
    frequency:   15.2071346652
  - # 18
    frequency:   16.8608719801
  - # 19
    frequency:   17.0177692404
  - # 20
    frequency:   31.8150012797
  - # 21
    frequency:   67.6601513815

- q-position: [    0.1060606,    0.0000000,    0.0000000 ]
  distance:    0.0376325
  band:
  - # 1
    frequency:    0.8022194477
  - # 2
    frequency:    0.8450677646
  - # 3
    frequency:    1.5694713510
  - # 4
    frequency:    1.7593478897
  - # 5
    frequency:    2.5273968477
  - # 6
    frequency:    3.6823034489
  - # 7
    frequency:    4.1193218778
  - # 8
    frequency:    4.9435237817
  - # 9
    frequency:    6.3949681494
  - # 10
    frequency:    6.7480909060
  - # 11
    frequency:    7.6185870964
  - # 12
    frequency:    7.8314362668
  - # 13
    frequency:    8.7388403421
  - # 14
    frequency:   11.7058114482
  - # 15
    frequency:   14.1933557181
  - # 16
    frequency:   14.2695753896
  - # 17
    frequency:   15.1975241120
  - # 18
    frequency:   16.8484356340
  - # 19
    frequency:   17.0172768649
  - # 20
    frequency:   31.7982156953
  - # 21
    frequency:   67.6521169170

- q-position: [    0.1111111,    0.0000000,    0.0000000 ]
  distance:    0.0394245
  band:
  - # 1
    frequency:    0.8628925408
  - # 2
    frequency:    0.8850154642
  - # 3
    frequency:    1.6323736887
  - # 4
    frequency:    1.8387960055
  - # 5
    frequency:    2.6284712492
  - # 6
    frequency:    3.7007064468
  - # 7
    frequency:    4.1658507704
  - # 8
    frequency:    4.9376007247
  - # 9
    frequency:    6.3942667222
  - # 10
    frequency:    6.7729207619
  - # 11
    frequency:    7.6074780975
  - # 12
    frequency:    7.8354781392
  - # 13
    frequency:    8.7399823108
  - # 14
    frequency:   11.6555552114
  - # 15
    frequency:   14.1945508680
  - # 16
    frequency:   14.2770805387
  - # 17
    frequency:   15.1875660775
  - # 18
    frequency:   16.8361054475
  - # 19
    frequency:   17.0168083457
  - # 20
    frequency:   31.7810588631
  - # 21
    frequency:   67.6438465883

- q-position: [    0.1161616,    0.0000000,    0.0000000 ]
  distance:    0.0412165
  band:
  - # 1
    frequency:    0.9246039706
  - # 2
    frequency:    0.9247565240
  - # 3
    frequency:    1.6939019426
  - # 4
    frequency:    1.9175210186
  - # 5
    frequency:    2.7273181676
  - # 6
    frequency:    3.7195965860
  - # 7
    frequency:    4.2119265010
  - # 8
    frequency:    4.9328004320
  - # 9
    frequency:    6.3936934096
  - # 10
    frequency:    6.7978001683
  - # 11
    frequency:    7.5959496460
  - # 12
    frequency:    7.8388990812
  - # 13
    frequency:    8.7416330792
  - # 14
    frequency:   11.6040623230
  - # 15
    frequency:   14.1958085734
  - # 16
    frequency:   14.2847614566
  - # 17
    frequency:   15.1772934145
  - # 18
    frequency:   16.8239362224
  - # 19
    frequency:   17.0163645228
  - # 20
    frequency:   31.7635822067
  - # 21
    frequency:   67.6353590451

- q-position: [    0.1212121,    0.0000000,    0.0000000 ]
  distance:    0.0430086
  band:
  - # 1
    frequency:    0.9638338022
  - # 2
    frequency:    0.9877037960
  - # 3
    frequency:    1.7540545865
  - # 4
    frequency:    1.9955020001
  - # 5
    frequency:    2.8239137591
  - # 6
    frequency:    3.7389290254
  - # 7
    frequency:    4.2572623261
  - # 8
    frequency:    4.9293319365
  - # 9
    frequency:    6.3932594442
  - # 10
    frequency:    6.8226478234
  - # 11
    frequency:    7.5840174221
  - # 12
    frequency:    7.8416417318
  - # 13
    frequency:    8.7438095101
  - # 14
    frequency:   11.5514664374
  - # 15
    frequency:   14.1971293227
  - # 16
    frequency:   14.2926007075
  - # 17
    frequency:   15.1667425740
  - # 18
    frequency:   16.8119770034
  - # 19
    frequency:   17.0159451254
  - # 20
    frequency:   31.7458369695
  - # 21
    frequency:   67.6266730523

- q-position: [    0.1262626,    0.0000000,    0.0000000 ]
  distance:    0.0448006
  band:
  - # 1
    frequency:    1.0027040471
  - # 2
    frequency:    1.0516310422
  - # 3
    frequency:    1.8128360077
  - # 4
    frequency:    2.0727179226
  - # 5
    frequency:    2.9182346103
  - # 6
    frequency:    3.7586586757
  - # 7
    frequency:    4.3015598190
  - # 8
    frequency:    4.9274277406
  - # 9
    frequency:    6.3929745716
  - # 10
    frequency:    6.8473865347
  - # 11
    frequency:    7.5716982708
  - # 12
    frequency:    7.8436584973
  - # 13
    frequency:    8.7465182488
  - # 14
    frequency:   11.4979039977
  - # 15
    frequency:   14.1985135200
  - # 16
    frequency:   14.3005808692
  - # 17
    frequency:   15.1559534347
  - # 18
    frequency:   16.8002707321
  - # 19
    frequency:   17.0155486865
  - # 20
    frequency:   31.7278739630
  - # 21
    frequency:   67.6178074146

- q-position: [    0.1313131,    0.0000000,    0.0000000 ]
  distance:    0.0465926
  band:
  - # 1
    frequency:    1.0412127188
  - # 2
    frequency:    1.1164389182
  - # 3
    frequency:    1.8702563423
  - # 4
    frequency:    2.1491477953
  - # 5
    frequency:    3.0102558525
  - # 6
    frequency:    3.7787405497
  - # 7
    frequency:    4.3445103598
  - # 8
    frequency:    4.9273438846
  - # 9
    frequency:    6.3928469045
  - # 10
    frequency:    6.8719431900
  - # 11
    frequency:    7.5590102239
  - # 12
    frequency:    7.8449125971
  - # 13
    frequency:    8.7497548425
  - # 14
    frequency:   11.4435138755
  - # 15
    frequency:   14.1999614714
  - # 16
    frequency:   14.3086845480
  - # 17
    frequency:   15.1449690566
  - # 18
    frequency:   16.7888540197
  - # 19
    frequency:   17.0151724679
  - # 20
    frequency:   31.7097433232
  - # 21
    frequency:   67.6087809035

- q-position: [    0.1363636,    0.0000000,    0.0000000 ]
  distance:    0.0483846
  band:
  - # 1
    frequency:    1.0793570276
  - # 2
    frequency:    1.1820316973
  - # 3
    frequency:    1.9263312650
  - # 4
    frequency:    2.2247707650
  - # 5
    frequency:    3.0999491160
  - # 6
    frequency:    3.7991301361
  - # 7
    frequency:    4.3858007007
  - # 8
    frequency:    4.9293560321
  - # 9
    frequency:    6.3928827930
  - # 10
    frequency:    6.8962486805
  - # 11
    frequency:    7.5459725104
  - # 12
    frequency:    7.8453788290
  - # 13
    frequency:    8.7535031696
  - # 14
    frequency:   11.3884369897
  - # 15
    frequency:   14.2014733714
  - # 16
    frequency:   14.3168943906
  - # 17
    frequency:   15.1338353625
  - # 18
    frequency:   16.7777570370
  - # 19
    frequency:   17.0148123969
  - # 20
    frequency:   31.6914942758
  - # 21
    frequency:   67.5996121864

- q-position: [    0.1414141,    0.0000000,    0.0000000 ]
  distance:    0.0501767
  band:
  - # 1
    frequency:    1.1171335885
  - # 2
    frequency:    1.2483169003
  - # 3
    frequency:    1.9810817365
  - # 4
    frequency:    2.2995661916
  - # 5
    frequency:    3.1872803445
  - # 6
    frequency:    3.8197837903
  - # 7
    frequency:    4.4251251792
  - # 8
    frequency:    4.9337489949
  - # 9
    frequency:    6.3930867112
  - # 10
    frequency:    6.9202377753
  - # 11
    frequency:    7.5326055563
  - # 12
    frequency:    7.8450440206
  - # 13
    frequency:    8.7577352211
  - # 14
    frequency:   11.3328159013
  - # 15
    frequency:   14.2030492892
  - # 16
    frequency:   14.3251930949
  - # 17
    frequency:   15.1226007552
  - # 18
    frequency:   16.7670035184
  - # 19
    frequency:   17.0144630136
  - # 20
    frequency:   31.6731749129
  - # 21
    frequency:   67.5903197580

- q-position: [    0.1464646,    0.0000000,    0.0000000 ]
  distance:    0.0519687
  band:
  - # 1
    frequency:    1.1545385833
  - # 2
    frequency:    1.3152049184
  - # 3
    frequency:    2.0345337127
  - # 4
    frequency:    2.3735137034
  - # 5
    frequency:    3.2722074982
  - # 6
    frequency:    3.8406591362
  - # 7
    frequency:    4.4622072341
  - # 8
    frequency:    4.9407970244
  - # 9
    frequency:    6.3934611624
  - # 10
    frequency:    6.9438489415
  - # 11
    frequency:    7.5189309689
  - # 12
    frequency:    7.8439071511
  - # 13
    frequency:    8.7624112538
  - # 14
    frequency:   11.2767943858
  - # 15
    frequency:   14.2046891551
  - # 16
    frequency:   14.3335634183
  - # 17
    frequency:   15.1113156797
  - # 18
    frequency:   16.7566108731
  - # 19
    frequency:   17.0141174323
  - # 20
    frequency:   31.6548319808
  - # 21
    frequency:   67.5809218750

- q-position: [    0.1515152,    0.0000000,    0.0000000 ]
  distance:    0.0537607
  band:
  - # 1
    frequency:    1.1915678868
  - # 2
    frequency:    1.3826086394
  - # 3
    frequency:    2.0867178193
  - # 4
    frequency:    2.4465932372
  - # 5
    frequency:    3.3546781975
  - # 6
    frequency:    3.8617154735
  - # 7
    frequency:    4.4968314354
  - # 8
    frequency:    4.9507336203
  - # 9
    frequency:    6.3940066049
  - # 10
    frequency:    6.9670241093
  - # 11
    frequency:    7.5049715090
  - # 12
    frequency:    7.8419791577
  - # 13
    frequency:    8.7674803057
  - # 14
    frequency:   11.2205169792
  - # 15
    frequency:   14.2063927468
  - # 16
    frequency:   14.3419881856
  - # 17
    frequency:   15.1000321417
  - # 18
    frequency:   16.7465903930
  - # 19
    frequency:   17.0137673160
  - # 20
    frequency:   31.6365106820
  - # 21