nqpoint: 300    
npath: 3      
segment_nqpoint:
- 100
- 100
- 100
labels:
- [ 'G', 'M' ]
- [ 'M', 'K' ]
- [ 'K', 'G' ]
reciprocal_lattice:
- [   0.31206915,   0.18017321,   0.00000000 ] # a*
- [   0.00000000,   0.36034641,   0.00000000 ] # b*
- [   0.00000000,   0.00000000,   0.03729896 ] # c*
natom: 8      
lattice:
- [     3.204418002192506,     0.000000000000000,     0.000000000000000 ] # a
- [    -1.602209001096253,     2.775107394242490,     0.000000000000000 ] # b
- [     0.000000000000000,     0.000000000000000,    26.810399444995234 ] # c
points:
- symbol: C # 1
  coordinates: [  0.333332985432215,  0.666666983183674,  0.619465110789800 ]
  mass: 12.010700
- symbol: C # 2
  coordinates: [  0.666666984744047,  0.333332985985145,  0.393490897362993 ]
  mass: 12.010700
- symbol: N # 3
  coordinates: [  0.000000000000000,  0.000000000000000,  0.527751265921351 ]
  mass: 14.006700
- symbol: N # 4
  coordinates: [  0.333332985432215,  0.666666983183674,  0.664309365533155 ]
  mass: 14.006700
- symbol: N # 5
  coordinates: [  0.666666984744047,  0.333332985985145,  0.440227738599743 ]
  mass: 14.006700
- symbol: S # 6
  coordinates: [  0.666666984744047,  0.333332985985145,  0.335690634466845 ]
  mass: 32.065000
- symbol: Ti # 7
  coordinates: [  0.333332985432215,  0.666666983183674,  0.488116525952076 ]
  mass: 47.867000
- symbol: Ti # 8
  coordinates: [  0.666666984744047,  0.333332985985145,  0.566718724613203 ]
  mass: 47.867000

phonon:
- q-position: [    0.0000000,    0.0000000,    0.0000000 ]
  distance:    0.0000000
  band:
  - # 1
    frequency:   -0.1024363170
  - # 2
    frequency:   -0.1024363170
  - # 3
    frequency:   -0.0000049147
  - # 4
    frequency:   -0.0000004065
  - # 5
    frequency:    0.0000036044
  - # 6
    frequency:    1.1020455215
  - # 7
    frequency:    1.1020455215
  - # 8
    frequency:    5.1270504244
  - # 9
    frequency:    5.1270504244
  - # 10
    frequency:    6.1078156813
  - # 11
    frequency:    7.8097356436
  - # 12
    frequency:    7.8097356436
  - # 13
    frequency:    8.4173495497
  - # 14
    frequency:    8.4173495497
  - # 15
    frequency:    9.1077907475
  - # 16
    frequency:   11.2633359056
  - # 17
    frequency:   14.0112387085
  - # 18
    frequency:   14.0112387085
  - # 19
    frequency:   15.8175413500
  - # 20
    frequency:   16.6897388307
  - # 21
    frequency:   16.6897388307
  - # 22
    frequency:   27.4418293911
  - # 23
    frequency:   57.6945699996
  - # 24
    frequency:   61.3827931682

- q-position: [    0.0050505,    0.0000000,    0.0000000 ]
  distance:    0.0018199
  band:
  - # 1
    frequency:   -0.1963143835
  - # 2
    frequency:   -0.1758818549
  - # 3
    frequency:    0.0040909499
  - # 4
    frequency:    0.1882103241
  - # 5
    frequency:    0.2152389380
  - # 6
    frequency:    1.1040019743
  - # 7
    frequency:    1.1088952057
  - # 8
    frequency:    5.1271767935
  - # 9
    frequency:    5.1277484395
  - # 10
    frequency:    6.1072814722
  - # 11
    frequency:    7.8092630579
  - # 12
    frequency:    7.8101831662
  - # 13
    frequency:    8.4172760146
  - # 14
    frequency:    8.4180207122
  - # 15
    frequency:    9.1075609608
  - # 16
    frequency:   11.2625506072
  - # 17
    frequency:   14.0112562132
  - # 18
    frequency:   14.0115942048
  - # 19
    frequency:   15.8172439225
  - # 20
    frequency:   16.6896920586
  - # 21
    frequency:   16.6898645543
  - # 22
    frequency:   27.4416990481
  - # 23
    frequency:   57.6935721917
  - # 24
    frequency:   61.3827018639

- q-position: [    0.0101010,    0.0000000,    0.0000000 ]
  distance:    0.0036399
  band:
  - # 1
    frequency:   -0.2555325065
  - # 2
    frequency:   -0.1926619176
  - # 3
    frequency:    0.0169807129
  - # 4
    frequency:    0.2902469955
  - # 5
    frequency:    0.3601973614
  - # 6
    frequency:    1.1098695483
  - # 7
    frequency:    1.1292474258
  - # 8
    frequency:    5.1275553386
  - # 9
    frequency:    5.1298421592
  - # 10
    frequency:    6.1056831268
  - # 11
    frequency:    7.8078480731
  - # 12
    frequency:    7.8115245545
  - # 13
    frequency:    8.4170543085
  - # 14
    frequency:    8.4200264383
  - # 15
    frequency:    9.1068746443
  - # 16
    frequency:   11.2601968737
  - # 17
    frequency:   14.0113088611
  - # 18
    frequency:   14.0126601820
  - # 19
    frequency:   15.8163518577
  - # 20
    frequency:   16.6895514419
  - # 21
    frequency:   16.6902412524
  - # 22
    frequency:   27.4413082282
  - # 23
    frequency:   57.6905803778
  - # 24
    frequency:   61.3824281078

- q-position: [    0.0151515,    0.0000000,    0.0000000 ]
  distance:    0.0054598
  band:
  - # 1
    frequency:   -0.2959071988
  - # 2
    frequency:   -0.1742396591
  - # 3
    frequency:    0.0418270012
  - # 4
    frequency:    0.3782145568
  - # 5
    frequency:    0.4999277703
  - # 6
    frequency:    1.1196451690
  - # 7
    frequency:    1.1625761562
  - # 8
    frequency:    5.1281843805
  - # 9
    frequency:    5.1333305642
  - # 10
    frequency:    6.1030334433
  - # 11
    frequency:    7.8054989657
  - # 12
    frequency:    7.8137562682
  - # 13
    frequency:    8.4166811646
  - # 14
    frequency:    8.4233434874
  - # 15
    frequency:    9.1057409731
  - # 16
    frequency:   11.2562811822
  - # 17
    frequency:   14.0113970529
  - # 18
    frequency:   14.0144351086
  - # 19
    frequency:   15.8148658211
  - # 20
    frequency:   16.6893160787
  - # 21
    frequency:   16.6908674988
  - # 22
    frequency:   27.4406575587
  - # 23
    frequency:   57.6855993836
  - # 24
    frequency:   61.3819723701

- q-position: [    0.0202020,    0.0000000,    0.0000000 ]
  distance:    0.0072797
  band:
  - # 1
    frequency:   -0.3262654663
  - # 2
    frequency:   -0.1309471965
  - # 3
    frequency:    0.0901995706
  - # 4
    frequency:    0.4610678312
  - # 5
    frequency:    0.6389511857
  - # 6
    frequency:    1.1333312679
  - # 7
    frequency:    1.2081941693
  - # 8
    frequency:    5.1290611472
  - # 9
    frequency:    5.1382118133
  - # 10
    frequency:    6.0993535979
  - # 11
    frequency:    7.8022293939
  - # 12
    frequency:    7.8168723970
  - # 13
    frequency:    8.4161512525
  - # 14
    frequency:    8.4279332692
  - # 15
    frequency:    9.1041753885
  - # 16
    frequency:   11.2508143014
  - # 17
    frequency:   14.0115214533
  - # 18
    frequency:   14.0169164397
  - # 19
    frequency:   15.8127869631
  - # 20
    frequency:   16.6889844618
  - # 21
    frequency:   16.6917408875
  - # 22
    frequency:   27.4397480840
  - # 23
    frequency:   57.6786372395
  - # 24
    frequency:   61.3813354328

- q-position: [    0.0252525,    0.0000000,    0.0000000 ]
  distance:    0.0090997
  band:
  - # 1
    frequency:   -0.3506597105
  - # 2
    frequency:   -0.0907326584
  - # 3
    frequency:    0.1698438234
  - # 4
    frequency:    0.5415802197
  - # 5
    frequency:    0.7769869754
  - # 6
    frequency:    1.1509469554
  - # 7
    frequency:    1.2654659271
  - # 8
    frequency:    5.1301818132
  - # 9
    frequency:    5.1444830313
  - # 10
    frequency:    6.0946729312
  - # 11
    frequency:    7.7980582014
  - # 12
    frequency:    7.8208646432
  - # 13
    frequency:    8.4154573446
  - # 14
    frequency:    8.4337420496
  - # 15
    frequency:    9.1021998205
  - # 16
    frequency:   11.2438112518
  - # 17
    frequency:   14.0116829856
  - # 18
    frequency:   14.0201006286
  - # 19
    frequency:   15.8101169796
  - # 20
    frequency:   16.6885544729
  - # 21
    frequency:   16.6928579923
  - # 22
    frequency:   27.4385812633
  - # 23
    frequency:   57.6697051613
  - # 24
    frequency:   61.3805183878

- q-position: [    0.0303030,    0.0000000,    0.0000000 ]
  distance:    0.0109196
  band:
  - # 1
    frequency:   -0.3713695643
  - # 2
    frequency:   -0.0619794023
  - # 3
    frequency:    0.2520791375
  - # 4
    frequency:    0.6207020861
  - # 5
    frequency:    0.9127349388
  - # 6
    frequency:    1.1725431560
  - # 7
    frequency:    1.3340006743
  - # 8
    frequency:    5.1315415546
  - # 9
    frequency:    5.1521400160
  - # 10
    frequency:    6.0890286832
  - # 11
    frequency:    7.7930091543
  - # 12
    frequency:    7.8257222908
  - # 13
    frequency:    8.4145905343
  - # 14
    frequency:    8.4407012198
  - # 15
    frequency:    9.0998429996
  - # 16
    frequency:   11.2352912518
  - # 17
    frequency:   14.0118828250
  - # 18
    frequency:   14.0239831433
  - # 19
    frequency:   15.8068581924
  - # 20
    frequency:   16.6880233747
  - # 21
    frequency:   16.6942143125
  - # 22
    frequency:   27.4371589679
  - # 23
    frequency:   57.6588175238
  - # 24
    frequency:   61.3795226339

- q-position: [    0.0353535,    0.0000000,    0.0000000 ]
  distance:    0.0127395
  band:
  - # 1
    frequency:   -0.3898034690
  - # 2
    frequency:    0.0168328216
  - # 3
    frequency:    0.3282980480
  - # 4
    frequency:    0.6986197613
  - # 5
    frequency:    1.0445673446
  - # 6
    frequency:    1.1982205436
  - # 7
    frequency:    1.4137484243
  - # 8
    frequency:    5.1331346203
  - # 9
    frequency:    5.1611768636
  - # 10
    frequency:    6.0824657073
  - # 11
    frequency:    7.7871106241
  - # 12
    frequency:    7.8314321552
  - # 13
    frequency:    8.4135404965
  - # 14
    frequency:    8.4487276159
  - # 15
    frequency:    9.0971408502
  - # 16
    frequency:   11.2252776489
  - # 17
    frequency:   14.0121223894
  - # 18
    frequency:   14.0285584855
  - # 19
    frequency:   15.8030136466
  - # 20
    frequency:   16.6873878011
  - # 21
    frequency:   16.6958042083
  - # 22
    frequency:   27.4354834782
  - # 23
    frequency:   57.6459918272
  - # 24
    frequency:   61.3783498728

- q-position: [    0.0404040,    0.0000000,    0.0000000 ]
  distance:    0.0145595
  band:
  - # 1
    frequency:   -0.4068733953
  - # 2
    frequency:    0.0737964491
  - # 3
    frequency:    0.4002839668
  - # 4
    frequency:    0.7751286248
  - # 5
    frequency:    1.1708307096
  - # 6
    frequency:    1.2281472346
  - # 7
    frequency:    1.5048742124
  - # 8
    frequency:    5.1349544179
  - # 9
    frequency:    5.1715855169
  - # 10
    frequency:    6.0750362021
  - # 11
    frequency:    7.7803952276
  - # 12
    frequency:    7.8379785086
  - # 13
    frequency:    8.4122957770
  - # 14
    frequency:    8.4577238757
  - # 15
    frequency:    9.0941369615
  - # 16
    frequency:   11.2137978382
  - # 17
    frequency:   14.0124033292
  - # 18
    frequency:   14.0338202134
  - # 19
    frequency:   15.7985872202
  - # 20
    frequency:   16.6866437448
  - # 21
    frequency:   16.6976208304
  - # 22
    frequency:   27.4335574786
  - # 23
    frequency:   57.6312486551
  - # 24
    frequency:   61.3770021049

- q-position: [    0.0454545,    0.0000000,    0.0000000 ]
  distance:    0.0163794
  band:
  - # 1
    frequency:   -0.4231849454
  - # 2
    frequency:    0.1100575728
  - # 3
    frequency:    0.4695436888
  - # 4
    frequency:    0.8497944653
  - # 5
    frequency:    1.2625692417
  - # 6
    frequency:    1.2903278644
  - # 7
    frequency:    1.6072980072
  - # 8
    frequency:    5.1369936152
  - # 9
    frequency:    5.1833552337
  - # 10
    frequency:    6.0667995013
  - # 11
    frequency:    7.7728994367
  - # 12
    frequency:    7.8453429739
  - # 13
    frequency:    8.4108440972
  - # 14
    frequency:    8.4675788282
  - # 15
    frequency:    9.0908831145
  - # 16
    frequency:   11.2008831691
  - # 17
    frequency:   14.0127275140
  - # 18
    frequency:   14.0397609667
  - # 19
    frequency:   15.7935837426
  - # 20
    frequency:   16.6857865444
  - # 21
    frequency:   16.6996560458
  - # 22
    frequency:   27.4313840532
  - # 23
    frequency:   57.6146116270
  - # 24
    frequency:   61.3754816234

- q-position: [    0.0505051,    0.0000000,    0.0000000 ]
  distance:    0.0181993
  band:
  - # 1
    frequency:   -0.4391461677
  - # 2
    frequency:    0.1432995929
  - # 3
    frequency:    0.5369797860
  - # 4
    frequency:    0.9220471513
  - # 5
    frequency:    1.3018003270
  - # 6
    frequency:    1.4028976173
  - # 7
    frequency:    1.7200956197
  - # 8
    frequency:    5.1392442560
  - # 9
    frequency:    5.1964719750
  - # 10
    frequency:    6.0578219684
  - # 11
    frequency:    7.7646631710
  - # 12
    frequency:    7.8535043808
  - # 13
    frequency:    8.4091726631
  - # 14
    frequency:    8.4781679255
  - # 15
    frequency:    9.0874398387
  - # 16
    frequency:   11.1865688406
  - # 17
    frequency:   14.0130970193
  - # 18
    frequency:   14.0463724935
  - # 19
    frequency:   15.7880091157
  - # 20
    frequency:   16.6848108695
  - # 21
    frequency:   16.7019003662
  - # 22
    frequency:   27.4289666797
  - # 23
    frequency:   57.5961073418
  - # 24
    frequency:   61.3737910086

- q-position: [    0.0555556,    0.0000000,    0.0000000 ]
  distance:    0.0200192
  band:
  - # 1
    frequency:   -0.4550343304
  - # 2
    frequency:    0.1757586753
  - # 3
    frequency:    0.6031463096
  - # 4
    frequency:    0.9912730098
  - # 5
    frequency:    1.3461723375
  - # 6
    frequency:    1.5095320575
  - # 7
    frequency:    1.8413527018
  - # 8
    frequency:    5.1416978901
  - # 9
    frequency:    5.2109177040
  - # 10
    frequency:    6.0481770434
  - # 11
    frequency:    7.7557293824
  - # 12
    frequency:    7.8624385803
  - # 13
    frequency:    8.4072684658
  - # 14
    frequency:    8.4893537472
  - # 15
    frequency:    9.0838769478
  - # 16
    frequency:   11.1708937876
  - # 17
    frequency:   14.0135141098
  - # 18
    frequency:   14.0536456781
  - # 19
    frequency:   15.7818704334
  - # 20
    frequency:   16.6837107049
  - # 21
    frequency:   16.7043428804
  - # 22
    frequency:   27.4263092227
  - # 23
    frequency:   57.5757653157
  - # 24
    frequency:   61.3719331204

- q-position: [    0.0606061,    0.0000000,    0.0000000 ]
  distance:    0.0218392
  band:
  - # 1
    frequency:   -0.4710385395
  - # 2
    frequency:    0.2081696021
  - # 3
    frequency:    0.6684010967
  - # 4
    frequency:    1.0569388828
  - # 5
    frequency:    1.3959334434
  - # 6
    frequency:    1.6118222573
  - # 7
    frequency:    1.9686909323
  - # 8
    frequency:    5.1443457171
  - # 9
    frequency:    5.2266695843
  - # 10
    frequency:    6.0379454940
  - # 11
    frequency:    7.7461436405
  - # 12
    frequency:    7.8721182100
  - # 13
    frequency:    8.4051185662
  - # 14
    frequency:    8.5009866394
  - # 15
    frequency:    9.0802739772
  - # 16
    frequency:   11.1539005577
  - # 17
    frequency:   14.0139812226
  - # 18
    frequency:   14.0615705691
  - # 19
    frequency:   15.7751760962
  - # 20
    frequency:   16.6824793342
  - # 21
    frequency:   16.7069711964
  - # 22
    frequency:   27.4234159267
  - # 23
    frequency:   57.5536179125
  - # 24
    frequency:   61.3699110911

- q-position: [    0.0656566,    0.0000000,    0.0000000 ]
  distance:    0.0236591
  band:
  - # 1
    frequency:   -0.4872875663
  - # 2
    frequency:    0.2408555082
  - # 3
    frequency:    0.7329862025
  - # 4
    frequency:    1.1187377852
  - # 5
    frequency:    1.4511140699
  - # 6
    frequency:    1.7112873431
  - # 7
    frequency:    2.0999143024
  - # 8
    frequency:    5.1471787422
  - # 9
    frequency:    5.2436990543
  - # 10
    frequency:    6.0272159273
  - # 11
    frequency:    7.7359537261
  - # 12
    frequency:    7.8825124061
  - # 13
    frequency:    8.4027103556
  - # 14
    frequency:    8.5129055939
  - # 15
    frequency:    9.0767204078
  - # 16
    frequency:   11.1356351813
  - # 17
    frequency:   14.0145009485
  - # 18
    frequency:   14.0701364069
  - # 19
    frequency:   15.7679359149
  - # 20
    frequency:   16.6811093234
  - # 21
    frequency:   16.7097713950
  - # 22
    frequency:   27.4202914078
  - # 23
    frequency:   57.5297002679
  - # 24
    frequency:   61.3677283169

- q-position: [    0.0707071,    0.0000000,    0.0000000 ]
  distance:    0.0254790
  band:
  - # 1
    frequency:   -0.5038682796
  - # 2
    frequency:    0.2739887930
  - # 3
    frequency:    0.7970718820
  - # 4
    frequency:    1.1766943157
  - # 5
    frequency:    1.5114273010
  - # 6
    frequency:    1.8090561998
  - # 7
    frequency:    2.2333067266
  - # 8
    frequency:    5.1501879433
  - # 9
    frequency:    5.2619707470
  - # 10
    frequency:    6.0160856279
  - # 11
    frequency:    7.7252092353
  - # 12
    frequency:    7.8935864570
  - # 13
    frequency:    8.4000317887
  - # 14
    frequency:    8.5249395230
  - # 15
    frequency:    9.0733155149
  - # 16
    frequency:   11.1161470347
  - # 17
    frequency:   14.0150760120
  - # 18
    frequency:   14.0793316501
  - # 19
    frequency:   15.7601612021
  - # 20
    frequency:   16.6795925046
  - # 21
    frequency:   16.7127279985
  - # 22
    frequency:   27.4169406454
  - # 23
    frequency:   57.5040502073
  - # 24
    frequency:   61.3653884489

- q-position: [    0.0757576,    0.0000000,    0.0000000 ]
  distance:    0.0272990
  band:
  - # 1
    frequency:   -0.5208379786
  - # 2
    frequency:    0.3076758197
  - # 3
    frequency:    0.8607819125
  - # 4
    frequency:    1.2311604567
  - # 5
    frequency:    1.5762757280
  - # 6
    frequency:    1.9058574315
  - # 7
    frequency:    2.3676250307
  - # 8
    frequency:    5.1533644484
  - # 9
    frequency:    5.2814412026
  - # 10
    frequency:    6.0046617973
  - # 11
    frequency:    7.7139611989
  - # 12
    frequency:    7.9053013914
  - # 13
    frequency:    8.3970715861
  - # 14
    frequency:    8.5369091467
  - # 15
    frequency:    9.0701676267
  - # 16
    frequency:   11.0954886959
  - # 17
    frequency:   14.0157092502
  - # 18
    frequency:   14.0891439997
  - # 19
    frequency:   15.7518648477
  - # 20
    frequency:   16.6779199608
  - # 21
    frequency:   16.7158239556
  - # 22
    frequency:   27.4133689721
  - # 23
    frequency:   57.4767081568
  - # 24
    frequency:   61.3628953833

- q-position: [    0.0808081,    0.0000000,    0.0000000 ]
  distance:    0.0291189
  band:
  - # 1
    frequency:   -0.5382327116
  - # 2
    frequency:    0.3419888582
  - # 3
    frequency:    0.9242088932
  - # 4
    frequency:    1.2827007788
  - # 5
    frequency:    1.6448671419
  - # 6
    frequency:    2.0021203118
  - # 7
    frequency:    2.5019840164
  - # 8
    frequency:    5.1566997205
  - # 9
    frequency:    5.3020573090
  - # 10
    frequency:    5.9930632896
  - # 11
    frequency:    7.7022617159
  - # 12
    frequency:    7.9176134939
  - # 13
    frequency:    8.3938194048
  - # 14
    frequency:    8.5486297582
  - # 15
    frequency:    9.0673925290
  - # 16
    frequency:   11.0737157963
  - # 17
    frequency:   14.0164035911
  - # 18
    frequency:   14.0995604213
  - # 19
    frequency:   15.7430613777
  - # 20
    frequency:   16.6760820115
  - # 21
    frequency:   16.7190406443
  - # 22
    frequency:   27.4095820644
  - # 23
    frequency:   57.4477170491
  - # 24
    frequency:   61.3602532511

- q-position: [    0.0858586,    0.0000000,    0.0000000 ]
  distance:    0.0309388
  band:
  - # 1
    frequency:   -0.5560729293
  - # 2
    frequency:    0.3769791406
  - # 3
    frequency:    0.9874238880
  - # 4
    frequency:    1.3319408889
  - # 5
    frequency:    1.7163660207
  - # 6
    frequency:    2.0980771774
  - # 7
    frequency:    2.6357425598
  - # 8
    frequency:    5.1601857489
  - # 9
    frequency:    5.3237543730
  - # 10
    frequency:    5.9814229583
  - # 11
    frequency:    7.6901636014
  - # 12
    frequency:    7.9304737401
  - # 13
    frequency:    8.3902659786
  - # 14
    frequency:    8.5599151667
  - # 15
    frequency:    9.0651107322
  - # 16
    frequency:   11.0508868647
  - # 17
    frequency:   14.0171620308
  - # 18
    frequency:   14.1105671636
  - # 19
    frequency:   15.7337669933
  - # 20
    frequency:   16.6740682011
  - # 21
    frequency:   16.7223578937
  - # 22
    frequency:   27.4055859308
  - # 23
    frequency:   57.4171222234
  - # 24
    frequency:   61.3574664078

- q-position: [    0.0909091,    0.0000000,    0.0000000 ]
  distance:    0.0327588
  band:
  - # 1
    frequency:   -0.5743673530
  - # 2
    frequency:    0.4126824210
  - # 3
    frequency:    1.0504827270
  - # 4
    frequency:    1.3794534465
  - # 5
    frequency:    1.7900069318
  - # 6
    frequency:    2.1938380479
  - # 7
    frequency:    2.7684194293
  - # 8
    frequency:    5.1638152441
  - # 9
    frequency:    5.3464537019
  - # 10
    frequency:    5.9698907610
  - # 11
    frequency:    7.6777200488
  - # 12
    frequency:    7.9438271405
  - # 13
    frequency:    8.3864032288
  - # 14
    frequency:    8.5705830807
  - # 15
    frequency:    9.0634433475
  - # 16
    frequency:   11.0270631657
  - # 17
    frequency:   14.0179876102
  - # 18
    frequency:   14.1221497737
  - # 19
    frequency:   15.7239995934
  - # 20
    frequency:   16.6718672892
  - # 21
    frequency:   16.7257540237
  - # 22
    frequency:   27.4013869012
  - # 23
    frequency:   57.3849713200
  - # 24
    frequency:   61.3545394214

- q-position: [    0.0959596,    0.0000000,    0.0000000 ]
  distance:    0.0345787
  band:
  - # 1
    frequency:   -0.5931156424
  - # 2
    frequency:    0.4491213946
  - # 3
    frequency:    1.1134302554
  - # 4
    frequency:    1.4257050038
  - # 5
    frequency:    1.8651468499
  - # 6
    frequency:    2.2894390873
  - # 7
    frequency:    2.8996367514
  - # 8
    frequency:    5.1675818335
  - # 9
    frequency:    5.3700595430
  - # 10
    frequency:    5.9586377932
  - # 11
    frequency:    7.6649843024
  - # 12
    frequency:    7.9576119832
  - # 13
    frequency:    8.3822243482
  - # 14
    frequency:    8.5804620798
  - # 15
    frequency:    9.0625064461
  - # 16
    frequency:   11.0023085311
  - # 17
    frequency:   14.0188833910
  - # 18
    frequency:   14.1342931077
  - # 19
    frequency:   15.7137787771
  - # 20
    frequency:   16.6694672448
  - # 21
    frequency:   16.7292059036
  - # 22
    frequency:   27.3969916142
  - # 23
    frequency:   57.3513141694
  - # 24
    frequency:   61.3514770611

- q-position: [    0.1010101,    0.0000000,    0.0000000 ]
  distance:    0.0363986
  band:
  - # 1
    frequency:   -0.6123102500
  - # 2
    frequency:    0.4863067893
  - # 3
    frequency:    1.1763032732
  - # 4
    frequency:    1.4710483380
  - # 5
    frequency:    1.9412718704
  - # 6
    frequency:    2.3848726855
  - # 7
    frequency:    3.0290829685
  - # 8
    frequency:    5.1714802548
  - # 9
    frequency:    5.3944552150
  - # 10
    frequency:    5.9478614439
  - # 11
    frequency:    7.6520093420
  - # 12
    frequency:    7.9717589663
  - # 13
    frequency:    8.3777238617
  - # 14
    frequency:    8.5894000708
  - # 15
    frequency:    9.0624040209
  - # 16
    frequency:   10.9766891827
  - # 17
    frequency:   14.0198524318
  - # 18
    frequency:   14.1469813375
  - # 19
    frequency:   15.7031258308
  - # 20
    frequency:   16.6668552441
  - # 21
    frequency:   16.7326890271
  - # 22
    frequency:   27.3924070041
  - # 23
    frequency:   57.3162026778
  - # 24
    frequency:   61.3482842848

- q-position: [    0.1060606,    0.0000000,    0.0000000 ]
  distance:    0.0382186
  band:
  - # 1
    frequency:   -0.6319377225
  - # 2
    frequency:    0.5242379273
  - # 3
    frequency:    1.2391326139
  - # 4
    frequency:    1.5157370799
  - # 5
    frequency:    2.0179815969
  - # 6
    frequency:    2.4801058200
  - # 7
    frequency:    3.1564883085
  - # 8
    frequency:    5.1755065441
  - # 9
    frequency:    5.4194982926
  - # 10
    frequency:    5.9377918371
  - # 11
    frequency:    7.6388475749
  - # 12
    frequency:    7.9861902118
  - # 13
    frequency:    8.3728976645
  - # 14
    frequency:    8.5972737669
  - # 15
    frequency:    9.0632200312
  - # 16
    frequency:   10.9502735450
  - # 17
    frequency:   14.0208977638
  - # 18
    frequency:   14.1601979513
  - # 19
    frequency:   15.6920636985
  - # 20
    frequency:   16.6640176728
  - # 21
    frequency:   16.7361776037
  - # 22
    frequency:   27.3876402876
  - # 23
    frequency:   57.2796907063
  - # 24
    frequency:   61.3449662265

- q-position: [    0.1111111,    0.0000000,    0.0000000 ]
  distance:    0.0400385
  band:
  - # 1
    frequency:   -0.6519796268
  - # 2
    frequency:    0.5629031176
  - # 3
    frequency:    1.3019446335
  - # 4
    frequency:    1.5599467120
  - # 5
    frequency:    2.0949671803
  - # 6
    frequency:    2.5750912040
  - # 7
    frequency:    3.2816080004
  - # 8
    frequency:    5.1796582150
  - # 9
    frequency:    5.4450148416
  - # 10
    frequency:    5.9286995899
  - # 11
    frequency:    7.6255505368
  - # 12
    frequency:    8.0008181639
  - # 13
    frequency:    8.3677430436
  - # 14
    frequency:    8.6039983132
  - # 15
    frequency:    9.0650104128
  - # 16
    frequency:   10.9231320457
  - # 17
    frequency:   14.0220223668
  - # 18
    frequency:   14.1739257502
  - # 19
    frequency:   15.6806169393
  - # 20
    frequency:   16.6609401347
  - # 21
    frequency:   16.7396446646
  - # 22
    frequency:   27.3826989496
  - # 23
    frequency:   57.2418339483
  - # 24
    frequency:   61.3415281835

- q-position: [    0.1161616,    0.0000000,    0.0000000 ]
  distance:    0.0418584
  band:
  - # 1
    frequency:   -0.6724132179
  - # 2
    frequency:    0.6022800454
  - # 3
    frequency:    1.3647622871
  - # 4
    frequency:    1.6037943394
  - # 5
    frequency:    2.1719906304
  - # 6
    frequency:    2.6697740403
  - # 7
    frequency:    3.4042102002
  - # 8
    frequency:    5.1839344237
  - # 9
    frequency:    5.4707930819
  - # 10
    frequency:    5.9209045390
  - # 11
    frequency:    7.6121686003
  - # 12
    frequency:    8.0155443883
  - # 13
    frequency:    8.3622586826
  - # 14
    frequency:    8.6095358655
  - # 15
    frequency:    9.0677962429
  - # 16
    frequency:   10.8953369020
  - # 17
    frequency:   14.0232291451
  - # 18
    frequency:   14.1881468371
  - # 19
    frequency:   15.6688116728
  - # 20
    frequency:   16.6576074655
  - # 21
    frequency:   16.7430621816
  - # 22
    frequency:   27.3775907282
  - # 23
    frequency:   57.2026898009
  - # 24
    frequency:   61.3379756030

- q-position: [    0.1212121,    0.0000000,    0.0000000 ]
  distance:    0.0436784
  band:
  - # 1
    frequency:   -0.6932119331
  - # 2
    frequency:    0.6423362304
  - # 3
    frequency:    1.4276059004
  - # 4
    frequency:    1.6473547405
  - # 5
    frequency:    2.2488679052
  - # 6
    frequency:    2.7640960898
  - # 7
    frequency:    3.5240667453
  - # 8
    frequency:    5.1883361187
  - # 9
    frequency:    5.4965777077
  - # 10
    frequency:    5.9147842253
  - # 11
    frequency:    7.5987506910
  - # 12
    frequency:    8.0302583159
  - # 13
    frequency:    8.3564446541
  - # 14
    frequency:    8.6139018504
  - # 15
    frequency:    9.0715592948
  - # 16
    frequency:   10.8669618892
  - # 17
    frequency:   14.0245209039
  - # 18
    frequency:   14.2028426006
  - # 19
    frequency:   15.6566755159
  - # 20
    frequency:   16.6540037535
  - # 21
    frequency:   16.7464011976
  - # 22
    frequency:   27.3723235989
  - # 23
    frequency:   57.1623172347
  - # 24
    frequency:   61.3343140686

- q-position: [    0.1262626,    0.0000000,    0.0000000 ]
  distance:    0.0454983
  band:
  - # 1
    frequency:   -0.7143457693
  - # 2
    frequency:    0.6830295796
  - # 3
    frequency:    1.4904937115
  - # 4
    frequency:    1.6906725295
  - # 5
    frequency:    2.3254559502
  - # 6
    frequency:    2.8579980916
  - # 7
    frequency:    3.6409455784
  - # 8
    frequency:    5.1928661678
  - # 9
    frequency:    5.5220677564
  - # 10
    frequency:    5.9107792482
  - # 11
    frequency:    7.5853440128
  - # 12
    frequency:    8.0448360167
  - # 13
    frequency:    8.3503024013
  - # 14
    frequency:    8.6171679163
  - # 15
    frequency:    9.0762408977
  - # 16
    frequency:   10.8380820873
  - # 17
    frequency:   14.0259003266
  - # 18
    frequency:   14.2179936912
  - # 19
    frequency:   15.6442375123
  - # 20
    frequency:   16.6501123681
  - # 21
    frequency:   16.7496319664
  - # 22
    frequency:   27.3669057591
  - # 23
    frequency:   57.1207766597
  - # 24
    frequency:   61.3305492865

- q-position: [    0.1313131,    0.0000000,    0.0000000 ]
  distance:    0.0473182
  band:
  - # 1
    frequency:   -0.7357815828
  - # 2
    frequency:    0.7243090425
  - # 3
    frequency:    1.5534422294
  - # 4
    frequency:    1.7337710613
  - # 5
    frequency:    2.4016430574
  - # 6
    frequency:    2.9514211571
  - # 7
    frequency:    3.7546041572
  - # 8
    frequency:    5.1975294618
  - # 9
    frequency:    5.5469236106
  - # 10
    frequency:    5.9093898646
  - # 11
    frequency:    7.5719937839
  - # 12
    frequency:    8.0591391591
  - # 13
    frequency:    8.3438347104
  - # 14
    frequency:    8.6194611423
  - # 15
    frequency:    9.0817443889
  - # 16
    frequency:   10.8087736042
  - # 17
    frequency:   14.0273699523
  - # 18
    frequency:   14.2335799909
  - # 19
    frequency:   15.6315280571
  - # 20
    frequency:   16.6459159962
  - # 21
    frequency:   16.7527241025
  - # 22
    frequency:   27.3613456109
  - # 23
    frequency:   57.0781297887
  - # 24
    frequency:   61.3266870719

- q-position: [    0.1363636,    0.0000000,    0.0000000 ]
  distance:    0.0491381
  band:
  - # 1
    frequency:   -0.7574833408
  - # 2
    frequency:    0.7661153605
  - # 3
    frequency:    1.6164664422
  - # 4
    frequency:    1.7766588405
  - # 5
    frequency:    2.4773417766
  - # 6
    frequency:    3.0443075200
  - # 7