nqpoint: 300    
npath: 3      
segment_nqpoint:
- 100
- 100
- 100
labels:
- [ 'G', 'M' ]
- [ 'M', 'K' ]
- [ 'K', 'G' ]
reciprocal_lattice:
- [   0.27169622,   0.15686389,   0.00000000 ] # a*
- [   0.00000000,   0.31372777,   0.00000000 ] # b*
- [   0.00000000,   0.00000000,   0.03637998 ] # c*
natom: 8      
lattice:
- [     3.680581215758962,     0.000000000000000,     0.000000000000000 ] # a
- [    -1.840290607879481,     3.187476833548978,     0.000000000000000 ] # b
- [     0.000000000000000,     0.000000000000000,    27.487643180877452 ] # c
points:
- symbol: C # 1
  coordinates: [  0.000000000000000,  0.000000000000000,  0.528644638292506 ]
  mass: 12.010700
- symbol: C # 2
  coordinates: [  0.666666984744048,  0.333332985985145,  0.384198436003628 ]
  mass: 12.010700
- symbol: N # 3
  coordinates: [  0.333332985432215,  0.666666983183674,  0.625446268479633 ]
  mass: 14.006700
- symbol: N # 4
  coordinates: [  0.666666984744048,  0.333332985985145,  0.429564617324871 ]
  mass: 14.006700
- symbol: O # 5
  coordinates: [  0.333332985432215,  0.666666983183674,  0.672580150259623 ]
  mass: 15.999400
- symbol: S # 6
  coordinates: [  0.666666984744048,  0.333332985985145,  0.327419849740377 ]
  mass: 32.065000
- symbol: Y # 7
  coordinates: [  0.333332985432215,  0.666666983183674,  0.479417024959858 ]
  mass: 88.905850
- symbol: Y # 8
  coordinates: [  0.666666984744048,  0.333332985985145,  0.579313709098162 ]
  mass: 88.905850

phonon:
- q-position: [    0.0000000,    0.0000000,    0.0000000 ]
  distance:    0.0000000
  band:
  - # 1
    frequency:   -0.3548247983
  - # 2
    frequency:   -0.3548247981
  - # 3
    frequency:   -0.0000116523
  - # 4
    frequency:   -0.0000004274
  - # 5
    frequency:    0.0000143965
  - # 6
    frequency:    2.9310924316
  - # 7
    frequency:    2.9310924317
  - # 8
    frequency:    4.0755573235
  - # 9
    frequency:    4.0755573235
  - # 10
    frequency:    4.3604828281
  - # 11
    frequency:    5.5148818570
  - # 12
    frequency:    5.5148818570
  - # 13
    frequency:    6.1682619312
  - # 14
    frequency:    7.0469339269
  - # 15
    frequency:    7.6232560128
  - # 16
    frequency:    7.6232560128
  - # 17
    frequency:   10.1874552785
  - # 18
    frequency:   10.1874552786
  - # 19
    frequency:   14.7608716273
  - # 20
    frequency:   14.7608716273
  - # 21
    frequency:   14.8134250907
  - # 22
    frequency:   26.9144213937
  - # 23
    frequency:   43.3828859605
  - # 24
    frequency:   58.9995338966

- q-position: [    0.0050505,    0.0000000,    0.0000000 ]
  distance:    0.0015845
  band:
  - # 1
    frequency:   -0.3540059905
  - # 2
    frequency:   -0.3500855860
  - # 3
    frequency:    0.0014802161
  - # 4
    frequency:    0.0521573149
  - # 5
    frequency:    0.0856918742
  - # 6
    frequency:    2.9311711306
  - # 7
    frequency:    2.9317624409
  - # 8
    frequency:    4.0752151465
  - # 9
    frequency:    4.0754052287
  - # 10
    frequency:    4.3605552771
  - # 11
    frequency:    5.5149628854
  - # 12
    frequency:    5.5150971294
  - # 13
    frequency:    6.1682714373
  - # 14
    frequency:    7.0464279406
  - # 15
    frequency:    7.6224741442
  - # 16
    frequency:    7.6231148771
  - # 17
    frequency:   10.1873387018
  - # 18
    frequency:   10.1888370391
  - # 19
    frequency:   14.7601184189
  - # 20
    frequency:   14.7609123246
  - # 21
    frequency:   14.8136430721
  - # 22
    frequency:   26.9143703365
  - # 23
    frequency:   43.3821410704
  - # 24
    frequency:   58.9984273640

- q-position: [    0.0101010,    0.0000000,    0.0000000 ]
  distance:    0.0031690
  band:
  - # 1
    frequency:   -0.3514390448
  - # 2
    frequency:   -0.3354745429
  - # 3
    frequency:    0.0060448118
  - # 4
    frequency:    0.1039879764
  - # 5
    frequency:    0.1713259178
  - # 6
    frequency:    2.9314074648
  - # 7
    frequency:    2.9337676253
  - # 8
    frequency:    4.0741928343
  - # 9
    frequency:    4.0749494244
  - # 10
    frequency:    4.3607716882
  - # 11
    frequency:    5.5152058754
  - # 12
    frequency:    5.5157407311
  - # 13
    frequency:    6.1683015365
  - # 14
    frequency:    7.0449107907
  - # 15
    frequency:    7.6201290057
  - # 16
    frequency:    7.6226926595
  - # 17
    frequency:   10.1869895799
  - # 18
    frequency:   10.1929786539
  - # 19
    frequency:   14.7578644534
  - # 20
    frequency:   14.7610343724
  - # 21
    frequency:   14.8142929098
  - # 22
    frequency:   26.9142172208
  - # 23
    frequency:   43.3799075120
  - # 24
    frequency:   58.9951099471

- q-position: [    0.0151515,    0.0000000,    0.0000000 ]
  distance:    0.0047535
  band:
  - # 1
    frequency:   -0.3468277416
  - # 2
    frequency:   -0.3096628462
  - # 3
    frequency:    0.0141813178
  - # 4
    frequency:    0.1552594287
  - # 5
    frequency:    0.2568628233
  - # 6
    frequency:    2.9318021423
  - # 7
    frequency:    2.9370934811
  - # 8
    frequency:    4.0725029651
  - # 9
    frequency:    4.0741913483
  - # 10
    frequency:    4.3611293625
  - # 11
    frequency:    5.5156105405
  - # 12
    frequency:    5.5168060518
  - # 13
    frequency:    6.1683569473
  - # 14
    frequency:    7.0423848980
  - # 15
    frequency:    7.6162220008
  - # 16
    frequency:    7.6219929196
  - # 17
    frequency:   10.1864097365
  - # 18
    frequency:   10.1998691426
  - # 19
    frequency:   14.7541248546
  - # 20
    frequency:   14.7612376384
  - # 21
    frequency:   14.8153641361
  - # 22
    frequency:   26.9139622143
  - # 23
    frequency:   43.3761886176
  - # 24
    frequency:   58.9895881823

- q-position: [    0.0202020,    0.0000000,    0.0000000 ]
  distance:    0.0063379
  band:
  - # 1
    frequency:   -0.3397634791
  - # 2
    frequency:   -0.2697736945
  - # 3
    frequency:    0.0272877873
  - # 4
    frequency:    0.2058712107
  - # 5
    frequency:    0.3422839256
  - # 6
    frequency:    2.9323563308
  - # 7
    frequency:    2.9417159200
  - # 8
    frequency:    4.0701662514
  - # 9
    frequency:    4.0731333866
  - # 10
    frequency:    4.3616241547
  - # 11
    frequency:    5.5161764033
  - # 12
    frequency:    5.5182821974
  - # 13
    frequency:    6.1684454543
  - # 14
    frequency:    7.0388542775
  - # 15
    frequency:    7.6107554744
  - # 16
    frequency:    7.6210215613
  - # 17
    frequency:   10.1856022049
  - # 18
    frequency:   10.2094902671
  - # 19
    frequency:   14.7489201501
  - # 20
    frequency:   14.7615219023
  - # 21
    frequency:   14.8168439752
  - # 22
    frequency:   26.9136055962
  - # 23
    frequency:   43.3709899333
  - # 24
    frequency:   58.9818729434

- q-position: [    0.0252525,    0.0000000,    0.0000000 ]
  distance:    0.0079224
  band:
  - # 1
    frequency:   -0.3297779639
  - # 2
    frequency:   -0.2097228965
  - # 3
    frequency:    0.0502867179
  - # 4
    frequency:    0.2558349557
  - # 5
    frequency:    0.4275814997
  - # 6
    frequency:    2.9330716390
  - # 7
    frequency:    2.9476013885
  - # 8
    frequency:    4.0672111988
  - # 9
    frequency:    4.0717788596
  - # 10
    frequency:    4.3622509651
  - # 11
    frequency:    5.5169027952
  - # 12
    frequency:    5.5201541731
  - # 13
    frequency:    6.1685777883
  - # 14
    frequency:    7.0343245101
  - # 15
    frequency:    7.6037327209
  - # 16
    frequency:    7.6197867902
  - # 17
    frequency:   10.1845712192
  - # 18
    frequency:   10.2218166256
  - # 19
    frequency:   14.7422727623
  - # 20
    frequency:   14.7618868560
  - # 21
    frequency:   14.8187208385
  - # 22
    frequency:   26.9131477571
  - # 23
    frequency:   43.3643192063
  - # 24
    frequency:   58.9719794114

- q-position: [    0.0303030,    0.0000000,    0.0000000 ]
  distance:    0.0095069
  band:
  - # 1
    frequency:   -0.3163440838
  - # 2
    frequency:   -0.1241060304
  - # 3
    frequency:    0.1073997549
  - # 4
    frequency:    0.3052307660
  - # 5
    frequency:    0.5127493906
  - # 6
    frequency:    2.9339500912
  - # 7
    frequency:    2.9547070224
  - # 8
    frequency:    4.0636736907
  - # 9
    frequency:    4.0701320013
  - # 10
    frequency:    4.3630043625
  - # 11
    frequency:    5.5177888558
  - # 12
    frequency:    5.5224031382
  - # 13
    frequency:    6.1687674584
  - # 14
    frequency:    7.0288027040
  - # 15
    frequency:    7.5951579965
  - # 16
    frequency:    7.6182990572
  - # 17
    frequency:   10.1833222018
  - # 18
    frequency:   10.2368157799
  - # 19
    frequency:   14.7342054522
  - # 20
    frequency:   14.7623321041
  - # 21
    frequency:   14.8209858626
  - # 22
    frequency:   26.9125891985
  - # 23
    frequency:   43.3561863678
  - # 24
    frequency:   58.9599270323

- q-position: [    0.0353535,    0.0000000,    0.0000000 ]
  distance:    0.0110914
  band:
  - # 1
    frequency:   -0.2988194874
  - # 2
    frequency:   -0.0686231938
  - # 3
    frequency:    0.2133871247
  - # 4
    frequency:    0.3541682724
  - # 5
    frequency:    0.5977786040
  - # 6
    frequency:    2.9349940939
  - # 7
    frequency:    2.9629808229
  - # 8
    frequency:    4.0595965505
  - # 9
    frequency:    4.0681979340
  - # 10
    frequency:    4.3638792862
  - # 11
    frequency:    5.5188335324
  - # 12
    frequency:    5.5250067311
  - # 13
    frequency:    6.1690305362
  - # 14
    frequency:    7.0222974491
  - # 15
    frequency:    7.5850365360
  - # 16
    frequency:    7.6165709881
  - # 17
    frequency:   10.1818617461
  - # 18
    frequency:   10.2544484148
  - # 19
    frequency:   14.7247413879
  - # 20
    frequency:   14.7628571647
  - # 21
    frequency:   14.8236328171
  - # 22
    frequency:   26.9119305325
  - # 23
    frequency:   43.3466035107
  - # 24
    frequency:   58.9457394628

- q-position: [    0.0404040,    0.0000000,    0.0000000 ]
  distance:    0.0126759
  band:
  - # 1
    frequency:   -0.2763183561
  - # 2
    frequency:   -0.0389502567
  - # 3
    frequency:    0.3069957578
  - # 4
    frequency:    0.4027616467
  - # 5
    frequency:    0.6826564800
  - # 6
    frequency:    2.9362063968
  - # 7
    frequency:    2.9723618423
  - # 8
    frequency:    4.0550291255
  - # 9
    frequency:    4.0659826370
  - # 10
    frequency:    4.3648717744
  - # 11
    frequency:    5.5200355797
  - # 12
    frequency:    5.5279394606
  - # 13
    frequency:    6.1693853915
  - # 14
    frequency:    7.0148187651
  - # 15
    frequency:    7.5733745730
  - # 16
    frequency:    7.6146173042
  - # 17
    frequency:   10.1801975956
  - # 18
    frequency:   10.2746685263
  - # 19
    frequency:   14.7139049279
  - # 20
    frequency:   14.7634614698
  - # 21
    frequency:   14.8266572937
  - # 22
    frequency:   26.9111724810
  - # 23
    frequency:   43.3355848634
  - # 24
    frequency:   58.9294445047

- q-position: [    0.0454545,    0.0000000,    0.0000000 ]
  distance:    0.0142604
  band:
  - # 1
    frequency:   -0.2474388603
  - # 2
    frequency:    0.0335001850
  - # 3
    frequency:    0.3883821980
  - # 4
    frequency:    0.4511167462
  - # 5
    frequency:    0.7673672814
  - # 6
    frequency:    2.9375900463
  - # 7
    frequency:    2.9827803661
  - # 8
    frequency:    4.0500269336
  - # 9
    frequency:    4.0634929112
  - # 10
    frequency:    4.3659796771
  - # 11
    frequency:    5.5213935588
  - # 12
    frequency:    5.5311731606
  - # 13
    frequency:    6.1698523821
  - # 14
    frequency:    7.0063780463
  - # 15
    frequency:    7.5601793668
  - # 16
    frequency:    7.6124547336
  - # 17
    frequency:   10.1783386184
  - # 18
    frequency:   10.2974236347
  - # 19
    frequency:   14.7017224566
  - # 20
    frequency:   14.7641443659
  - # 21
    frequency:   14.8300558369
  - # 22
    frequency:   26.9103158750
  - # 23
    frequency:   43.3231467578
  - # 24
    frequency:   58.9110740276

- q-position: [    0.0505051,    0.0000000,    0.0000000 ]
  distance:    0.0158448
  band:
  - # 1
    frequency:   -0.2095681181
  - # 2
    frequency:    0.0656879311
  - # 3
    frequency:    0.4629674156
  - # 4
    frequency:    0.4993259337
  - # 5
    frequency:    0.8518930041
  - # 6
    frequency:    2.9391483339
  - # 7
    frequency:    2.9941580805
  - # 8
    frequency:    4.0446513967
  - # 9
    frequency:    4.0607363387
  - # 10
    frequency:    4.3672033194
  - # 11
    frequency:    5.5229058357
  - # 12
    frequency:    5.5346775008
  - # 13
    frequency:    6.1704534973
  - # 14
    frequency:    6.9969880050
  - # 15
    frequency:    7.5454592334
  - # 16
    frequency:    7.6101019176
  - # 17
    frequency:   10.1762947766
  - # 18
    frequency:   10.3226550201
  - # 19
    frequency:   14.6882230071
  - # 20
    frequency:   14.7649051155
  - # 21
    frequency:   14.8338252844
  - # 22
    frequency:   26.9093616541
  - # 23
    frequency:   43.3093075939
  - # 24
    frequency:   58.8906638802

- q-position: [    0.0555556,    0.0000000,    0.0000000 ]
  distance:    0.0174293
  band:
  - # 1
    frequency:   -0.1563748739
  - # 2
    frequency:    0.0920960550
  - # 3
    frequency:    0.5333442825
  - # 4
    frequency:    0.5474669689
  - # 5
    frequency:    0.9362140046
  - # 6
    frequency:    2.9408847386
  - # 7
    frequency:    3.0064082177
  - # 8
    frequency:    4.0389696712
  - # 9
    frequency:    4.0577212383
  - # 10
    frequency:    4.3685460957
  - # 11
    frequency:    5.5245705810
  - # 12
    frequency:    5.5384205487
  - # 13
    frequency:    6.1712119604
  - # 14
    frequency:    6.9866626168
  - # 15
    frequency:    7.5292235840
  - # 16
    frequency:    7.6075793135
  - # 17
    frequency:   10.1740770906
  - # 18
    frequency:   10.3502979756
  - # 19
    frequency:   14.6734386379
  - # 20
    frequency:   14.7657428978
  - # 21
    frequency:   14.8379623486
  - # 22
    frequency:   26.9083108654
  - # 23
    frequency:   43.2940877985
  - # 24
    frequency:   58.8682537911

- q-position: [    0.0606061,    0.0000000,    0.0000000 ]
  distance:    0.0190138
  band:
  - # 1
    frequency:   -0.0535327168
  - # 2
    frequency:    0.1179775420
  - # 3
    frequency:    0.5956037631
  - # 4
    frequency:    0.6008658787
  - # 5
    frequency:    1.0203093832
  - # 6
    frequency:    2.9428028646
  - # 7
    frequency:    3.0194356787
  - # 8
    frequency:    4.0330545711
  - # 9
    frequency:    4.0544566164
  - # 10
    frequency:    4.3700149862
  - # 11
    frequency:    5.5263857674
  - # 12
    frequency:    5.5423693713
  - # 13
    frequency:    6.1721517921
  - # 14
    frequency:    6.9754170688
  - # 15
    frequency:    7.5114829695
  - # 16
    frequency:    7.6049090960
  - # 17
    frequency:   10.1716975988
  - # 18
    frequency:   10.3802820761
  - # 19
    frequency:   14.6574046206
  - # 20
    frequency:   14.7666568096
  - # 21
    frequency:   14.8424633838
  - # 22
    frequency:   26.9071646623
  - # 23
    frequency:   43.2775097811
  - # 24
    frequency:   58.8438872581

- q-position: [    0.0656566,    0.0000000,    0.0000000 ]
  distance:    0.0205983
  band:
  - # 1
    frequency:    0.1442098463
  - # 2
    frequency:    0.1445423558
  - # 3
    frequency:    0.6437878202
  - # 4
    frequency:    0.6663120891
  - # 5
    frequency:    1.1041571667
  - # 6
    frequency:    2.9449063751
  - # 7
    frequency:    3.0331371394
  - # 8
    frequency:    4.0269845631
  - # 9
    frequency:    4.0509521157
  - # 10
    frequency:    4.3716209961
  - # 11
    frequency:    5.5283491684
  - # 12
    frequency:    5.5464906666
  - # 13
    frequency:    6.1732973426
  - # 14
    frequency:    6.9632677144
  - # 15
    frequency:    7.4922491327
  - # 16
    frequency:    7.6021150589
  - # 17
    frequency:   10.1691693108
  - # 18
    frequency:   10.4125314591
  - # 19
    frequency:   14.6401595035
  - # 20
    frequency:   14.7676458671
  - # 21
    frequency:   14.8473242737
  - # 22
    frequency:   26.9059243039
  - # 23
    frequency:   43.2595978845
  - # 24
    frequency:   58.8176114281

- q-position: [    0.0707071,    0.0000000,    0.0000000 ]
  distance:    0.0221828
  band:
  - # 1
    frequency:    0.1722318575
  - # 2
    frequency:    0.2155917870
  - # 3
    frequency:    0.6920597961
  - # 4
    frequency:    0.7301665922
  - # 5
    frequency:    1.1877343452
  - # 6
    frequency:    2.9471989228
  - # 7
    frequency:    3.0474011594
  - # 8
    frequency:    4.0208437987
  - # 9
    frequency:    4.0472179585
  - # 10
    frequency:    4.3733795261
  - # 11
    frequency:    5.5304583557
  - # 12
    frequency:    5.5507514108
  - # 13
    frequency:    6.1746727999
  - # 14
    frequency:    6.9502320356
  - # 15
    frequency:    7.4715350680
  - # 16
    frequency:    7.5992225182
  - # 17
    frequency:   10.1665061563
  - # 18
    frequency:   10.4469651146
  - # 19
    frequency:   14.6217451018
  - # 20
    frequency:   14.7687090068
  - # 21
    frequency:   14.8525403899
  - # 22
    frequency:   26.9045911533
  - # 23
    frequency:   43.2403783318
  - # 24
    frequency:   58.7894769659

- q-position: [    0.0757576,    0.0000000,    0.0000000 ]
  distance:    0.0237673
  band:
  - # 1
    frequency:    0.2012327250
  - # 2
    frequency:    0.2722601312
  - # 3
    frequency:    0.7404509364
  - # 4
    frequency:    0.7927457690
  - # 5
    frequency:    1.2710168044
  - # 6
    frequency:    2.9496840787
  - # 7
    frequency:    3.0621083217
  - # 8
    frequency:    4.0147221381
  - # 9
    frequency:    4.0432648889
  - # 10
    frequency:    4.3753106834
  - # 11
    frequency:    5.5327106971
  - # 12
    frequency:    5.5551195068
  - # 13
    frequency:    6.1763016837
  - # 14
    frequency:    6.9363286152
  - # 15
    frequency:    7.4493550897
  - # 16
    frequency:    7.5962582172
  - # 17
    frequency:   10.1637229274
  - # 18
    frequency:   10.4834971823
  - # 19
    frequency:   14.6022064472
  - # 20
    frequency:   14.7698450872
  - # 21
    frequency:   14.8581065883
  - # 22
    frequency:   26.9031666767
  - # 23
    frequency:   43.2198791693
  - # 24
    frequency:   58.7595379146

- q-position: [    0.0808081,    0.0000000,    0.0000000 ]
  distance:    0.0253517
  band:
  - # 1
    frequency:    0.2316244739
  - # 2
    frequency:    0.3219808435
  - # 3
    frequency:    0.7889843056
  - # 4
    frequency:    0.8542648325
  - # 5
    frequency:    1.3539791813
  - # 6
    frequency:    2.9523652601
  - # 7
    frequency:    3.0771314533
  - # 8
    frequency:    4.0087151023
  - # 9
    frequency:    4.0391041103
  - # 10
    frequency:    4.3774395464
  - # 11
    frequency:    5.5351033527
  - # 12
    frequency:    5.5595644164
  - # 13
    frequency:    6.1782063359
  - # 14
    frequency:    6.9215771205
  - # 15
    frequency:    7.4257249086
  - # 16
    frequency:    7.5932502351
  - # 17
    frequency:   10.1608352167
  - # 18
    frequency:   10.5220372530
  - # 19
    frequency:   14.5815917175
  - # 20
    frequency:   14.7710528906
  - # 21
    frequency:   14.8640172234
  - # 22
    frequency:   26.9016524418
  - # 23
    frequency:   43.1981302055
  - # 24
    frequency:   58.7278515456

- q-position: [    0.0858586,    0.0000000,    0.0000000 ]
  distance:    0.0269362
  band:
  - # 1
    frequency:    0.2634346091
  - # 2
    frequency:    0.3674964531
  - # 3
    frequency:    0.8376757991
  - # 4
    frequency:    0.9148744662
  - # 5
    frequency:    1.4365946563
  - # 6
    frequency:    2.9552456590
  - # 7
    frequency:    3.0923359897
  - # 8
    frequency:    4.0029236813
  - # 9
    frequency:    4.0347472208
  - # 10
    frequency:    4.3797963934
  - # 11
    frequency:    5.5376332715
  - # 12
    frequency:    5.5640577580
  - # 13
    frequency:    6.1804074213
  - # 14
    frequency:    6.9059982999
  - # 15
    frequency:    7.4006617176
  - # 16
    frequency:    7.5902278976
  - # 17
    frequency:   10.1578593489
  - # 18
    frequency:   10.5624906730
  - # 19
    frequency:   14.5599521558
  - # 20
    frequency:   14.7723311241
  - # 21
    frequency:   14.8702661729
  - # 22
    frequency:   26.9000501160
  - # 23
    frequency:   43.1751629473
  - # 24
    frequency:   58.6944782009

- q-position: [    0.0909091,    0.0000000,    0.0000000 ]
  distance:    0.0285207
  band:
  - # 1
    frequency:    0.2966628364
  - # 2
    frequency:    0.4101286838
  - # 3
    frequency:    0.8865349551
  - # 4
    frequency:    0.9746824055
  - # 5
    frequency:    1.5188346909
  - # 6
    frequency:    2.9583281737
  - # 7
    frequency:    3.1075805678
  - # 8
    frequency:    3.9974539105
  - # 9
    frequency:    4.0302061453
  - # 10
    frequency:    4.3824169015
  - # 11
    frequency:    5.5402971875
  - # 12
    frequency:    5.5685738525
  - # 13
    frequency:    6.1829234522
  - # 14
    frequency:    6.8896139948
  - # 15
    frequency:    7.3741842862
  - # 16
    frequency:    7.5872216905
  - # 17
    frequency:   10.1548123093
  - # 18
    frequency:   10.6047588478
  - # 19
    frequency:   14.5373419880
  - # 20
    frequency:   14.7736784220
  - # 21
    frequency:   14.8768468626
  - # 22
    frequency:   26.8983614654
  - # 23
    frequency:   43.1510105318
  - # 24
    frequency:   58.6594811265

- q-position: [    0.0959596,    0.0000000,    0.0000000 ]
  distance:    0.0301052
  band:
  - # 1
    frequency:    0.3312929312
  - # 2
    frequency:    0.4506222164
  - # 3
    frequency:    0.9355655946
  - # 4
    frequency:    1.0337667928
  - # 5
    frequency:    1.6006687116
  - # 6
    frequency:    2.9616153435
  - # 7
    frequency:    3.1227179526
  - # 8
    frequency:    3.9924161188
  - # 9
    frequency:    4.0254930645
  - # 10
    frequency:    4.3853423197
  - # 11
    frequency:    5.5430916141
  - # 12
    frequency:    5.5730901981
  - # 13
    frequency:    6.1857703474
  - # 14
    frequency:    6.8724471673
  - # 15
    frequency:    7.3463130644
  - # 16
    frequency:    7.5842631757
  - # 17
    frequency:   10.1517116663
  - # 18
    frequency:   10.6487395452
  - # 19
    frequency:   14.5138183394
  - # 20
    frequency:   14.7750933476
  - # 21
    frequency:   14.8837522934
  - # 22
    frequency:   26.8965883525
  - # 23
    frequency:   43.1257076558
  - # 24
    frequency:   58.6229262984

- q-position: [    0.1010101,    0.0000000,    0.0000000 ]
  distance:    0.0316897
  band:
  - # 1
    frequency:    0.3672990367
  - # 2
    frequency:    0.4894391088
  - # 3
    frequency:    0.9847663178
  - # 4
    frequency:    1.0921847884
  - # 5
    frequency:    1.6820637364
  - # 6
    frequency:    2.9651092915
  - # 7
    frequency:    3.1375964096
  - # 8
    frequency:    3.9879237472
  - # 9
    frequency:    4.0206203401
  - # 10
    frequency:    4.3886196104
  - # 11
    frequency:    5.5460128383
  - # 12
    frequency:    5.5775878595
  - # 13
    frequency:    6.1889610407
  - # 14
    frequency:    6.8545219474
  - # 15
    frequency:    7.3170702953
  - # 16
    frequency:    7.5813849083
  - # 17
    frequency:   10.1485754916
  - # 18
    frequency:   10.6943271940
  - # 19
    frequency:   14.4894411555
  - # 20
    frequency:   14.7765743947
  - # 21
    frequency:   14.8909750661
  - # 22
    frequency:   26.8947327345
  - # 23
    frequency:   43.0992905016
  - # 24
    frequency:   58.5848822409

- q-position: [    0.1060606,    0.0000000,    0.0000000 ]
  distance:    0.0332742
  band:
  - # 1
    frequency:    0.4046492022
  - # 2
    frequency:    0.5268856691
  - # 3
    frequency:    1.0341308828
  - # 4
    frequency:    1.1499783129
  - # 5
    frequency:    1.7629839389
  - # 6
    frequency:    2.9688116747
  - # 7
    frequency:    3.1520616470
  - # 8
    frequency:    3.9840916444
  - # 9
    frequency:    4.0156004362
  - # 10
    frequency:    4.3923015505
  - # 11
    frequency:    5.5490569146
  - # 12
    frequency:    5.5820517558
  - # 13
    frequency:    6.1925051443
  - # 14
    frequency:    6.8358637024
  - # 15
    frequency:    7.2864801373
  - # 16
    frequency:    7.5786203545
  - # 17
    frequency:   10.1454222763
  - # 18
    frequency:   10.7414131762
  - # 19
    frequency:   14.4642731256
  - # 20
    frequency:   14.7781199901
  - # 21
    frequency:   14.8985074048
  - # 22
    frequency:   26.8927966616
  - # 23
    frequency:   43.0717966604
  - # 24
    frequency:   58.5454198394

- q-position: [    0.1111111,    0.0000000,    0.0000000 ]
  distance:    0.0348586
  band:
  - # 1
    frequency:    0.4433074459
  - # 2
    frequency:    0.5631750376
  - # 3
    frequency:    1.0836484863
  - # 4
    frequency:    1.2071779915
  - # 5
    frequency:    1.8433901376
  - # 6
    frequency:    2.9727236468
  - # 7
    frequency:    3.1659594296
  - # 8
    frequency:    3.9810337732
  - # 9
    frequency:    4.0104458358
  - # 10
    frequency:    4.3964467702
  - # 11
    frequency:    5.5522196561
  - # 12
    frequency:    5.5864708401
  - # 13
    frequency:    6.1964086735
  - # 14
    frequency:    6.8164991324
  - # 15
    frequency:    7.2545687950
  - # 16
    frequency:    7.5760038095
  - # 17
    frequency:   10.1422708447
  - # 18
    frequency:   10.7898861107
  - # 19
    frequency:   14.4383796129
  - # 20
    frequency:   14.7797284955
  - # 21
    frequency:   14.9063411793
  - # 22
    frequency:   26.8907822744
  - # 23
    frequency:   43.0432650535
  - # 24
    frequency:   58.5046121458

- q-position: [    0.1161616,    0.0000000,    0.0000000 ]
  distance:    0.0364431
  band:
  - # 1
    frequency:    0.4832349763
  - # 2
    frequency:    0.5984611347
  - # 3
    frequency:    1.1333039648
  - # 4
    frequency:    1.2638059303
  - # 5
    frequency:    1.9232391981
  - # 6
    frequency:    2.9768458346
  - # 7
    frequency:    3.1791389313
  - # 8
    frequency:    3.9788603135
  - # 9
    frequency:    4.0051689522
  - # 10
    frequency:    4.4011197020
  - # 11
    frequency:    5.5554966262
  - # 12
    frequency:    5.5908381622
  - # 13
    frequency:    6.2006738307
  - # 14
    frequency:    6.7964563997
  - # 15
    frequency:    7.2213646591
  - # 16
    frequency:    7.5735703148
  - # 17
    frequency:   10.1391402673
  - # 18
    frequency:   10.8396321247
  - # 19
    frequency:   14.4118285908
  - # 20
    frequency:   14.7813982095
  - # 21
    frequency:   14.9144679258
  - # 22
    frequency:   26.8886918020
  - # 23
    frequency:   43.0137358507
  - # 24
    frequency:   58.4625341791

- q-position: [    0.1212121,    0.0000000,    0.0000000 ]
  distance:    0.0380276
  band:
  - # 1
    frequency:    0.5243909101
  - # 2
    frequency:    0.6328584288
  - # 3
    frequency:    1.1830779294
  - # 4
    frequency:    1.3198777149
  - # 5
    frequency:    2.0024833248
  - # 6
    frequency:    2.9811783325
  - # 7
    frequency:    3.1914568237
  - # 8
    frequency:    3.9776742343
  - # 9
    frequency:    3.9997820332
  - # 10
    frequency:    4.4063904018
  - # 11
    frequency:    5.5588831274
  - # 12
    frequency:    5.5951508176
  - # 13
    frequency:    6.2052988392
  - # 14
    frequency:    6.7757653020
  - # 15
    frequency:    7.1868984551
  - # 16
    frequency:    7.5713555725
  - # 17
    frequency:   10.1360497722
  - # 18
    frequency:   10.8905351114
  - # 19
    frequency:   14.3846905876
  - # 20
    frequency:   14.7831273701
  - # 21
    frequency:   14.9228788666
  - # 22
    frequency:   26.8865275596
  - # 23
    frequency:   42.9832503863
  - # 24
    frequency:   58.4192627217

- q-position: [    0.1262626,    0.0000000,    0.0000000 ]
  distance:    0.0396121
  band:
  - # 1
    frequency:    0.5667326714
  - # 2
    frequency:    0.6664540998
  - # 3
    frequency:    1.2329468436
  - # 4
    frequency:    1.3754038756
  - # 5
    frequency:    2.0810692133
  - # 6
    frequency:    2.9857207181
  - # 7
    frequency:    3.2027819990
  - # 8
    frequency:    3.9775675193
  - # 9
    frequency:    3.9942970587
  - # 10
    frequency:    4.4123341930
  - # 11
    frequency:    5.5623741889
  - # 12
    frequency:    5.5994097847
  - # 13
    frequency:    6.2102778085
  - # 14
    frequency:    6.7544575034
  - # 15
    frequency:    7.1512034010
  - # 16
    frequency:    7.5693958578
  - # 17
    frequency:   10.1330186570
  - # 18
    frequency:   10.9424769684
  - # 19
    frequency:   14.3570386404
  - # 20
    frequency:   14.7849141570
  - # 21
    frequency:   14.9315649288
  - # 22
    frequency:   26.8842919457
  - # 23
    frequency:   42.9518510745
  - # 24
    frequency:   58.3748761106

- q-position: [    0.1313131,    0.0000000,    0.0000000 ]
  distance:    0.0411966
  band:
  - # 1
    frequency:    0.6102161827
  - # 2
    frequency:    0.6993158611
  - # 3
    frequency:    1.2828830532
  - # 4
    frequency:    1.4303909816
  - # 5
    frequency:    2.1589370218
  - # 6
    frequency:    2.9904720926
  - # 7
    frequency:    3.2130007140
  - # 8
    frequency:    3.9786173676
  - # 9
    frequency:    3.9887256280
  - # 10
    frequency:    4.4190310811
  - # 11
    frequency:    5.5659645522
  - # 12
    frequency:    5.6036196618
  - # 13
    frequency:    6.2156006006
  - # 14
    frequency:    6.7325668494
  - # 15
    frequency:    7.1143153728
  - # 16
    frequency:    7.5677279268
  - # 17
    frequency:   10.1300662014
  - # 18
    frequency:   10.9953378155
  - # 19
    frequency:   14.3289482610
  - # 20
    frequency:   14.7867566936
  - # 21
    frequency:   14.9405167628
  - # 22
    frequency:   26.8819874399
  - # 23
    frequency:   42.9195813219
  - # 24
    frequency:   58.3294540254

- q-position: [    0.1363636,    0.0000000,    0.0000000 ]
  distance:    0.0427811
  band:
  - # 1
    frequency:    0.6547959154
  - # 2
    frequency:    0.7314971765
  - # 3
    frequency:    1.3328547734
  - # 4
    frequency:    1.4848424691
  - # 5
    frequency:    2.2360190983
  - # 6
    frequency:    2.9954311495
  - # 7