nqpoint: 300    
npath: 3      
segment_nqpoint:
- 100
- 100
- 100
labels:
- [ 'G', 'M' ]
- [ 'M', 'K' ]
- [ 'K', 'G' ]
reciprocal_lattice:
- [   0.30505657,   0.17612449,   0.00000000 ] # a*
- [   0.00000000,   0.35224899,   0.00000000 ] # b*
- [   0.00000000,   0.00000000,   0.04253266 ] # c*
natom: 5      
lattice:
- [     3.278080488714970,     0.000000000000000,     0.000000000000000 ] # a
- [    -1.639040244357485,     2.838900978869443,     0.000000000000000 ] # b
- [     0.000000000000000,     0.000000000000000,    23.511346619918594 ] # c
points:
- symbol: Br # 1
  coordinates: [  0.666666984744047,  0.333332985985145,  0.382793897154971 ]
  mass: 79.904000
- symbol: Hf # 2
  coordinates: [  0.333332985432214,  0.666666983183674,  0.467186487826264 ]
  mass: 178.490000
- symbol: Hf # 3
  coordinates: [  0.666666984744047,  0.333332985985145,  0.576541961880601 ]
  mass: 178.490000
- symbol: N # 4
  coordinates: [  0.000000000000000,  0.000000000000000,  0.523731856324850 ]
  mass: 14.006700
- symbol: O # 5
  coordinates: [  0.333332985432214,  0.666666983183674,  0.617206102845029 ]
  mass: 15.999400

phonon:
- q-position: [    0.0000000,    0.0000000,    0.0000000 ]
  distance:    0.0000000
  band:
  - # 1
    frequency:   -0.0000144752
  - # 2
    frequency:    0.0000001092
  - # 3
    frequency:    0.0000105806
  - # 4
    frequency:    2.3103490307
  - # 5
    frequency:    2.3103490307
  - # 6
    frequency:    3.6053308268
  - # 7
    frequency:    3.6053308268
  - # 8
    frequency:    3.9375531620
  - # 9
    frequency:    6.7748741840
  - # 10
    frequency:   10.6972357130
  - # 11
    frequency:   10.6972357131
  - # 12
    frequency:   15.0043278305
  - # 13
    frequency:   15.0043278306
  - # 14
    frequency:   15.1882133265
  - # 15
    frequency:   16.0077655939

- q-position: [    0.0050505,    0.0000000,    0.0000000 ]
  distance:    0.0017790
  band:
  - # 1
    frequency:    0.0016702894
  - # 2
    frequency:    0.0640852161
  - # 3
    frequency:    0.0883855297
  - # 4
    frequency:    2.3108805686
  - # 5
    frequency:    2.3120919852
  - # 6
    frequency:    3.6031599072
  - # 7
    frequency:    3.6056475209
  - # 8
    frequency:    3.9403729199
  - # 9
    frequency:    6.7741922565
  - # 10
    frequency:   10.6973440264
  - # 11
    frequency:   10.6973843341
  - # 12
    frequency:   15.0039195875
  - # 13
    frequency:   15.0044267643
  - # 14
    frequency:   15.1878391818
  - # 15
    frequency:   16.0068385620

- q-position: [    0.0101010,    0.0000000,    0.0000000 ]
  distance:    0.0035581
  band:
  - # 1
    frequency:    0.0068531763
  - # 2
    frequency:    0.1281171155
  - # 3
    frequency:    0.1766885313
  - # 4
    frequency:    2.3124725746
  - # 5
    frequency:    2.3173001106
  - # 6
    frequency:    3.5968879344
  - # 7
    frequency:    3.6065968243
  - # 8
    frequency:    3.9485953830
  - # 9
    frequency:    6.7721479560
  - # 10
    frequency:   10.6976699555
  - # 11
    frequency:   10.6978216490
  - # 12
    frequency:   15.0026929114
  - # 13
    frequency:   15.0047234213
  - # 14
    frequency:   15.1867194565
  - # 15
    frequency:   16.0040666198

- q-position: [    0.0151515,    0.0000000,    0.0000000 ]
  distance:    0.0053371
  band:
  - # 1
    frequency:    0.0154360342
  - # 2
    frequency:    0.1920425759
  - # 3
    frequency:    0.2648257284
  - # 4
    frequency:    2.3151172539
  - # 5
    frequency:    2.3259119442
  - # 6
    frequency:    3.5871464796
  - # 7
    frequency:    3.6081764057
  - # 8
    frequency:    3.9616010051
  - # 9
    frequency:    6.7687457211
  - # 10
    frequency:   10.6982164603
  - # 11
    frequency:   10.6985221276
  - # 12
    frequency:   15.0006418821
  - # 13
    frequency:   15.0052173662
  - # 14
    frequency:   15.1848623240
  - # 15
    frequency:   15.9994771853

- q-position: [    0.0202020,    0.0000000,    0.0000000 ]
  distance:    0.0071161
  band:
  - # 1
    frequency:    0.0273412130
  - # 2
    frequency:    0.2558088613
  - # 3
    frequency:    0.3527123273
  - # 4
    frequency:    2.3188017110
  - # 5
    frequency:    2.3378274725
  - # 6
    frequency:    3.5747572709
  - # 7
    frequency:    3.6103823989
  - # 8
    frequency:    3.9785884299
  - # 9
    frequency:    6.7639929213
  - # 10
    frequency:   10.6989884524
  - # 11
    frequency:   10.6994436038
  - # 12
    frequency:   14.9977563701
  - # 13
    frequency:   15.0059078682
  - # 14
    frequency:   15.1822815623
  - # 15
    frequency:   15.9931158114

- q-position: [    0.0252525,    0.0000000,    0.0000000 ]
  distance:    0.0088952
  band:
  - # 1
    frequency:    0.0424642314
  - # 2
    frequency:    0.3193638133
  - # 3
    frequency:    0.4402612152
  - # 4
    frequency:    2.3235080900
  - # 5
    frequency:    2.3529114964
  - # 6
    frequency:    3.5605501445
  - # 7
    frequency:    3.6132094314
  - # 8
    frequency:    3.9987570332
  - # 9
    frequency:    6.7578998177
  - # 10
    frequency:   10.6999927614
  - # 11
    frequency:   10.7005278546
  - # 12
    frequency:   14.9940216507
  - # 13
    frequency:   15.0067938916
  - # 14
    frequency:   15.1789967800
  - # 15
    frequency:   15.9850459642

- q-position: [    0.0303030,    0.0000000,    0.0000000 ]
  distance:    0.0106742
  band:
  - # 1
    frequency:    0.0606786969
  - # 2
    frequency:    0.3826560395
  - # 3
    frequency:    0.5273821028
  - # 4
    frequency:    2.3292137689
  - # 5
    frequency:    2.3709978502
  - # 6
    frequency:    3.5452632731
  - # 7
    frequency:    3.6166506631
  - # 8
    frequency:    4.0214073844
  - # 9
    frequency:    6.7504795075
  - # 10
    frequency:   10.7012380888
  - # 11
    frequency:   10.7017014146
  - # 12
    frequency:   14.9894178841
  - # 13
    frequency:   15.0078740853
  - # 14
    frequency:   15.1750337121
  - # 15
    frequency:   15.9753487038

- q-position: [    0.0353535,    0.0000000,    0.0000000 ]
  distance:    0.0124532
  band:
  - # 1
    frequency:    0.0818412821
  - # 2
    frequency:    0.4456350976
  - # 3
    frequency:    0.6139805955
  - # 4
    frequency:    2.3358916023
  - # 5
    frequency:    2.3918940951
  - # 6
    frequency:    3.5295153935
  - # 7
    frequency:    3.6206978348
  - # 8
    frequency:    4.0459698958
  - # 9
    frequency:    6.7417478573
  - # 10
    frequency:   10.7027349477
  - # 11
    frequency:   10.7028766314
  - # 12
    frequency:   14.9839194927
  - # 13
    frequency:   15.0091467682
  - # 14
    frequency:   15.1704245570
  - # 15
    frequency:   15.9641222566

- q-position: [    0.0404040,    0.0000000,    0.0000000 ]
  distance:    0.0142323
  band:
  - # 1
    frequency:    0.1057967833
  - # 2
    frequency:    0.5082516748
  - # 3
    frequency:    0.6999571753
  - # 4
    frequency:    2.3435102082
  - # 5
    frequency:    2.4153863216
  - # 6
    frequency:    3.5138164317
  - # 7
    frequency:    3.6253413265
  - # 8
    frequency:    4.0719952433
  - # 9
    frequency:    6.7317234251
  - # 10
    frequency:   10.7039529642
  - # 11
    frequency:   10.7044955890
  - # 12
    frequency:   14.9774944917
  - # 13
    frequency:   15.0106099138
  - # 14
    frequency:   15.1652082980
  - # 15
    frequency:   15.9514814674

- q-position: [    0.0454545,    0.0000000,    0.0000000 ]
  distance:    0.0160113
  band:
  - # 1
    frequency:    0.1323829541
  - # 2
    frequency:    0.5704577617
  - # 3
    frequency:    0.7852060763
  - # 4
    frequency:    2.3520342953
  - # 5
    frequency:    2.4412437684
  - # 6
    frequency:    3.4985911453
  - # 7
    frequency:    3.6305702217
  - # 8
    frequency:    4.0991319039
  - # 9
    frequency:    6.7204273736
  - # 10
    frequency:   10.7048185303
  - # 11
    frequency:   10.7065339137
  - # 12
    frequency:   14.9701038630
  - # 13
    frequency:   15.0122611337
  - # 14
    frequency:   15.1594309280
  - # 15
    frequency:   15.9375571174

- q-position: [    0.0505051,    0.0000000,    0.0000000 ]
  distance:    0.0177904
  band:
  - # 1
    frequency:    0.1614348620
  - # 2
    frequency:    0.6322068180
  - # 3
    frequency:    0.8696140405
  - # 4
    frequency:    2.3614250240
  - # 5
    frequency:    2.4692230750
  - # 6
    frequency:    3.4842032505
  - # 7
    frequency:    3.6363723792
  - # 8
    frequency:    4.1271032758
  - # 9
    frequency:    6.7078833781
  - # 10
    frequency:   10.7053518995
  - # 11
    frequency:   10.7088653714
  - # 12
    frequency:   14.9617010982
  - # 13
    frequency:   15.0140976600
  - # 14
    frequency:   15.1531454504
  - # 15
    frequency:   15.9224950941

- q-position: [    0.0555556,    0.0000000,    0.0000000 ]
  distance:    0.0195694
  band:
  - # 1
    frequency:    0.1927886052
  - # 2
    frequency:    0.6934539303
  - # 3
    frequency:    0.9530589462
  - # 4
    frequency:    2.3716403956
  - # 5
    frequency:    2.4990721186
  - # 6
    frequency:    3.4709756069
  - # 7
    frequency:    3.6427345101
  - # 8
    frequency:    4.1556886964
  - # 9
    frequency:    6.6941175298
  - # 10
    frequency:   10.7054241365
  - # 11
    frequency:   10.7115068442
  - # 12
    frequency:   14.9522320803
  - # 13
    frequency:   15.0161163288
  - # 14
    frequency:   15.1464115002
  - # 15
    frequency:   15.9064553969

- q-position: [    0.0606061,    0.0000000,    0.0000000 ]
  distance:    0.0213484
  band:
  - # 1
    frequency:    0.2262843123
  - # 2
    frequency:    0.7541559602
  - # 3
    frequency:    1.0354083087
  - # 4
    frequency:    2.3826356644
  - # 5
    frequency:    2.5305335320
  - # 6
    frequency:    3.4592056653
  - # 7
    frequency:    3.6496422579
  - # 8
    frequency:    4.1847089753
  - # 9
    frequency:    6.6791582384
  - # 10
    frequency:   10.7049010834
  - # 11
    frequency:   10.7144765170
  - # 12
    frequency:   14.9416354952
  - # 13
    frequency:   15.0183135648
  - # 14
    frequency:   15.1392943986
  - # 15
    frequency:   15.8896109687

- q-position: [    0.0656566,    0.0000000,    0.0000000 ]
  distance:    0.0231275
  band:
  - # 1
    frequency:    0.2617684176
  - # 2
    frequency:    0.8142716805
  - # 3
    frequency:    1.1165176708
  - # 4
    frequency:    2.3943637670
  - # 5
    frequency:    2.5633481482
  - # 6
    frequency:    3.4491765604
  - # 7
    frequency:    3.6570802814
  - # 8
    frequency:    4.2140157870
  - # 9
    frequency:    6.6630361346
  - # 10
    frequency:   10.7036458709
  - # 11
    frequency:   10.7177937338
  - # 12
    frequency:   14.9298439607
  - # 13
    frequency:   15.0206853685
  - # 14
    frequency:   15.1318634680
  - # 15
    frequency:   15.8721463433

- q-position: [    0.0707071,    0.0000000,    0.0000000 ]
  distance:    0.0249065
  band:
  - # 1
    frequency:    0.2990952583
  - # 2
    frequency:    0.8737618996
  - # 3
    frequency:    1.1962289237
  - # 4
    frequency:    2.4067757623
  - # 5
    frequency:    2.5972587622
  - # 6
    frequency:    3.4411643589
  - # 7
    frequency:    3.6650323393
  - # 8
    frequency:    4.2434840274
  - # 9
    frequency:    6.6457839753
  - # 10
    frequency:   10.7015216395
  - # 11
    frequency:   10.7214788404
  - # 12
    frequency:   14.9167860055
  - # 13
    frequency:   15.0232273053
  - # 14
    frequency:   15.1241894831
  - # 15
    frequency:   15.8542561067

- q-position: [    0.0757576,    0.0000000,    0.0000000 ]
  distance:    0.0266855
  band:
  - # 1
    frequency:    0.3381280688
  - # 2
    frequency:    0.9325895712
  - # 3
    frequency:    1.2743686370
  - # 4
    frequency:    2.4198212779
  - # 5
    frequency:    2.6320147266
  - # 6
    frequency:    3.4354417370
  - # 7
    frequency:    3.6734813745
  - # 8
    frequency:    4.2730063396
  - # 9
    frequency:    6.6274365528
  - # 10
    frequency:   10.6983944397
  - # 11
    frequency:   10.7255530131
  - # 12
    frequency:   14.9023889221
  - # 13
    frequency:   15.0259345000
  - # 14
    frequency:   15.1163412491
  - # 15
    frequency:   15.8361431787

- q-position: [    0.0808081,    0.0000000,    0.0000000 ]
  distance:    0.0284646
  band:
  - # 1
    frequency:    0.3787394658
  - # 2
    frequency:    0.9907198889
  - # 3
    frequency:    1.3507465286
  - # 4
    frequency:    2.4334489581
  - # 5
    frequency:    2.6673779784
  - # 6
    frequency:    3.4322780597
  - # 7
    frequency:    3.6824095971
  - # 8
    frequency:    4.3024892000
  - # 9
    frequency:    6.6080306090
  - # 10
    frequency:   10.6941362743
  - # 11
    frequency:   10.7300380759
  - # 12
    frequency:   14.8865823584
  - # 13
    frequency:   15.0288016347
  - # 14
    frequency:   15.1083814583
  - # 15
    frequency:   15.8180169259

- q-position: [    0.0858586,    0.0000000,    0.0000000 ]
  distance:    0.0302436
  band:
  - # 1
    frequency:    0.4208115181
  - # 2
    frequency:    1.0481203637
  - # 3
    frequency:    1.4251542850
  - # 4
    frequency:    2.4476069082
  - # 5
    frequency:    2.7031310545
  - # 6
    frequency:    3.4319356368
  - # 7
    frequency:    3.6917985668
  - # 8
    frequency:    4.3318501219
  - # 9
    frequency:    6.5876047566
  - # 10
    frequency:   10.6886282320
  - # 11
    frequency:   10.7349563046
  - # 12
    frequency:   14.8693023452
  - # 13
    frequency:   15.0318229523
  - # 14
    frequency:   15.1003621462
  - # 15
    frequency:   15.8000911249

- q-position: [    0.0909091,    0.0000000,    0.0000000 ]
  distance:    0.0320226
  band:
  - # 1
    frequency:    0.4642354923
  - # 2
    frequency:    1.1047608842
  - # 3
    frequency:    1.4973650325
  - # 4
    frequency:    2.4622431315
  - # 5
    frequency:    2.7390874235
  - # 6
    frequency:    3.4346619284
  - # 7
    frequency:    3.7016292723
  - # 8
    frequency:    4.3610156644
  - # 9
    frequency:    6.5661994061
  - # 10
    frequency:   10.6817636527
  - # 11
    frequency:   10.7403302212
  - # 12
    frequency:   14.8504953330
  - # 13
    frequency:   15.0349922659
  - # 14
    frequency:   15.0923202077
  - # 15
    frequency:   15.7825817928

- q-position: [    0.0959596,    0.0000000,    0.0000000 ]
  distance:    0.0338017
  band:
  - # 1
    frequency:    0.5089113545
  - # 2
    frequency:    1.1606137561
  - # 3
    frequency:    1.5671338800
  - # 4
    frequency:    2.4773059560
  - # 5
    frequency:    2.7751039085
  - # 6
    frequency:    3.4406778077
  - # 7
    frequency:    3.7118822079
  - # 8
    frequency:    4.3899200284
  - # 9
    frequency:    6.5438567014
  - # 10
    frequency:   10.6734512527
  - # 11
    frequency:   10.7461823773
  - # 12
    frequency:   14.8301217728
  - # 13
    frequency:   15.0383029745
  - # 14
    frequency:   15.0842734871
  - # 15
    frequency:   15.7657048949

- q-position: [    0.1010101,    0.0000000,    0.0000000 ]
  distance:    0.0355807
  band:
  - # 1
    frequency:    0.5547470953
  - # 2
    frequency:    1.2156537232
  - # 3
    frequency:    1.6342000660
  - # 4
    frequency:    2.4927444459
  - # 5
    frequency:    2.8110940749
  - # 6
    frequency:    3.4501626949
  - # 7
    frequency:    3.7225374469
  - # 8
    frequency:    4.4185040893
  - # 9
    frequency:    6.5206204616
  - # 10
    frequency:   10.6636181335
  - # 11
    frequency:   10.7525351308
  - # 12
    frequency:   14.8081588485
  - # 13
    frequency:   15.0417480846
  - # 14
    frequency:   15.0762179070
  - # 15
    frequency:   15.7496739211

- q-position: [    0.1060606,    0.0000000,    0.0000000 ]
  distance:    0.0373597
  band:
  - # 1
    frequency:    0.6016579343
  - # 2
    frequency:    1.2698579655
  - # 3
    frequency:    1.6982913226
  - # 4
    frequency:    2.5085087974
  - # 5
    frequency:    2.8470403013
  - # 6
    frequency:    3.4632383962
  - # 7
    frequency:    3.7335747130
  - # 8
    frequency:    4.4467147627
  - # 9
    frequency:    6.4965361310
  - # 10
    frequency:   10.6522125886
  - # 11
    frequency:   10.7594104146
  - # 12
    frequency:   14.7846021251
  - # 13
    frequency:   15.0453202392
  - # 14
    frequency:   15.0681259806
  - # 15
    frequency:   15.7346972986

- q-position: [    0.1111111,    0.0000000,    0.0000000 ]
  distance:    0.0391388
  band:
  - # 1
    frequency:    0.6495654491
  - # 2
    frequency:    1.3232060769
  - # 3
    frequency:    1.7591310556
  - # 4
    frequency:    2.5245507141
  - # 5
    frequency:    2.8830012193
  - # 6
    frequency:    3.4799544797
  - # 7
    frequency:    3.7449734471
  - # 8
    frequency:    4.4745046319
  - # 9
    frequency:    6.4716507353
  - # 10
    frequency:   10.6392066251
  - # 11
    frequency:   10.7668295017
  - # 12
    frequency:   14.7594660566
  - # 13
    frequency:   15.0490117530
  - # 14
    frequency:   15.0599468882
  - # 15
    frequency:   15.7209755825

- q-position: [    0.1161616,    0.0000000,    0.0000000 ]
  distance:    0.0409178
  band:
  - # 1
    frequency:    0.6983966620
  - # 2
    frequency:    1.3756800193
  - # 3
    frequency:    1.8164487538
  - # 4
    frequency:    2.5408237621
  - # 5
    frequency:    2.9191109015
  - # 6
    frequency:    3.5002784865
  - # 7
    frequency:    3.7567128724
  - # 8
    frequency:    4.5018317892
  - # 9
    frequency:    6.4460128444
  - # 10
    frequency:   10.6245981163
  - # 11
    frequency:   10.7748127672
  - # 12
    frequency:   14.7327834630
  - # 13
    frequency:   15.0516081562
  - # 14
    frequency:   15.0528146541
  - # 15
    frequency:   15.7086983531

- q-position: [    0.1212121,    0.0000000,    0.0000000 ]
  distance:    0.0426968
  band:
  - # 1
    frequency:    0.7480831115
  - # 2
    frequency:    1.4272640552
  - # 3
    frequency:    1.8699936003
  - # 4
    frequency:    2.5572837009
  - # 5
    frequency:    2.9555671496
  - # 6
    frequency:    3.5240937129
  - # 7
    frequency:    3.7687720566
  - # 8
    frequency:    4.5286598573
  - # 9
    frequency:    6.4196725402
  - # 10
    frequency:   10.6084125105
  - # 11
    frequency:   10.7833794501
  - # 12
    frequency:   14.7046041793
  - # 13
    frequency:   15.0430188500
  - # 14
    frequency:   15.0567207322
  - # 15
    frequency:   15.6980407629

- q-position: [    0.1262626,    0.0000000,    0.0000000 ]
  distance:    0.0444759
  band:
  - # 1
    frequency:    0.7985599262
  - # 2
    frequency:    1.4779446569
  - # 3
    frequency:    1.9195505529
  - # 4
    frequency:    2.5738887907
  - # 5
    frequency:    2.9926085704
  - # 6
    frequency:    3.5512056541
  - # 7
    frequency:    3.7811299719
  - # 8
    frequency:    4.5549581701
  - # 9
    frequency:    6.3926813895
  - # 10
    frequency:   10.5907040329
  - # 11
    frequency:   10.7925474170
  - # 12
    frequency:   14.6749931247
  - # 13
    frequency:   15.0340740871
  - # 14
    frequency:   15.0607215923
  - # 15
    frequency:   15.6891597325

- q-position: [    0.1313131,    0.0000000,    0.0000000 ]
  distance:    0.0462549
  band:
  - # 1
    frequency:    0.8497649170
  - # 2
    frequency:    1.5277103936
  - # 3
    frequency:    1.9649572805
  - # 4
    frequency:    2.5906000743
  - # 5
    frequency:    3.0304831696
  - # 6
    frequency:    3.5813560286
  - # 7
    frequency:    3.7937655528
  - # 8
    frequency:    4.5807020972
  - # 9
    frequency:    6.3650924189
  - # 10
    frequency:   10.5715563313
  - # 11
    frequency:   10.8023329308
  - # 12
    frequency:   14.6440280272
  - # 13
    frequency:   15.0246605713
  - # 14
    frequency:   15.0648087135
  - # 15
    frequency:   15.6821898946

- q-position: [    0.1363636,    0.0000000,    0.0000000 ]
  distance:    0.0480340
  band:
  - # 1
    frequency:    0.9016376944
  - # 2
    frequency:    1.5765517964
  - # 3
    frequency:    2.0061195495
  - # 4
    frequency:    2.6073816323
  - # 5
    frequency:    3.0694137512
  - # 6
    frequency:    3.6142415249
  - # 7
    frequency:    3.8066577530
  - # 8
    frequency:    4.6058734996
  - # 9
    frequency:    6.3369600927
  - # 10
    frequency:   10.5510825351
  - # 11
    frequency:   10.8127504258
  - # 12
    frequency:   14.6117970094
  - # 13
    frequency:   15.0146627298
  - # 14
    frequency:   15.0689735128
  - # 15
    frequency:   15.6772395168

- q-position: [    0.1414141,    0.0000000,    0.0000000 ]
  distance:    0.0498130
  band:
  - # 1
    frequency:    0.9541188201
  - # 2
    frequency:    1.6244612020
  - # 3
    frequency:    2.0430223208
  - # 4
    frequency:    2.6242008126
  - # 5
    frequency:    3.1095664161
  - # 6
    frequency:    3.6495337396
  - # 7
    frequency:    3.8197855998
  - # 8
    frequency:    4.6304613059
  - # 9
    frequency:    6.3083402906
  - # 10
    frequency:   10.5294247172
  - # 11
    frequency:   10.8238122927
  - # 12
    frequency:   14.5783961967
  - # 13
    frequency:   15.0039689319
  - # 14
    frequency:   15.0732074116
  - # 15
    frequency:   15.6743867619

- q-position: [    0.1464646,    0.0000000,    0.0000000 ]
  distance:    0.0515920
  band:
  - # 1
    frequency:    1.0071489955
  - # 2
    frequency:    1.6714325761
  - # 3
    frequency:    2.0757342487
  - # 4
    frequency:    2.6410284336
  - # 5
    frequency:    3.1510275188
  - # 6
    frequency:    3.6868972774
  - # 7
    frequency:    3.8331282482
  - # 8
    frequency:    4.6544621931
  - # 9
    frequency:    6.2792902840
  - # 10
    frequency:   10.5067527656
  - # 11
    frequency:   10.8355286763
  - # 12
    frequency:   14.5439274688
  - # 13
    frequency:   14.9924772147
  - # 14
    frequency:   15.0775019060
  - # 15
    frequency:   15.6736767215

- q-position: [    0.1515152,    0.0000000,    0.0000000 ]
  distance:    0.0533711
  band:
  - # 1
    frequency:    1.0606682892
  - # 2
    frequency:    1.7174613169
  - # 3
    frequency:    2.1044044823
  - # 4
    frequency:    2.6578389607
  - # 5
    frequency:    3.1937920328
  - # 6
    frequency:    3.7260041895
  - # 7
    frequency:    3.8466650325
  - # 8
    frequency:    4.6778813529
  - # 9
    frequency:    6.2498687106
  - # 10
    frequency:   10.4832626926
  - # 11
    frequency:   10.8479072871
  - # 12
    frequency:   14.5084964366
  - # 13
    frequency:   14.9800999721
  - # 14
    frequency:   15.0818486380
  - # 15
    frequency:   15.6751196490

- q-position: [    0.1565657,    0.0000000,    0.0000000 ]
  distance:    0.0551501
  band:
  - # 1
    frequency:    1.1146154066
  - # 2
    frequency:    1.7625440423
  - # 3
    frequency:    2.1292523016
  - # 4
    frequency:    2.6746106578
  - # 5
    frequency:    3.2377633715
  - # 6
    frequency:    3.7665442009
  - # 7
    frequency:    3.8603755168
  - # 8
    frequency:    4.7007333099
  - # 9
    frequency:    6.2201355446
  - # 10
    frequency:   10.4591744229
  - # 11
    frequency:   10.8609532305
  - # 12
    frequency:   14.4722106930
  - # 13
    frequency:   14.9667672027
  - # 14
    frequency:   15.0862394678
  - # 15
    frequency:   15.6786906971

- q-position: [    0.1616162,    0.0000000,    0.0000000 ]
  distance:    0.0569291
  band:
  - # 1
    frequency:    1.1689269999
  - # 2
    frequency:    1.8066783592
  - # 3
    frequency:    2.1505515794
  - # 4
    frequency:    2.6913257144
  - # 5
    frequency:    3.2827623339
  - # 6
    frequency:    3.8082311155
  - # 7
    frequency:    3.8742395432
  - # 8
    frequency:    4.7230427472
  - # 9
    frequency:    6.1901520634
  - # 10
    frequency:   10.4347291151
  - # 11
    frequency:   10.8746688548
  - # 12
    frequency:   14.4351783610
  - # 13
    frequency:   14.9524281274
  - # 14
    frequency:   15.0906665456
  - # 15
    frequency:   15.6843312672

- q-position: [    0.1666667,    0.0000000,    0.0000000 ]
  distance:    0.0587082
  band:
  - # 1
    frequency:    1.2235370179
  - # 2
    frequency:    1.8498626210
  - # 3
    frequency:    2.1686128325
  - # 4
    frequency:    2.7079703474
  - # 5
    frequency:    3.3285416113
  - # 6
    frequency:    3.8508062548
  - # 7
    frequency:    3.8882372769
  - # 8
    frequency:    4.7448452721
  - # 9
    frequency:    6.1599808103
  - # 10
    frequency:   10.4101860832
  - # 11
    frequency:   10.8890536214
  - # 12
    frequency:   14.3975069358
  - # 13
    frequency:   14.9370512366
  - # 14
    frequency:   15.0951223814
  - # 15
    frequency:   15.6919518481

- q-position: [    0.1717172,    0.0000000,    0.0000000 ]
  distance:    0.0604872
  band:
  - # 1
    frequency:    1.2783760951
  - # 2
    frequency:    1.8920956726
  - # 3
    frequency:    2.1837655732
  - # 4
    frequency:    2.7245348805
  - # 5
    frequency:    3.3748022787
  - # 6
    frequency:    3.8940398822
  - # 7
    frequency:    3.9023492490
  - # 8
    frequency:    4.7661880330
  - # 9
    frequency:    6.1296855565
  - # 10
    frequency:   10.3858193860
  - # 11
    frequency:   10.9041039969
  - # 12
    frequency:   14.3593024055
  - # 13
    frequency:   14.9206230333
  - # 14
    frequency:   15.0995999129
  - # 15
    frequency:   15.7014360260

- q-position: [    0.1767677,    0.0000000,    0.0000000 ]
  distance:    0.0622662
  band:
  - # 1
    frequency:    1.3333709758
  - # 2
    frequency:    1.9333765889
  - # 3
    frequency:    2.1963429770
  - # 4
    frequency:    2.7410137993
  - # 5
    frequency:    3.4212095327
  - # 6
    frequency:    3.9165563946
  - # 7
    frequency:    3.9377314343
  - # 8
    frequency:    4.7871300689
  - # 9
    frequency:    6.0993312650
  - # 10
    frequency:   10.3619141602
  - # 11
    frequency:   10.9198133706
  - # 12
    frequency:   14.3206686203
  - # 13
    frequency:   14.9031458675
  - # 14
    frequency:   15.1040925687
  - # 15
    frequency:   15.7126452350

- q-position: [    0.1818182,    0.0000000,    0.0000000 ]
  distance:    0.0640453
  band:
  - # 1
    frequency:    1.3884439666
  - # 2
    frequency:    1.9737044088
  - # 3
    frequency:    2.2066699539
  - # 4
    frequency:    2.7574057832
  - # 5
    frequency:    3.4674061317
  - # 6
    frequency:    3.9308400869
  - # 7
    frequency:    3.9817091461
  - # 8
    frequency:    4.8077422452
  - # 9
    frequency:    6.0689840661
  - # 10
    frequency:   10.3387627712
  - # 11
    frequency:   10.9361719971
  - # 12
    frequency:   14.2817068737
  - # 13
    frequency:   14.8846352876
  - # 14
    frequency:   15.1085943273
  - # 15
    frequency:   15.7254237967

- q-position: [    0.1868687,    0.0000000,    0.0000000 ]
  distance:    0.0658243
  band:
  - # 1
    frequency:    1.4435124108
  - # 2
    frequency:    2.0130778725
  - # 3
    frequency:    2.2150548598
  - # 4
    frequency:    2.7737137117
  - # 5
    frequency:    3.5130231043
  - # 6
    frequency:    3.9451821658
  - # 7
    frequency:    4.0258294115
  - # 8
    frequency:    4.8281066071
  - # 9
    frequency:    6.0387112553
  - # 10
    frequency:   10.3166608552
  - # 11
    frequency:   10.9531669667
  - # 12
    frequency:   14.2425156599
  - # 13
    frequency:   14.8651172869
  - # 14
    frequency:   15.1130997694
  - # 15
    frequency:   15.7396038573

- q-position: [    0.1919192,    0.0000000,    0.0000000 ]
  distance:    0.0676033
  band:
  - # 1
    frequency:    1.4984881677
  - # 2
    frequency:    2.0514951654
  - # 3
    frequency:    2.2217845162
  - # 4
    frequency:    2.7899446429
  - # 5
    frequency:    3.5576881083
  - # 6
    frequency:    3.9595649614
  - # 7
    frequency:    4.0699759871
  - # 8
    frequency:    4.8483149641
  - # 9
    frequency:    6.0085813323
  - # 10
    frequency:   10.2959033244
  - # 11
    frequency:   10.9707822018
  - # 12
    frequency:   14.2031905665
  - # 13
    frequency:   14.8446257233
  - # 14
    frequency:   15.1176041237
  - # 15
    frequency:   15.7550099344

- q-position: [    0.1969697,    0.0000000,    0.0000000 ]
  distance:    0.0693824
  band:
  - # 1
    frequency:    1.5532770718
  - # 2
    frequency:    2.0889536795
  - # 3
    frequency:    2.2271219182
  - # 4
    frequency:    2.8061097603
  - # 5
    frequency:    3.6010322883
  - # 6
    frequency:    3.9739713110
  - # 7
    frequency:    4.1140589553
  - # 8
    frequency:    4.8684665306
  - # 9
    frequency:    5.9786641053
  - # 10
    frequency:   10.2767804058
  - # 11
    frequency:   10.9889984814
  - # 12
    frequency:   14.1638242716
  - # 13
    frequency:   14.8232000864
  - # 14
    frequency:   15.1221033046
  - # 15
    frequency:   15.7714629005

- q-position: [    0.2020202,    0.0000000,    0.0000000 ]
  distance:    0.0711614
  band:
  - # 1
    frequency:    1.6077783318
  - # 2
    frequency:    2.1254498004
  - # 3
    frequency:    2.2313059682
  - # 4
    frequency:    2.8222242820
  - # 5
    frequency:    3.6426966343
  - # 6
    frequency:    3.9883845705
  - # 7
    frequency:    4.1580132219
  - # 8
    frequency:    4.8886644823
  - # 9
    frequency:    5.9490308975
  - # 10
    frequency:   10.2595737774
  - # 11
    frequency:   11.0077934932
  - # 12
    frequency:   14.1245066116
  - # 13
    frequency:   14.8008836852
  - # 14
    frequency:   15.1265939416
  - # 15
    frequency:   15.7887833331

- q-position: [    0.2070707,    0.0000000,    0.0000000 ]
  distance:    0.0729404
  band:
  - # 1
    frequency:    1.6618837951
  - # 2
    frequency:    2.1609787314
  - # 3
    frequency:    2.2345526688
  - # 4
    frequency:    2.8383073230
  - # 5
    frequency:    3.6823387564
  - # 6
    frequency:    4.0027886193
  - # 7
    frequency:    4.2017962545
  - # 8
    frequency:    4.9090113649
  - # 9
    frequency:    5.9197549002
  - # 10
    frequency:   10.2445528673
  - # 11
    frequency:   11.0271419123
  - # 12
    frequency:   14.0853246966
  - # 13
    frequency:   14.7777222625
  - # 14
    frequency:   15.1310733986
  - # 15
    frequency:   15.8067942341

- q-position: [    0.2121212,    0.0000000,    0.0000000 ]
  distance:    0.0747195
  band:
  - # 1
    frequency:    1.7154769537