nqpoint: 300    
npath: 3      
segment_nqpoint:
- 100
- 100
- 100
labels:
- [ 'G', 'M' ]
- [ 'M', 'K' ]
- [ 'K', 'G' ]
reciprocal_lattice:
- [   0.28563158,   0.16490947,   0.00000000 ] # a*
- [   0.00000000,   0.32981894,   0.00000000 ] # b*
- [   0.00000000,   0.00000000,   0.03419466 ] # c*
natom: 9      
lattice:
- [     3.501013475848995,     0.000000000000000,     0.000000000000000 ] # a
- [    -1.750506737924497,     3.031966609074033,     0.000000000000000 ] # b
- [     0.000000000000000,     0.000000000000000,    29.244331886470981 ] # c
points:
- symbol: C # 1
  coordinates: [  0.333332985432215,  0.666666983183674,  0.651543371060308 ]
  mass: 12.010700
- symbol: C # 2
  coordinates: [  0.666666984744047,  0.333332985985145,  0.348456629328666 ]
  mass: 12.010700
- symbol: Hf # 3
  coordinates: [  0.333332985432215,  0.666666983183674,  0.461502250012807 ]
  mass: 178.490000
- symbol: Hf # 4
  coordinates: [  0.666666984744047,  0.333332985985145,  0.538497749987186 ]
  mass: 178.490000
- symbol: N # 5
  coordinates: [  0.000000000000000,  0.000000000000000,  0.500000026255670 ]
  mass: 14.006700
- symbol: N # 6
  coordinates: [  0.333332985432215,  0.666666983183674,  0.692248055625317 ]
  mass: 14.006700
- symbol: N # 7
  coordinates: [  0.666666984744047,  0.333332985985145,  0.307751944374684 ]
  mass: 14.006700
- symbol: S # 8
  coordinates: [  0.333332985432215,  0.666666983183674,  0.593555691454534 ]
  mass: 32.065000
- symbol: S # 9
  coordinates: [  0.666666984744047,  0.333332985985145,  0.406444308934439 ]
  mass: 32.065000

phonon:
- q-position: [    0.0000000,    0.0000000,    0.0000000 ]
  distance:    0.0000000
  band:
  - # 1
    frequency:   -5.0635295128
  - # 2
    frequency:   -2.0677554743
  - # 3
    frequency:   -2.0677554743
  - # 4
    frequency:   -1.9708864759
  - # 5
    frequency:   -1.9708864759
  - # 6
    frequency:   -0.0000077316
  - # 7
    frequency:    0.0000002806
  - # 8
    frequency:    0.0000038109
  - # 9
    frequency:    1.4927360616
  - # 10
    frequency:    1.4927360616
  - # 11
    frequency:    6.3847858036
  - # 12
    frequency:    6.4368863257
  - # 13
    frequency:    6.4368863257
  - # 14
    frequency:    6.5780947030
  - # 15
    frequency:    6.8025694352
  - # 16
    frequency:    6.8025694352
  - # 17
    frequency:    8.3425777761
  - # 18
    frequency:    9.6170765632
  - # 19
    frequency:    9.6170765632
  - # 20
    frequency:   10.1398529513
  - # 21
    frequency:   10.1398529513
  - # 22
    frequency:   13.4651975422
  - # 23
    frequency:   13.4651975423
  - # 24
    frequency:   18.2782723804
  - # 25
    frequency:   18.8757291162
  - # 26
    frequency:   64.5924620450
  - # 27
    frequency:   64.5992983133

- q-position: [    0.0050505,    0.0000000,    0.0000000 ]
  distance:    0.0016658
  band:
  - # 1
    frequency:   -5.0622954520
  - # 2
    frequency:   -2.0671336819
  - # 3
    frequency:   -2.0661158989
  - # 4
    frequency:   -1.9704070105
  - # 5
    frequency:   -1.9700373367
  - # 6
    frequency:    0.0012790363
  - # 7
    frequency:    0.0585045244
  - # 8
    frequency:    0.0958789556
  - # 9
    frequency:    1.4893779917
  - # 10
    frequency:    1.4950177938
  - # 11
    frequency:    6.3836208168
  - # 12
    frequency:    6.4364762950
  - # 13
    frequency:    6.4370965206
  - # 14
    frequency:    6.5780087807
  - # 15
    frequency:    6.8025381299
  - # 16
    frequency:    6.8025974767
  - # 17
    frequency:    8.3442790229
  - # 18
    frequency:    9.6172421834
  - # 19
    frequency:    9.6174065277
  - # 20
    frequency:   10.1399325390
  - # 21
    frequency:   10.1399596221
  - # 22
    frequency:   13.4647736895
  - # 23
    frequency:   13.4648920942
  - # 24
    frequency:   18.2781706681
  - # 25
    frequency:   18.8755334477
  - # 26
    frequency:   64.5923967330
  - # 27
    frequency:   64.5992335193

- q-position: [    0.0101010,    0.0000000,    0.0000000 ]
  distance:    0.0033315
  band:
  - # 1
    frequency:   -5.0585970569
  - # 2
    frequency:   -2.0652698566
  - # 3
    frequency:   -2.0612106741
  - # 4
    frequency:   -1.9689688614
  - # 5
    frequency:   -1.9674857634
  - # 6
    frequency:    0.0051264427
  - # 7
    frequency:    0.1169589523
  - # 8
    frequency:    0.1918634283
  - # 9
    frequency:    1.4792902631
  - # 10
    frequency:    1.5018265555
  - # 11
    frequency:    6.3802078509
  - # 12
    frequency:    6.4352489949
  - # 13
    frequency:    6.4376523968
  - # 14
    frequency:    6.5777527303
  - # 15
    frequency:    6.8024428853
  - # 16
    frequency:    6.8026803118
  - # 17
    frequency:    8.3493647223
  - # 18
    frequency:    9.6177401428
  - # 19
    frequency:    9.6183954069
  - # 20
    frequency:   10.1401740290
  - # 21
    frequency:   10.1402788995
  - # 22
    frequency:   13.4635039969
  - # 23
    frequency:   13.4639779429
  - # 24
    frequency:   18.2778659469
  - # 25
    frequency:   18.8749468618
  - # 26
    frequency:   64.5922009478
  - # 27
    frequency:   64.5990392826

- q-position: [    0.0151515,    0.0000000,    0.0000000 ]
  distance:    0.0049973
  band:
  - # 1
    frequency:   -5.0524457979
  - # 2
    frequency:   -2.0621686628
  - # 3
    frequency:   -2.0530806515
  - # 4
    frequency:   -1.9665727570
  - # 5
    frequency:   -1.9632187700
  - # 6
    frequency:    0.0115013156
  - # 7
    frequency:    0.1753119561
  - # 8
    frequency:    0.2880536846
  - # 9
    frequency:    1.4624316148
  - # 10
    frequency:    1.5130549314
  - # 11
    frequency:    6.3747449941
  - # 12
    frequency:    6.4332127756
  - # 13
    frequency:    6.4383775214
  - # 14
    frequency:    6.5773315936
  - # 15
    frequency:    6.8022798808
  - # 16
    frequency:    6.8028141214
  - # 17
    frequency:    8.3577811779
  - # 18
    frequency:    9.6185737021
  - # 19
    frequency:    9.6200401629
  - # 20
    frequency:   10.1405856048
  - # 21
    frequency:   10.1408085821
  - # 22
    frequency:   13.4613940397
  - # 23
    frequency:   13.4624616418
  - # 24
    frequency:   18.2773594646
  - # 25
    frequency:   18.8739706153
  - # 26
    frequency:   64.5918751409
  - # 27
    frequency:   64.5987160382

- q-position: [    0.0202020,    0.0000000,    0.0000000 ]
  distance:    0.0066630
  band:
  - # 1
    frequency:   -5.0438611522
  - # 2
    frequency:   -2.0578379056
  - # 3
    frequency:   -2.0417953042
  - # 4
    frequency:   -1.9632198665
  - # 5
    frequency:   -1.9572127468
  - # 6
    frequency:    0.0203446548
  - # 7
    frequency:    0.2335098375
  - # 8
    frequency:    0.3845394618
  - # 9
    frequency:    1.4387309316
  - # 10
    frequency:    1.5285299652
  - # 11
    frequency:    6.3674561584
  - # 12
    frequency:    6.4303814694
  - # 13
    frequency:    6.4390834263
  - # 14
    frequency:    6.5767534280
  - # 15
    frequency:    6.8020432745
  - # 16
    frequency:    6.8029926955
  - # 17
    frequency:    8.3694402887
  - # 18
    frequency:    9.6197481758
  - # 19
    frequency:    9.6223357447
  - # 20
    frequency:   10.1411809181
  - # 21
    frequency:   10.1415450131
  - # 22
    frequency:   13.4584530392
  - # 23
    frequency:   13.4603540294
  - # 24
    frequency:   18.2766533058
  - # 25
    frequency:   18.8726067943
  - # 26
    frequency:   64.5914200632
  - # 27
    frequency:   64.5982645096

- q-position: [    0.0252525,    0.0000000,    0.0000000 ]
  distance:    0.0083288
  band:
  - # 1
    frequency:   -5.0328711427
  - # 2
    frequency:   -2.0522885761
  - # 3
    frequency:   -2.0274557685
  - # 4
    frequency:   -1.9589117323
  - # 5
    frequency:   -1.9494295383
  - # 6
    frequency:    0.0315673717
  - # 7
    frequency:    0.2914955514
  - # 8
    frequency:    0.4813945918
  - # 9
    frequency:    1.4080837543
  - # 10
    frequency:    1.5480215089
  - # 11
    frequency:    6.3585331656
  - # 12
    frequency:    6.4267742706
  - # 13
    frequency:    6.4396266311
  - # 14
    frequency:    6.5760288364
  - # 15
    frequency:    6.8017259041
  - # 16
    frequency:    6.8032076574
  - # 17
    frequency:    8.3842215534
  - # 18
    frequency:    9.6212707537
  - # 19
    frequency:    9.6252751069
  - # 20
    frequency:   10.1419791033
  - # 21
    frequency:   10.1424830992
  - # 22
    frequency:   13.4546937588
  - # 23
    frequency:   13.4576701059
  - # 24
    frequency:   18.2757503987
  - # 25
    frequency:   18.8708583016
  - # 26
    frequency:   64.5908367623
  - # 27
    frequency:   64.5976857064

- q-position: [    0.0303030,    0.0000000,    0.0000000 ]
  distance:    0.0099945
  band:
  - # 1
    frequency:   -5.0195130883
  - # 2
    frequency:   -2.0455349161
  - # 3
    frequency:   -2.0102017192
  - # 4
    frequency:   -1.9536501716
  - # 5
    frequency:   -1.9398083418
  - # 6
    frequency:    0.0450416239
  - # 7
    frequency:    0.3492079509
  - # 8
    frequency:    0.5786713136
  - # 9
    frequency:    1.3703476270
  - # 10
    frequency:    1.5712525669
  - # 11
    frequency:    6.3481218725
  - # 12
    frequency:    6.4224155816
  - # 13
    frequency:    6.4399214191
  - # 14
    frequency:    6.5751703924
  - # 15
    frequency:    6.8013201165
  - # 16
    frequency:    6.8034487568
  - # 17
    frequency:    8.4019747102
  - # 18
    frequency:    9.6231502549
  - # 19
    frequency:    9.6288492342
  - # 20
    frequency:   10.1430047966
  - # 21
    frequency:   10.1436163368
  - # 22
    frequency:   13.4501323614
  - # 23
    frequency:   13.4544288625
  - # 24
    frequency:   18.2746545237
  - # 25
    frequency:   18.8687288397
  - # 26
    frequency:   64.5901265792
  - # 27
    frequency:   64.5969809210

- q-position: [    0.0353535,    0.0000000,    0.0000000 ]
  distance:    0.0116603
  band:
  - # 1
    frequency:   -5.0038345615
  - # 2
    frequency:   -2.0375944995
  - # 3
    frequency:   -1.9902268752
  - # 4
    frequency:   -1.9474371453
  - # 5
    frequency:   -1.9282487103
  - # 6
    frequency:    0.0605854786
  - # 7
    frequency:    0.4065812761
  - # 8
    frequency:    0.6763934502
  - # 9
    frequency:    1.3253372118
  - # 10
    frequency:    1.5979106155
  - # 11
    frequency:    6.3363300548
  - # 12
    frequency:    6.4173348337
  - # 13
    frequency:    6.4399307631
  - # 14
    frequency:    6.5741920163
  - # 15
    frequency:    6.8008186172
  - # 16
    frequency:    6.8037042164
  - # 17
    frequency:    8.4225228740
  - # 18
    frequency:    9.6253968163
  - # 19
    frequency:    9.6330471715
  - # 20
    frequency:   10.1442881524
  - # 21
    frequency:   10.1449368466
  - # 22
    frequency:   13.4447882321
  - # 23
    frequency:   13.4506530677
  - # 24
    frequency:   18.2733703236
  - # 25
    frequency:   18.8662228894
  - # 26
    frequency:   64.5892911439
  - # 27
    frequency:   64.5961517245

- q-position: [    0.0404040,    0.0000000,    0.0000000 ]
  distance:    0.0133260
  band:
  - # 1
    frequency:   -4.9858945454
  - # 2
    frequency:   -2.0284883354
  - # 3
    frequency:   -1.9678140711
  - # 4
    frequency:   -1.9402745904
  - # 5
    frequency:   -1.9145739318
  - # 6
    frequency:    0.0779351880
  - # 7
    frequency:    0.4635448869
  - # 8
    frequency:    0.7745450077
  - # 9
    frequency:    1.2728231056
  - # 10
    frequency:    1.6276589410
  - # 11
    frequency:    6.3232397164
  - # 12
    frequency:    6.4115662957
  - # 13
    frequency:    6.4396528445
  - # 14
    frequency:    6.5731083504
  - # 15
    frequency:    6.8002152469
  - # 16
    frequency:    6.8039611139
  - # 17
    frequency:    8.4456660158
  - # 18
    frequency:    9.6280215199
  - # 19
    frequency:    9.6378560579
  - # 20
    frequency:   10.1458648521
  - # 21
    frequency:   10.1464354175
  - # 22
    frequency:   13.4386837699
  - # 23
    frequency:   13.4463690139
  - # 24
    frequency:   18.2719033146
  - # 25
    frequency:   18.8633456847
  - # 26
    frequency:   64.5883323695
  - # 27
    frequency:   64.5951999615

- q-position: [    0.0454545,    0.0000000,    0.0000000 ]
  distance:    0.0149918
  band:
  - # 1
    frequency:   -4.9657647791
  - # 2
    frequency:   -2.0182409912
  - # 3
    frequency:   -1.9434119265
  - # 4
    frequency:   -1.9321642118
  - # 5
    frequency:   -1.8984531573
  - # 6
    frequency:    0.0966928965
  - # 7
    frequency:    0.5200232142
  - # 8
    frequency:    0.8730359446
  - # 9
    frequency:    1.2125542579
  - # 10
    frequency:    1.6601472275
  - # 11
    frequency:    6.3089173313
  - # 12
    frequency:    6.4051488768
  - # 13
    frequency:    6.4391097474
  - # 14
    frequency:    6.5719341698
  - # 15
    frequency:    6.7995056207
  - # 16
    frequency:    6.8042057816
  - # 17
    frequency:    8.4711846361
  - # 18
    frequency:    9.6310359633
  - # 19
    frequency:    9.6432611631
  - # 20
    frequency:   10.1477760983
  - # 21
    frequency:   10.1481015588
  - # 22
    frequency:   13.4318441535
  - # 23
    frequency:   13.4416062282
  - # 24
    frequency:   18.2702598958
  - # 25
    frequency:   18.8601031848
  - # 26
    frequency:   64.5872524464
  - # 27
    frequency:   64.5941277443

- q-position: [    0.0505051,    0.0000000,    0.0000000 ]
  distance:    0.0166575
  band:
  - # 1
    frequency:   -4.9435312718
  - # 2
    frequency:   -2.0068807417
  - # 3
    frequency:   -1.9231072300
  - # 4
    frequency:   -1.9177711216
  - # 5
    frequency:   -1.8792649545
  - # 6
    frequency:    0.1162218528
  - # 7
    frequency:    0.5759358953
  - # 8
    frequency:    0.9714765088
  - # 9
    frequency:    1.1444778476
  - # 10
    frequency:    1.6950208672
  - # 11
    frequency:    6.2934209990
  - # 12
    frequency:    6.3981259293
  - # 13
    frequency:    6.4383394040
  - # 14
    frequency:    6.5706838450
  - # 15
    frequency:    6.7986875988
  - # 16
    frequency:    6.8044242080
  - # 17
    frequency:    8.4988434950
  - # 18
    frequency:    9.6344517777
  - # 19
    frequency:    9.6492459244
  - # 20
    frequency:   10.1499235643
  - # 21
    frequency:   10.1500685824
  - # 22
    frequency:   13.4242970858
  - # 23
    frequency:   13.4363971535
  - # 24
    frequency:   18.2684473585
  - # 25
    frequency:   18.8565020436
  - # 26
    frequency:   64.5860538345
  - # 27
    frequency:   64.5929374460

- q-position: [    0.0555556,    0.0000000,    0.0000000 ]
  distance:    0.0183233
  band:
  - # 1
    frequency:   -4.9192959598
  - # 2
    frequency:   -1.9944397440
  - # 3
    frequency:   -1.9131040815
  - # 4
    frequency:   -1.8919976872
  - # 5
    frequency:   -1.8560459383
  - # 6
    frequency:    0.1354186454
  - # 7
    frequency:    0.6311980483
  - # 8
    frequency:    1.0534780278
  - # 9
    frequency:    1.0844554263
  - # 10
    frequency:    1.7319287180
  - # 11
    frequency:    6.2768051284
  - # 12
    frequency:    6.3905450559
  - # 13
    frequency:    6.4373901964
  - # 14
    frequency:    6.5693708692
  - # 15
    frequency:    6.7977615889
  - # 16
    frequency:    6.8046024281
  - # 17
    frequency:    8.5283952892
  - # 18
    frequency:    9.6382800995
  - # 19
    frequency:    9.6557919828
  - # 20
    frequency:   10.1518885864
  - # 21
    frequency:   10.1527944119
  - # 22
    frequency:   13.4160725226
  - # 23
    frequency:   13.4307768051
  - # 24
    frequency:   18.2664738918
  - # 25
    frequency:   18.8525495770
  - # 26
    frequency:   64.5847392556
  - # 27
    frequency:   64.5916316928

- q-position: [    0.0606061,    0.0000000,    0.0000000 ]
  distance:    0.0199890
  band:
  - # 1
    frequency:   -4.8931784649
  - # 2
    frequency:   -1.9809542401
  - # 3
    frequency:   -1.9021540748
  - # 4
    frequency:   -1.8669987263
  - # 5
    frequency:   -1.8280506029
  - # 6
    frequency:    0.1521610245
  - # 7
    frequency:    0.6857206464
  - # 8
    frequency:    0.9780177923
  - # 9
    frequency:    1.1729924691
  - # 10
    frequency:    1.7705292397
  - # 11
    frequency:    6.2591234425
  - # 12
    frequency:    6.3824579174
  - # 13
    frequency:    6.4363174139
  - # 14
    frequency:    6.5680074499
  - # 15
    frequency:    6.7967306997
  - # 16
    frequency:    6.8047268897
  - # 17
    frequency:    8.5595841956
  - # 18
    frequency:    9.6425310021
  - # 19
    frequency:    9.6628792155
  - # 20
    frequency:   10.1539827241
  - # 21
    frequency:   10.1560109794
  - # 22
    frequency:   13.4072023908
  - # 23
    frequency:   13.4247824081
  - # 24
    frequency:   18.2643485845
  - # 25
    frequency:   18.8482537302
  - # 26
    frequency:   64.5833116837
  - # 27
    frequency:   64.5902133555

- q-position: [    0.0656566,    0.0000000,    0.0000000 ]
  distance:    0.0216548
  band:
  - # 1
    frequency:   -4.8653178991
  - # 2
    frequency:   -1.9664647780
  - # 3
    frequency:   -1.8902550103
  - # 4
    frequency:   -1.8426675350
  - # 5
    frequency:   -1.7955775386
  - # 6
    frequency:    0.1617473774
  - # 7
    frequency:    0.7394109559
  - # 8
    frequency:    0.8830059230
  - # 9
    frequency:    1.2720325744
  - # 10
    frequency:    1.8104950982
  - # 11
    frequency:    6.2404309041
  - # 12
    frequency:    6.3739200392
  - # 13
    frequency:    6.4351809310
  - # 14
    frequency:    6.5666041657
  - # 15
    frequency:    6.7956007784
  - # 16
    frequency:    6.8047847895
  - # 17
    frequency:    8.5921492293
  - # 18
    frequency:    9.6472128980
  - # 19
    frequency:    9.6704857619
  - # 20
    frequency:   10.1561911249
  - # 21
    frequency:   10.1597807491
  - # 22
    frequency:   13.3977203017
  - # 23
    frequency:   13.4184530229
  - # 24
    frequency:   18.2620814229
  - # 25
    frequency:   18.8436230442
  - # 26
    frequency:   64.5817743358
  - # 27
    frequency:   64.5886855406

- q-position: [    0.0707071,    0.0000000,    0.0000000 ]
  distance:    0.0233205
  band:
  - # 1
    frequency:   -4.8358746338
  - # 2
    frequency:   -1.9510164317
  - # 3
    frequency:   -1.8774027894
  - # 4
    frequency:   -1.8183359867
  - # 5
    frequency:   -1.7595370653
  - # 6
    frequency:    0.1512244735
  - # 7
    frequency:    0.7802101227
  - # 8
    frequency:    0.7921730126
  - # 9
    frequency:    1.3713347144
  - # 10
    frequency:    1.8515164182
  - # 11
    frequency:    6.2207849503
  - # 12
    frequency:    6.3649906084
  - # 13
    frequency:    6.4340436715
  - # 14
    frequency:    6.5651696836
  - # 15
    frequency:    6.7943803678
  - # 16
    frequency:    6.8047643708
  - # 17
    frequency:    8.6258273972
  - # 18
    frequency:    9.6523319226
  - # 19
    frequency:    9.6785880419
  - # 20
    frequency:   10.1584981038
  - # 21
    frequency:   10.1641709306
  - # 22
    frequency:   13.3876612641
  - # 23
    frequency:   13.4118291645
  - # 24
    frequency:   18.2596832809
  - # 25
    frequency:   18.8386666230
  - # 26
    frequency:   64.5801306608
  - # 27
    frequency:   64.5870515801

- q-position: [    0.0757576,    0.0000000,    0.0000000 ]
  distance:    0.0249863
  band:
  - # 1
    frequency:   -4.8050319239
  - # 2
    frequency:   -1.9346589754
  - # 3
    frequency:   -1.8635910602
  - # 4
    frequency:   -1.7935786660
  - # 5
    frequency:   -1.7206794350
  - # 6
    frequency:    0.0474239919
  - # 7
    frequency:    0.6776016883
  - # 8
    frequency:    0.8439081202
  - # 9
    frequency:    1.4704214388
  - # 10
    frequency:    1.8933029082
  - # 11
    frequency:    6.2002462719
  - # 12
    frequency:    6.3557322550
  - # 13
    frequency:    6.4329705729
  - # 14
    frequency:    6.5637105361
  - # 15
    frequency:    6.7930806151
  - # 16
    frequency:    6.8046551785
  - # 17
    frequency:    8.6603566504
  - # 18
    frequency:    9.6578913178
  - # 19
    frequency:    9.6871607627
  - # 20
    frequency:   10.1608872809
  - # 21
    frequency:   10.1692530051
  - # 22
    frequency:   13.3770614016
  - # 23
    frequency:   13.4049524221
  - # 24
    frequency:   18.2571659044
  - # 25
    frequency:   18.8333941021
  - # 26
    frequency:   64.5783843286
  - # 27
    frequency:   64.5853150211

- q-position: [    0.0808081,    0.0000000,    0.0000000 ]
  distance:    0.0266520
  band:
  - # 1
    frequency:   -4.7729972403
  - # 2
    frequency:   -1.9174469316
  - # 3
    frequency:   -1.8488109860
  - # 4
    frequency:   -1.7683808221
  - # 5
    frequency:   -1.6794753765
  - # 6
    frequency:   -0.2364362208
  - # 7
    frequency:    0.5965395656
  - # 8
    frequency:    0.8945153619
  - # 9
    frequency:    1.5690300239
  - # 10
    frequency:    1.9355850903
  - # 11
    frequency:    6.1788792728
  - # 12
    frequency:    6.3462108071
  - # 13
    frequency:    6.4320278658
  - # 14
    frequency:    6.5622309530
  - # 15
    frequency:    6.7917151573
  - # 16
    frequency:    6.8044482687
  - # 17
    frequency:    8.6954786573
  - # 18
    frequency:    9.6638908395
  - # 19
    frequency:    9.6961769116
  - # 20
    frequency:   10.1633417410
  - # 21
    frequency:   10.1751020615
  - # 22
    frequency:   13.3659576784
  - # 23
    frequency:   13.3978650853
  - # 24
    frequency:   18.2545418865
  - # 25
    frequency:   18.8278156196
  - # 26
    frequency:   64.5765392177
  - # 27
    frequency:   64.5834796143

- q-position: [    0.0858586,    0.0000000,    0.0000000 ]
  distance:    0.0283178
  band:
  - # 1
    frequency:   -4.7400031183
  - # 2
    frequency:   -1.8994393655
  - # 3
    frequency:   -1.8330512661
  - # 4
    frequency:   -1.7431003696
  - # 5
    frequency:   -1.6362204111
  - # 6
    frequency:   -0.4002490360
  - # 7
    frequency:    0.5594358340
  - # 8
    frequency:    0.9438921247
  - # 9
    frequency:    1.6669287191
  - # 10
    frequency:    1.9781148448
  - # 11
    frequency:    6.1567522916
  - # 12
    frequency:    6.3364950128
  - # 13
    frequency:    6.4312825486
  - # 14
    frequency:    6.5607327458
  - # 15
    frequency:    6.7903000021
  - # 16
    frequency:    6.8041363693
  - # 17
    frequency:    8.7309414314
  - # 18
    frequency:    9.6703262195
  - # 19
    frequency:    9.7056077316
  - # 20
    frequency:   10.1658442181
  - # 21
    frequency:   10.1817958967
  - # 22
    frequency:   13.3543876362
  - # 23
    frequency:   13.3906097822
  - # 24
    frequency:   18.2518246347
  - # 25
    frequency:   18.8219417897
  - # 26
    frequency:   64.5745994027
  - # 27
    frequency:   64.5815493023

- q-position: [    0.0909091,    0.0000000,    0.0000000 ]
  distance:    0.0299835
  band:
  - # 1
    frequency:   -4.7063072810
  - # 2
    frequency:   -1.8806992512
  - # 3
    frequency:   -1.8162985915
  - # 4
    frequency:   -1.7184805235
  - # 5
    frequency:   -1.5910987376
  - # 6
    frequency:   -0.5361701685
  - # 7
    frequency:    0.5601872364
  - # 8
    frequency:    0.9919346413
  - # 9
    frequency:    1.7638934272
  - # 10
    frequency:    2.0206654528
  - # 11
    frequency:    6.1339376337
  - # 12
    frequency:    6.3266562202
  - # 13
    frequency:    6.4308019758
  - # 14
    frequency:    6.5592152419
  - # 15
    frequency:    6.7888534144
  - # 16
    frequency:    6.8037139905
  - # 17
    frequency:    8.7665018480
  - # 18
    frequency:    9.6771887240
  - # 19
    frequency:    9.7154226771
  - # 20
    frequency:   10.1683773087
  - # 21
    frequency:   10.1894138335
  - # 22
    frequency:   13.3423891454
  - # 23
    frequency:   13.3832291352
  - # 24
    frequency:   18.2490283278
  - # 25
    frequency:   18.8157836793
  - # 26
    frequency:   64.5725691411
  - # 27
    frequency:   64.5795282072

- q-position: [    0.0959596,    0.0000000,    0.0000000 ]
  distance:    0.0316493
  band:
  - # 1
    frequency:   -4.6721917446
  - # 2
    frequency:   -1.8612922071
  - # 3
    frequency:   -1.7985387380
  - # 4
    frequency:   -1.6957065633
  - # 5
    frequency:   -1.5441798517
  - # 6
    frequency:   -0.6409497019
  - # 7
    frequency:    0.5823246743
  - # 8
    frequency:    1.0385385559
  - # 9
    frequency:    1.8597048484
  - # 10
    frequency:    2.0630312803
  - # 11
    frequency:    6.1105114489
  - # 12
    frequency:    6.3167680089
  - # 13
    frequency:    6.4306535063
  - # 14
    frequency:    6.5576752649
  - # 15
    frequency:    6.7873958122
  - # 16
    frequency:    6.8031774837
  - # 17
    frequency:    8.8019280778
  - # 18
    frequency:    9.6844648548
  - # 19
    frequency:    9.7255893462
  - # 20
    frequency:   10.1709237183
  - # 21
    frequency:   10.1980352168
  - # 22
    frequency:   13.3300001716
  - # 23
    frequency:   13.3757654384
  - # 24
    frequency:   18.2461678633
  - # 25
    frequency:   18.8093527890
  - # 26
    frequency:   64.5704528594
  - # 27
    frequency:   64.5774206174

- q-position: [    0.1010101,    0.0000000,    0.0000000 ]
  distance:    0.0333150
  band:
  - # 1
    frequency:   -4.6379605737
  - # 2
    frequency:   -1.8412844443
  - # 3
    frequency:   -1.7797584582
  - # 4
    frequency:   -1.6764137500
  - # 5
    frequency:   -1.4953562160
  - # 6
    frequency:   -0.7159384849
  - # 7
    frequency:    0.6162441757
  - # 8
    frequency:    1.0835995251
  - # 9
    frequency:    1.9541496614
  - # 10
    frequency:    2.1050272162
  - # 11
    frequency:    6.0865534823
  - # 12
    frequency:    6.3069057691
  - # 13
    frequency:    6.4309041686
  - # 14
    frequency:    6.5561071625
  - # 15
    frequency:    6.7859496742
  - # 16
    frequency:    6.8025250476
  - # 17
    frequency:    8.8370019466
  - # 18
    frequency:    9.6921362478
  - # 19
    frequency:    9.7360733863
  - # 20
    frequency:   10.1734665445
  - # 21
    frequency:   10.2077375618
  - # 22
    frequency:   13.3172585586
  - # 23
    frequency:   13.3682603605
  - # 24
    frequency:   18.2432587947
  - # 25
    frequency:   18.8026610381
  - # 26
    frequency:   64.5682551389
  - # 27
    frequency:   64.5752309746

- q-position: [    0.1060606,    0.0000000,    0.0000000 ]
  distance:    0.0349808
  band:
  - # 1
    frequency:   -4.6039359316
  - # 2
    frequency:   -1.8207399329
  - # 3
    frequency:   -1.7599481699
  - # 4
    frequency:   -1.6624842853
  - # 5
    frequency:   -1.4442450217
  - # 6
    frequency:   -0.7620587759
  - # 7
    frequency:    0.6575052061
  - # 8
    frequency:    1.1270138630
  - # 9
    frequency:    2.0470223798
  - # 10
    frequency:    2.1464879429
  - # 11
    frequency:    6.0621467249
  - # 12
    frequency:    6.2971462249
  - # 13
    frequency:    6.4316203128
  - # 14
    frequency:    6.5545028790
  - # 15
    frequency:    6.7845394556
  - # 16
    frequency:    6.8017566826
  - # 17
    frequency:    8.8715212105
  - # 18
    frequency:    9.7001798216
  - # 19
    frequency:    9.7468383698
  - # 20
    frequency:   10.1759896034
  - # 21
    frequency:   10.2185943535
  - # 22
    frequency:   13.3042018274
  - # 23
    frequency:   13.3607546763
  - # 24
    frequency:   18.2403172581
  - # 25
    frequency:   18.7957207532
  - # 26
    frequency:   64.5659807010
  - # 27
    frequency:   64.5729638596

- q-position: [    0.1111111,    0.0000000,    0.0000000 ]
  distance:    0.0366465
  band:
  - # 1
    frequency:   -4.5704520950
  - # 2
    frequency:   -1.7997170816
  - # 3
    frequency:   -1.7391051452
  - # 4
    frequency:   -1.6554914822
  - # 5
    frequency:   -1.3901134131
  - # 6
    frequency:   -0.7794225842
  - # 7
    frequency:    0.7040108958
  - # 8
    frequency:    1.1686792409
  - # 9
    frequency:    2.1381270052
  - # 10
    frequency:    2.1872670947
  - # 11
    frequency:    6.0373769886
  - # 12
    frequency:    6.2875669023
  - # 13
    frequency:    6.4328672223
  - # 14
    frequency:    6.5528520779
  - # 15
    frequency:    6.7831915095
  - # 16
    frequency:    6.8008740933
  - # 17
    frequency:    8.9053017025
  - # 18
    frequency:    9.7085682173
  - # 19
    frequency:    9.7578456376
  - # 20
    frequency:   10.1784778020
  - # 21
    frequency:   10.2306725349
  - # 22
    frequency:   13.2908669916
  - # 23
    frequency:   13.3532880283
  - # 24
    frequency:   18.2373598899
  - # 25
    frequency:   18.7885446626
  - # 26
    frequency:   64.5636343920
  - # 27
    frequency:   64.5706239785

- q-position: [    0.1161616,    0.0000000,    0.0000000 ]
  distance:    0.0383123
  band:
  - # 1
    frequency:   -4.5378471881
  - # 2
    frequency:   -1.7782655579
  - # 3
    frequency:   -1.7172365752
  - # 4
    frequency:   -1.6559430250
  - # 5
    frequency:   -1.3318983361
  - # 6
    frequency:   -0.7681384283
  - # 7
    frequency:    0.7547227618
  - # 8
    frequency:    1.2084954479
  - # 9
    frequency:    2.2272363377
  - # 10
    frequency:    2.2272782604
  - # 11
    frequency:    6.0123324309
  - # 12
    frequency:    6.2782455437
  - # 13
    frequency:    6.4347086589
  - # 14
    frequency:    6.5511423183
  - # 15
    frequency:    6.7819340122
  - # 16
    frequency:    6.7998805415
  - # 17
    frequency:    8.9381792791
  - # 18
    frequency:    9.7172705559
  - # 19
    frequency:    9.7690541055
  - # 20
    frequency:   10.1809175628
  - # 21
    frequency:   10.2440297679
  - # 22
    frequency:   13.2772903858
  - # 23
    frequency:   13.3458987181
  - # 24
    frequency:   18.2344037344
  - # 25
    frequency:   18.7811458939
  - # 26
    frequency:   64.5612211681
  - # 27
    frequency:   64.5682161477

- q-position: [    0.1212121,    0.0000000,    0.0000000 ]
  distance:    0.0399781
  band:
  - # 1
    frequency:   -4.5064525643
  - # 2
    frequency:   -1.7564240560
  - # 3
    frequency:   -1.6943617023
  - # 4
    frequency:   -1.6628710932
  - # 5
    frequency:   -1.2683168812
  - # 6
    frequency:   -0.7285621558
  - # 7
    frequency:    0.8091270126
  - # 8
    frequency:    1.2463652166
  - # 9
    frequency:    2.2662843913
  - # 10