nqpoint: 300    
npath: 3      
segment_nqpoint:
- 100
- 100
- 100
labels:
- [ 'G', 'M' ]
- [ 'M', 'K' ]
- [ 'K', 'G' ]
reciprocal_lattice:
- [   0.30763396,   0.17761255,   0.00000000 ] # a*
- [   0.00000000,   0.35522510,   0.00000000 ] # b*
- [   0.00000000,   0.00000000,   0.03583409 ] # c*
natom: 7      
lattice:
- [     3.250616381119400,     0.000000000000000,     0.000000000000000 ] # a
- [    -1.625308190559699,     2.815116364004687,     0.000000000000000 ] # b
- [     0.000000000000000,     0.000000000000000,    27.906388004522572 ] # c
points:
- symbol: Cl # 1
  coordinates: [  0.333332985432215,  0.666666983183674,  0.677493196233728 ]
  mass: 35.453000
- symbol: H # 2
  coordinates: [  0.666666984744048,  0.333332985985145,  0.322506803766272 ]
  mass: 1.007940
- symbol: N # 3
  coordinates: [  0.000000000000000,  0.000000000000000,  0.440920310641847 ]
  mass: 14.006700
- symbol: O # 4
  coordinates: [  0.333332985432215,  0.666666983183674,  0.524046509803451 ]
  mass: 15.999400
- symbol: O # 5
  coordinates: [  0.666666984744048,  0.333332985985145,  0.357670155551426 ]
  mass: 15.999400
- symbol: Sc # 6
  coordinates: [  0.333332985432215,  0.666666983183674,  0.403459347762146 ]
  mass: 44.955912
- symbol: Sc # 7
  coordinates: [  0.666666984744048,  0.333332985985145,  0.498481886132603 ]
  mass: 44.955912

phonon:
- q-position: [    0.0000000,    0.0000000,    0.0000000 ]
  distance:    0.0000000
  band:
  - # 1
    frequency:   -0.1421361209
  - # 2
    frequency:   -0.1421361209
  - # 3
    frequency:   -0.0000016435
  - # 4
    frequency:    0.0000004663
  - # 5
    frequency:    0.0000015176
  - # 6
    frequency:    0.3951256090
  - # 7
    frequency:    3.4213604257
  - # 8
    frequency:    3.4213604257
  - # 9
    frequency:    6.9612046793
  - # 10
    frequency:    7.1827410675
  - # 11
    frequency:    7.1827410675
  - # 12
    frequency:    8.9311803872
  - # 13
    frequency:    8.9311803872
  - # 14
    frequency:   12.5644219983
  - # 15
    frequency:   12.5644219983
  - # 16
    frequency:   14.1084506837
  - # 17
    frequency:   14.5841312190
  - # 18
    frequency:   14.8480414483
  - # 19
    frequency:   14.8480414483
  - # 20
    frequency:   18.4969497023
  - # 21
    frequency:  116.4419708661

- q-position: [    0.0050505,    0.0000000,    0.0000000 ]
  distance:    0.0017941
  band:
  - # 1
    frequency:   -0.2048729620
  - # 2
    frequency:   -0.1734777694
  - # 3
    frequency:   -0.0660790633
  - # 4
    frequency:    0.0682096227
  - # 5
    frequency:    0.1515297195
  - # 6
    frequency:    0.3964916195
  - # 7
    frequency:    3.4225585986
  - # 8
    frequency:    3.4251632904
  - # 9
    frequency:    6.9597381838
  - # 10
    frequency:    7.1830471308
  - # 11
    frequency:    7.1858427387
  - # 12
    frequency:    8.9315368752
  - # 13
    frequency:    8.9329728158
  - # 14
    frequency:   12.5644912734
  - # 15
    frequency:   12.5692626934
  - # 16
    frequency:   14.1086601756
  - # 17
    frequency:   14.5783899374
  - # 18
    frequency:   14.8480023714
  - # 19
    frequency:   14.8540447889
  - # 20
    frequency:   18.4962151827
  - # 21
    frequency:  116.4419270880

- q-position: [    0.0101010,    0.0000000,    0.0000000 ]
  distance:    0.0035881
  band:
  - # 1
    frequency:   -0.3386592645
  - # 2
    frequency:   -0.2542321435
  - # 3
    frequency:   -0.0736068912
  - # 4
    frequency:    0.1533846989
  - # 5
    frequency:    0.2938298533
  - # 6
    frequency:    0.4018813159
  - # 7
    frequency:    3.4261484053
  - # 8
    frequency:    3.4365309996
  - # 9
    frequency:    6.9555109558
  - # 10
    frequency:    7.1839637529
  - # 11
    frequency:    7.1949532374
  - # 12
    frequency:    8.9326064046
  - # 13
    frequency:    8.9383336183
  - # 14
    frequency:   12.5646977867
  - # 15
    frequency:   12.5837000624
  - # 16
    frequency:   14.1093030590
  - # 17
    frequency:   14.5625898736
  - # 18
    frequency:   14.8478841770
  - # 19
    frequency:   14.8706675736
  - # 20
    frequency:   18.4940210837
  - # 21
    frequency:  116.4417959332

- q-position: [    0.0151515,    0.0000000,    0.0000000 ]
  distance:    0.0053822
  band:
  - # 1
    frequency:   -0.4865291798
  - # 2
    frequency:   -0.3517345284
  - # 3
    frequency:   -0.0795906179
  - # 4
    frequency:    0.2380694296
  - # 5
    frequency:    0.3937350062
  - # 6
    frequency:    0.4541315178
  - # 7
    frequency:    3.4321157735
  - # 8
    frequency:    3.4553428935
  - # 9
    frequency:    6.9489529537
  - # 10
    frequency:    7.1854862436
  - # 11
    frequency:    7.2095765660
  - # 12
    frequency:    8.9343891684
  - # 13
    frequency:    8.9472138763
  - # 14
    frequency:   12.5650376215
  - # 15
    frequency:   12.6074767329
  - # 16
    frequency:   14.1104244920
  - # 17
    frequency:   14.5397735598
  - # 18
    frequency:   14.8476839820
  - # 19
    frequency:   14.8949783896
  - # 20
    frequency:   18.4903957016
  - # 21
    frequency:  116.4415779388

- q-position: [    0.0202020,    0.0000000,    0.0000000 ]
  distance:    0.0071763
  band:
  - # 1
    frequency:   -0.6378863063
  - # 2
    frequency:   -0.4543571502
  - # 3
    frequency:   -0.0852976755
  - # 4
    frequency:    0.3216539970
  - # 5
    frequency:    0.4076182227
  - # 6
    frequency:    0.5951669974
  - # 7
    frequency:    3.4404374615
  - # 8
    frequency:    3.4814043013
  - # 9
    frequency:    6.9405735291
  - # 10
    frequency:    7.1876068316
  - # 11
    frequency:    7.2290957134
  - # 12
    frequency:    8.9368854799
  - # 13
    frequency:    8.9595337724
  - # 14
    frequency:   12.5655043143
  - # 15
    frequency:   12.6401527714
  - # 16
    frequency:   14.1121065921
  - # 17
    frequency:   14.5128091817
  - # 18
    frequency:   14.8473970083
  - # 19
    frequency:   14.9242990668
  - # 20
    frequency:   18.4853859174
  - # 21
    frequency:  116.4412739967

- q-position: [    0.0252525,    0.0000000,    0.0000000 ]
  distance:    0.0089703
  band:
  - # 1
    frequency:   -0.7901398393
  - # 2
    frequency:   -0.5588120782
  - # 3
    frequency:   -0.0893371869
  - # 4
    frequency:    0.4046116595
  - # 5
    frequency:    0.4186801157
  - # 6
    frequency:    0.7415996683
  - # 7
    frequency:    3.4510813694
  - # 8
    frequency:    3.5144554510
  - # 9
    frequency:    6.9308243225
  - # 10
    frequency:    7.1903147319
  - # 11
    frequency:    7.2529132565
  - # 12
    frequency:    8.9400957586
  - # 13
    frequency:    8.9751849578
  - # 14
    frequency:   12.5660889491
  - # 15
    frequency:   12.6810884214
  - # 16
    frequency:   14.1144801725
  - # 17
    frequency:   14.4837941076
  - # 18
    frequency:   14.8470166229
  - # 19
    frequency:   14.9568078005
  - # 20
    frequency:   18.4790567800
  - # 21
    frequency:  116.4408853481

- q-position: [    0.0303030,    0.0000000,    0.0000000 ]
  distance:    0.0107644
  band:
  - # 1
    frequency:   -0.9422715012
  - # 2
    frequency:   -0.6638377554
  - # 3
    frequency:   -0.0895558483
  - # 4
    frequency:    0.4316856338
  - # 5
    frequency:    0.4871956891
  - # 6
    frequency:    0.8886057607
  - # 7
    frequency:    3.4640069639
  - # 8
    frequency:    3.5541826212
  - # 9
    frequency:    6.9200480402
  - # 10
    frequency:    7.1935962396
  - # 11
    frequency:    7.2805072633
  - # 12
    frequency:    8.9440205120
  - # 13
    frequency:    8.9940335007
  - # 14
    frequency:   12.5667802883
  - # 15
    frequency:   12.7294185229
  - # 16
    frequency:   14.1177441529
  - # 17
    frequency:   14.4541989213
  - # 18
    frequency:   14.8465343944
  - # 19
    frequency:   14.9914030237
  - # 20
    frequency:   18.4714909236
  - # 21
    frequency:  116.4404135763

- q-position: [    0.0353535,    0.0000000,    0.0000000 ]
  distance:    0.0125585
  band:
  - # 1
    frequency:   -1.0937324575
  - # 2
    frequency:   -0.7688095713
  - # 3
    frequency:   -0.0825927244
  - # 4
    frequency:    0.4470288071
  - # 5
    frequency:    0.5695310748
  - # 6
    frequency:    1.0356855148
  - # 7
    frequency:    3.4791658041
  - # 8
    frequency:    3.6002305039
  - # 9
    frequency:    6.9084845903
  - # 10
    frequency:    7.1974348493
  - # 11
    frequency:    7.3114308101
  - # 12
    frequency:    8.9486603103
  - # 13
    frequency:    9.0159231268
  - # 14
    frequency:   12.5675649358
  - # 15
    frequency:   12.7840178282
  - # 16
    frequency:   14.1221955140
  - # 17
    frequency:   14.4251195036
  - # 18
    frequency:   14.8459401646
  - # 19
    frequency:   15.0274585126
  - # 20
    frequency:   18.4627878248
  - # 21
    frequency:  116.4398605974

- q-position: [    0.0404040,    0.0000000,    0.0000000 ]
  distance:    0.0143525
  band:
  - # 1
    frequency:   -1.2441545124
  - # 2
    frequency:   -0.8733518872
  - # 3
    frequency:   -0.0608184527
  - # 4
    frequency:    0.4646987933
  - # 5
    frequency:    0.6516809158
  - # 6
    frequency:    1.1826761533
  - # 7
    frequency:    3.4965021555
  - # 8
    frequency:    3.6522147788
  - # 9
    frequency:    6.8962975631
  - # 10
    frequency:    7.2018113987
  - # 11
    frequency:    7.3452918751
  - # 12
    frequency:    8.9540157560
  - # 13
    frequency:    9.0406784735
  - # 14
    frequency:   12.5684275322
  - # 15
    frequency:   12.8434577854
  - # 16
    frequency:   14.1282723860
  - # 17
    frequency:   14.3974516805
  - # 18
    frequency:   14.8452221365
  - # 19
    frequency:   15.0646521395
  - # 20
    frequency:   18.4530629034
  - # 21
    frequency:  116.4392286490

- q-position: [    0.0454545,    0.0000000,    0.0000000 ]
  distance:    0.0161466
  band:
  - # 1
    frequency:   -1.3932520755
  - # 2
    frequency:   -0.9772028190
  - # 3
    frequency:    0.0460052109
  - # 4
    frequency:    0.4845628799
  - # 5
    frequency:    0.7336765983
  - # 6
    frequency:    1.3294863520
  - # 7
    frequency:    3.5159536765
  - # 8
    frequency:    3.7097340502
  - # 9
    frequency:    6.8836008059
  - # 10
    frequency:    7.2067042354
  - # 11
    frequency:    7.3817335753
  - # 12
    frequency:    8.9600874469
  - # 13
    frequency:    9.0681081304
  - # 14
    frequency:   12.5693509755
  - # 15
    frequency:   12.9059593628
  - # 16
    frequency:   14.1366094537
  - # 17
    frequency:   14.3719837989
  - # 18
    frequency:   14.8443669770
  - # 19
    frequency:   15.1028692013
  - # 20
    frequency:   18.4424464771
  - # 21
    frequency:  116.4385202776

- q-position: [    0.0505051,    0.0000000,    0.0000000 ]
  distance:    0.0179407
  band:
  - # 1
    frequency:   -1.5407827128
  - # 2
    frequency:   -1.0801589734
  - # 3
    frequency:    0.1069722306
  - # 4
    frequency:    0.5064424733
  - # 5
    frequency:    0.8155317753
  - # 6
    frequency:    1.4760453987
  - # 7
    frequency:    3.5374521626
  - # 8
    frequency:    3.7723805239
  - # 9
    frequency:    6.8704785308
  - # 10
    frequency:    7.2120894043
  - # 11
    frequency:    7.4204210152
  - # 12
    frequency:    8.9668759334
  - # 13
    frequency:    9.0980073148
  - # 14
    frequency:   12.5703166672
  - # 15
    frequency:   12.9693554519
  - # 16
    frequency:   14.1480940688
  - # 17
    frequency:   14.3494313579
  - # 18
    frequency:   14.8433599350
  - # 19
    frequency:   15.1421542537
  - # 20
    frequency:   18.4310825824
  - # 21
    frequency:  116.4377383231

- q-position: [    0.0555556,    0.0000000,    0.0000000 ]
  distance:    0.0197347
  band:
  - # 1
    frequency:   -1.6865292754
  - # 2
    frequency:   -1.1820500797
  - # 3
    frequency:    0.1584944805
  - # 4
    frequency:    0.5301489450
  - # 5
    frequency:    0.8972492637
  - # 6
    frequency:    1.6222882868
  - # 7
    frequency:    3.5609243300
  - # 8
    frequency:    3.8397490392
  - # 9
    frequency:    6.8569986528
  - # 10
    frequency:    7.2179408557
  - # 11
    frequency:    7.4610347604
  - # 12
    frequency:    8.9743816686
  - # 13
    frequency:    9.1301601206
  - # 14
    frequency:   12.5713047766
  - # 15
    frequency:   13.0310925145
  - # 16
    frequency:   14.1638867478
  - # 17
    frequency:   14.3304394768
  - # 18
    frequency:   14.8421849728
  - # 19
    frequency:   15.1826922380
  - # 20
    frequency:   18.4191276825
  - # 21
    frequency:  116.4368859029

- q-position: [    0.0606061,    0.0000000,    0.0000000 ]
  distance:    0.0215288
  band:
  - # 1
    frequency:   -1.8302910857
  - # 2
    frequency:   -1.2827262856
  - # 3
    frequency:    0.2097298645
  - # 4
    frequency:    0.5555027387
  - # 5
    frequency:    0.9788246730
  - # 6
    frequency:    1.7681501395
  - # 7
    frequency:    3.5862926234
  - # 8
    frequency:    3.9114442932
  - # 9
    frequency:    6.8432209434
  - # 10
    frequency:    7.2242306700
  - # 11
    frequency:    7.5032690901
  - # 12
    frequency:    8.9826049535
  - # 13
    frequency:    9.1643413637
  - # 14
    frequency:   12.5722945218
  - # 15
    frequency:   13.0883216783
  - # 16
    frequency:   14.1853221206
  - # 17
    frequency:   14.3155980841
  - # 18
    frequency:   14.8408249125
  - # 19
    frequency:   15.2248075972
  - # 20
    frequency:   18.4067492879
  - # 21
    frequency:  116.4359663936

- q-position: [    0.0656566,    0.0000000,    0.0000000 ]
  distance:    0.0233229
  band:
  - # 1
    frequency:   -1.9718793227
  - # 2
    frequency:   -1.3820513595
  - # 3
    frequency:    0.2624116208
  - # 4
    frequency:    0.5823428221
  - # 5
    frequency:    1.0602484321
  - # 6
    frequency:    1.9135637566
  - # 7
    frequency:    3.6134760320
  - # 8
    frequency:    3.9870862734
  - # 9
    frequency:    6.8292017038
  - # 10
    frequency:    7.2309292982
  - # 11
    frequency:    7.5468331032
  - # 12
    frequency:    8.9915458752
  - # 13
    frequency:    9.2003181166
  - # 14
    frequency:   12.5732644617
  - # 15
    frequency:   13.1381366921
  - # 16
    frequency:   14.2134918811
  - # 17
    frequency:   14.3056176699
  - # 18
    frequency:   14.8392615940
  - # 19
    frequency:   15.2689743652
  - # 20
    frequency:   18.3941245290
  - # 21
    frequency:  116.4349834117

- q-position: [    0.0707071,    0.0000000,    0.0000000 ]
  distance:    0.0251169
  band:
  - # 1
    frequency:   -2.1111145102
  - # 2
    frequency:   -1.4798988664
  - # 3
    frequency:    0.3170584097
  - # 4
    frequency:    0.6105305459
  - # 5
    frequency:    1.1415069900
  - # 6
    frequency:    2.0584583927
  - # 7
    frequency:    3.6423908991
  - # 8
    frequency:    4.0663140307
  - # 9
    frequency:    6.8149962847
  - # 10
    frequency:    7.2380058147
  - # 11
    frequency:    7.5914531818
  - # 12
    frequency:    9.0012042406
  - # 13
    frequency:    9.2378510680
  - # 14
    frequency:   12.5741927956
  - # 15
    frequency:   13.1779727745
  - # 16
    frequency:   14.2475842709
  - # 17
    frequency:   14.3025827833
  - # 18
    frequency:   14.8374760453
  - # 19
    frequency:   15.3158312344
  - # 20
    frequency:   18.3814387284
  - # 21
    frequency:  116.4339407931

- q-position: [    0.0757576,    0.0000000,    0.0000000 ]
  distance:    0.0269110
  band:
  - # 1
    frequency:   -2.2478251243
  - # 2
    frequency:   -1.5761499355
  - # 3
    frequency:    0.3738016441
  - # 4
    frequency:    0.6399507708
  - # 5
    frequency:    1.2225835717
  - # 6
    frequency:    2.2027590735
  - # 7
    frequency:    3.6729517127
  - # 8
    frequency:    4.1487880057
  - # 9
    frequency:    6.8006603564
  - # 10
    frequency:    7.2454281800
  - # 11
    frequency:    7.6368757975
  - # 12
    frequency:    9.0115795052
  - # 13
    frequency:    9.2766958603
  - # 14
    frequency:   12.5750576653
  - # 15
    frequency:   13.2060657696
  - # 16
    frequency:   14.2758227657
  - # 17
    frequency:   14.3185487241
  - # 18
    frequency:   14.8354486636
  - # 19
    frequency:   15.3661937983
  - # 20
    frequency:   18.3688840374
  - # 21
    frequency:  116.4328425712

- q-position: [    0.0808081,    0.0000000,    0.0000000 ]
  distance:    0.0287051
  band:
  - # 1
    frequency:   -2.3818468275
  - # 2
    frequency:   -1.6706919242
  - # 3
    frequency:    0.4326131035
  - # 4
    frequency:    0.6705124516
  - # 5
    frequency:    1.3034586883
  - # 6
    frequency:    2.3463861607
  - # 7
    frequency:    3.7050718641
  - # 8
    frequency:    4.2341911455
  - # 9
    frequency:    6.7862505080
  - # 10
    frequency:    7.2531635108
  - # 11
    frequency:    7.6828700337
  - # 12
    frequency:    9.0226706980
  - # 13
    frequency:    9.3166045519
  - # 14
    frequency:   12.5758374569
  - # 15
    frequency:   13.2217593649
  - # 16
    frequency:   14.2856046480
  - # 17
    frequency:   14.3651048179
  - # 18
    frequency:   14.8331594054
  - # 19
    frequency:   15.4210518649
  - # 20
    frequency:   18.3566582168
  - # 21
    frequency:  116.4316929541

- q-position: [    0.0858586,    0.0000000,    0.0000000 ]
  distance:    0.0304991
  band:
  - # 1
    frequency:   -2.5130220671
  - # 2
    frequency:   -1.7634176087
  - # 3
    frequency:    0.4933856650
  - # 4
    frequency:    0.7021508140
  - # 5
    frequency:    1.3841105078
  - # 6
    frequency:    2.4892550299
  - # 7
    frequency:    3.7386643662
  - # 8
    frequency:    4.3222290510
  - # 9
    frequency:    6.7718245229
  - # 10
    frequency:    7.2611783533
  - # 11
    frequency:    7.7292294794
  - # 12
    frequency:    9.0344763446
  - # 13
    frequency:    9.3573273192
  - # 14
    frequency:   12.5765110978
  - # 15
    frequency:   13.2254881764
  - # 16
    frequency:   14.2922715439
  - # 17
    frequency:   14.4246616854
  - # 18
    frequency:   14.8305879845
  - # 19
    frequency:   15.4815342789
  - # 20
    frequency:   18.3449636622
  - # 21
    frequency:  116.4304963010

- q-position: [    0.0909091,    0.0000000,    0.0000000 ]
  distance:    0.0322932
  band:
  - # 1
    frequency:   -2.6411998908
  - # 2
    frequency:   -1.8542246938
  - # 3
    frequency:    0.5559609185
  - # 4
    frequency:    0.7348344236
  - # 5
    frequency:    1.4645151467
  - # 6
    frequency:    2.6312757955
  - # 7
    frequency:    3.7736425226
  - # 8
    frequency:    4.4126293772
  - # 9
    frequency:    6.7574415374
  - # 10
    frequency:    7.2694389579
  - # 11
    frequency:    7.7757733523
  - # 12
    frequency:    9.0469943877
  - # 13
    frequency:    9.3986144720
  - # 14
    frequency:   12.5770583460
  - # 15
    frequency:   13.2184678057
  - # 16
    frequency:   14.3008596775
  - # 17
    frequency:   14.4891032865
  - # 18
    frequency:   14.8277140759
  - # 19
    frequency:   15.5488213641
  - # 20
    frequency:   18.3340067921
  - # 21
    frequency:  116.4292570983

- q-position: [    0.0959596,    0.0000000,    0.0000000 ]
  distance:    0.0340873
  band:
  - # 1
    frequency:   -2.7662358964
  - # 2
    frequency:   -1.9430155230
  - # 3
    frequency:    0.6201250669
  - # 4
    frequency:    0.7685848157
  - # 5
    frequency:    1.5446469175
  - # 6
    frequency:    2.7723530477
  - # 7
    frequency:    3.8099205410
  - # 8
    frequency:    4.5051406737
  - # 9
    frequency:    6.7431621946
  - # 10
    frequency:    7.2779115510
  - # 11
    frequency:    7.8223468358
  - # 12
    frequency:    9.0602221095
  - # 13
    frequency:    9.4402188075
  - # 14
    frequency:   12.5774600680
  - # 15
    frequency:   13.2022870388
  - # 16
    frequency:   14.3120697259
  - # 17
    frequency:   14.5543795017
  - # 18
    frequency:   14.8245175247
  - # 19
    frequency:   15.6239939435
  - # 20
    frequency:   18.3239979443
  - # 21
    frequency:  116.4279799345

- q-position: [    0.1010101,    0.0000000,    0.0000000 ]
  distance:    0.0358813
  band:
  - # 1
    frequency:   -2.8879922617
  - # 2
    frequency:   -2.0296969154
  - # 3
    frequency:    0.6855610558
  - # 4
    frequency:    0.8035313921
  - # 5
    frequency:    1.6244785526
  - # 6
    frequency:    2.9123855848
  - # 7
    frequency:    3.8474140859
  - # 8
    frequency:    4.5995308207
  - # 9
    frequency:    6.7290488605
  - # 10
    frequency:    7.2865626008
  - # 11
    frequency:    7.8688206987
  - # 12
    frequency:    9.0741560545
  - # 13
    frequency:    9.4818982766
  - # 14
    frequency:   12.5776985029
  - # 15
    frequency:   13.1785801798
  - # 16
    frequency:   14.3259692424
  - # 17
    frequency:   14.6173321529
  - # 18
    frequency:   14.8209785559
  - # 19
    frequency:   15.7078348687
  - # 20
    frequency:   18.3151519429
  - # 21
    frequency:  116.4266694756

- q-position: [    0.1060606,    0.0000000,    0.0000000 ]
  distance:    0.0376754
  band:
  - # 1
    frequency:   -3.0063378254
  - # 2
    frequency:   -2.1141800849
  - # 3
    frequency:    0.7516810465
  - # 4
    frequency:    0.8400819320
  - # 5
    frequency:    1.7039814144
  - # 6
    frequency:    3.0512661316
  - # 7
    frequency:    3.8860407672
  - # 8
    frequency:    4.6955851772
  - # 9
    frequency:    6.7151659419
  - # 10
    frequency:    7.2953590740
  - # 11
    frequency:    7.9150903153
  - # 12
    frequency:    9.0887919565
  - # 13
    frequency:    9.5234188943
  - # 14
    frequency:   12.5777575104
  - # 15
    frequency:   13.1488408042
  - # 16
    frequency:   14.3425055251
  - # 17
    frequency:   14.6755613103
  - # 18
    frequency:   14.8170779863
  - # 19
    frequency:   15.8006368708
  - # 20
    frequency:   18.3076895200
  - # 21
    frequency:  116.4253304396

- q-position: [    0.1111111,    0.0000000,    0.0000000 ]
  distance:    0.0394695
  band:
  - # 1
    frequency:   -3.1211481962
  - # 2
    frequency:   -2.1963806133
  - # 3
    frequency:    0.8170213071
  - # 4
    frequency:    0.8795286866
  - # 5
    frequency:    1.7831257016
  - # 6
    frequency:    3.1888810398
  - # 7
    frequency:    3.9257205629
  - # 8
    frequency:    4.7931045242
  - # 9
    frequency:    6.7015803341
  - # 10
    frequency:    7.3042686812
  - # 11
    frequency:    7.9610742238
  - # 12
    frequency:    9.1041246710
  - # 13
    frequency:    9.5645577935
  - # 14
    frequency:   12.5776228004
  - # 15
    frequency:   13.1143517983
  - # 16
    frequency:   14.3616063038
  - # 17
    frequency:   14.7275060256
  - # 18
    frequency:   14.8127974335
  - # 19
    frequency:   15.9020901975
  - # 20
    frequency:   18.3018397907
  - # 21
    frequency:  116.4239675716

- q-position: [    0.1161616,    0.0000000,    0.0000000 ]
  distance:    0.0412635
  band:
  - # 1
    frequency:   -3.2323058778
  - # 2
    frequency:   -2.2762184575
  - # 3
    frequency:    0.8774018575
  - # 4
    frequency:    0.9258887266
  - # 5
    frequency:    1.8618806528
  - # 6
    frequency:    3.3251099681
  - # 7
    frequency:    3.9663761735
  - # 8
    frequency:    4.8919028525
  - # 9
    frequency:    6.6883620321
  - # 10
    frequency:    7.3132601055
  - # 11
    frequency:    8.0067123627
  - # 12
    frequency:    9.1201481136
  - # 13
    frequency:    9.6051062989
  - # 14
    frequency:   12.5772821426
  - # 15
    frequency:   13.0761831285
  - # 16
    frequency:   14.3832017595
  - # 17
    frequency:   14.7724079060
  - # 18
    frequency:   14.8081195210
  - # 19
    frequency:   16.0112965430
  - # 20
    frequency:   18.2978439702
  - # 21
    frequency:  116.4225856189

- q-position: [    0.1212121,    0.0000000,    0.0000000 ]
  distance:    0.0430576
  band:
  - # 1
    frequency:   -3.3397004007
  - # 2
    frequency:   -2.3536179799
  - # 3
    frequency:    0.9272588112
  - # 4
    frequency:    0.9845711120
  - # 5
    frequency:    1.9402147506
  - # 6
    frequency:    3.4598255386
  - # 7
    frequency:    4.0079333097
  - # 8
    frequency:    4.9918050128
  - # 9
    frequency:    6.6755849434
  - # 10
    frequency:    7.3223032150
  - # 11
    frequency:    8.0519641188
  - # 12
    frequency:    9.1368552079
  - # 13
    frequency:    9.6448728889
  - # 14
    frequency:   12.5767255545
  - # 15
    frequency:   13.0352191862
  - # 16
    frequency:   14.4072262608
  - # 17
    frequency:   14.8030280778
  - # 18
    frequency:   14.8101522133
  - # 19
    frequency:   16.1268942948
  - # 20
    frequency:   18.2959604892
  - # 21
    frequency:  116.4211893063

- q-position: [    0.1262626,    0.0000000,    0.0000000 ]
  distance:    0.0448517
  band:
  - # 1
    frequency:   -3.4432284535
  - # 2
    frequency:   -2.4285079904
  - # 3
    frequency:    0.9696924769
  - # 4
    frequency:    1.0523280914
  - # 5
    frequency:    2.0180959272
  - # 6
    frequency:    3.5928929650
  - # 7
    frequency:    4.0503209120
  - # 8
    frequency:    5.0926442141
  - # 9
    frequency:    6.6633279645
  - # 10
    frequency:    7.3313692538
  - # 11
    frequency:    8.0968062960
  - # 12
    frequency:    9.1542378416
  - # 13
    frequency:    9.6836859194
  - # 14
    frequency:   12.5759454672
  - # 15
    frequency:   12.9921939541
  - # 16
    frequency:   14.4336141320
  - # 17
    frequency:   14.7975083296
  - # 18
    frequency:   14.8410561461
  - # 19
    frequency:   16.2472329356
  - # 20
    frequency:   18.2964715543
  - # 21
    frequency:  116.4197833121

- q-position: [    0.1313131,    0.0000000,    0.0000000 ]
  distance:    0.0466457
  band:
  - # 1
    frequency:   -3.5427940105
  - # 2
    frequency:   -2.5008217976
  - # 3
    frequency:    1.0096658609
  - # 4
    frequency:    1.1240558366
  - # 5
    frequency:    2.0954917705
  - # 6
    frequency:    3.7241696449
  - # 7
    frequency:    4.0934713058
  - # 8
    frequency:    5.1942593161
  - # 9
    frequency:    6.6516764119
  - # 10
    frequency:    7.3404310111
  - # 11
    frequency:    8.1412310956
  - # 12
    frequency:    9.1722868348
  - # 13
    frequency:    9.7213959914
  - # 14
    frequency:   12.5749368680
  - # 15
    frequency:   12.9477240837
  - # 16
    frequency:   14.4622935297
  - # 17
    frequency:   14.7915470804
  - # 18
    frequency:   14.8656742035
  - # 19
    frequency:   16.3705328179
  - # 20
    frequency:   18.2996909807
  - # 21
    frequency:  116.4183722448

- q-position: [    0.1363636,    0.0000000,    0.0000000 ]
  distance:    0.0484398
  band:
  - # 1
    frequency:   -3.6383084517
  - # 2
    frequency:   -2.5704972620
  - # 3
    frequency:    1.0490037924
  - # 4
    frequency:    1.1977945655
  - # 5
    frequency:    2.1723697319
  - # 6
    frequency:    3.8535047029
  - # 7
    frequency:    4.1373202924
  - # 8
    frequency:    5.2964918073
  - # 9
    frequency:    6.6407239511
  - # 10
    frequency:    7.3494629672
  - # 11
    frequency:    8.1852441682
  - # 12
    frequency:    9.1909919187
  - # 13
    frequency:    9.7578778696
  - # 14
    frequency:   12.5736974179
  - # 15
    frequency:   12.9023364733
  - # 16
    frequency:   14.4931793069
  - # 17
    frequency:   14.7851328816
  - # 18
    frequency:   14.8846575431
  - # 19
    frequency:   16.4949966415
  - # 20
    frequency:   18.3059726905
  - # 21
    frequency:  116.4169606204

- q-position: [    0.1414141,    0.0000000,    0.0000000 ]
  distance:    0.0502339
  band:
  - # 1
    frequency:   -3.7296906727
  - # 2
    frequency:   -2.6374768495
  - # 3
    frequency:    1.0882870866
  - # 4
    frequency:    1.2728336807
  - # 5
    frequency:    2.2486973326
  - # 6
    frequency:    3.9807384692
  - # 7
    frequency:    4.1818071793
  - # 8
    frequency:    5.3991822727
  - # 9
    frequency:    6.6305752528
  - # 10
    frequency:    7.3584414129
  - # 11
    frequency:    8.2288627762
  - # 12
    frequency:    9.2103417272
  - # 13
    frequency:    9.7930318818
  - # 14
    frequency:   12.5722275463
  - # 15
    frequency:   12.8564899168
  - # 16
    frequency:   14.5261642361
  - # 17
    frequency:   14.7782561880
  - # 18
    frequency:   14.8986721793
  - # 19
    frequency:   16.6188703095
  - # 20
    frequency:   18.3157185077
  - # 21
    frequency:  116.4155528412

- q-position: [    0.1464646,    0.0000000,    0.0000000 ]
  distance:    0.0520279
  band:
  - # 1
    frequency:   -3.8168671833
  - # 2
    frequency:   -2.7017076826
  - # 3
    frequency:    1.1277227380
  - # 4
    frequency:    1.3488409488
  - # 5
    frequency:    2.3244423699
  - # 6
    frequency:    4.1057018718
  - # 7
    frequency:    4.2268747524
  - # 8
    frequency:    5.5021660065
  - # 9
    frequency:    6.6213497626
  - # 10
    frequency:    7.3673445441
  - # 11
    frequency:    8.2721140796
  - # 12
    frequency:    9.2303238001
  - # 13
    frequency:    9.8267847578
  - # 14
    frequency:   12.5705305190
  - # 15
    frequency:   12.8105915313
  - # 16
    frequency:   14.5611065119
  - # 17
    frequency:   14.7709094990
  - # 18
    frequency:   14.9083652616
  - # 19
    frequency:   16.7404679724
  - # 20
    frequency:   18.3293826523
  - # 21
    frequency:  116.4141531748

- q-position: [    0.1515152,    0.0000000,    0.0000000 ]
  distance:    0.0538220
  band:
  - # 1
    frequency:   -3.8997721935
  - # 2
    frequency:   -2.7631415881
  - # 3
    frequency:    1.1673876540
  - # 4
    frequency:    1.4256182200
  - # 5
    frequency:    2.3995731204
  - # 6
    frequency:    4.2282157198
  - # 7
    frequency:    4.2724691954
  - # 8
    frequency:    5.6052671400
  - # 9
    frequency:    6.6131872493
  - # 10
    frequency:    7.3761525305
  - # 11
    frequency:    8.3150335386
  - # 12
    frequency:    9.2509245985
  - # 13
    frequency:    9.8590898963
  - # 14
    frequency:   12.5686124822
  - # 15
    frequency:   12.7650089556
  - # 16
    frequency:   14.5978088513
  - # 17
    frequency:   14.7630874835
  - # 18
    frequency:   14.9143681363
  - # 19
    frequency:   16.8581806436
  - # 20
    frequency:   18.3474685973
  - # 21
    frequency:  116.4127657351