nqpoint: 300    
npath: 3      
segment_nqpoint:
- 100
- 100
- 100
labels:
- [ 'G', 'M' ]
- [ 'M', 'K' ]
- [ 'K', 'G' ]
reciprocal_lattice:
- [   0.31007602,   0.17902248,   0.00000000 ] # a*
- [   0.00000000,   0.35804495,   0.00000000 ] # b*
- [   0.00000000,   0.00000000,   0.04144916 ] # c*
natom: 6      
lattice:
- [     3.225015565613424,     0.000000000000000,     0.000000000000000 ] # a
- [    -1.612507782806712,     2.792945407424327,     0.000000000000000 ] # b
- [     0.000000000000000,     0.000000000000000,    24.125940429063693 ] # c
points:
- symbol: Br # 1
  coordinates: [  0.333332985432215,  0.666666983183674,  0.626957546941548 ]
  mass: 79.904000
- symbol: H # 2
  coordinates: [  0.666666984744047,  0.333332985985145,  0.373042453058452 ]
  mass: 1.007940
- symbol: N # 3
  coordinates: [  0.000000000000000,  0.000000000000000,  0.507084204773764 ]
  mass: 14.006700
- symbol: O # 4
  coordinates: [  0.666666984744047,  0.333332985985145,  0.413920717555562 ]
  mass: 15.999400
- symbol: Ti # 5
  coordinates: [  0.333332985432215,  0.666666983183674,  0.464345772827515 ]
  mass: 47.867000
- symbol: Ti # 6
  coordinates: [  0.666666984744047,  0.333332985985145,  0.549700153423042 ]
  mass: 47.867000

phonon:
- q-position: [    0.0000000,    0.0000000,    0.0000000 ]
  distance:    0.0000000
  band:
  - # 1
    frequency:   -0.0000100715
  - # 2
    frequency:    0.0000005437
  - # 3
    frequency:    0.0000122071
  - # 4
    frequency:    3.4612492370
  - # 5
    frequency:    3.4612492371
  - # 6
    frequency:    5.6160571928
  - # 7
    frequency:    6.6534505627
  - # 8
    frequency:    6.6534505627
  - # 9
    frequency:    8.6483566948
  - # 10
    frequency:    8.6483566948
  - # 11
    frequency:   10.7142349193
  - # 12
    frequency:   13.5077938342
  - # 13
    frequency:   13.9762250335
  - # 14
    frequency:   13.9762250335
  - # 15
    frequency:   15.4903911003
  - # 16
    frequency:   17.1564038699
  - # 17
    frequency:   17.1564038700
  - # 18
    frequency:  112.1658292096

- q-position: [    0.0050505,    0.0000000,    0.0000000 ]
  distance:    0.0018083
  band:
  - # 1
    frequency:    0.0021260430
  - # 2
    frequency:    0.0796104630
  - # 3
    frequency:    0.1242115381
  - # 4
    frequency:    3.4619377556
  - # 5
    frequency:    3.4632432268
  - # 6
    frequency:    5.6150492823
  - # 7
    frequency:    6.6533551747
  - # 8
    frequency:    6.6547356828
  - # 9
    frequency:    8.6482299478
  - # 10
    frequency:    8.6487696216
  - # 11
    frequency:   10.7134591950
  - # 12
    frequency:   13.5059804199
  - # 13
    frequency:   13.9768063007
  - # 14
    frequency:   13.9779894443
  - # 15
    frequency:   15.4902697226
  - # 16
    frequency:   17.1562532162
  - # 17
    frequency:   17.1566515856
  - # 18
    frequency:  112.1658825422

- q-position: [    0.0101010,    0.0000000,    0.0000000 ]
  distance:    0.0036166
  band:
  - # 1
    frequency:    0.0084883619
  - # 2
    frequency:    0.1591439502
  - # 3
    frequency:    0.2483426597
  - # 4
    frequency:    3.4640015276
  - # 5
    frequency:    3.4692101484
  - # 6
    frequency:    5.6120457717
  - # 7
    frequency:    6.6530684750
  - # 8
    frequency:    6.6585696865
  - # 9
    frequency:    8.6478498825
  - # 10
    frequency:    8.6500066869
  - # 11
    frequency:   10.7111344445
  - # 12
    frequency:   13.5006083688
  - # 13
    frequency:   13.9785487379
  - # 14
    frequency:   13.9832182496
  - # 15
    frequency:   15.4899035747
  - # 16
    frequency:   17.1558028005
  - # 17
    frequency:   17.1573941243
  - # 18
    frequency:  112.1660425438

- q-position: [    0.0151515,    0.0000000,    0.0000000 ]
  distance:    0.0054249
  band:
  - # 1
    frequency:    0.0190425781
  - # 2
    frequency:    0.2385237145
  - # 3
    frequency:    0.3723130524
  - # 4
    frequency:    3.4674352085
  - # 5
    frequency:    3.4791053797
  - # 6
    frequency:    5.6071059644
  - # 7
    frequency:    6.6525888686
  - # 8
    frequency:    6.6648898933
  - # 9
    frequency:    8.6472170273
  - # 10
    frequency:    8.6520627374
  - # 11
    frequency:   10.7072679257
  - # 12
    frequency:   13.4918683068
  - # 13
    frequency:   13.9814482572
  - # 14
    frequency:   13.9917320753
  - # 15
    frequency:   15.4892866696
  - # 16
    frequency:   17.1550572258
  - # 17
    frequency:   17.1586296585
  - # 18
    frequency:  112.1663092264

- q-position: [    0.0202020,    0.0000000,    0.0000000 ]
  distance:    0.0072332
  band:
  - # 1
    frequency:    0.0337159960
  - # 2
    frequency:    0.3176734697
  - # 3
    frequency:    0.4960426072
  - # 4
    frequency:    3.4722299114
  - # 5
    frequency:    3.4928562436
  - # 6
    frequency:    5.6003243800
  - # 7
    frequency:    6.6519137327
  - # 8
    frequency:    6.6735962502
  - # 9
    frequency:    8.6463322707
  - # 10
    frequency:    8.6549291608
  - # 11
    frequency:   10.7018717030
  - # 12
    frequency:   13.4800375820
  - # 13
    frequency:   13.9854980619
  - # 14
    frequency:   14.0032721894
  - # 15
    frequency:   15.4884092198
  - # 16
    frequency:   17.1540240560
  - # 17
    frequency:   17.1603551333
  - # 18
    frequency:  112.1666826104

- q-position: [    0.0252525,    0.0000000,    0.0000000 ]
  distance:    0.0090415
  band:
  - # 1
    frequency:    0.0524102494
  - # 2
    frequency:    0.3965176247
  - # 3
    frequency:    0.6194515149
  - # 4
    frequency:    3.4783732388
  - # 5
    frequency:    3.5103644048
  - # 6
    frequency:    5.5918249688
  - # 7
    frequency:    6.6510394712
  - # 8
    frequency:    6.6845572573
  - # 9
    frequency:    8.6451968716
  - # 10
    frequency:    8.6585938514
  - # 11
    frequency:   10.6949625995
  - # 12
    frequency:   13.4654368005
  - # 13
    frequency:   13.9906886717
  - # 14
    frequency:   14.0175437621
  - # 15
    frequency:   15.4872579176
  - # 16
    frequency:   17.1527136552
  - # 17
    frequency:   17.1625662538
  - # 18
    frequency:  112.1671627260

- q-position: [    0.0303030,    0.0000000,    0.0000000 ]
  distance:    0.0108498
  band:
  - # 1
    frequency:    0.0750043863
  - # 2
    frequency:    0.4749815216
  - # 3
    frequency:    0.7424603558
  - # 4
    frequency:    3.4858493248
  - # 5
    frequency:    3.5315089606
  - # 6
    frequency:    5.5817542103
  - # 7
    frequency:    6.6499615891
  - # 8
    frequency:    6.6976170627
  - # 9
    frequency:    8.6438124739
  - # 10
    frequency:    8.6630411650
  - # 11
    frequency:   10.6865621312
  - # 12
    frequency:   13.4483917486
  - # 13
    frequency:   13.9970079572
  - # 14
    frequency:   14.0342536647
  - # 15
    frequency:   15.4858163174
  - # 16
    frequency:   17.1511389693
  - # 17
    frequency:   17.1652574674
  - # 18
    frequency:  112.1677496139

- q-position: [    0.0353535,    0.0000000,    0.0000000 ]
  distance:    0.0126582
  band:
  - # 1
    frequency:    0.1013584269
  - # 2
    frequency:    0.5529916802
  - # 3
    frequency:    0.8649901803
  - # 4
    frequency:    3.4946388887
  - # 5
    frequency:    3.5561500039
  - # 6
    frequency:    5.5702739296
  - # 7
    frequency:    6.6486747876
  - # 8
    frequency:    6.7126028872
  - # 9
    frequency:    8.6421811236
  - # 10
    frequency:    8.6682518657
  - # 11
    frequency:   10.6766964242
  - # 12
    frequency:   13.4292074169
  - # 13
    frequency:   14.0044411838
  - # 14
    frequency:   14.0531360974
  - # 15
    frequency:   15.4840653087
  - # 16
    frequency:   17.1493152535
  - # 17
    frequency:   17.1684219424
  - # 18
    frequency:  112.1684433276

- q-position: [    0.0404040,    0.0000000,    0.0000000 ]
  distance:    0.0144665
  band:
  - # 1
    frequency:    0.1313171598
  - # 2
    frequency:    0.6304760485
  - # 3
    frequency:    0.9869625783
  - # 4
    frequency:    3.5047192988
  - # 5
    frequency:    3.5841324255
  - # 6
    frequency:    5.5575545399
  - # 7
    frequency:    6.6471730784
  - # 8
    frequency:    6.7293320673
  - # 9
    frequency:    8.6403052870
  - # 10
    frequency:    8.6742030677
  - # 11
    frequency:   10.6653961150
  - # 12
    frequency:   13.4081544858
  - # 13
    frequency:   14.0129710646
  - # 14
    frequency:   14.0739656899
  - # 15
    frequency:   15.4819836682
  - # 16
    frequency:   17.1472597529
  - # 17
    frequency:   17.1720515435
  - # 18
    frequency:  112.1692439344

- q-position: [    0.0454545,    0.0000000,    0.0000000 ]
  distance:    0.0162748
  band:
  - # 1
    frequency:    0.1647139613
  - # 2
    frequency:    0.7073642594
  - # 3
    frequency:    1.1082997360
  - # 4
    frequency:    3.5160646451
  - # 5
    frequency:    3.6152897376
  - # 6
    frequency:    5.5437691993
  - # 7
    frequency:    6.6454499160
  - # 8
    frequency:    6.7476182224
  - # 9
    frequency:    8.6381878705
  - # 10
    frequency:    8.6808681761
  - # 11
    frequency:   10.6526962370
  - # 12
    frequency:   13.3854652424
  - # 13
    frequency:   14.0225778217
  - # 14
    frequency:   14.0965611165
  - # 15
    frequency:   15.4795486757
  - # 16
    frequency:   17.1449913445
  - # 17
    frequency:   17.1761368039
  - # 18
    frequency:  112.1701515181

- q-position: [    0.0505051,    0.0000000,    0.0000000 ]
  distance:    0.0180831
  band:
  - # 1
    frequency:    0.2013744472
  - # 2
    frequency:    0.7835878935
  - # 3
    frequency:    1.2289244794
  - # 4
    frequency:    3.5286458203
  - # 5
    frequency:    3.6494477300
  - # 6
    frequency:    5.5290891380
  - # 7
    frequency:    6.6434983475
  - # 8
    frequency:    6.7672762843
  - # 9
    frequency:    8.6358322389
  - # 10
    frequency:    8.6882168315
  - # 11
    frequency:   10.6386360919
  - # 12
    frequency:   13.3613352484
  - # 13
    frequency:   14.0332392552
  - # 14
    frequency:   14.1207829100
  - # 15
    frequency:   15.4767367785
  - # 16
    frequency:   17.1425301487
  - # 17
    frequency:   17.1806668978
  - # 18
    frequency:  112.1711661806

- q-position: [    0.0555556,    0.0000000,    0.0000000 ]
  distance:    0.0198914
  band:
  - # 1
    frequency:    0.2411198180
  - # 2
    frequency:    0.8590807477
  - # 3
    frequency:    1.3487603004
  - # 4
    frequency:    3.5424306092
  - # 5
    frequency:    3.6864278149
  - # 6
    frequency:    5.5136802060
  - # 7
    frequency:    6.6413111775
  - # 8
    frequency:    6.7881263334
  - # 9
    frequency:    8.6332422320
  - # 10
    frequency:    8.6962148626
  - # 11
    frequency:   10.6232591098
  - # 12
    frequency:   13.3359278160
  - # 13
    frequency:   14.0449308197
  - # 14
    frequency:   14.1465284261
  - # 15
    frequency:   15.4735242860
  - # 16
    frequency:   17.1398971225
  - # 17
    frequency:   17.1856296105
  - # 18
    frequency:  112.1722880442

- q-position: [    0.0606061,    0.0000000,    0.0000000 ]
  distance:    0.0216997
  band:
  - # 1
    frequency:    0.2837697976
  - # 2
    frequency:    0.9337791074
  - # 3
    frequency:    1.4677313672
  - # 4
    frequency:    3.5573837854
  - # 5
    frequency:    3.7260499629
  - # 6
    frequency:    5.4977005558
  - # 7
    frequency:    6.6388811465
  - # 8
    frequency:    6.8099963200
  - # 9
    frequency:    8.6304221788
  - # 10
    frequency:    8.7048242524
  - # 11
    frequency:   10.6066126974
  - # 12
    frequency:   13.3093793933
  - # 13
    frequency:   14.0576257075
  - # 14
    frequency:   14.1737258653
  - # 15
    frequency:   15.4698880792
  - # 16
    frequency:   17.1371136440
  - # 17
    frequency:   17.1910113112
  - # 18
    frequency:  112.1735172535

- q-position: [    0.0656566,    0.0000000,    0.0000000 ]
  distance:    0.0235080
  band:
  - # 1
    frequency:    0.3291451159
  - # 2
    frequency:    1.0076220204
  - # 3
    frequency:    1.5857625159
  - # 4
    frequency:    3.5734672157
  - # 5
    frequency:    3.7681351765
  - # 6
    frequency:    5.4812992927
  - # 7
    frequency:    6.6362011220
  - # 8
    frequency:    6.8327238337
  - # 9
    frequency:    8.6273769057
  - # 10
    frequency:    8.7140031233
  - # 11
    frequency:   10.5887480755
  - # 12
    frequency:   13.2818048193
  - # 13
    frequency:   14.0712949374
  - # 14
    frequency:   14.2023283963
  - # 15
    frequency:   15.4658063170
  - # 16
    frequency:   17.1342011013
  - # 17
    frequency:   17.1967969263
  - # 18
    frequency:  112.1748539769

- q-position: [    0.0707071,    0.0000000,    0.0000000 ]
  distance:    0.0253163
  band:
  - # 1
    frequency:    0.3770695200
  - # 2
    frequency:    1.0805515700
  - # 3
    frequency:    1.7027792226
  - # 4
    frequency:    3.5906399733
  - # 5
    frequency:    3.8125074852
  - # 6
    frequency:    5.4646158979
  - # 7
    frequency:    6.6332642984
  - # 8
    frequency:    6.8561571092
  - # 9
    frequency:    8.6241117404
  - # 10
    frequency:    8.7237057460
  - # 11
    frequency:   10.5697201077
  - # 12
    frequency:   13.2533019756
  - # 13
    frequency:   14.0859074496
  - # 14
    frequency:   14.2323088607
  - # 15
    frequency:   15.4612591229
  - # 16
    frequency:   17.1311804979
  - # 17
    frequency:   17.2029699171
  - # 18
    frequency:  112.1762984088

- q-position: [    0.0757576,    0.0000000,    0.0000000 ]
  distance:    0.0271246
  band:
  - # 1
    frequency:    0.4273713310
  - # 2
    frequency:    1.1525131439
  - # 3
    frequency:    1.8187075561
  - # 4
    frequency:    3.6088584591
  - # 5
    frequency:    3.8589954774
  - # 6
    frequency:    5.4477802354
  - # 7
    frequency:    6.6300644043
  - # 8
    frequency:    6.8801554543
  - # 9
    frequency:    8.6206325082
  - # 10
    frequency:    8.7338825776
  - # 11
    frequency:   10.5495871180
  - # 12
    frequency:   13.2239556859
  - # 13
    frequency:   14.1014302044
  - # 14
    frequency:   14.2636552122
  - # 15
    frequency:   15.4562292393
  - # 16
    frequency:   17.1280720867
  - # 17
    frequency:   17.2095122613
  - # 18
    frequency:  112.1778507701

- q-position: [    0.0808081,    0.0000000,    0.0000000 ]
  distance:    0.0289329
  band:
  - # 1
    frequency:    0.4798845817
  - # 2
    frequency:    1.2234556954
  - # 3
    frequency:    1.9334741086
  - # 4
    frequency:    3.6280765350
  - # 5
    frequency:    3.9074334013
  - # 6
    frequency:    5.4309129788
  - # 7
    frequency:    6.6265959146
  - # 8
    frequency:    6.9045892603
  - # 9
    frequency:    8.6169455214
  - # 10
    frequency:    8.7444803339
  - # 11
    frequency:   10.5284107003
  - # 12
    frequency:   13.1938408782
  - # 13
    frequency:   14.1178282854
  - # 14
    frequency:   14.2963666769
  - # 15
    frequency:   15.4507026361
  - # 16
    frequency:   17.1248950444
  - # 17
    frequency:   17.2164044409
  - # 18
    frequency:  112.1795113089

- q-position: [    0.0858586,    0.0000000,    0.0000000 ]
  distance:    0.0307412
  band:
  - # 1
    frequency:    0.5344497841
  - # 2
    frequency:    1.2933319918
  - # 3
    frequency:    2.0470059042
  - # 4
    frequency:    3.6482456683
  - # 5
    frequency:    3.9576618824
  - # 6
    frequency:    5.4141263244
  - # 7
    frequency:    6.6228542648
  - # 8
    frequency:    6.9293397284
  - # 9
    frequency:    8.6130575596
  - # 10
    frequency:    8.7554421008
  - # 11
    frequency:   10.5062555153
  - # 12
    frequency:   13.1630250927
  - # 13
    frequency:   14.1350650057
  - # 14
    frequency:   14.3304505524
  - # 15
    frequency:   15.4446690663
  - # 16
    frequency:   17.1216671978
  - # 17
    frequency:   17.2236254364
  - # 18
    frequency:  112.1812803008

- q-position: [    0.0909091,    0.0000000,    0.0000000 ]
  distance:    0.0325495
  band:
  - # 1
    frequency:    0.5909143809
  - # 2
    frequency:    1.3620988458
  - # 3
    frequency:    2.1592302841
  - # 4
    frequency:    3.6693150914
  - # 5
    frequency:    4.0095283074
  - # 6
    frequency:    5.3975248920
  - # 7
    frequency:    6.6188360631
  - # 8
    frequency:    6.9542984095
  - # 9
    frequency:    8.6089758418
  - # 10
    frequency:    8.7667074885
  - # 11
    frequency:   10.4831890770
  - # 12
    frequency:   13.1315704410
  - # 13
    frequency:   14.1531020177
  - # 14
    frequency:   14.3659195360
  - # 15
    frequency:   15.4381225637
  - # 16
    frequency:   17.1184048111
  - # 17
    frequency:   17.2311527301
  - # 18
    frequency:  112.1831580483

- q-position: [    0.0959596,    0.0000000,    0.0000000 ]
  distance:    0.0343578
  band:
  - # 1
    frequency:    0.6491329361
  - # 2
    frequency:    1.4297173264
  - # 3
    frequency:    2.2700747667
  - # 4
    frequency:    3.6912319774
  - # 5
    frequency:    4.0628869261
  - # 6
    frequency:    5.3812067433
  - # 7
    frequency:    6.6145392995
  - # 8
    frequency:    6.9793666335
  - # 9
    frequency:    8.6047079891
  - # 10
    frequency:    8.7782128335
  - # 11
    frequency:   10.4592815231
  - # 12
    frequency:   13.0995351189
  - # 13
    frequency:   14.1718994238
  - # 14
    frequency:   14.4027894760
  - # 15
    frequency:   15.4310618851
  - # 16
    frequency:   17.1151224421
  - # 17
    frequency:   17.2389623173
  - # 18
    frequency:  112.1851448790

- q-position: [    0.1010101,    0.0000000,    0.0000000 ]
  distance:    0.0361662
  band:
  - # 1
    frequency:    0.7089671151
  - # 2
    frequency:    1.4961529417
  - # 3
    frequency:    2.3794668801
  - # 4
    frequency:    3.7139416360
  - # 5
    frequency:    4.1175987181
  - # 6
    frequency:    5.3652644726
  - # 7
    frequency:    6.6099635460
  - # 8
    frequency:    7.0044548777
  - # 9
    frequency:    8.6002619789
  - # 10
    frequency:    8.7898914519
  - # 11
    frequency:   10.4346053684
  - # 12
    frequency:   13.0669745617
  - # 13
    frequency:   14.1914158903
  - # 14
    frequency:   14.4410774412
  - # 15
    frequency:   15.4234909054
  - # 16
    frequency:   17.1118328746
  - # 17
    frequency:   17.2470287287
  - # 18
    frequency:  112.1872411435

- q-position: [    0.1060606,    0.0000000,    0.0000000 ]
  distance:    0.0379745
  band:
  - # 1
    frequency:    0.7702855018
  - # 2
    frequency:    1.5613757919
  - # 3
    frequency:    2.4873339654
  - # 4
    frequency:    3.7373877298
  - # 5
    frequency:    4.1735310629
  - # 6
    frequency:    5.3497863450
  - # 7
    frequency:    6.6051101467
  - # 8
    frequency:    7.0294821103
  - # 9
    frequency:    8.5956460898
  - # 10
    frequency:    8.8016739461
  - # 11
    frequency:   10.4092352359
  - # 12
    frequency:   13.0339423168
  - # 13
    frequency:   14.2116087618
  - # 14
    frequency:   14.4808000156
  - # 15
    frequency:   15.4154189864
  - # 16
    frequency:   17.1085471298
  - # 17
    frequency:   17.2553250633
  - # 18
    frequency:  112.1894472125

- q-position: [    0.1111111,    0.0000000,    0.0000000 ]
  distance:    0.0397828
  band:
  - # 1
    frequency:    0.8329632920
  - # 2
    frequency:    1.6253606872
  - # 3
    frequency:    2.5936029472
  - # 4
    frequency:    3.7615125143
  - # 5
    frequency:    4.2305572470
  - # 6
    frequency:    5.3348574757
  - # 7
    frequency:    6.5999823926
  - # 8
    frequency:    7.0543751309
  - # 9
    frequency:    8.5908688389
  - # 10
    frequency:    8.8134885707
  - # 11
    frequency:   10.3832475612
  - # 12
    frequency:   13.0004906944
  - # 13
    frequency:   14.2324341770
  - # 14
    frequency:   14.5219717244
  - # 15
    frequency:   15.4068613532
  - # 16
    frequency:   17.1052745599
  - # 17
    frequency:   17.2638230326
  - # 18
    frequency:  112.1917634721

- q-position: [    0.1161616,    0.0000000,    0.0000000 ]
  distance:    0.0415911
  band:
  - # 1
    frequency:    0.8968818981
  - # 2
    frequency:    1.6880872257
  - # 3
    frequency:    2.6982000677
  - # 4
    frequency:    3.7862571027
  - # 5
    frequency:    4.2885558262
  - # 6
    frequency:    5.3205610551
  - # 7
    frequency:    6.5945856790
  - # 8
    frequency:    7.0790679227
  - # 9
    frequency:    8.5859389116
  - # 10
    frequency:    8.8252616584
  - # 11
    frequency:   10.3567202643
  - # 12
    frequency:   12.9666712432
  - # 13
    frequency:   14.2538471855
  - # 14
    frequency:   14.5646034859
  - # 15
    frequency:   15.3978395355
  - # 16
    frequency:   17.1020230235
  - # 17
    frequency:   17.2724930177
  - # 18
    frequency:  112.1941903189

- q-position: [    0.1212121,    0.0000000,    0.0000000 ]
  distance:    0.0433994
  band:
  - # 1
    frequency:    0.9619284904
  - # 2
    frequency:    1.7495398318
  - # 3
    frequency:    2.8010505802
  - # 4
    frequency:    3.8115617567
  - # 5
    frequency:    4.3474098524
  - # 6
    frequency:    5.3069796435
  - # 7
    frequency:    6.5889276407
  - # 8
    frequency:    7.1035010257
  - # 9
    frequency:    8.5808650851
  - # 10
    frequency:    8.8369181104
  - # 11
    frequency:   10.3297323809
  - # 12
    frequency:   12.9325350897
  - # 13
    frequency:   14.2758018651
  - # 14
    frequency:   14.6087009643
  - # 15
    frequency:   15.3883819719
  - # 16
    frequency:   17.0987991415
  - # 17
    frequency:   17.2813041381
  - # 18
    frequency:  112.1967281537

- q-position: [    0.1262626,    0.0000000,    0.0000000 ]
  distance:    0.0452077
  band:
  - # 1
    frequency:    1.0279954991
  - # 2
    frequency:    1.8097077494
  - # 3
    frequency:    2.9020783981
  - # 4
    frequency:    3.8373662024
  - # 5
    frequency:    4.4070059537
  - # 6
    frequency:    5.2941965702
  - # 7
    frequency:    6.5830182632
  - # 8
    frequency:    7.1276209359
  - # 9
    frequency:    8.5756561474
  - # 10
    frequency:    8.8483819537
  - # 11
    frequency:   10.3023636486
  - # 12
    frequency:   12.8981331690
  - # 13
    frequency:   14.2982514395
  - # 14
    frequency:   14.6542626333
  - # 15
    frequency:   15.3785249368
  - # 16
    frequency:   17.0956086301
  - # 17
    frequency:   17.2902243334
  - # 18
    frequency:  112.1993773739

- q-position: [    0.1313131,    0.0000000,    0.0000000 ]
  distance:    0.0470160
  band:
  - # 1
    frequency:    1.0949800923
  - # 2
    frequency:    1.8685849925
  - # 3
    frequency:    3.0012056943
  - # 4
    frequency:    3.8636099716
  - # 5
    frequency:    4.4672332336
  - # 6
    frequency:    5.2822975002
  - # 7
    frequency:    6.5768699649
  - # 8
    frequency:    7.1513795347
  - # 9
    frequency:    8.5703208116
  - # 10
    frequency:    8.8595769688
  - # 11
    frequency:   10.2746940368
  - # 12
    frequency:   12.8635163715
  - # 13
    frequency:   14.3211483974
  - # 14
    frequency:   14.7012772521
  - # 15
    frequency:   15.3683140772
  - # 16
    frequency:   17.0924567091
  - # 17
    frequency:   17.2992204578
  - # 18
    frequency:  112.2021383650

- q-position: [    0.1363636,    0.0000000,    0.0000000 ]
  distance:    0.0488243
  band:
  - # 1
    frequency:    1.1627836426
  - # 2
    frequency:    1.9261702506
  - # 3
    frequency:    3.0983524505
  - # 4
    frequency:    3.8902327654
  - # 5
    frequency:    4.5279819123
  - # 6
    frequency:    5.2713722632
  - # 7
    frequency:    6.5704976492
  - # 8
    frequency:    7.1747335504
  - # 9
    frequency:    8.5648676293
  - # 10
    frequency:    8.8704273896
  - # 11
    frequency:   10.2468032164
  - # 12
    frequency:   12.8287356198
  - # 13
    frequency:   14.3444446111
  - # 14
    frequency:   14.7497202164
  - # 15
    frequency:   15.3578070808
  - # 16
    frequency:   17.0893485795
  - # 17
    frequency:   17.3082583866
  - # 18
    frequency:  112.2050114909

- q-position: [    0.1414141,    0.0000000,    0.0000000 ]
  distance:    0.0506326
  band:
  - # 1
    frequency:    1.2313111924
  - # 2
    frequency:    1.9824667529
  - # 3
    frequency:    3.1934359548
  - # 4
    frequency:    3.9171748379
  - # 5
    frequency:    4.5891415646
  - # 6
    frequency:    5.2615171093
  - # 7
    frequency:    6.5639187226
  - # 8
    frequency:    7.1976440564
  - # 9
    frequency:    8.5593049029
  - # 10
    frequency:    8.8808586784
  - # 11
    frequency:   10.2187699603
  - # 12
    frequency:   12.7938418925
  - # 13
    frequency:   14.3680914568
  - # 14
    frequency:   14.7995477560
  - # 15
    frequency:   15.3470784979
  - # 16
    frequency:   17.0862899683
  - # 17
    frequency:   17.3173031357
  - # 18
    frequency:  112.2079970833

- q-position: [    0.1464646,    0.0000000,    0.0000000 ]
  distance:    0.0524409
  band:
  - # 1
    frequency:    1.3004709235
  - # 2
    frequency:    2.0374820916
  - # 3
    frequency:    3.2863702559
  - # 4
    frequency:    3.9443773956
  - # 5
    frequency:    4.6505986744
  - # 6
    frequency:    5.2528376756
  - # 7
    frequency:    6.5571530772
  - # 8
    frequency:    7.2200760059
  - # 9
    frequency:    8.5536405990
  - # 10
    frequency:    8.8907983751
  - # 11
    frequency:   10.1906714703
  - # 12
    frequency:   12.7588862020
  - # 13
    frequency:   14.3920399349
  - # 14
    frequency:   14.8506868519
  - # 15
    frequency:   15.3362288353
  - # 16
    frequency:   17.0832877391
  - # 17
    frequency:   17.3263189913
  - # 18
    frequency:  112.2110954299

- q-position: [    0.1515152,    0.0000000,    0.0000000 ]
  distance:    0.0542492
  band:
  - # 1
    frequency:    1.3701736348
  - # 2
    frequency:    2.0912280087
  - # 3
    frequency:    3.3770655878
  - # 4
    frequency:    3.9717830077
  - # 5
    frequency:    4.7122329693
  - # 6
    frequency:    5.2454531986
  - # 7
    frequency:    6.5502230363
  - # 8
    frequency:    7.2419978076
  - # 9
    frequency:    8.5478822648
  - # 10
    frequency:    8.9001770201
  - # 11
    frequency:   10.1625826294
  - # 12
    frequency:   12.7239195348
  - # 13
    frequency:   14.4162407916
  - # 14
    frequency:   14.9030161244
  - # 15
    frequency:   15.3254026642
  - # 16
    frequency:   17.0803505676
  - # 17
    frequency:   17.3352696521
  - # 18
    frequency:  112.2143067611

- q-position: [    0.1565657,    0.0000000,    0.0000000 ]
  distance:    0.0560575
  band:
  - # 1
    frequency:    1.4403322320
  - # 2
    frequency:    2.1437201505
  - # 3
    frequency:    3.4654277978
  - # 4
    frequency:    3.9993360221
  - # 5
    frequency:    4.7739114509
  - # 6
    frequency:    5.2395030337
  - # 7
    frequency:    6.5431532607
  - # 8
    frequency:    7.2633809444
  - # 9
    frequency:    8.5420369481
  - # 10
    frequency:    8.9089291439
  - # 11
    frequency:   10.1345751787
  - # 12
    frequency:   12.6889927604
  - # 13
    frequency:   14.4406446418
  - # 14
    frequency:   14.9563261264
  - # 15
    frequency:   15.3148272977
  - # 16
    frequency:   17.0774896851
  - # 17
    frequency:   17.3441183805
  - # 18
    frequency:  112.2176312369

- q-position: [    0.1616162,    0.0000000,    0.0000000 ]
  distance:    0.0578659
  band:
  - # 1
    frequency:    1.5108612289
  - # 2
    frequency:    2.1949777938
  - # 3
    frequency:    3.5513578275
  - # 4
    frequency:    4.0269829795
  - # 5
    frequency:    4.8354778176
  - # 6
    frequency:    5.2351577395
  - # 7
    frequency:    6.5359706174
  - # 8
    frequency:    7.2841996387
  - # 9
    frequency:    8.5361111238
  - # 10
    frequency:    8.9169943149
  - # 11
    frequency:   10.1067168286
  - # 12
    frequency:   12.6541565116
  - # 13
    frequency:   14.4652020920
  - # 14
    frequency:   15.0102279341
  - # 15
    frequency:   15.3049031342
  - # 16
    frequency:   17.0747196974
  - # 17
    frequency:   17.3528281629
  - # 18
    frequency:  112.2210689320

- q-position: [    0.1666667,    0.0000000,    0.0000000 ]
  distance:    0.0596742
  band:
  - # 1
    frequency:    1.5816762631
  - # 2
    frequency:    2.2450235489
  - # 3
    frequency:    3.6347513326
  - # 4
    frequency:    4.0546730207
  - # 5
    frequency:    4.8967320487
  - # 6
    frequency:    5.2326398841
  - # 7
    frequency:    6.5287040088
  - # 8
    frequency:    7.3044305664
  - # 9
    frequency:    8.5301106268
  - # 10
    frequency:    8.9243182275
  - # 11
    frequency:   10.0790703171
  - # 12
    frequency:   12.6194610401
  - # 13
    frequency:   14.4898638658
  - # 14
    frequency:   15.0639170408
  - # 15
    frequency:   15.2964386449
  - # 16
    frequency:   17.0720594910
  - # 17
    frequency:   17.3613618792
  - # 18
    frequency:  112.2246198203

- q-position: [    0.1717172,    0.0000000,    0.0000000 ]
  distance:    0.0614825
  band:
  - # 1
    frequency:    1.6526936240
  - # 2
    frequency:    2.2938830450
  - # 3
    frequency:    3.7154985645
  - # 4
    frequency:    4.0823582790
  - # 5
    frequency:    4.9573872949
  - # 6
    frequency:    5.2322673028
  - # 7
    frequency:    6.5213841653
  - # 8
    frequency:    7.3240526226
  - # 9
    frequency:    8.5240405931
  - # 10
    frequency:    8.9308538066
  - # 11
    frequency:   10.0516924366
  - # 12
    frequency:   12.5849560498
  - # 13
    frequency:   14.5145809293
  - # 14
    frequency:   15.1154947669
  - # 15
    frequency:   15.2913277692
  - # 16
    frequency:   17.0695332434
  - # 17
    frequency:   17.3696824780
  - # 18
    frequency:  112.2282837589

- q-position: [    0.1767677,    0.0000000,    0.0000000 ]
  distance:    0.0632908
  band:
  - # 1
    frequency:    1.7238297947
  - # 2
    frequency:    2.3415846020
  - # 3
    frequency:    3.7934846913
  - # 4
    frequency:    4.1099942511
  - # 5
    frequency:    5.0169698164
  - # 6
    frequency:    5.2345528965
  - # 7
    frequency:    6.5140434011
  - # 8
    frequency:    7.3430467428
  - # 9
    frequency:    8.5179054097
  - # 10
    frequency:    8.9365622967
  - # 11
    frequency:   10.0246330627
  - # 12
    frequency:   12.5506905080
  - # 13
    frequency:   14.5393046184
  - # 14