nqpoint: 300    
npath: 3      
segment_nqpoint:
- 100
- 100
- 100
labels:
- [ 'G', 'M' ]
- [ 'M', 'K' ]
- [ 'K', 'G' ]
reciprocal_lattice:
- [   0.30229853,   0.17453214,   0.00000000 ] # a*
- [   0.00000000,   0.34906427,   0.00000000 ] # b*
- [   0.00000000,   0.00000000,   0.04166166 ] # c*
natom: 6      
lattice:
- [     3.307988331830425,     0.000000000000000,     0.000000000000000 ] # a
- [    -1.653994165915212,     2.864801930778452,     0.000000000000000 ] # b
- [     0.000000000000000,     0.000000000000000,    24.002885650123154 ] # c
points:
- symbol: C # 1
  coordinates: [  0.333332985432215,  0.666666983183674,  0.575187039480944 ]
  mass: 12.010700
- symbol: N # 2
  coordinates: [  0.000000000000000,  0.000000000000000,  0.470265371515757 ]
  mass: 14.006700
- symbol: N # 3
  coordinates: [  0.333332985432215,  0.666666983183674,  0.625045082862617 ]
  mass: 14.006700
- symbol: O # 4
  coordinates: [  0.666666984744047,  0.333332985985145,  0.374954917137383 ]
  mass: 15.999400
- symbol: Sc # 5
  coordinates: [  0.333332985432215,  0.666666983183674,  0.403594432610616 ]
  mass: 44.955912
- symbol: Sc # 6
  coordinates: [  0.666666984744047,  0.333332985985145,  0.512283296104190 ]
  mass: 44.955912

phonon:
- q-position: [    0.0000000,    0.0000000,    0.0000000 ]
  distance:    0.0000000
  band:
  - # 1
    frequency:   -2.1919878940
  - # 2
    frequency:   -2.1919878940
  - # 3
    frequency:   -0.0000269566
  - # 4
    frequency:    0.0000006617
  - # 5
    frequency:    0.0000236303
  - # 6
    frequency:    3.5264492410
  - # 7
    frequency:    3.5264492412
  - # 8
    frequency:    6.1173522898
  - # 9
    frequency:    7.5199540785
  - # 10
    frequency:    7.5199540785
  - # 11
    frequency:   10.1042208371
  - # 12
    frequency:   12.7370801663
  - # 13
    frequency:   12.7370801664
  - # 14
    frequency:   14.3227037219
  - # 15
    frequency:   14.3227037220
  - # 16
    frequency:   14.7826083964
  - # 17
    frequency:   17.4985784553
  - # 18
    frequency:   63.4745146794

- q-position: [    0.0050505,    0.0000000,    0.0000000 ]
  distance:    0.0017630
  band:
  - # 1
    frequency:   -2.1919866275
  - # 2
    frequency:   -2.1915011624
  - # 3
    frequency:    0.0025660342
  - # 4
    frequency:    0.0778106927
  - # 5
    frequency:    0.1338712261
  - # 6
    frequency:    3.5269105222
  - # 7
    frequency:    3.5299548868
  - # 8
    frequency:    6.1169911875
  - # 9
    frequency:    7.5198731824
  - # 10
    frequency:    7.5224268054
  - # 11
    frequency:   10.1038856587
  - # 12
    frequency:   12.7364957514
  - # 13
    frequency:   12.7411700414
  - # 14
    frequency:   14.3191874062
  - # 15
    frequency:   14.3223242043
  - # 16
    frequency:   14.7849842421
  - # 17
    frequency:   17.4990374844
  - # 18
    frequency:   63.4743936378

- q-position: [    0.0101010,    0.0000000,    0.0000000 ]
  distance:    0.0035259
  band:
  - # 1
    frequency:   -2.1919822249
  - # 2
    frequency:   -2.1900436440
  - # 3
    frequency:    0.0102457867
  - # 4
    frequency:    0.1555941605
  - # 5
    frequency:    0.2677065278
  - # 6
    frequency:    3.5282955471
  - # 7
    frequency:    3.5404352368
  - # 8
    frequency:    6.1159201565
  - # 9
    frequency:    7.5196309033
  - # 10
    frequency:    7.5297987094
  - # 11
    frequency:   10.1028811895
  - # 12
    frequency:   12.7347438685
  - # 13
    frequency:   12.7533595207
  - # 14
    frequency:   14.3089744052
  - # 15
    frequency:   14.3211866074
  - # 16
    frequency:   14.7918380717
  - # 17
    frequency:   17.5004184331
  - # 18
    frequency:   63.4740307761

- q-position: [    0.0151515,    0.0000000,    0.0000000 ]
  distance:    0.0052889
  band:
  - # 1
    frequency:   -2.1919728982
  - # 2
    frequency:   -2.1876236916
  - # 3
    frequency:    0.0229773134
  - # 4
    frequency:    0.2333233040
  - # 5
    frequency:    0.4014710857
  - # 6
    frequency:    3.5306078429
  - # 7
    frequency:    3.5577824060
  - # 8
    frequency:    6.1141749725
  - # 9
    frequency:    7.5192284673
  - # 10
    frequency:    7.5419334298
  - # 11
    frequency:   10.1012105926
  - # 12
    frequency:   12.7318286076
  - # 13
    frequency:   12.7734018973
  - # 14
    frequency:   14.2929818409
  - # 15
    frequency:   14.3192937920
  - # 16
    frequency:   14.8024453459
  - # 17
    frequency:   17.5027329076
  - # 18
    frequency:   63.4734268834

- q-position: [    0.0202020,    0.0000000,    0.0000000 ]
  distance:    0.0070518
  band:
  - # 1
    frequency:   -2.1919557346
  - # 2
    frequency:   -2.1842562139
  - # 3
    frequency:    0.0406618073
  - # 4
    frequency:    0.3109712525
  - # 5
    frequency:    0.5351319401
  - # 6
    frequency:    3.5338532255
  - # 7
    frequency:    3.5818226359
  - # 8
    frequency:    6.1118119455
  - # 9
    frequency:    7.5186679113
  - # 10
    frequency:    7.5586116511
  - # 11
    frequency:   10.0988790255
  - # 12
    frequency:   12.7277567981
  - # 13
    frequency:   12.8008644225
  - # 14
    frequency:   14.2725068226
  - # 15
    frequency:   14.3166505031
  - # 16
    frequency:   14.8158501970
  - # 17
    frequency:   17.5060003280
  - # 18
    frequency:   63.4725832721

- q-position: [    0.0252525,    0.0000000,    0.0000000 ]
  distance:    0.0088148
  band:
  - # 1
    frequency:   -2.1919267934
  - # 2
    frequency:   -2.1799638757
  - # 3
    frequency:    0.0631670753
  - # 4
    frequency:    0.3885114631
  - # 5
    frequency:    0.6686581043
  - # 6
    frequency:    3.5380397079
  - # 7
    frequency:    3.6123246762
  - # 8
    frequency:    6.1089035504
  - # 9
    frequency:    7.5179520732
  - # 10
    frequency:    7.5795421206
  - # 11
    frequency:   10.0958934849
  - # 12
    frequency:   12.7225380275
  - # 13
    frequency:   12.8350936482
  - # 14
    frequency:   14.2490483200
  - # 15
    frequency:   14.3132633358
  - # 16
    frequency:   14.8310764139
  - # 17
    frequency:   17.5102480480
  - # 18
    frequency:   63.4715017737

- q-position: [    0.0303030,    0.0000000,    0.0000000 ]
  distance:    0.0105777
  band:
  - # 1
    frequency:   -2.1918812312
  - # 2
    frequency:   -2.1747783025
  - # 3
    frequency:    0.0903327646
  - # 4
    frequency:    0.4659177940
  - # 5
    frequency:    0.8020199465
  - # 6
    frequency:    3.5431773710
  - # 7
    frequency:    3.6490102645
  - # 8
    frequency:    6.1055333490
  - # 9
    frequency:    7.5170845789
  - # 10
    frequency:    7.6043754473
  - # 11
    frequency:   10.0922626170
  - # 12
    frequency:   12.7161846661
  - # 13
    frequency:   12.8751626532
  - # 14
    frequency:   14.2242297038
  - # 15
    frequency:   14.3091406881
  - # 16
    frequency:   14.8472554365
  - # 17
    frequency:   17.5155115356
  - # 18
    frequency:   63.4701847330

- q-position: [    0.0353535,    0.0000000,    0.0000000 ]
  distance:    0.0123407
  band:
  - # 1
    frequency:   -2.1918134486
  - # 2
    frequency:   -2.1687409810
  - # 3
    frequency:    0.1219759876
  - # 4
    frequency:    0.5431645521
  - # 5
    frequency:    0.9351879047
  - # 6
    frequency:    3.5492782010
  - # 7
    frequency:    3.6915657110
  - # 8
    frequency:    6.1017909145
  - # 9
    frequency:    7.5160698262
  - # 10
    frequency:    7.6327194441
  - # 11
    frequency:   10.0879965174
  - # 12
    frequency:   12.7087118974
  - # 13
    frequency:   12.9197975276
  - # 14
    frequency:   14.1998230825
  - # 15
    frequency:   14.3042927023
  - # 16
    frequency:   14.8636731109
  - # 17
    frequency:   17.5218346242
  - # 18
    frequency:   63.4686350012

- q-position: [    0.0404040,    0.0000000,    0.0000000 ]
  distance:    0.0141036
  band:
  - # 1
    frequency:   -2.1917172497
  - # 2
    frequency:   -2.1619036221
  - # 3
    frequency:    0.1578968256
  - # 4
    frequency:    0.6202265146
  - # 5
    frequency:    1.0681307332
  - # 6
    frequency:    3.5563558916
  - # 7
    frequency:    3.7396536092
  - # 8
    frequency:    6.0977673410
  - # 9
    frequency:    7.5149129656
  - # 10
    frequency:    7.6641548296
  - # 11
    frequency:   10.0831065408
  - # 12
    frequency:   12.7001377509
  - # 13
    frequency:   12.9672846772
  - # 14
    frequency:   14.1778414655
  - # 15
    frequency:   14.2987311942
  - # 16
    frequency:   14.8797678937
  - # 17
    frequency:   17.5292698498
  - # 18
    frequency:   63.4668559266

- q-position: [    0.0454545,    0.0000000,    0.0000000 ]
  distance:    0.0158666
  band:
  - # 1
    frequency:   -2.1915860039
  - # 2
    frequency:   -2.1543278642
  - # 3
    frequency:    0.1978832977
  - # 4
    frequency:    0.6970789246
  - # 5
    frequency:    1.2008135500
  - # 6
    frequency:    3.5644256160
  - # 7
    frequency:    3.7929238282
  - # 8
    frequency:    6.0935517159
  - # 9
    frequency:    7.5136198788
  - # 10
    frequency:    7.6982502885
  - # 11
    frequency:   10.0776051421
  - # 12
    frequency:   12.6904831379
  - # 13
    frequency:   13.0153741949
  - # 14
    frequency:   14.1606549945
  - # 15
    frequency:   14.2924695736
  - # 16
    frequency:   14.8951092930
  - # 17
    frequency:   17.5378788884
  - # 18
    frequency:   63.4648513441

- q-position: [    0.0505051,    0.0000000,    0.0000000 ]
  distance:    0.0176295
  band:
  - # 1
    frequency:   -2.1914128056
  - # 2
    frequency:   -2.1460843088
  - # 3
    frequency:    0.2417155375
  - # 4
    frequency:    0.7736974659
  - # 5
    frequency:    1.3331959512
  - # 6
    frequency:    3.5735037682
  - # 7
    frequency:    3.8510231433
  - # 8
    frequency:    6.0892287169
  - # 9
    frequency:    7.5121971564
  - # 10
    frequency:    7.7345761356
  - # 11
    frequency:   10.0715057623
  - # 12
    frequency:   12.6797718866
  - # 13
    frequency:   13.0612261955
  - # 14
    frequency:   14.1510683989
  - # 15
    frequency:   14.2855227553
  - # 16
    frequency:   14.9093727508
  - # 17
    frequency:   17.5477331120
  - # 18
    frequency:   63.4626255638

- q-position: [    0.0555556,    0.0000000,    0.0000000 ]
  distance:    0.0193925
  band:
  - # 1
    frequency:   -2.1911906214
  - # 2
    frequency:   -2.1372509621
  - # 3
    frequency:    0.2891690703
  - # 4
    frequency:    0.8500582203
  - # 5
    frequency:    1.4652304094
  - # 6
    frequency:    3.5836076761
  - # 7
    frequency:    3.9136030958
  - # 8
    frequency:    6.0848773157
  - # 9
    frequency:    7.5106520735
  - # 10
    frequency:    7.7727160782
  - # 11
    frequency:   10.0648227682
  - # 12
    frequency:   12.6680307750
  - # 13
    frequency:   13.1014981135
  - # 14
    frequency:   14.1522550111
  - # 15
    frequency:   14.2779070629
  - # 16
    frequency:   14.9223178219
  - # 17
    frequency:   17.5589142760
  - # 18
    frequency:   63.4601833569

- q-position: [    0.0606061,    0.0000000,    0.0000000 ]
  distance:    0.0211554
  band:
  - # 1
    frequency:   -2.1909124240
  - # 2
    frequency:   -2.1279112093
  - # 3
    frequency:    0.3400172202
  - # 4
    frequency:    0.9261376158
  - # 5
    frequency:    1.5968610933
  - # 6
    frequency:    3.5947552907
  - # 7
    frequency:    3.9803258861
  - # 8
    frequency:    6.0805704562
  - # 9
    frequency:    7.5089925651
  - # 10
    frequency:    7.8122768025
  - # 11
    frequency:   10.0575714505
  - # 12
    frequency:   12.6552895591
  - # 13
    frequency:   13.1327036297
  - # 14
    frequency:   14.1674146587
  - # 15
    frequency:   14.2696401270
  - # 16
    frequency:   14.9337717942
  - # 17
    frequency:   17.5715153517
  - # 18
    frequency:   63.4575299413

- q-position: [    0.0656566,    0.0000000,    0.0000000 ]
  distance:    0.0229184
  band:
  - # 1
    frequency:   -2.1905713067
  - # 2
    frequency:   -2.1181514693
  - # 3
    frequency:    0.3940327763
  - # 4
    frequency:    1.0019123695
  - # 5
    frequency:    1.7280231682
  - # 6
    frequency:    3.6069648524
  - # 7
    frequency:    4.0508682861
  - # 8
    frequency:    6.0763755201
  - # 9
    frequency:    7.5072272019
  - # 10
    frequency:    7.8528952930
  - # 11
    frequency:   10.0497680785
  - # 12
    frequency:   12.6415809948
  - # 13
    frequency:   13.1518815701
  - # 14
    frequency:   14.1991166243
  - # 15
    frequency:   14.2607407792
  - # 16
    frequency:   14.9436192571
  - # 17
    frequency:   17.5856415064
  - # 18
    frequency:   63.4546709657

- q-position: [    0.0707071,    0.0000000,    0.0000000 ]
  distance:    0.0246813
  band:
  - # 1
    frequency:   -2.1901605786
  - # 2
    frequency:   -2.1080586755
  - # 3
    frequency:    0.4509891093
  - # 4
    frequency:    1.0773594339
  - # 5
    frequency:    1.8586425694
  - # 6
    frequency:    3.6202545382
  - # 7
    frequency:    4.1249236808
  - # 8
    frequency:    6.0723553909
  - # 9
    frequency:    7.5053651661
  - # 10
    frequency:    7.8942439485
  - # 11
    frequency:   10.0414300095
  - # 12
    frequency:   12.6269408504
  - # 13
    frequency:   13.1573325339
  - # 14
    frequency:   14.2485691555
  - # 15
    frequency:   14.2512289427
  - # 16
    frequency:   14.9517983436
  - # 17
    frequency:   17.6014112209
  - # 18
    frequency:   63.4516124916

- q-position: [    0.0757576,    0.0000000,    0.0000000 ]
  distance:    0.0264443
  band:
  - # 1
    frequency:   -2.1896738404
  - # 2
    frequency:   -2.0977177199
  - # 3
    frequency:    0.5106609497
  - # 4
    frequency:    1.1524559510
  - # 5
    frequency:    1.9886361935
  - # 6
    frequency:    3.6346420939
  - # 7
    frequency:    4.2022024283
  - # 8
    frequency:    6.0685699535
  - # 9
    frequency:    7.5034162289
  - # 10
    frequency:    7.9360336620
  - # 11
    frequency:   10.0325758455
  - # 12
    frequency:   12.6114079075
  - # 13
    frequency:   13.1489613627
  - # 14
    frequency:   14.2411255225
  - # 15
    frequency:   14.3152746101
  - # 16
    frequency:   14.9583063555
  - # 17
    frequency:   17.6189575159
  - # 18
    frequency:   63.4483609748

- q-position: [    0.0808081,    0.0000000,    0.0000000 ]
  distance:    0.0282072
  band:
  - # 1
    frequency:   -2.1891050411
  - # 2
    frequency:   -2.0872089869
  - # 3
    frequency:    0.5728250306
  - # 4
    frequency:    1.2271792189
  - # 5
    frequency:    2.1179124296
  - # 6
    frequency:    3.6501444536
  - # 7
    frequency:    4.2824307560
  - # 8
    frequency:    6.0650779194
  - # 9
    frequency:    7.5013907286
  - # 10
    frequency:    7.9780151127
  - # 11
    frequency:   10.0232256340
  - # 12
    frequency:   12.5950239482
  - # 13
    frequency:   13.1279976918
  - # 14
    frequency:   14.2304522945
  - # 15
    frequency:   14.3972894870
  - # 16
    frequency:   14.9632231560
  - # 17
    frequency:   17.6384292234
  - # 18
    frequency:   63.4449232460

- q-position: [    0.0858586,    0.0000000,    0.0000000 ]
  distance:    0.0299702
  band:
  - # 1
    frequency:   -2.1884485184
  - # 2
    frequency:   -2.0766060957
  - # 3
    frequency:    0.6372607624
  - # 4
    frequency:    1.3015066747
  - # 5
    frequency:    2.2463719392
  - # 6
    frequency:    3.6667773523
  - # 7
    frequency:    4.3653484053
  - # 8
    frequency:    6.0619389187
  - # 9
    frequency:    7.4992995512
  - # 10
    frequency:    8.0199785596
  - # 11
    frequency:   10.0134011053
  - # 12
    frequency:   12.5778337277
  - # 13
    frequency:   13.0963601541
  - # 14
    frequency:   14.2192317972
  - # 15
    frequency:   14.4917977935
  - # 16
    frequency:   14.9667781864
  - # 17
    frequency:   17.6599921965
  - # 18
    frequency:   63.4413064894

- q-position: [    0.0909091,    0.0000000,    0.0000000 ]
  distance:    0.0317331
  band:
  - # 1
    frequency:   -2.1876990235
  - # 2
    frequency:   -2.0659739570
  - # 3
    frequency:    0.7037510514
  - # 4
    frequency:    1.3754158968
  - # 5
    frequency:    2.3739085996
  - # 6
    frequency:    3.6845549344
  - # 7
    frequency:    4.4507052021
  - # 8
    frequency:    6.0592158666
  - # 9
    frequency:    7.4971541124
  - # 10
    frequency:    8.0617524483
  - # 11
    frequency:   10.0031259443
  - # 12
    frequency:   12.5598849275
  - # 13
    frequency:   13.0560831157
  - # 14
    frequency:   14.2074872252
  - # 15
    frequency:   14.5954886319
  - # 16
    frequency:   14.9695512734
  - # 17
    frequency:   17.6838302890
  - # 18
    frequency:   63.4375182210

- q-position: [    0.0959596,    0.0000000,    0.0000000 ]
  distance:    0.0334961
  band:
  - # 1
    frequency:   -2.1868517343
  - # 2
    frequency:   -2.0553672411
  - # 3
    frequency:    0.7720833134
  - # 4
    frequency:    1.4488846268
  - # 5
    frequency:    2.5004105284
  - # 6
    frequency:    3.7034893633
  - # 7
    frequency:    4.5382566695
  - # 8
    frequency:    6.0569776759
  - # 9
    frequency:    7.4949663418
  - # 10
    frequency:    8.1032011318
  - # 11
    frequency:    9.9924260924
  - # 12
    frequency:   12.5412280916
  - # 13
    frequency:   13.0089959816
  - # 14
    frequency:   14.1952423269
  - # 15
    frequency:   14.7041606932
  - # 16
    frequency:   14.9731945164
  - # 17
    frequency:   17.7101458500
  - # 18
    frequency:   63.4335662657

- q-position: [    0.1010101,    0.0000000,    0.0000000 ]
  distance:    0.0352590
  band:
  - # 1
    frequency:   -2.1859022579
  - # 2
    frequency:   -2.0448293263
  - # 3
    frequency:    0.8420506715
  - # 4
    frequency:    1.5218908105
  - # 5
    frequency:    2.6257611205
  - # 6
    frequency:    3.7235904373
  - # 7
    frequency:    4.6277587149
  - # 8
    frequency:    6.0553024661
  - # 9
    frequency:    7.4927486687
  - # 10
    frequency:    8.1442219880
  - # 11
    frequency:    9.9813300809
  - # 12
    frequency:   12.5219165409
  - # 13
    frequency:   12.9566182753
  - # 14
    frequency:   14.1825213062
  - # 15
    frequency:   14.8094763889
  - # 16
    frequency:   14.9837894598
  - # 17
    frequency:   17.7391593823
  - # 18
    frequency:   63.4294587338

- q-position: [    0.1060606,    0.0000000,    0.0000000 ]
  distance:    0.0370220
  band:
  - # 1
    frequency:   -2.1848466256
  - # 2
    frequency:   -2.0343917707
  - # 3
    frequency:    0.9134532793
  - # 4
    frequency:    1.5944126596
  - # 5
    frequency:    2.7498400328
  - # 6
    frequency:    3.7448652161
  - # 7
    frequency:    4.7189613076
  - # 8
    frequency:    6.0542815247
  - # 9
    frequency:    7.4905140097
  - # 10
    frequency:    8.1847421750
  - # 11
    frequency:    9.9698693955
  - # 12
    frequency:   12.5020062667
  - # 13
    frequency:   12.9001700844
  - # 14
    frequency:   14.1693487298
  - # 15
    frequency:   14.8855397267
  - # 16
    frequency:   15.0252661505
  - # 17
    frequency:   17.7711078894
  - # 18
    frequency:   63.4252039963

- q-position: [    0.1111111,    0.0000000,    0.0000000 ]
  distance:    0.0387849
  band:
  - # 1
    frequency:   -2.1836812816
  - # 2
    frequency:   -2.0240743085
  - # 3
    frequency:    0.9860996713
  - # 4
    frequency:    1.6664287286
  - # 5
    frequency:    2.8725240624
  - # 6
    frequency:    3.7673176631
  - # 7
    frequency:    4.8116009031
  - # 8
    frequency:    6.0540244187
  - # 9
    frequency:    7.4882757569
  - # 10
    frequency:    8.2247152222
  - # 11
    frequency:    9.9580788757
  - # 12
    frequency:   12.4815558022
  - # 13
    frequency:   12.8406240498
  - # 14
    frequency:   14.1557494409
  - # 15
    frequency:   14.9097180693
  - # 16
    frequency:   15.1185382168
  - # 17
    frequency:   17.8062413263
  - # 18
    frequency:   63.4208106601

- q-position: [    0.1161616,    0.0000000,    0.0000000 ]
  distance:    0.0405479
  band:
  - # 1
    frequency:   -2.1824030677
  - # 2
    frequency:   -2.0138853331
  - # 3
    frequency:    1.0598080357
  - # 4
    frequency:    1.7379180071
  - # 5
    frequency:    2.9936878680
  - # 6
    frequency:    3.7909483101
  - # 7
    frequency:    4.9053911313
  - # 8
    frequency:    6.0546658750
  - # 9
    frequency:    7.4860477668
  - # 10
    frequency:    8.2641176085
  - # 11
    frequency:    9.9459971550
  - # 12
    frequency:   12.4606260717
  - # 13
    frequency:   12.7787624171
  - # 14
    frequency:   14.1417484777
  - # 15
    frequency:   14.9102046157
  - # 16
    frequency:   15.2338941907
  - # 17
    frequency:   17.8448164790
  - # 18
    frequency:   63.4162875417

- q-position: [    0.1212121,    0.0000000,    0.0000000 ]
  distance:    0.0423108
  band:
  - # 1
    frequency:   -2.1810092043
  - # 2
    frequency:   -2.0038227948
  - # 3
    frequency:    1.1344073037
  - # 4
    frequency:    1.8088600219
  - # 5
    frequency:    3.1132044912
  - # 6
    frequency:    3.8157539483
  - # 7
    frequency:    5.0000109082
  - # 8
    frequency:    6.0563753895
  - # 9
    frequency:    7.4838443495
  - # 10
    frequency:    8.3029454298
  - # 11
    frequency:    9.9336671484
  - # 12
    frequency:   12.4392802170
  - # 13
    frequency:   12.7152258766
  - # 14
    frequency:   14.1273710000
  - # 15
    frequency:   14.9028651742
  - # 16
    frequency:   15.3541154015
  - # 17
    frequency:   17.8870876028
  - # 18
    frequency:   63.4116436419

- q-position: [    0.1262626,    0.0000000,    0.0000000 ]
  distance:    0.0440738
  band:
  - # 1
    frequency:   -2.1794972709
  - # 2
    frequency:   -1.9938754101
  - # 3
    frequency:    1.2097379789
  - # 4
    frequency:    1.8792349461
  - # 5
    frequency:    3.2309456411
  - # 6
    frequency:    3.8417273516
  - # 7
    frequency:    5.0950885809
  - # 8
    frequency:    6.0593710578
  - # 9
    frequency:    7.4816802552
  - # 10
    frequency:    8.3412112151
  - # 11
    frequency:    9.9211365969
  - # 12
    frequency:   12.4175834022
  - # 13
    frequency:   12.6505515394
  - # 14
    frequency:   14.1126422215
  - # 15
    frequency:   14.8915772595
  - # 16
    frequency:   15.4741155616
  - # 17
    frequency:   17.9332932986
  - # 18
    frequency:   63.4068881183

- q-position: [    0.1313131,    0.0000000,    0.0000000 ]
  distance:    0.0458367
  band:
  - # 1
    frequency:   -2.1778651836
  - # 2
    frequency:   -1.9840240746
  - # 3
    frequency:    1.2856526557
  - # 4
    frequency:    1.9490237097
  - # 5
    frequency:    3.3467817157
  - # 6
    frequency:    3.8688570385
  - # 7
    frequency:    5.1901798851
  - # 8
    frequency:    6.0639399318
  - # 9
    frequency:    7.4795706602
  - # 10
    frequency:    8.3789409113
  - # 11
    frequency:    9.9084586814
  - # 12
    frequency:   12.3956025975
  - # 13
    frequency:   12.5852012220
  - # 14
    frequency:   14.0975873482
  - # 15
    frequency:   14.8775457602
  - # 16
    frequency:   15.5916167704
  - # 17
    frequency:   17.9836394941
  - # 18
    frequency:   63.4020302592

- q-position: [    0.1363636,    0.0000000,    0.0000000 ]
  distance:    0.0475997
  band:
  - # 1
    frequency:   -2.1761111743
  - # 2
    frequency:   -1.9742433646
  - # 3
    frequency:    1.3620162141
  - # 4
    frequency:    2.0182081078
  - # 5
    frequency:    3.4605815463
  - # 6
    frequency:    3.8971270757
  - # 7
    frequency:    5.2847363335
  - # 8
    frequency:    6.0704683529
  - # 9
    frequency:    7.4775311482
  - # 10
    frequency:    8.4161710235
  - # 11
    frequency:    9.8956927196
  - # 12
    frequency:   12.3734063420
  - # 13
    frequency:   12.5195821246
  - # 14
    frequency:   14.0822315238
  - # 15
    frequency:   14.8612737614
  - # 16
    frequency:   15.7051807701
  - # 17
    frequency:   18.0382790571
  - # 18
    frequency:   63.3970794557

- q-position: [    0.1414141,    0.0000000,    0.0000000 ]
  distance:    0.0493626
  band:
  - # 1
    frequency:   -2.1742337686
  - # 2
    frequency:   -1.9645030311
  - # 3
    frequency:    1.4387057061
  - # 4
    frequency:    2.0867709009
  - # 5
    frequency:    3.5722118691
  - # 6
    frequency:    3.9265169303
  - # 7
    frequency:    5.3780593998
  - # 8
    frequency:    6.0794869419
  - # 9
    frequency:    7.4755776878
  - # 10
    frequency:    8.4529458660
  - # 11
    frequency:    9.8829049623
  - # 12
    frequency:   12.3510644883
  - # 13
    frequency:   12.4540618502
  - # 14
    frequency:   14.0665997811
  - # 15
    frequency:   14.8430270767
  - # 16
    frequency:   15.8137535605
  - # 17
    frequency:   18.0972894739
  - # 18
    frequency:   63.3920451752

- q-position: [    0.1464646,    0.0000000,    0.0000000 ]
  distance:    0.0511256
  band:
  - # 1
    frequency:   -2.1722317645
  - # 2
    frequency:   -1.9547694071
  - # 3
    frequency:    1.5156099738
  - # 4
    frequency:    2.1546959018
  - # 5
    frequency:    3.6815365500
  - # 6
    frequency:    3.9570013732
  - # 7
    frequency:    5.4692358843
  - # 8
    frequency:    6.0917348934
  - # 9
    frequency:    7.4737266036
  - # 10
    frequency:    8.4893148588
  - # 11
    frequency:    9.8701695084
  - # 12
    frequency:   12.3286479296
  - # 13
    frequency:   12.3889793101
  - # 14
    frequency:   14.0507169982
  - # 15
    frequency:   14.8229755563
  - # 16
    frequency:   15.9165363968
  - # 17
    frequency:   18.1606510080
  - # 18
    frequency:   63.3869369336

- q-position: [    0.1515152,    0.0000000,    0.0000000 ]
  distance:    0.0528885
  band:
  - # 1
    frequency:   -2.1701042125
  - # 2
    frequency:   -1.9450066750
  - # 3
    frequency:    1.5926290521
  - # 4
    frequency:    2.2219680467
  - # 5
    frequency:    3.7884156159
  - # 6
    frequency:    3.9885504382
  - # 7
    frequency:    5.5570560419
  - # 8
    frequency:    6.1082419965
  - # 9
    frequency:    7.4719945404
  - # 10
    frequency:    8.5253297794
  - # 11
    frequency:    9.8575693597
  - # 12
    frequency:   12.3062283113
  - # 13
    frequency:   12.3246526598
  - # 14
    frequency:   14.0346078612
  - # 15
    frequency:   14.8012451129
  - # 16
    frequency:   16.0129449773
  - # 17
    frequency:   18.2282284974
  - # 18
    frequency:   63.3817642683

- q-position: [    0.1565657,    0.0000000,    0.0000000 ]
  distance:    0.0546515
  band:
  - # 1
    frequency:   -2.1678503957
  - # 2
    frequency:   -1.9351779629
  - # 3
    frequency:    1.6696734145
  - # 4
    frequency:    2.2885734436
  - # 5
    frequency:    3.8927041779
  - # 6
    frequency:    4.0211294384
  - # 7
    frequency:    5.6399417001
  - # 8
    frequency:    6.1304011364
  - # 9
    frequency:    7.4703984195
  - # 10
    frequency:    8.5610418687
  - # 11
    frequency:    9.8451976352
  - # 12
    frequency:   12.2613850855
  - # 13
    frequency:   12.2838777295
  - # 14
    frequency:   14.0182968306
  - # 15
    frequency:   14.7779396867
  - # 16
    frequency:   16.1025935334
  - # 17
    frequency:   18.2997600870
  - # 18
    frequency:   63.3765367113

- q-position: [    0.1616162,    0.0000000,    0.0000000 ]
  distance:    0.0564144
  band:
  - # 1
    frequency:   -2.1654698119
  - # 2
    frequency:   -1.9252462596
  - # 3
    frequency:    1.7466631203
  - # 4
    frequency:    2.3544993966
  - # 5
    frequency:    3.9942513678
  - # 6
    frequency:    4.0546990427
  - # 7
    frequency:    5.7159782681
  - # 8
    frequency:    6.1599373310
  - # 9
    frequency:    7.4689553851
  - # 10
    frequency:    8.5964986742
  - # 11
    frequency:    9.8331589649
  - # 12
    frequency:   12.1994690217
  - # 13
    frequency:   12.2616684180
  - # 14
    frequency:   14.0018081127
  - # 15
    frequency:   14.7531514907
  - # 16
    frequency:   16.1852823753
  - # 17
    frequency:   18.3748554681
  - # 18
    frequency:   63.3712637622

- q-position: [    0.1666667,    0.0000000,    0.0000000 ]
  distance:    0.0581774
  band:
  - # 1
    frequency:   -2.1629621566
  - # 2
    frequency:   -1.9151751547
  - # 3
    frequency:    1.8235269134
  - # 4
    frequency:    2.4197344031
  - # 5
    frequency:    4.0892154108
  - # 6
    frequency:    4.0928994547
  - # 7
    frequency:    5.7832354669
  - # 8
    frequency:    6.1985883876
  - # 9
    frequency:    7.4676827405
  - # 10
    frequency:    8.6317405191
  - # 11
    frequency:    9.8215710762
  - # 12
    frequency:   12.1391892061
  - # 13
    frequency:   12.2396724270
  - # 14
    frequency:   13.9851656348
  - # 15
    frequency:   14.7269661513
  - # 16
    frequency:   16.2609808805
  - # 17
    frequency:   18.4530046538
  - # 18
    frequency:   63.3659548620

- q-position: [    0.1717172,    0.0000000,    0.0000000 ]
  distance:    0.0599403
  band:
  - # 1
    frequency:   -2.1603273074
  - # 2
    frequency:   -1.9049294207
  - # 3
    frequency:    1.9002013134
  - # 4
    frequency:    2.4842681218
  - # 5
    frequency:    4.1246303882
  - # 6
    frequency:    4.1884833512
  - # 7
    frequency:    5.8404859940
  - # 8
    frequency:    6.2473878457
  - # 9
    frequency:    7.4665978736
  - # 10
    frequency:    8.6667964898
  - # 11
    frequency:    9.8105665692
  - # 12
    frequency:   12.0808248564
  - # 13
    frequency:   12.2179612949
  - # 14
    frequency:   13.9683930238
  - # 15
    frequency:   14.6994654316
  - # 16
    frequency:   16.3298038962
  - # 17
    frequency:   18.5335963822
  - # 18
    frequency:   63.3606193667

- q-position: [    0.1767677,    0.0000000,    0.0000000 ]
  distance:    0.0617033
  band:
  - # 1
    frequency:   -2.1575653101
  - # 2
    frequency:   -1.8944754589
  - # 3
    frequency:    1.9766297339
  - # 4
    frequency:    2.5480913119
  - # 5
    frequency:    4.1608917557
  - # 6
    frequency:    4.2808307691
  - # 7
    frequency:    5.8879390352
  - # 8
    frequency:    6.3059331180
  - # 9
    frequency:    7.4657181703
  - # 10
    frequency:    8.7016798733
  - # 11
    frequency:    9.8002948527
  - # 12
    frequency:   12.0246511651
  - # 13
    frequency:   12.1966057170
  - # 14