nqpoint: 300    
npath: 3      
segment_nqpoint:
- 100
- 100
- 100
labels:
- [ 'G', 'M' ]
- [ 'M', 'K' ]
- [ 'K', 'G' ]
reciprocal_lattice:
- [   0.29413445,   0.16981860,   0.00000000 ] # a*
- [   0.00000000,   0.33963721,   0.00000000 ] # b*
- [   0.00000000,   0.00000000,   0.03521113 ] # c*
natom: 9      
lattice:
- [     3.399805778201585,     0.000000000000000,     0.000000000000000 ] # a
- [    -1.699902889100792,     2.944318171852173,     0.000000000000000 ] # b
- [     0.000000000000000,     0.000000000000000,    28.400107966988696 ] # c
points:
- symbol: C # 1
  coordinates: [  0.333332985432215,  0.666666983183674,  0.640654275950729 ]
  mass: 12.010700
- symbol: C # 2
  coordinates: [  0.666666984744047,  0.333332985985145,  0.371580885346000 ]
  mass: 12.010700
- symbol: N # 3
  coordinates: [  0.000000000000000,  0.000000000000000,  0.505753047380958 ]
  mass: 14.006700
- symbol: N # 4
  coordinates: [  0.333332985432215,  0.666666983183674,  0.596742488924215 ]
  mass: 14.006700
- symbol: N # 5
  coordinates: [  0.666666984744047,  0.333332985985145,  0.415746446485055 ]
  mass: 14.006700
- symbol: O # 6
  coordinates: [  0.333332985432215,  0.666666983183674,  0.683099796294391 ]
  mass: 15.999400
- symbol: S # 7
  coordinates: [  0.666666984744047,  0.333332985985145,  0.316900203705609 ]
  mass: 32.065000
- symbol: Zr # 8
  coordinates: [  0.333332985432215,  0.666666983183674,  0.464445763342918 ]
  mass: 91.224000
- symbol: Zr # 9
  coordinates: [  0.666666984744047,  0.333332985985145,  0.546082732274085 ]
  mass: 91.224000

phonon:
- q-position: [    0.0000000,    0.0000000,    0.0000000 ]
  distance:    0.0000000
  band:
  - # 1
    frequency:   -0.7386020990
  - # 2
    frequency:   -0.7386020990
  - # 3
    frequency:   -0.0000106818
  - # 4
    frequency:    0.0000005095
  - # 5
    frequency:    0.0000079390
  - # 6
    frequency:    0.9882953753
  - # 7
    frequency:    0.9882953754
  - # 8
    frequency:    3.5800115974
  - # 9
    frequency:    3.5800115975
  - # 10
    frequency:    5.2412014227
  - # 11
    frequency:    6.3637110899
  - # 12
    frequency:    6.3637110899
  - # 13
    frequency:    6.9260946559
  - # 14
    frequency:    6.9260946559
  - # 15
    frequency:    7.3864743364
  - # 16
    frequency:    8.9460160528
  - # 17
    frequency:   13.6817885144
  - # 18
    frequency:   13.6817885144
  - # 19
    frequency:   13.9657657702
  - # 20
    frequency:   15.7081422949
  - # 21
    frequency:   15.7081422949
  - # 22
    frequency:   16.9879999771
  - # 23
    frequency:   16.9879999771
  - # 24
    frequency:   26.9395761922
  - # 25
    frequency:   38.2941011593
  - # 26
    frequency:   56.2547570402
  - # 27
    frequency:   68.9294652357

- q-position: [    0.0050505,    0.0000000,    0.0000000 ]
  distance:    0.0017153
  band:
  - # 1
    frequency:   -0.7418968030
  - # 2
    frequency:   -0.7401729444
  - # 3
    frequency:    0.0017044339
  - # 4
    frequency:    0.0931089646
  - # 5
    frequency:    0.1106995383
  - # 6
    frequency:    0.9896731133
  - # 7
    frequency:    0.9922898561
  - # 8
    frequency:    3.5791327770
  - # 9
    frequency:    3.5798601200
  - # 10
    frequency:    5.2407841705
  - # 11
    frequency:    6.3633914939
  - # 12
    frequency:    6.3643071351
  - # 13
    frequency:    6.9262642449
  - # 14
    frequency:    6.9269594603
  - # 15
    frequency:    7.3860981874
  - # 16
    frequency:    8.9452861372
  - # 17
    frequency:   13.6818378230
  - # 18
    frequency:   13.6820724318
  - # 19
    frequency:   13.9653138986
  - # 20
    frequency:   15.7081275121
  - # 21
    frequency:   15.7084506105
  - # 22
    frequency:   16.9879824207
  - # 23
    frequency:   16.9883318346
  - # 24
    frequency:   26.9393910667
  - # 25
    frequency:   38.2940815560
  - # 26
    frequency:   56.2543213087
  - # 27
    frequency:   68.9282624506

- q-position: [    0.0101010,    0.0000000,    0.0000000 ]
  distance:    0.0034307
  band:
  - # 1
    frequency:   -0.7510501946
  - # 2
    frequency:   -0.7441977718
  - # 3
    frequency:    0.0067699380
  - # 4
    frequency:    0.1835376252
  - # 5
    frequency:    0.2190849654
  - # 6
    frequency:    0.9937975928
  - # 7
    frequency:    1.0041672073
  - # 8
    frequency:    3.5764970455
  - # 9
    frequency:    3.5794141691
  - # 10
    frequency:    5.2395408874
  - # 11
    frequency:    6.3624371551
  - # 12
    frequency:    6.3660909416
  - # 13
    frequency:    6.9267698784
  - # 14
    frequency:    6.9295420978
  - # 15
    frequency:    7.3849725342
  - # 16
    frequency:    8.9430977556
  - # 17
    frequency:   13.6819857587
  - # 18
    frequency:   13.6829234649
  - # 19
    frequency:   13.9639596715
  - # 20
    frequency:   15.7080824813
  - # 21
    frequency:   15.7093725144
  - # 22
    frequency:   16.9879301287
  - # 23
    frequency:   16.9893268707
  - # 24
    frequency:   26.9388362053
  - # 25
    frequency:   38.2940228003
  - # 26
    frequency:   56.2530146811
  - # 27
    frequency:   68.9246566568

- q-position: [    0.0151515,    0.0000000,    0.0000000 ]
  distance:    0.0051460
  band:
  - # 1
    frequency:   -0.7643223233
  - # 2
    frequency:   -0.7490583904
  - # 3
    frequency:    0.0150887328
  - # 4
    frequency:    0.2695179315
  - # 5
    frequency:    0.3237123598
  - # 6
    frequency:    1.0006429019
  - # 7
    frequency:    1.0236230329
  - # 8
    frequency:    3.5721066428
  - # 9
    frequency:    3.5786990633
  - # 10
    frequency:    5.2374966668
  - # 11
    frequency:    6.3608612782
  - # 12
    frequency:    6.3690497174
  - # 13
    frequency:    6.9276022773
  - # 14
    frequency:    6.9338072734
  - # 15
    frequency:    7.3831059117
  - # 16
    frequency:    8.9394550025
  - # 17
    frequency:   13.6822323488
  - # 18
    frequency:   13.6843394130
  - # 19
    frequency:   13.9617072847
  - # 20
    frequency:   15.7080051605
  - # 21
    frequency:   15.7108989073
  - # 22
    frequency:   16.9878442298
  - # 23
    frequency:   16.9909834771
  - # 24
    frequency:   26.9379131513
  - # 25
    frequency:   38.2939250551
  - # 26
    frequency:   56.2508388575
  - # 27
    frequency:   68.9186555305

- q-position: [    0.0202020,    0.0000000,    0.0000000 ]
  distance:    0.0068614
  band:
  - # 1
    frequency:   -0.7798068039
  - # 2
    frequency:   -0.7530153698
  - # 3
    frequency:    0.0265039288
  - # 4
    frequency:    0.3503808627
  - # 5
    frequency:    0.4241559020
  - # 6
    frequency:    1.0101667659
  - # 7
    frequency:    1.0501919175
  - # 8
    frequency:    3.5659654672
  - # 9
    frequency:    3.5777565788
  - # 10
    frequency:    5.2346922676
  - # 11
    frequency:    6.3586854049
  - # 12
    frequency:    6.3731627681
  - # 13
    frequency:    6.9287463729
  - # 14
    frequency:    6.9396962504
  - # 15
    frequency:    7.3805130705
  - # 16
    frequency:    8.9343646999
  - # 17
    frequency:   13.6825776289
  - # 18
    frequency:   13.6863164621
  - # 19
    frequency:   13.9585638440
  - # 20
    frequency:   15.7078921592
  - # 21
    frequency:   15.7130147242
  - # 22
    frequency:   16.9877265947
  - # 23
    frequency:   16.9932989755
  - # 24
    frequency:   26.9366244711
  - # 25
    frequency:   38.2937885908
  - # 26
    frequency:   56.2477966680
  - # 27
    frequency:   68.9102718414

- q-position: [    0.0252525,    0.0000000,    0.0000000 ]
  distance:    0.0085767
  band:
  - # 1
    frequency:   -0.7959560336
  - # 2
    frequency:   -0.7546810063
  - # 3
    frequency:    0.0408430591
  - # 4
    frequency:    0.4261993301
  - # 5
    frequency:    0.5206414123
  - # 6
    frequency:    1.0223117160
  - # 7
    frequency:    1.0832974266
  - # 8
    frequency:    3.5580793249
  - # 9
    frequency:    3.5766443181
  - # 10
    frequency:    5.2311826162
  - # 11
    frequency:    6.3559387500
  - # 12
    frequency:    6.3784023535
  - # 13
    frequency:    6.9301818684
  - # 14
    frequency:    6.9471269149
  - # 15
    frequency:    7.3772158173
  - # 16
    frequency:    8.9278363928
  - # 17
    frequency:   13.6830216296
  - # 18
    frequency:   13.6888489483
  - # 19
    frequency:   13.9545395509
  - # 20
    frequency:   15.7077387588
  - # 21
    frequency:   15.7156990819
  - # 22
    frequency:   16.9875798210
  - # 23
    frequency:   16.9962696206
  - # 24
    frequency:   26.9349737446
  - # 25
    frequency:   38.2936137845
  - # 26
    frequency:   56.2438920682
  - # 27
    frequency:   68.8995234160

- q-position: [    0.0303030,    0.0000000,    0.0000000 ]
  distance:    0.0102920
  band:
  - # 1
    frequency:   -0.8116926168
  - # 2
    frequency:   -0.7530900959
  - # 3
    frequency:    0.0579473011
  - # 4
    frequency:    0.4973811343
  - # 5
    frequency:    0.6136591225
  - # 6
    frequency:    1.0370063503
  - # 7
    frequency:    1.1223029535
  - # 8
    frequency:    3.5484562801
  - # 9
    frequency:    3.5754348274
  - # 10
    frequency:    5.2270348872
  - # 11
    frequency:    6.3526573373
  - # 12
    frequency:    6.3847347382
  - # 13
    frequency:    6.9318839618
  - # 14
    frequency:    6.9559937246
  - # 15
    frequency:    7.3732443017
  - # 16
    frequency:    8.9198823442
  - # 17
    frequency:   13.6835643573
  - # 18
    frequency:   13.6919289898
  - # 19
    frequency:   13.9496480022
  - # 20
    frequency:   15.7075389395
  - # 21
    frequency:   15.7189254839
  - # 22
    frequency:   16.9874072113
  - # 23
    frequency:   16.9998906040
  - # 24
    frequency:   26.9329655532
  - # 25
    frequency:   38.2934011189
  - # 26
    frequency:   56.2391301326
  - # 27
    frequency:   68.8864330859

- q-position: [    0.0353535,    0.0000000,    0.0000000 ]
  distance:    0.0120074
  band:
  - # 1
    frequency:   -0.8263253850
  - # 2
    frequency:   -0.7475967600
  - # 3
    frequency:    0.0776937551
  - # 4
    frequency:    0.5644178427
  - # 5
    frequency:    0.7037393533
  - # 6
    frequency:    1.0541663586
  - # 7
    frequency:    1.1665547800
  - # 8
    frequency:    3.5371071080
  - # 9
    frequency:    3.5742144663
  - # 10
    frequency:    5.2223263103
  - # 11
    frequency:    6.3488829910
  - # 12
    frequency:    6.3921213187
  - # 13
    frequency:    6.9338241799
  - # 14
    frequency:    6.9661673811
  - # 15
    frequency:    7.3686388752
  - # 16
    frequency:    8.9105175275
  - # 17
    frequency:   13.6842057711
  - # 18
    frequency:   13.6955459371
  - # 19
    frequency:   13.9439066539
  - # 20
    frequency:   15.7072854136
  - # 21
    frequency:   15.7226620776
  - # 22
    frequency:   16.9872127468
  - # 23
    frequency:   17.0041560583
  - # 24
    frequency:   26.9306054627
  - # 25
    frequency:   38.2931511799
  - # 26
    frequency:   56.2335170457
  - # 27
    frequency:   68.8710286235

- q-position: [    0.0404040,    0.0000000,    0.0000000 ]
  distance:    0.0137227
  band:
  - # 1
    frequency:   -0.8394315904
  - # 2
    frequency:   -0.7377505125
  - # 3
    frequency:    0.1000096310
  - # 4
    frequency:    0.6277722203
  - # 5
    frequency:    0.7913599815
  - # 6
    frequency:    1.0736949680
  - # 7
    frequency:    1.2154135149
  - # 8
    frequency:    3.5240458528
  - # 9
    frequency:    3.5730820355
  - # 10
    frequency:    5.2171418540
  - # 11
    frequency:    6.3446622408
  - # 12
    frequency:    6.4005197143
  - # 13
    frequency:    6.9359712679
  - # 14
    frequency:    6.9774940004
  - # 15
    frequency:    7.3634527073
  - # 16
    frequency:    8.8997596168
  - # 17
    frequency:   13.6849457550
  - # 18
    frequency:   13.6996855603
  - # 19
    frequency:   13.9373375329
  - # 20
    frequency:   15.7069696652
  - # 21
    frequency:   15.7268719612
  - # 22
    frequency:   16.9870010542
  - # 23
    frequency:   17.0090590609
  - # 24
    frequency:   26.9279000044
  - # 25
    frequency:   38.2928646548
  - # 26
    frequency:   56.2270600922
  - # 27
    frequency:   68.8533426615

- q-position: [    0.0454545,    0.0000000,    0.0000000 ]
  distance:    0.0154381
  band:
  - # 1
    frequency:   -0.8507622814
  - # 2
    frequency:   -0.7231992234
  - # 3
    frequency:    0.1248801809
  - # 4
    frequency:    0.6878426676
  - # 5
    frequency:    0.8769218557
  - # 6
    frequency:    1.0954825120
  - # 7
    frequency:    1.2682739913
  - # 8
    frequency:    3.5092904944
  - # 9
    frequency:    3.5721471726
  - # 10
    frequency:    5.2115719272
  - # 11
    frequency:    6.3400451956
  - # 12
    frequency:    6.4098847232
  - # 13
    frequency:    6.9382920831
  - # 14
    frequency:    6.9897934704
  - # 15
    frequency:    7.3577554185
  - # 16
    frequency:    8.8876289755
  - # 17
    frequency:   13.6857840878
  - # 18
    frequency:   13.7043288297
  - # 19
    frequency:   13.9299683424
  - # 20
    frequency:   15.7065819941
  - # 21
    frequency:   15.7315135351
  - # 22
    frequency:   16.9867773688
  - # 23
    frequency:   17.0145916369
  - # 24
    frequency:   26.9248566514
  - # 25
    frequency:   38.2925423297
  - # 26
    frequency:   56.2197676439
  - # 27
    frequency:   68.8334125999

- q-position: [    0.0505051,    0.0000000,    0.0000000 ]
  distance:    0.0171534
  band:
  - # 1
    frequency:   -0.8601777993
  - # 2
    frequency:   -0.7036206894
  - # 3
    frequency:    0.1523535063
  - # 4
    frequency:    0.7449621955
  - # 5
    frequency:    0.9607516888
  - # 6
    frequency:    1.1194049608
  - # 7
    frequency:    1.3245758339
  - # 8
    frequency:    3.4928637275
  - # 9
    frequency:    3.5715285321
  - # 10
    frequency:    5.2057102131
  - # 11
    frequency:    6.3350844369
  - # 12
    frequency:    6.4201690760
  - # 13
    frequency:    6.9407524508
  - # 14
    frequency:    7.0028565954
  - # 15
    frequency:    7.3516380789
  - # 16
    frequency:    8.8741486420
  - # 17
    frequency:   13.6867204105
  - # 18
    frequency:   13.7094500418
  - # 19
    frequency:   13.9218342111
  - # 20
    frequency:   15.7061115636
  - # 21
    frequency:   15.7365408931
  - # 22
    frequency:   16.9865474918
  - # 23
    frequency:   17.0207447612
  - # 24
    frequency:   26.9214837926
  - # 25
    frequency:   38.2921850862
  - # 26
    frequency:   56.2116491467
  - # 27
    frequency:   68.8112804984

- q-position: [    0.0555556,    0.0000000,    0.0000000 ]
  distance:    0.0188687
  band:
  - # 1
    frequency:   -0.8676064988
  - # 2
    frequency:   -0.6786733928
  - # 3
    frequency:    0.1825453414
  - # 4
    frequency:    0.7994103801
  - # 5
    frequency:    1.0431133143
  - # 6
    frequency:    1.1453215008
  - # 7
    frequency:    1.3838074904
  - # 8
    frequency:    3.4747938597
  - # 9
    frequency:    3.5713517705
  - # 10
    frequency:    5.1996517192
  - # 11
    frequency:    6.3298339692
  - # 12
    frequency:    6.4313239434
  - # 13
    frequency:    6.9433179470
  - # 14
    frequency:    7.0164405478
  - # 15
    frequency:    7.3452199975
  - # 16
    frequency:    8.8593443130
  - # 17
    frequency:   13.6877541914
  - # 18
    frequency:   13.7150138469
  - # 19
    frequency:   13.9129805339
  - # 20
    frequency:   15.7055464514
  - # 21
    frequency:   15.7419042467
  - # 22
    frequency:   16.9863177442
  - # 23
    frequency:   17.0275083580
  - # 24
    frequency:   26.9177907020
  - # 25
    frequency:   38.2917938984
  - # 26
    frequency:   56.2027151036
  - # 27
    frequency:   68.7869929561

- q-position: [    0.0606061,    0.0000000,    0.0000000 ]
  distance:    0.0205841
  band:
  - # 1
    frequency:   -0.8730189302
  - # 2
    frequency:   -0.6479568268
  - # 3
    frequency:    0.2156460479
  - # 4
    frequency:    0.8514285694
  - # 5
    frequency:    1.1242196443
  - # 6
    frequency:    1.1730715807
  - # 7
    frequency:    1.4455062114
  - # 8
    frequency:    3.4551158349
  - # 9
    frequency:    3.5717473670
  - # 10
    frequency:    5.1934910969
  - # 11
    frequency:    6.3243482566
  - # 12
    frequency:    6.4432991822
  - # 13
    frequency:    6.9459545861
  - # 14
    frequency:    7.0302621600
  - # 15
    frequency:    7.3386577225
  - # 16
    frequency:    8.8432443244
  - # 17
    frequency:   13.6888846924
  - # 18
    frequency:   13.7209703569
  - # 19
    frequency:   13.9034677263
  - # 20
    frequency:   15.7048737011
  - # 21
    frequency:   15.7475503781
  - # 22
    frequency:   16.9860949165
  - # 23
    frequency:   17.0348712992
  - # 24
    frequency:   26.9137875068
  - # 25
    frequency:   38.2913698294
  - # 26
    frequency:   56.1929770576
  - # 27
    frequency:   68.7606009776

- q-position: [    0.0656566,    0.0000000,    0.0000000 ]
  distance:    0.0222994
  band:
  - # 1
    frequency:   -0.8764117677
  - # 2
    frequency:   -0.6109724234
  - # 3
    frequency:    0.2519302601
  - # 4
    frequency:    0.9012340049
  - # 5
    frequency:    1.2024721998
  - # 6
    frequency:    1.2042428032
  - # 7
    frequency:    1.5092558157
  - # 8
    frequency:    3.4338723926
  - # 9
    frequency:    3.5728483139
  - # 10
    frequency:    5.1873212497
  - # 11
    frequency:    6.3186813646
  - # 12
    frequency:    6.4560433225
  - # 13
    frequency:    6.9486294024
  - # 14
    frequency:    7.0439888721
  - # 15
    frequency:    7.3321564000
  - # 16
    frequency:    8.8258796292
  - # 17
    frequency:   13.6901109338
  - # 18
    frequency:   13.7272467690
  - # 19
    frequency:   13.8933794631
  - # 20
    frequency:   15.7040793754
  - # 21
    frequency:   15.7534231142
  - # 22
    frequency:   16.9858862158
  - # 23
    frequency:   17.0428213995
  - # 24
    frequency:   26.9094851506
  - # 25
    frequency:   38.2909140272
  - # 26
    frequency:   56.1824475718
  - # 27
    frequency:   68.7321598263

- q-position: [    0.0707071,    0.0000000,    0.0000000 ]
  distance:    0.0240148
  band:
  - # 1
    frequency:   -0.8777977686
  - # 2
    frequency:   -0.5670724424
  - # 3
    frequency:    0.2917657138
  - # 4
    frequency:    0.9490307586
  - # 5
    frequency:    1.2333164239
  - # 6
    frequency:    1.2833219869
  - # 7
    frequency:    1.5746834228
  - # 8
    frequency:    3.4111153726
  - # 9
    frequency:    3.5747877209
  - # 10
    frequency:    5.1812322277
  - # 11
    frequency:    6.3128862161
  - # 12
    frequency:    6.4695033073
  - # 13
    frequency:    6.9513109200
  - # 14
    frequency:    7.0572281272
  - # 15
    frequency:    7.3259826747
  - # 16
    frequency:    8.8072837727
  - # 17
    frequency:   13.6914316626
  - # 18
    frequency:   13.7337324276
  - # 19
    frequency:   13.8828374787
  - # 20
    frequency:   15.7031486076
  - # 21
    frequency:   15.7594638149
  - # 22
    frequency:   16.9856992102
  - # 23
    frequency:   17.0513454102
  - # 24
    frequency:   26.9048953550
  - # 25
    frequency:   38.2904277205
  - # 26
    frequency:   56.1711402086
  - # 27
    frequency:   68.7017288659

- q-position: [    0.0757576,    0.0000000,    0.0000000 ]
  distance:    0.0257301
  band:
  - # 1
    frequency:   -0.8771994547
  - # 2
    frequency:   -0.5153662930
  - # 3
    frequency:    0.3356091304
  - # 4
    frequency:    0.9950164600
  - # 5
    frequency:    1.2653740186
  - # 6
    frequency:    1.3615693428
  - # 7
    frequency:    1.6414558256
  - # 8
    frequency:    3.3869071794
  - # 9
    frequency:    3.5776963823
  - # 10
    frequency:    5.1753103874
  - # 11
    frequency:    6.3070139636
  - # 12
    frequency:    6.4836239942
  - # 13
    frequency:    6.9539695162
  - # 14
    frequency:    7.0695184334
  - # 15
    frequency:    7.3204759120
  - # 16
    frequency:    8.7874928656
  - # 17
    frequency:   13.6928453215
  - # 18
    frequency:   13.7402511907
  - # 19
    frequency:   13.8720290680
  - # 20
    frequency:   15.7020656519
  - # 21
    frequency:   15.7656118708
  - # 22
    frequency:   16.9855417705
  - # 23
    frequency:   17.0604290105
  - # 24
    frequency:   26.9000305775
  - # 25
    frequency:   38.2899122144
  - # 26
    frequency:   56.1590695059
  - # 27
    frequency:   68.6693713895

- q-position: [    0.0808081,    0.0000000,    0.0000000 ]
  distance:    0.0274454
  band:
  - # 1
    frequency:   -0.8746451011
  - # 2
    frequency:   -0.4544883740
  - # 3
    frequency:    0.3839609815
  - # 4
    frequency:    1.0393846087
  - # 5
    frequency:    1.2983946050
  - # 6
    frequency:    1.4390743601
  - # 7
    frequency:    1.7092758378
  - # 8
    frequency:    3.3613224205
  - # 9
    frequency:    3.5817003595
  - # 10
    frequency:    5.1696377809
  - # 11
    frequency:    6.3011134763
  - # 12
    frequency:    6.4983474227
  - # 13
    frequency:    6.9565776865
  - # 14
    frequency:    7.0803300387
  - # 15
    frequency:    7.3160498081
  - # 16
    frequency:    8.7665455541
  - # 17
    frequency:   13.6943500223
  - # 18
    frequency:   13.7465092354
  - # 19
    frequency:   13.8612591550
  - # 20
    frequency:   15.7008139316
  - # 21
    frequency:   15.7718052023
  - # 22
    frequency:   16.9854220119
  - # 23
    frequency:   17.0700567977
  - # 24
    frequency:   26.8949039676
  - # 25
    frequency:   38.2893688854
  - # 26
    frequency:   56.1462509532
  - # 27
    frequency:   68.6351544378

- q-position: [    0.0858586,    0.0000000,    0.0000000 ]
  distance:    0.0291608
  band:
  - # 1
    frequency:   -0.8701661655
  - # 2
    frequency:   -0.3818915329
  - # 3
    frequency:    0.4372345918
  - # 4
    frequency:    1.0823231011
  - # 5
    frequency:    1.3321129981
  - # 6
    frequency:    1.5159072234
  - # 7
    frequency:    1.7778787618
  - # 8
    frequency:    3.3344497331
  - # 9
    frequency:    3.5869186363
  - # 10
    frequency:    5.1642917357
  - # 11
    frequency:    6.2952309340
  - # 12
    frequency:    6.5136118275
  - # 13
    frequency:    6.9591102205
  - # 14
    frequency:    7.0890895846
  - # 15
    frequency:    7.3131700674
  - # 16
    frequency:    8.7444829887
  - # 17
    frequency:   13.6959435234
  - # 18
    frequency:   13.7519992913
  - # 19
    frequency:   13.8510459437
  - # 20
    frequency:   15.6993760836
  - # 21
    frequency:   15.7779807543
  - # 22
    frequency:   16.9853482341
  - # 23
    frequency:   17.0802122772
  - # 24
    frequency:   26.8895293201
  - # 25
    frequency:   38.2887991769
  - # 26
    frequency:   56.1327009647
  - # 27
    frequency:   68.5991486059

- q-position: [    0.0909091,    0.0000000,    0.0000000 ]
  distance:    0.0308761
  band:
  - # 1
    frequency:   -0.8637956211
  - # 2
    frequency:   -0.2912445668
  - # 3
    frequency:    0.4955178385
  - # 4
    frequency:    1.1240102763
  - # 5
    frequency:    1.3662557028
  - # 6
    frequency:    1.5921214784
  - # 7
    frequency:    1.8470290337
  - # 8
    frequency:    3.3063938131
  - # 9
    frequency:    3.5934609010
  - # 10
    frequency:    5.1593445826
  - # 11
    frequency:    6.2894095211
  - # 12
    frequency:    6.5293503560
  - # 13
    frequency:    6.9615443043
  - # 14
    frequency:    7.0952451752
  - # 15
    frequency:    7.3122917791
  - # 16
    frequency:    8.7213487912
  - # 17
    frequency:   13.6976232119
  - # 18
    frequency:   13.7558553992
  - # 19
    frequency:   13.8422660549
  - # 20
    frequency:   15.6977339998
  - # 21
    frequency:   15.7840749811
  - # 22
    frequency:   16.9853288618
  - # 23
    frequency:   17.0908778532
  - # 24
    frequency:   26.8839210258
  - # 25
    frequency:   38.2882045940
  - # 26
    frequency:   56.1184368513
  - # 27
    frequency:   68.5614278402

- q-position: [    0.0959596,    0.0000000,    0.0000000 ]
  distance:    0.0325914
  band:
  - # 1
    frequency:   -0.8555668586
  - # 2
    frequency:   -0.1562720200
  - # 3
    frequency:    0.5583261519
  - # 4
    frequency:    1.1646100642
  - # 5
    frequency:    1.4005472311
  - # 6
    frequency:    1.6677562392
  - # 7
    frequency:    1.9165170783
  - # 8
    frequency:    3.2772776547
  - # 9
    frequency:    3.6014255100
  - # 10
    frequency:    5.1548634901
  - # 11
    frequency:    6.2836892107
  - # 12
    frequency:    6.5454894085
  - # 13
    frequency:    6.9638595586
  - # 14
    frequency:    7.0983727945
  - # 15
    frequency:    7.3137556679
  - # 16
    frequency:    8.6971890202
  - # 17
    frequency:   13.6993860914
  - # 18
    frequency:   13.7567835441
  - # 19
    frequency:   13.8362238023
  - # 20
    frequency:   15.6958688643
  - # 21
    frequency:   15.7900243159
  - # 22
    frequency:   16.9853723854
  - # 23
    frequency:   17.1020348215
  - # 24
    frequency:   26.8780940213
  - # 25
    frequency:   38.2875866979
  - # 26
    frequency:   56.1034767915
  - # 27
    frequency:   68.5220692254

- q-position: [    0.1010101,    0.0000000,    0.0000000 ]
  distance:    0.0343068
  band:
  - # 1
    frequency:   -0.8455129400
  - # 2
    frequency:    0.1879239772
  - # 3
    frequency:    0.6245815553
  - # 4
    frequency:    1.2042676061
  - # 5
    frequency:    1.4347150811
  - # 6
    frequency:    1.7428380739
  - # 7
    frequency:    1.9861563980
  - # 8
    frequency:    3.2472449984
  - # 9
    frequency:    3.6108976800
  - # 10
    frequency:    5.1509103702
  - # 11
    frequency:    6.2781066281
  - # 12
    frequency:    6.5619464753
  - # 13
    frequency:    6.9660380273
  - # 14
    frequency:    7.0982869223
  - # 15
    frequency:    7.3176805198
  - # 16
    frequency:    8.6720521369
  - # 17
    frequency:   13.7012287765
  - # 18
    frequency:   13.7535009353
  - # 19
    frequency:   13.8342118370
  - # 20
    frequency:   15.6937611870
  - # 21
    frequency:   15.7957656195
  - # 22
    frequency:   16.9854873037
  - # 23
    frequency:   17.1136633662
  - # 24
    frequency:   26.8720637358
  - # 25
    frequency:   38.2869471009
  - # 26
    frequency:   56.0878397996
  - # 27
    frequency:   68.4811527625

- q-position: [    0.1060606,    0.0000000,    0.0000000 ]
  distance:    0.0360221
  band:
  - # 1
    frequency:   -0.8336660652
  - # 2
    frequency:    0.3085765296
  - # 3
    frequency:    0.6929220504
  - # 4
    frequency:    1.2431061675
  - # 5
    frequency:    1.4684927469
  - # 6
    frequency:    1.8173826318
  - # 7
    frequency:    2.0557809269
  - # 8
    frequency:    3.2164629647
  - # 9
    frequency:    3.6219479486
  - # 10
    frequency:    5.1475418212
  - # 11
    frequency:    6.2726949860
  - # 12
    frequency:    6.5786272798
  - # 13
    frequency:    6.9680641255
  - # 14
    frequency:    7.0950906972
  - # 15
    frequency:    7.3239166464
  - # 16
    frequency:    8.6459889705
  - # 17
    frequency:   13.7031474928
  - # 18
    frequency:   13.7457185162
  - # 19
    frequency:   13.8365285768
  - # 20
    frequency:   15.6913908329
  - # 21
    frequency:   15.8012366053
  - # 22
    frequency:   16.9856820672
  - # 23
    frequency:   17.1257425617
  - # 24
    frequency:   26.8658460370
  - # 25
    frequency:   38.2862874604
  - # 26
    frequency:   56.0715456939
  - # 27
    frequency:   68.4387611383

- q-position: [    0.1111111,    0.0000000,    0.0000000 ]
  distance:    0.0377375
  band:
  - # 1
    frequency:   -0.8200571510
  - # 2
    frequency:    0.3957894957
  - # 3
    frequency:    0.7621060987
  - # 4
    frequency:    1.2812255433
  - # 5
    frequency:    1.5016207502
  - # 6
    frequency:    1.8913960400
  - # 7
    frequency:    2.1252426773
  - # 8
    frequency:    3.1851248185
  - # 9
    frequency:    3.6346309323
  - # 10
    frequency:    5.1448090815
  - # 11
    frequency:    6.2674840802
  - # 12
    frequency:    6.5954219598
  - # 13
    frequency:    6.9699245583
  - # 14
    frequency:    7.0891327881
  - # 15
    frequency:    7.3320935128
  - # 16
    frequency:    8.6190526848
  - # 17
    frequency:   13.7051380850
  - # 18
    frequency:   13.7342909752
  - # 19
    frequency:   13.8423281507
  - # 20
    frequency:   15.6887370486
  - # 21
    frequency:   15.8063762350
  - # 22
    frequency:   16.9859650247
  - # 23
    frequency:   17.1382503832
  - # 24
    frequency:   26.8594571759
  - # 25
    frequency:   38.2856094736
  - # 26
    frequency:   56.0546150623
  - # 27
    frequency:   68.3949794872

- q-position: [    0.1161616,    0.0000000,    0.0000000 ]
  distance:    0.0394528
  band:
  - # 1
    frequency:   -0.8047154483
  - # 2
    frequency:    0.4701864247
  - # 3
    frequency:    0.8312312974
  - # 4
    frequency:    1.3187016645
  - # 5
    frequency:    1.5338461957
  - # 6
    frequency:    1.9648760714
  - # 7
    frequency:    2.1944097053
  - # 8
    frequency:    3.1534527547
  - # 9
    frequency:    3.6489844006
  - # 10
    frequency:    5.1427579734
  - # 11
    frequency:    6.2625003371
  - # 12
    frequency:    6.6121999248
  - # 13
    frequency:    6.9716082173
  - # 14
    frequency:    7.0809071777
  - # 15
    frequency:    7.3417257014
  - # 16
    frequency:    8.5912987460
  - # 17
    frequency:   13.7071960304
  - # 18
    frequency:   13.7203235319
  - # 19
    frequency:   13.8505135838
  - # 20
    frequency:   15.6857784854
  - # 21
    frequency:   15.8111250846
  - # 22
    frequency:   16.9863443721
  - # 23
    frequency:   17.1511637245
  - # 24
    frequency:   26.8529137297
  - # 25
    frequency:   38.2849148716
  - # 26
    frequency:   56.0370692272
  - # 27
    frequency:   68.3498951463

- q-position: [    0.1212121,    0.0000000,    0.0000000 ]
  distance:    0.0411681
  band:
  - # 1
    frequency:   -0.7876681312
  - # 2
    frequency:    0.5383689672
  - # 3
    frequency:    0.8997396856
  - # 4
    frequency:    1.3555868222
  - # 5
    frequency:    1.5649217077
  - # 6
    frequency:    2.0378130796
  - # 7
    frequency:    2.2631644118
  - # 8
    frequency:    3.1217005139
  - # 9
    frequency:    3.6650286713
  - # 10
    frequency:    5.1414288203