nqpoint: 300    
npath: 3      
segment_nqpoint:
- 100
- 100
- 100
labels:
- [ 'G', 'M' ]
- [ 'M', 'K' ]
- [ 'K', 'G' ]
reciprocal_lattice:
- [   0.27178119,   0.15691294,   0.00000000 ] # a*
- [   0.00000000,   0.31382589,   0.00000000 ] # b*
- [   0.00000000,   0.00000000,   0.04198412 ] # c*
natom: 5      
lattice:
- [     3.679430468913456,     0.000000000000000,     0.000000000000000 ] # a
- [    -1.839715234456728,     3.186480257561190,     0.000000000000000 ] # b
- [     0.000000000000000,     0.000000000000000,    23.818530448727476 ] # c
points:
- symbol: Br # 1
  coordinates: [  0.666666984744048,  0.333332985985145,  0.377857064665416 ]
  mass: 79.904000
- symbol: C # 2
  coordinates: [  0.000000000000000,  0.000000000000000,  0.517300864768074 ]
  mass: 12.010700
- symbol: F # 3
  coordinates: [  0.333332985432215,  0.666666983183674,  0.622142935334584 ]
  mass: 18.998403
- symbol: Y # 4
  coordinates: [  0.333332985432215,  0.666666983183674,  0.460863872696979 ]
  mass: 88.905850
- symbol: Y # 5
  coordinates: [  0.666666984744048,  0.333332985985145,  0.574696050391577 ]
  mass: 88.905850

phonon:
- q-position: [    0.0000000,    0.0000000,    0.0000000 ]
  distance:    0.0000000
  band:
  - # 1
    frequency:   -0.0000179918
  - # 2
    frequency:    0.0000000444
  - # 3
    frequency:    0.0000224424
  - # 4
    frequency:    2.6846152918
  - # 5
    frequency:    2.6846152919
  - # 6
    frequency:    3.9288446721
  - # 7
    frequency:    3.9288446722
  - # 8
    frequency:    4.3389606849
  - # 9
    frequency:    5.6089887281
  - # 10
    frequency:    5.6089887282
  - # 11
    frequency:    7.3606008368
  - # 12
    frequency:    9.5990606944
  - # 13
    frequency:    9.8350481822
  - # 14
    frequency:    9.8350481824
  - # 15
    frequency:   16.4012468045

- q-position: [    0.0050505,    0.0000000,    0.0000000 ]
  distance:    0.0015850
  band:
  - # 1
    frequency:    0.0014338964
  - # 2
    frequency:    0.0517268604
  - # 3
    frequency:    0.0903463300
  - # 4
    frequency:    2.6847041862
  - # 5
    frequency:    2.6861047673
  - # 6
    frequency:    3.9286180787
  - # 7
    frequency:    3.9288434454
  - # 8
    frequency:    4.3396679508
  - # 9
    frequency:    5.6089126181
  - # 10
    frequency:    5.6121247678
  - # 11
    frequency:    7.3602246463
  - # 12
    frequency:    9.5949567463
  - # 13
    frequency:    9.8348054112
  - # 14
    frequency:    9.8431118208
  - # 15
    frequency:   16.4000996807

- q-position: [    0.0101010,    0.0000000,    0.0000000 ]
  distance:    0.0031700
  band:
  - # 1
    frequency:    0.0057273197
  - # 2
    frequency:    0.1034254707
  - # 3
    frequency:    0.1806567351
  - # 4
    frequency:    2.6849709845
  - # 5
    frequency:    2.6905581574
  - # 6
    frequency:    3.9279323825
  - # 7
    frequency:    3.9288398936
  - # 8
    frequency:    4.3417858518
  - # 9
    frequency:    5.6086849498
  - # 10
    frequency:    5.6214516323
  - # 11
    frequency:    7.3590967315
  - # 12
    frequency:    9.5839030042
  - # 13
    frequency:    9.8340778644
  - # 14
    frequency:    9.8660552034
  - # 15
    frequency:   16.3966602974

- q-position: [    0.0151515,    0.0000000,    0.0000000 ]
  distance:    0.0047549
  band:
  - # 1
    frequency:    0.0128555693
  - # 2
    frequency:    0.1550676390
  - # 3
    frequency:    0.2708947420
  - # 4
    frequency:    2.6854160327
  - # 5
    frequency:    2.6979312074
  - # 6
    frequency:    3.9267714021
  - # 7
    frequency:    3.9288344002
  - # 8
    frequency:    4.3453022237
  - # 9
    frequency:    5.6083077060
  - # 10
    frequency:    5.6367288543
  - # 11
    frequency:    7.3572190560
  - # 12
    frequency:    9.5684358869
  - # 13
    frequency:    9.8328678388
  - # 14
    frequency:    9.9013719596
  - # 15
    frequency:   16.3909346206

- q-position: [    0.0202020,    0.0000000,    0.0000000 ]
  distance:    0.0063399
  band:
  - # 1
    frequency:    0.0227782681
  - # 2
    frequency:    0.2066252998
  - # 3
    frequency:    0.3610227925
  - # 4
    frequency:    2.6860399053
  - # 5
    frequency:    2.7081528958
  - # 6
    frequency:    3.9251129585
  - # 7
    frequency:    3.9288275957
  - # 8
    frequency:    4.3501954451
  - # 9
    frequency:    5.6077841838
  - # 10
    frequency:    5.6575665474
  - # 11
    frequency:    7.3545948717
  - # 12
    frequency:    9.5506683990
  - # 13
    frequency:    9.8311791542
  - # 14
    frequency:    9.9469937085
  - # 15
    frequency:   16.3829325969

- q-position: [    0.0252525,    0.0000000,    0.0000000 ]
  distance:    0.0079249
  band:
  - # 1
    frequency:    0.0354404461
  - # 2
    frequency:    0.2580705736
  - # 3
    frequency:    0.4510017675
  - # 4
    frequency:    2.6868434034
  - # 5
    frequency:    2.7211291734
  - # 6
    frequency:    3.9229347227
  - # 7
    frequency:    3.9288203456
  - # 8
    frequency:    4.3564331296
  - # 9
    frequency:    5.6071189823
  - # 10
    frequency:    5.6834413804
  - # 11
    frequency:    7.3512286883
  - # 12
    frequency:    9.5318466809
  - # 13
    frequency:    9.8290171396
  - # 14
    frequency:   10.0017256191
  - # 15
    frequency:   16.3726681609

- q-position: [    0.0303030,    0.0000000,    0.0000000 ]
  distance:    0.0095099
  band:
  - # 1
    frequency:    0.0507739776
  - # 2
    frequency:    0.3093758295
  - # 3
    frequency:    0.5407905697
  - # 4
    frequency:    2.6878275517
  - # 5
    frequency:    2.7367475497
  - # 6
    frequency:    3.9202202105
  - # 7
    frequency:    3.9288137334
  - # 8
    frequency:    4.3639714012
  - # 9
    frequency:    5.6063179862
  - # 10
    frequency:    5.7137181212
  - # 11
    frequency:    7.3471262301
  - # 12
    frequency:    9.5125772560
  - # 13
    frequency:    9.8263886154
  - # 14
    frequency:   10.0650087207
  - # 15
    frequency:   16.3601592453

- q-position: [    0.0353535,    0.0000000,    0.0000000 ]
  distance:    0.0110949
  band:
  - # 1
    frequency:    0.0686992714
  - # 2
    frequency:    0.3605137483
  - # 3
    frequency:    0.6303457766
  - # 4
    frequency:    2.6889935940
  - # 5
    frequency:    2.7548820416
  - # 6
    frequency:    3.9169636447
  - # 7
    frequency:    3.9288090404
  - # 8
    frequency:    4.3727552719
  - # 9
    frequency:    5.6053883444
  - # 10
    frequency:    5.7476757665
  - # 11
    frequency:    7.3422943828
  - # 12
    frequency:    9.4931006833
  - # 13
    frequency:    9.8233018692
  - # 14
    frequency:   10.1366338884
  - # 15
    frequency:   16.3454277981

- q-position: [    0.0404040,    0.0000000,    0.0000000 ]
  distance:    0.0126798
  band:
  - # 1
    frequency:    0.0891271193
  - # 2
    frequency:    0.4114573847
  - # 3
    frequency:    0.7196213637
  - # 4
    frequency:    2.6903429888
  - # 5
    frequency:    2.7753980368
  - # 6
    frequency:    3.9131728897
  - # 7
    frequency:    3.9288077221
  - # 8
    frequency:    4.3827202808
  - # 9
    frequency:    5.6043384424
  - # 10
    frequency:    5.7845368751
  - # 11
    frequency:    7.3367411296
  - # 12
    frequency:    9.4734686977
  - # 13
    frequency:    9.8197666266
  - # 14
    frequency:   10.2165512481
  - # 15
    frequency:   16.3284998071

- q-position: [    0.0454545,    0.0000000,    0.0000000 ]
  distance:    0.0142648
  band:
  - # 1
    frequency:    0.1119606094
  - # 2
    frequency:    0.4621802311
  - # 3
    frequency:    0.8085684902
  - # 4
    frequency:    2.6918774040
  - # 5
    frequency:    2.7981567225
  - # 6
    frequency:    3.9088702634
  - # 7
    frequency:    3.9288113823
  - # 8
    frequency:    4.3937951792
  - # 9
    frequency:    5.6031778703
  - # 10
    frequency:    5.8234983805
  - # 11
    frequency:    7.3304754784
  - # 12
    frequency:    9.4536430212
  - # 13
    frequency:    9.8157940162
  - # 14
    frequency:   10.3047578036
  - # 15
    frequency:   16.3094053364

- q-position: [    0.0505051,    0.0000000,    0.0000000 ]
  distance:    0.0158498
  band:
  - # 1
    frequency:    0.1370970176
  - # 2
    frequency:    0.5126562802
  - # 3
    frequency:    0.8971353405
  - # 4
    frequency:    2.6935987113
  - # 5
    frequency:    2.8230188528
  - # 6
    frequency:    3.9040915271
  - # 7
    frequency:    3.9288217457
  - # 8
    frequency:    4.4059051978
  - # 9
    frequency:    5.6019173851
  - # 10
    frequency:    5.8637619601
  - # 11
    frequency:    7.3235073827
  - # 12
    frequency:    9.4335480290
  - # 13
    frequency:    9.8113965292
  - # 14
    frequency:   10.4012321752
  - # 15
    frequency:   16.2881785775

- q-position: [    0.0555556,    0.0000000,    0.0000000 ]
  distance:    0.0174348
  band:
  - # 1
    frequency:    0.1644296063
  - # 2
    frequency:    0.5628600881
  - # 3
    frequency:    0.9852670120
  - # 4
    frequency:    2.6955089796
  - # 5
    frequency:    2.8498477512
  - # 6
    frequency:    3.8988836341
  - # 7
    frequency:    3.9288406305
  - # 8
    frequency:    4.4189753678
  - # 9
    frequency:    5.6005688660
  - # 10
    frequency:    5.9045620490
  - # 11
    frequency:    7.3158476578
  - # 12
    frequency:    9.4130982166
  - # 13
    frequency:    9.8065879722
  - # 14
    frequency:   10.5058965607
  - # 15
    frequency:   16.2648579217

- q-position: [    0.0606061,    0.0000000,    0.0000000 ]
  distance:    0.0190198
  band:
  - # 1
    frequency:    0.1938492725
  - # 2
    frequency:    0.6127668366
  - # 3
    frequency:    1.0729054425
  - # 4
    frequency:    2.6976104693
  - # 5
    frequency:    2.8785115404
  - # 6
    frequency:    3.8933018727
  - # 7
    frequency:    3.9288699220
  - # 8
    frequency:    4.4329334572
  - # 9
    frequency:    5.5991452647
  - # 10
    frequency:    5.9451898320
  - # 11
    frequency:    7.3075078960
  - # 12
    frequency:    9.3922120916
  - # 13
    frequency:    9.8013834153
  - # 14
    frequency:   10.6185952068
  - # 15
    frequency:   16.2394860596

- q-position: [    0.0656566,    0.0000000,    0.0000000 ]
  distance:    0.0206047
  band:
  - # 1
    frequency:    0.2252460088
  - # 2
    frequency:    0.6623523947
  - # 3
    frequency:    1.1599893742
  - # 4
    frequency:    2.6999056257
  - # 5
    frequency:    2.9088846609
  - # 6
    frequency:    3.8874069382
  - # 7
    frequency:    3.9289115471
  - # 8
    frequency:    4.4477122496
  - # 9
    frequency:    5.5976605488
  - # 10
    frequency:    5.9850119827
  - # 11
    frequency:    7.2985003830
  - # 12
    frequency:    9.3708187386
  - # 13
    frequency:    9.7957991334
  - # 14
    frequency:   10.7390837760
  - # 15
    frequency:   16.2121101160

- q-position: [    0.0707071,    0.0000000,    0.0000000 ]
  distance:    0.0221897
  band:
  - # 1
    frequency:    0.2585101547
  - # 2
    frequency:    0.7115933791
  - # 3
    frequency:    1.2464543559
  - # 4
    frequency:    2.7023970727
  - # 5
    frequency:    2.9408487734
  - # 6
    frequency:    3.8812622959
  - # 7
    frequency:    3.9289674530
  - # 8
    frequency:    4.4632510700
  - # 9
    frequency:    5.5961296377
  - # 10
    frequency:    6.0234834886
  - # 11
    frequency:    7.2888380220
  - # 12
    frequency:    9.3488604412
  - # 13
    frequency:    9.7898525415
  - # 14
    frequency:   10.8670265062
  - # 15
    frequency:   16.1827818334

- q-position: [    0.0757576,    0.0000000,    0.0000000 ]
  distance:    0.0237747
  band:
  - # 1
    frequency:    0.2935334310
  - # 2
    frequency:    0.7604672124
  - # 3
    frequency:    1.3322327877
  - # 4
    frequency:    2.7050876069
  - # 5
    frequency:    2.9742931501
  - # 6
    frequency:    3.8749320314
  - # 7
    frequency:    3.9290395894
  - # 8
    frequency:    4.4794965956
  - # 9
    frequency:    5.5945683330
  - # 10
    frequency:    6.0601544939
  - # 11
    frequency:    7.2785342665
  - # 12
    frequency:    9.3262932114
  - # 13
    frequency:    9.7835621241
  - # 14
    frequency:   11.0019991876
  - # 15
    frequency:   16.1515578176

- q-position: [    0.0808081,    0.0000000,    0.0000000 ]
  distance:    0.0253597
  band:
  - # 1
    frequency:    0.3302097634
  - # 2
    frequency:    0.8089521800
  - # 3
    frequency:    1.4172540163
  - # 4
    frequency:    2.7079801923
  - # 5
    frequency:    3.0091146536
  - # 6
    frequency:    3.8684792453
  - # 7
    frequency:    3.9291298966
  - # 8
    frequency:    4.4964030695
  - # 9
    frequency:    5.5929932400
  - # 10
    frequency:    6.0946716288
  - # 11
    frequency:    7.2676030701
  - # 12
    frequency:    9.3030862540
  - # 13
    frequency:    9.7769473587
  - # 14
    frequency:   11.1434964434
  - # 15
    frequency:   16.1184998652

- q-position: [    0.0858586,    0.0000000,    0.0000000 ]
  distance:    0.0269446
  band:
  - # 1
    frequency:    0.3684359068
  - # 2
    frequency:    0.8570274823
  - # 3
    frequency:    1.5014444918
  - # 4
    frequency:    2.7110779544
  - # 5
    frequency:    3.0452173843
  - # 6
    frequency:    3.8619649730
  - # 7
    frequency:    3.9292402990
  - # 8
    frequency:    4.5139320621
  - # 9
    frequency:    5.5914216832
  - # 10
    frequency:    6.1267746956
  - # 11
    frequency:    7.2560588553
  - # 12
    frequency:    9.2792209322
  - # 13
    frequency:    9.7700286331
  - # 14
    frequency:   11.2909419787
  - # 15
    frequency:   16.0836754008

- q-position: [    0.0909091,    0.0000000,    0.0000000 ]
  distance:    0.0285296
  band:
  - # 1
    frequency:    0.4081118916
  - # 2
    frequency:    0.9046732854
  - # 3
    frequency:    1.5847279984
  - # 4
    frequency:    2.7143841766
  - # 5
    frequency:    3.0825120561
  - # 6
    frequency:    3.8554475613
  - # 7
    frequency:    3.9293727067
  - # 8
    frequency:    4.5320519256
  - # 9
    frequency:    5.5898716136
  - # 10
    frequency:    6.1562898155
  - # 11
    frequency:    7.2439165074
  - # 12
    frequency:    9.2546895483
  - # 13
    frequency:    9.7628271571
  - # 14
    frequency:   11.4437005606
  - # 15
    frequency:   16.0471580577

- q-position: [    0.0959596,    0.0000000,    0.0000000 ]
  distance:    0.0301146
  band:
  - # 1
    frequency:    0.4491413128
  - # 2
    frequency:    0.9518707656
  - # 3
    frequency:    1.6670259702
  - # 4
    frequency:    2.7179022959
  - # 5
    frequency:    3.1209151393
  - # 6
    frequency:    3.8489824323
  - # 7
    frequency:    3.9295290246
  - # 8
    frequency:    4.5507370576
  - # 9
    frequency:    5.5883615090
  - # 10
    frequency:    6.1831202023
  - # 11
    frequency:    7.2311913979
  - # 12
    frequency:    9.2294941022
  - # 13
    frequency:    9.7553648693
  - # 14
    frequency:   11.6010906042
  - # 15
    frequency:   16.0090284521

- q-position: [    0.1010101,    0.0000000,    0.0000000 ]
  distance:    0.0316996
  band:
  - # 1
    frequency:    0.4914314876
  - # 2
    frequency:    0.9986021502
  - # 3
    frequency:    1.7482579050
  - # 4
    frequency:    2.7216358998
  - # 5
    frequency:    3.1603477845
  - # 6
    frequency:    3.8426221683
  - # 7
    frequency:    3.9297111694
  - # 8
    frequency:    4.5699670665
  - # 9
    frequency:    5.5869102664
  - # 10
    frequency:    6.2072356540
  - # 11
    frequency:    7.2178994419
  - # 12
    frequency:    9.2036451125
  - # 13
    frequency:    9.7476643376
  - # 14
    frequency:   11.7623963897
  - # 15
    frequency:   15.9693752157

- q-position: [    0.1060606,    0.0000000,    0.0000000 ]
  distance:    0.0332846
  band:
  - # 1
    frequency:    0.5348935030
  - # 2
    frequency:    1.0448507512
  - # 3
    frequency:    1.8283418839
  - # 4
    frequency:    2.7255887241
  - # 5
    frequency:    3.2007345221
  - # 6
    frequency:    3.8364168845
  - # 7
    frequency:    3.9299210959
  - # 8
    frequency:    4.5897258987
  - # 9
    frequency:    5.5855370884
  - # 10
    frequency:    6.2286616817
  - # 11
    frequency:    7.2040571933
  - # 12
    frequency:    9.1771605337
  - # 13
    frequency:    9.7397486565
  - # 14
    frequency:   11.9268791200
  - # 15
    frequency:   15.9282963814

- q-position: [    0.1111111,    0.0000000,    0.0000000 ]
  distance:    0.0348695
  band:
  - # 1
    frequency:    0.5794421775
  - # 2
    frequency:    1.0906009936
  - # 3
    frequency:    1.9071952019
  - # 4
    frequency:    2.7297646517
  - # 5
    frequency:    3.2420016998
  - # 6
    frequency:    3.8304148886
  - # 7
    frequency:    3.9301608319
  - # 8
    frequency:    4.6100009680
  - # 9
    frequency:    5.5842613620
  - # 10
    frequency:    6.2474689728
  - # 11
    frequency:    7.1896819817
  - # 12
    frequency:    9.1500647817
  - # 13
    frequency:    9.7316413395
  - # 14
    frequency:   12.0937862070
  - # 15
    frequency:   15.8859012503

- q-position: [    0.1161616,    0.0000000,    0.0000000 ]
  distance:    0.0364545
  band:
  - # 1
    frequency:    0.6249959558
  - # 2
    frequency:    1.1358384357
  - # 3
    frequency:    1.9847351091
  - # 4
    frequency:    2.7341677111
  - # 5
    frequency:    3.2840755794
  - # 6
    frequency:    3.8246636869
  - # 7
    frequency:    3.9304325205
  - # 8
    frequency:    4.6307823064
  - # 9
    frequency:    5.5831025323
  - # 10
    frequency:    6.2637636667
  - # 11
    frequency:    7.1747920952
  - # 12
    frequency:    9.1223878632
  - # 13
    frequency:    9.7233662077
  - # 14
    frequency:   12.2623583249
  - # 15
    frequency:   15.8423129275

- q-position: [    0.1212121,    0.0000000,    0.0000000 ]
  distance:    0.0380395
  band:
  - # 1
    frequency:    0.6714767550
  - # 2
    frequency:    1.1805497816
  - # 3
    frequency:    2.0608796526
  - # 4
    frequency:    2.7388020764
  - # 5
    frequency:    3.3268799398
  - # 6
    frequency:    3.8192114841
  - # 7
    frequency:    3.9307384712
  - # 8
    frequency:    4.6520617450
  - # 9
    frequency:    5.5820799702
  - # 10
    frequency:    6.2776787119
  - # 11
    frequency:    7.1594070129
  - # 12
    frequency:    9.0941645997
  - # 13
    frequency:    9.7149472768
  - # 14
    frequency:   12.4318338638
  - # 15
    frequency:   15.7976717954

- q-position: [    0.1262626,    0.0000000,    0.0000000 ]
  distance:    0.0396245
  band:
  - # 1
    frequency:    0.7188097769
  - # 2
    frequency:    1.2247228852
  - # 3
    frequency:    2.1355486039
  - # 4
    frequency:    2.7436720677
  - # 5
    frequency:    3.3703328815
  - # 6
    frequency:    3.8141094880
  - # 7
    frequency:    3.9310812167
  - # 8
    frequency:    4.6738321256
  - # 9
    frequency:    5.5812128363
  - # 10
    frequency:    6.2893664171
  - # 11
    frequency:    7.1435476899
  - # 12
    frequency:    9.0654339342
  - # 13
    frequency:    9.7064086407
  - # 14
    frequency:   12.6014504213
  - # 15
    frequency:   15.7521403180

- q-position: [    0.1313131,    0.0000000,    0.0000000 ]
  distance:    0.0412095
  band:
  - # 1
    frequency:    0.7669233004
  - # 2
    frequency:    1.2683467457
  - # 3
    frequency:    2.2086644403
  - # 4
    frequency:    2.7487821511
  - # 5
    frequency:    3.4143422261
  - # 6
    frequency:    3.8094156560
  - # 7
    frequency:    3.9314635759
  - # 8
    frequency:    4.6960865377
  - # 9
    frequency:    5.5805199412
  - # 10
    frequency:    6.2989921807
  - # 11
    frequency:    7.1272369023
  - # 12
    frequency:    9.0362383071
  - # 13
    frequency:    9.6977743555
  - # 14
    frequency:   12.7704428728
  - # 15
    frequency:   15.7059097589

- q-position: [    0.1363636,    0.0000000,    0.0000000 ]
  distance:    0.0427944
  band:
  - # 1
    frequency:    0.8157484627
  - # 2
    frequency:    1.3114114926
  - # 3
    frequency:    2.2801533456
  - # 4
    frequency:    2.7541369392
  - # 5
    frequency:    3.4587982079
  - # 6
    frequency:    3.8052012204
  - # 7
    frequency:    3.9318887197
  - # 8
    frequency:    4.7188175746
  - # 9
    frequency:    5.5800196049
  - # 10
    frequency:    6.3067293077
  - # 11
    frequency:    7.1104996552
  - # 12
    frequency:    9.0066230922
  - # 13
    frequency:    9.6890683219
  - # 14
    frequency:   12.9380373225
  - # 15
    frequency:   15.6592096904

- q-position: [    0.1414141,    0.0000000,    0.0000000 ]
  distance:    0.0443794
  band:
  - # 1
    frequency:    0.8652190397
  - # 2
    frequency:    1.3539083627
  - # 3
    frequency:    2.3499461778
  - # 4
    frequency:    2.7597411909
  - # 5
    frequency:    3.5035605219
  - # 6
    frequency:    3.8015629840
  - # 7
    frequency:    3.9323602393
  - # 8
    frequency:    4.7420166038
  - # 9
    frequency:    5.5797295144
  - # 10
    frequency:    6.3127547725
  - # 11
    frequency:    7.0933636626
  - # 12
    frequency:    8.9766360800
  - # 13
    frequency:    9.6803141700
  - # 14
    frequency:   13.1034398107
  - # 15
    frequency:   15.6123216146

- q-position: [    0.1464646,    0.0000000,    0.0000000 ]
  distance:    0.0459644
  band:
  - # 1
    frequency:    0.9152712310
  - # 2
    frequency:    1.3958296659
  - # 3
    frequency:    2.4179793491
  - # 4
    frequency:    2.7655998111
  - # 5
    frequency:    3.5484325605
  - # 6
    frequency:    3.7986486110
  - # 7
    frequency:    3.9328822140
  - # 8
    frequency:    4.7656730457
  - # 9
    frequency:    5.5796665836
  - # 10
    frequency:    6.3172457617
  - # 11
    frequency:    7.0758599078
  - # 12
    frequency:    8.9463270019
  - # 13
    frequency:    9.6715351448
  - # 14
    frequency:   13.2658179659
  - # 15
    frequency:   15.5655987123

- q-position: [    0.1515152,    0.0000000,    0.0000000 ]
  distance:    0.0475494
  band:
  - # 1
    frequency:    0.9658434537
  - # 2
    frequency:    1.4371687425
  - # 3
    frequency:    2.4841955579
  - # 4
    frequency:    2.7717178480
  - # 5
    frequency:    3.5931037395
  - # 6
    frequency:    3.7967140795
  - # 7
    frequency:    3.9334592754
  - # 8
    frequency:    4.7897736609
  - # 9
    frequency:    5.5798468158
  - # 10
    frequency:    6.3203768291
  - # 11
    frequency:    7.0580232939
  - # 12
    frequency:    8.9157470875
  - # 13
    frequency:    9.6627539953
  - # 14
    frequency:   13.4242727415
  - # 15
    frequency:   15.5194947664

- q-position: [    0.1565657,    0.0000000,    0.0000000 ]
  distance:    0.0491344
  band:
  - # 1
    frequency:    1.0168761508
  - # 2
    frequency:    1.4779199105
  - # 3
    frequency:    2.5485443125
  - # 4
    frequency:    2.7781004905
  - # 5
    frequency:    3.6370038994
  - # 6
    frequency:    3.7962693680
  - # 7
    frequency:    3.9340966672
  - # 8
    frequency:    4.8143018513
  - # 9
    frequency:    5.5802851712
  - # 10
    frequency:    6.3223174946
  - # 11
    frequency:    7.0398933995
  - # 12
    frequency:    8.8849486499
  - # 13
    frequency:    9.6539928682
  - # 14
    frequency:   13.5777958932
  - # 15
    frequency:   15.4746067716

- q-position: [    0.1616162,    0.0000000,    0.0000000 ]
  distance:    0.0507193
  band:
  - # 1
    frequency:    1.0683116142
  - # 2
    frequency:    1.5180784047
  - # 3
    frequency:    2.6109821952
  - # 4
    frequency:    2.7847530618
  - # 5
    frequency:    3.6788960544
  - # 6
    frequency:    3.7984861543
  - # 7
    frequency:    3.9348002962
  - # 8
    frequency:    4.8392369826
  - # 9
    frequency:    5.5809954402
  - # 10
    frequency:    6.3232301329
  - # 11
    frequency:    7.0215153525
  - # 12
    frequency:    8.8539846958
  - # 13
    frequency:    9.6452732057
  - # 14
    frequency:   13.7252070500
  - # 15
    frequency:   15.4317375217

- q-position: [    0.1666667,    0.0000000,    0.0000000 ]
  distance:    0.0523043
  band:
  - # 1
    frequency:    1.1200938253
  - # 2
    frequency:    1.5576403066
  - # 3
    frequency:    2.6714728273
  - # 4
    frequency:    2.7916810116
  - # 5
    frequency:    3.7157923850
  - # 6
    frequency:    3.8062826650
  - # 7
    frequency:    3.9355767727
  - # 8
    frequency:    4.8645537494
  - # 9
    frequency:    5.5819901264
  - # 10
    frequency:    6.3232680112
  - # 11
    frequency:    7.0029408396
  - # 12
    frequency:    8.8229085561
  - # 13
    frequency:    9.6366156507
  - # 14
    frequency:   13.8650630630
  - # 15
    frequency:   15.3919856091

- q-position: [    0.1717172,    0.0000000,    0.0000000 ]
  distance:    0.0538893
  band:
  - # 1
    frequency:    1.1721683128
  - # 2
    frequency:    1.5966024675
  - # 3
    frequency:    2.7299865174
  - # 4
    frequency:    2.7988899044
  - # 5
    frequency:    3.7421077949
  - # 6
    frequency:    3.8251713599
  - # 7
    frequency:    3.9364334381
  - # 8
    frequency:    4.8902216046
  - # 9
    frequency:    5.5832803386
  - # 10
    frequency:    6.3225733477
  - # 11
    frequency:    6.9842292687
  - # 12
    frequency:    8.7917735383
  - # 13
    frequency:    9.6280399586
  - # 14
    frequency:   13.9955353266
  - # 15
    frequency:   15.3568672375

- q-position: [    0.1767677,    0.0000000,    0.0000000 ]
  distance:    0.0554743
  band:
  - # 1
    frequency:    1.2244820283
  - # 2
    frequency:    1.6349624249
  - # 3
    frequency:    2.7864995960
  - # 4
    frequency:    2.8063854042
  - # 5
    frequency:    3.7558168199
  - # 6
    frequency:    3.8571036414
  - # 7
    frequency:    3.9373783763
  - # 8
    frequency:    4.9162042893
  - # 9
    frequency:    5.5848756948
  - # 10
    frequency:    6.3212752840
  - # 11
    frequency:    6.9654490977
  - # 12
    frequency:    8.7606325973
  - # 13
    frequency:    9.6195649178
  - # 14
    frequency:   14.1142681903
  - # 15
    frequency:   15.3284568059

- q-position: [    0.1818182,    0.0000000,    0.0000000 ]
  distance:    0.0570593
  band:
  - # 1
    frequency:    1.2769832396
  - # 2
    frequency:    1.6727183130
  - # 3
    frequency:    2.8141732545
  - # 4
    frequency:    2.8409934671
  - # 5
    frequency:    3.7623055073
  - # 6
    frequency:    3.8966199152
  - # 7
    frequency:    3.9384204078
  - # 8
    frequency:    4.9424595038
  - # 9
    frequency:    5.5867842404
  - # 10
    frequency:    6.3194876817
  - # 11
    frequency:    6.9466793397
  - # 12
    frequency:    8.7295380269
  - # 13
    frequency:    9.6112082789
  - # 14
    frequency:   14.2182855291
  - # 15
    frequency:   15.3094792550

- q-position: [    0.1868687,    0.0000000,    0.0000000 ]
  distance:    0.0586442
  band:
  - # 1
    frequency:    1.3296214393
  - # 2
    frequency:    1.7098687699
  - # 3
    frequency:    2.8222592539
  - # 4
    frequency:    2.8934534353
  - # 5
    frequency:    3.7660567314
  - # 6
    frequency:    3.9391664449
  - # 7
    frequency:    3.9395690645
  - # 8
    frequency:    4.9689387654
  - # 9
    frequency:    5.5890123791
  - # 10
    frequency:    6.3173066822
  - # 11
    frequency:    6.9280112385
  - # 12
    frequency:    8.6985411724
  - # 13
    frequency:    9.6029866937
  - # 14
    frequency:   14.3041247859
  - # 15
    frequency:   15.3031749052

- q-position: [    0.1919192,    0.0000000,    0.0000000 ]
  distance:    0.0602292
  band:
  - # 1
    frequency:    1.3823472697
  - # 2
    frequency:    1.7464128411
  - # 3
    frequency:    2.8306492255
  - # 4
    frequency:    2.9438673896
  - # 5
    frequency:    3.7689698585
  - # 6
    frequency:    3.9408345440
  - # 7
    frequency:    3.9827779663
  - # 8
    frequency:    4.9955875037
  - # 9
    frequency:    5.5915648208
  - # 10
    frequency:    6.3148080093
  - # 11
    frequency:    6.9095500853
  - # 12
    frequency:    8.6676921656
  - # 13
    frequency:    9.5949156650
  - # 14
    frequency:   14.3684798144
  - # 15
    frequency:   15.3126554918

- q-position: [    0.1969697,    0.0000000,    0.0000000 ]
  distance:    0.0618142
  band:
  - # 1
    frequency:    1.4351124608
  - # 2
    frequency:    1.7823498827
  - # 3
    frequency:    2.8393489807
  - # 4
    frequency:    2.9922244539
  - # 5
    frequency:    3.7718322253
  - # 6
    frequency:    3.9422276423
  - # 7
    frequency:    4.0266084483
  - # 8
    frequency:    5.0223454399
  - # 9
    frequency:    5.5944445446
  - # 10
    frequency:    6.3120440482
  - # 11
    frequency:    6.8914171019
  - # 12
    frequency:    8.6370396835
  - # 13
    frequency:    9.5870095068
  - # 14
    frequency:   14.4094160289
  - # 15
    frequency:   15.3396879125

- q-position: [    0.2020202,    0.0000000,    0.0000000 ]
  distance:    0.0633992
  band:
  - # 1
    frequency:    1.4878697813
  - # 2
    frequency:    1.8176794646
  - # 3
    frequency:    2.8483642756
  - # 4
    frequency:    3.0385137328
  - # 5
    frequency:    3.7750228535
  - # 6
    frequency:    3.9437596654
  - # 7
    frequency:    4.0702293994
  - # 8
    frequency:    5.0491472881
  - # 9
    frequency:    5.5976527781
  - # 10
    frequency:    6.3090408237
  - # 11
    frequency:    6.8737512527
  - # 12
    frequency:    8.6066307347
  - # 13
    frequency:    9.5792813156
  - # 14
    frequency:   14.4274676680
  - # 15
    frequency:   15.3835958975

- q-position: [    0.2070707,    0.0000000,    0.0000000 ]
  distance:    0.0649841
  band:
  - # 1
    frequency:    1.5405730004
  - # 2
    frequency:    1.8524012758
  - # 3
    frequency:    2.8577007611
  - # 4
    frequency:    3.0827233065
  - # 5
    frequency:    3.7787582081
  - # 6
    frequency:    3.9454423206
  - # 7
    frequency:    4.1133857241
  - # 8
    frequency:    5.0759238025
  - # 9
    frequency:    5.6011889937
  - # 10
    frequency:    6.3057951143
  - # 11
    frequency:    6.8567107434
  - # 12
    frequency:    8.5765104724
  - # 13
    frequency:    9.5717429530
  - # 14
    frequency:   14.4255601420
  - # 15
    frequency:   15.4413366409

- q-position: [    0.2121212,    0.0000000,    0.0000000 ]
  distance:    0.0665691
  band:
  - # 1
    frequency:    1.5931768585
  - # 2