nqpoint: 300    
npath: 3      
segment_nqpoint:
- 100
- 100
- 100
labels:
- [ 'G', 'M' ]
- [ 'M', 'K' ]
- [ 'K', 'G' ]
reciprocal_lattice:
- [   0.29943232,   0.17287733,   0.00000000 ] # a*
- [   0.00000000,   0.34575466,   0.00000000 ] # b*
- [   0.00000000,   0.00000000,   0.03892988 ] # c*
natom: 6      
lattice:
- [     3.339652887839780,     0.000000000000000,     0.000000000000000 ] # a
- [    -1.669826443919890,     2.892224240675376,     0.000000000000000 ] # b
- [     0.000000000000000,     0.000000000000000,    25.687207642958072 ] # c
points:
- symbol: C # 1
  coordinates: [  0.000000000000000,  0.000000000000000,  0.466197477749592 ]
  mass: 12.010700
- symbol: Cl # 2
  coordinates: [  0.666666984744047,  0.333332985985145,  0.350368951156405 ]
  mass: 35.453000
- symbol: Hf # 3
  coordinates: [  0.333332985432215,  0.666666983183674,  0.420212640568381 ]
  mass: 178.490000
- symbol: Hf # 4
  coordinates: [  0.666666984744047,  0.333332985985145,  0.515474971808930 ]
  mass: 178.490000
- symbol: O # 5
  coordinates: [  0.333332985432215,  0.666666983183674,  0.649631048843595 ]
  mass: 15.999400
- symbol: P # 6
  coordinates: [  0.333332985432215,  0.666666983183674,  0.591440386462111 ]
  mass: 30.973762

phonon:
- q-position: [    0.0000000,    0.0000000,    0.0000000 ]
  distance:    0.0000000
  band:
  - # 1
    frequency:   -4.8532721701
  - # 2
    frequency:   -4.8532721701
  - # 3
    frequency:   -0.0000181290
  - # 4
    frequency:   -0.0000002117
  - # 5
    frequency:    0.0000147038
  - # 6
    frequency:    2.8773275628
  - # 7
    frequency:    2.8773275628
  - # 8
    frequency:    3.8298958469
  - # 9
    frequency:    3.8298958469
  - # 10
    frequency:    4.3726683527
  - # 11
    frequency:    5.1484639484
  - # 12
    frequency:    5.1484639485
  - # 13
    frequency:    7.4529947946
  - # 14
    frequency:    8.4792488035
  - # 15
    frequency:   15.9485193871
  - # 16
    frequency:   17.9833447364
  - # 17
    frequency:   17.9833447364
  - # 18
    frequency:   33.9945109698

- q-position: [    0.0050505,    0.0000000,    0.0000000 ]
  distance:    0.0017462
  band:
  - # 1
    frequency:   -4.8530634466
  - # 2
    frequency:   -4.8525372149
  - # 3
    frequency:    0.0014928053
  - # 4
    frequency:    0.0422802986
  - # 5
    frequency:    0.0746912794
  - # 6
    frequency:    2.8776786731
  - # 7
    frequency:    2.8785446634
  - # 8
    frequency:    3.8286923164
  - # 9
    frequency:    3.8302536581
  - # 10
    frequency:    4.3737473896
  - # 11
    frequency:    5.1486158371
  - # 12
    frequency:    5.1492688513
  - # 13
    frequency:    7.4527129875
  - # 14
    frequency:    8.4788159317
  - # 15
    frequency:   15.9482343478
  - # 16
    frequency:   17.9825247446
  - # 17
    frequency:   17.9829943048
  - # 18
    frequency:   33.9943014821

- q-position: [    0.0101010,    0.0000000,    0.0000000 ]
  distance:    0.0034925
  band:
  - # 1
    frequency:   -4.8524422288
  - # 2
    frequency:   -4.8503330574
  - # 3
    frequency:    0.0059639210
  - # 4
    frequency:    0.0845501997
  - # 5
    frequency:    0.1493543703
  - # 6
    frequency:    2.8787305710
  - # 7
    frequency:    2.8821885390
  - # 8
    frequency:    3.8251246000
  - # 9
    frequency:    3.8313262735
  - # 10
    frequency:    4.3769458004
  - # 11
    frequency:    5.1490716799
  - # 12
    frequency:    5.1516831427
  - # 13
    frequency:    7.4518678115
  - # 14
    frequency:    8.4775180166
  - # 15
    frequency:   15.9473797589
  - # 16
    frequency:   17.9800669735
  - # 17
    frequency:   17.9819435921
  - # 18
    frequency:   33.9936733705

- q-position: [    0.0151515,    0.0000000,    0.0000000 ]
  distance:    0.0052387
  band:
  - # 1
    frequency:   -4.8514233202
  - # 2
    frequency:   -4.8466618312
  - # 3
    frequency:    0.0133919303
  - # 4
    frequency:    0.1267993950
  - # 5
    frequency:    0.2239609814
  - # 6
    frequency:    2.8804789754
  - # 7
    frequency:    2.8882370471
  - # 8
    frequency:    3.8193162776
  - # 9
    frequency:    3.8331112350
  - # 10
    frequency:    4.3821526004
  - # 11
    frequency:    5.1498320038
  - # 12
    frequency:    5.1557054692
  - # 13
    frequency:    7.4504600048
  - # 14
    frequency:    8.4753571590
  - # 15
    frequency:   15.9459572090
  - # 16
    frequency:   17.9759780312
  - # 17
    frequency:   17.9801943459
  - # 18
    frequency:   33.9926276886

- q-position: [    0.0202020,    0.0000000,    0.0000000 ]
  distance:    0.0069849
  band:
  - # 1
    frequency:   -4.8500312115
  - # 2
    frequency:   -4.8415271258
  - # 3
    frequency:    0.0237415051
  - # 4
    frequency:    0.1690177460
  - # 5
    frequency:    0.2984826103
  - # 6
    frequency:    2.8829168102
  - # 7
    frequency:    2.8966537278
  - # 8
    frequency:    3.8114579500
  - # 9
    frequency:    3.8356044372
  - # 10
    frequency:    4.3891984068
  - # 11
    frequency:    5.1508976769
  - # 12
    frequency:    5.1613332464
  - # 13
    frequency:    7.4484908064
  - # 14
    frequency:    8.4723368598
  - # 15
    frequency:   15.9439693503
  - # 16
    frequency:   17.9702689141
  - # 17
    frequency:   17.9777494838
  - # 18
    frequency:   33.9911661896

- q-position: [    0.0252525,    0.0000000,    0.0000000 ]
  distance:    0.0087312
  band:
  - # 1
    frequency:   -4.8482998056
  - # 2
    frequency:   -4.8349340361
  - # 3
    frequency:    0.0369640509
  - # 4
    frequency:    0.2111953738
  - # 5
    frequency:    0.3728903937
  - # 6
    frequency:    2.8860342912
  - # 7
    frequency:    2.9073884347
  - # 8
    frequency:    3.8017885621
  - # 9
    frequency:    3.8388001131
  - # 10
    frequency:    4.3978744269
  - # 11
    frequency:    5.1522698924
  - # 12
    frequency:    5.1685621944
  - # 13
    frequency:    7.4459619684
  - # 14
    frequency:    8.4684620193
  - # 15
    frequency:   15.9414199057
  - # 16
    frequency:   17.9629549814
  - # 17
    frequency:   17.9746131006
  - # 18
    frequency:   33.9892913221

- q-position: [    0.0303030,    0.0000000,    0.0000000 ]
  distance:    0.0104774
  band:
  - # 1
    frequency:   -4.8462720277
  - # 2
    frequency:   -4.8268892302
  - # 3
    frequency:    0.0529985054
  - # 4
    frequency:    0.2533227477
  - # 5
    frequency:    0.4471549141
  - # 6
    frequency:    2.8898190466
  - # 7
    frequency:    2.9203781533
  - # 8
    frequency:    3.7905759466
  - # 9
    frequency:    3.8426908155
  - # 10
    frequency:    4.4079523045
  - # 11
    frequency:    5.1539501461
  - # 12
    frequency:    5.1773857479
  - # 13
    frequency:    7.4428757737
  - # 14
    frequency:    8.4637389363
  - # 15
    frequency:   15.9383136771
  - # 16
    frequency:   17.9540559204
  - # 17
    frequency:   17.9707904776
  - # 18
    frequency:   33.9870062240

- q-position: [    0.0353535,    0.0000000,    0.0000000 ]
  distance:    0.0122236
  band:
  - # 1
    frequency:   -4.8439993175
  - # 2
    frequency:   -4.8174010354
  - # 3
    frequency:    0.0717722795
  - # 4
    frequency:    0.2953907747
  - # 5
    frequency:    0.5212459493
  - # 6
    frequency:    2.8942562667
  - # 7
    frequency:    2.9355479476
  - # 8
    frequency:    3.7780998740
  - # 9
    frequency:    3.8472673935
  - # 10
    frequency:    4.4192014916
  - # 11
    frequency:    5.1559402075
  - # 12
    frequency:    5.1877943910
  - # 13
    frequency:    7.4392350586
  - # 14
    frequency:    8.4581753063
  - # 15
    frequency:   15.9346565555
  - # 16
    frequency:   17.9435957023
  - # 17
    frequency:   17.9662880952
  - # 18
    frequency:   33.9843147149

- q-position: [    0.0404040,    0.0000000,    0.0000000 ]
  distance:    0.0139699
  band:
  - # 1
    frequency:   -4.8415409983
  - # 2
    frequency:   -4.8064795407
  - # 3
    frequency:    0.0932022919
  - # 4
    frequency:    0.3373908899
  - # 5
    frequency:    0.5951321543
  - # 6
    frequency:    2.8993288830
  - # 7
    frequency:    2.9528119658
  - # 8
    frequency:    3.7646393083
  - # 9
    frequency:    3.8525189647
  - # 10
    frequency:    4.4314024050
  - # 11
    frequency:    5.1582420828
  - # 12
    frequency:    5.1997749802
  - # 13
    frequency:    7.4350432391
  - # 14
    frequency:    8.4517802197
  - # 15
    frequency:   15.9304555313
  - # 16
    frequency:   17.9316025301
  - # 17
    frequency:   17.9611136466
  - # 18
    frequency:   33.9812212867

- q-position: [    0.0454545,    0.0000000,    0.0000000 ]
  distance:    0.0157161
  band:
  - # 1
    frequency:   -4.8389635231
  - # 2
    frequency:   -4.7941367138
  - # 3
    frequency:    0.1171960478
  - # 4
    frequency:    0.3793151464
  - # 5
    frequency:    0.6687806737
  - # 6
    frequency:    2.9050177700
  - # 7
    frequency:    2.9720744326
  - # 8
    frequency:    3.7504641312
  - # 9
    frequency:    3.8584328837
  - # 10
    frequency:    4.4443550617
  - # 11
    frequency:    5.1608579710
  - # 12
    frequency:    5.2133101171
  - # 13
    frequency:    7.4303043431
  - # 14
    frequency:    8.4445641587
  - # 15
    frequency:   15.9257187028
  - # 16
    frequency:   17.9181087782
  - # 17
    frequency:   17.9552760542
  - # 18
    frequency:   33.9777310927

- q-position: [    0.0505051,    0.0000000,    0.0000000 ]
  distance:    0.0174624
  band:
  - # 1
    frequency:   -4.8363395930
  - # 2
    frequency:   -4.7803865318
  - # 3
    frequency:    0.1436527224
  - # 4
    frequency:    0.4211563029
  - # 5
    frequency:    0.7421566829
  - # 6
    frequency:    2.9113019698
  - # 7
    frequency:    2.9932305501
  - # 8
    frequency:    3.7358307160
  - # 9
    frequency:    3.8649947085
  - # 10
    frequency:    4.4578837846
  - # 11
    frequency:    5.1637902127
  - # 12
    frequency:    5.2283776321
  - # 13
    frequency:    7.4250230455
  - # 14
    frequency:    8.4365389934
  - # 15
    frequency:   15.9204552838
  - # 16
    frequency:   17.9031509265
  - # 17
    frequency:   17.9487854863
  - # 18
    frequency:   33.9738499349

- q-position: [    0.0555556,    0.0000000,    0.0000000 ]
  distance:    0.0192086
  band:
  - # 1
    frequency:   -4.8337471541
  - # 2
    frequency:   -4.7652451226
  - # 3
    frequency:    0.1724642143
  - # 4
    frequency:    0.4629079071
  - # 5
    frequency:    0.8152228659
  - # 6
    frequency:    2.9181589322
  - # 7
    frequency:    3.0161672255
  - # 8
    frequency:    3.7209804086
  - # 9
    frequency:    3.8721881653
  - # 10
    frequency:    4.4718389166
  - # 11
    frequency:    5.1670412300
  - # 12
    frequency:    5.2449502266
  - # 13
    frequency:    7.4192047078
  - # 14
    frequency:    8.4277179766
  - # 15
    frequency:   15.9146756064
  - # 16
    frequency:   17.8867694876
  - # 17
    frequency:   17.9416533755
  - # 18
    frequency:   33.9695842499

- q-position: [    0.0606061,    0.0000000,    0.0000000 ]
  distance:    0.0209548
  band:
  - # 1
    frequency:   -4.8312682763
  - # 2
    frequency:   -4.7487309166
  - # 3
    frequency:    0.2035161505
  - # 4
    frequency:    0.5045643726
  - # 5
    frequency:    0.8879388419
  - # 6
    frequency:    2.9255647677
  - # 7
    frequency:    3.0407635350
  - # 8
    frequency:    3.7061400102
  - # 9
    frequency:    3.8799951142
  - # 10
    frequency:    4.4860964782
  - # 11
    frequency:    5.1706134595
  - # 12
    frequency:    5.2629953091
  - # 13
    frequency:    7.4128554210
  - # 14
    frequency:    8.4181157369
  - # 15
    frequency:   15.9083911186
  - # 16
    frequency:   17.8690089307
  - # 17
    frequency:   17.9338924369
  - # 18
    frequency:   33.9649410930

- q-position: [    0.0656566,    0.0000000,    0.0000000 ]
  distance:    0.0227011
  band:
  - # 1
    frequency:   -4.8289879262
  - # 2
    frequency:   -4.7308648049
  - # 3
    frequency:    0.2366888309
  - # 4
    frequency:    0.5461210463
  - # 5
    frequency:    0.9602605608
  - # 6
    frequency:    2.9334945090
  - # 7
    frequency:    3.0668908156
  - # 8
    frequency:    3.6915235738
  - # 9
    frequency:    3.8883955167
  - # 10
    frequency:    4.5005565319
  - # 11
    frequency:    5.1745092770
  - # 12
    frequency:    5.2824750387
  - # 13
    frequency:    7.4059820514
  - # 14
    frequency:    8.4077482705
  - # 15
    frequency:   15.9016143750
  - # 16
    frequency:   17.8499176013
  - # 17
    frequency:   17.9255166861
  - # 18
    frequency:   33.9599281206

- q-position: [    0.0707071,    0.0000000,    0.0000000 ]
  distance:    0.0244473
  band:
  - # 1
    frequency:   -4.8269926507
  - # 2
    frequency:   -4.7116703028
  - # 3
    frequency:    0.2718581137
  - # 4
    frequency:    0.5875742623
  - # 5
    frequency:    1.0321396944
  - # 6
    frequency:    2.9419223754
  - # 7
    frequency:    3.0944122456
  - # 8
    frequency:    3.6773350937
  - # 9
    frequency:    3.8973674083
  - # 10
    frequency:    4.5151408127
  - # 11
    frequency:    5.1787309155
  - # 12
    frequency:    5.3033465724
  - # 13
    frequency:    7.3985922887
  - # 14
    frequency:    8.3966329308
  - # 15
    frequency:   15.8943590177
  - # 16
    frequency:   17.8295476397
  - # 17
    frequency:   17.9165414567
  - # 18
    frequency:   33.9545535719

- q-position: [    0.0757576,    0.0000000,    0.0000000 ]
  distance:    0.0261935
  band:
  - # 1
    frequency:   -4.8253691957
  - # 2
    frequency:   -4.6911737162
  - # 3
    frequency:    0.3088962481
  - # 4
    frequency:    0.6289213811
  - # 5
    frequency:    1.1035230576
  - # 6
    frequency:    2.9508220364
  - # 7
    frequency:    3.1231817128
  - # 8
    frequency:    3.6637719245
  - # 9
    frequency:    3.9068868775
  - # 10
    frequency:    4.5297900098
  - # 11
    frequency:    5.1832803760
  - # 12
    frequency:    5.3255624923
  - # 13
    frequency:    7.3906946964
  - # 14
    frequency:    8.3847884147
  - # 15
    frequency:   15.8866397467
  - # 16
    frequency:   17.8079548977
  - # 17
    frequency:   17.9069834156
  - # 18
    frequency:   33.9488262480

- q-position: [    0.0808081,    0.0000000,    0.0000000 ]
  distance:    0.0279398
  band:
  - # 1
    frequency:   -4.8242030862
  - # 2
    frequency:   -4.6694043091
  - # 3
    frequency:    0.3476726672
  - # 4
    frequency:    0.6701608081
  - # 5
    frequency:    1.1743521004
  - # 6
    frequency:    2.9601668700
  - # 7
    frequency:    3.1530416757
  - # 8
    frequency:    3.6510290155
  - # 9
    frequency:    3.9169280540
  - # 10
    frequency:    4.5444609518
  - # 11
    frequency:    5.1881593326
  - # 12
    frequency:    5.3490713772
  - # 13
    frequency:    7.3822987628
  - # 14
    frequency:    8.3722347474
  - # 15
    frequency:   15.8784722765
  - # 16
    frequency:   17.7851988562
  - # 17
    frequency:   17.8968605769
  - # 18
    frequency:   33.9427554907

- q-position: [    0.0858586,    0.0000000,    0.0000000 ]
  distance:    0.0296860
  band:
  - # 1
    frequency:   -4.8235772068
  - # 2
    frequency:   -4.6463944688
  - # 3
    frequency:    0.3880547549
  - # 4
    frequency:    0.7112919908
  - # 5
    frequency:    1.2445625160
  - # 6
    frequency:    2.9699302113
  - # 7
    frequency:    3.1838195618
  - # 8
    frequency:    3.6393043072
  - # 9
    frequency:    3.9274631097
  - # 10
    frequency:    4.5591238574
  - # 11
    frequency:    5.1933690333
  - # 12
    frequency:    5.3738184708
  - # 13
    frequency:    7.3734149520
  - # 14
    frequency:    8.3589932631
  - # 15
    frequency:   15.8698732783
  - # 16
    frequency:   17.7613425444
  - # 17
    frequency:   17.8861923122
  - # 18
    frequency:   33.9363511589

- q-position: [    0.0909091,    0.0000000,    0.0000000 ]
  distance:    0.0314322
  band:
  - # 1
    frequency:   -4.8235704181
  - # 2
    frequency:   -4.6221798685
  - # 3
    frequency:    0.4299085992
  - # 4
    frequency:    0.7523153902
  - # 5
    frequency:    1.3140840151
  - # 6
    frequency:    2.9800855879
  - # 7
    frequency:    3.2153219943
  - # 8
    frequency:    3.6288059505
  - # 9
    frequency:    3.9384622734
  - # 10
    frequency:    4.5737597546
  - # 11
    frequency:    5.1989101966
  - # 12
    frequency:    5.3997464014
  - # 13
    frequency:    7.3640547548
  - # 14
    frequency:    8.3450865825
  - # 15
    frequency:   15.8608603040
  - # 16
    frequency:   17.7364524608
  - # 17
    frequency:   17.8749993582
  - # 18
    frequency:   33.9296236047

- q-position: [    0.0959596,    0.0000000,    0.0000000 ]
  distance:    0.0331785
  band:
  - # 1
    frequency:   -4.8242562546
  - # 2
    frequency:   -4.5967996235
  - # 3
    frequency:    0.4730997428
  - # 4
    frequency:    0.7932324248
  - # 5
    frequency:    1.3828403177
  - # 6
    frequency:    2.9906069384
  - # 7
    frequency:    3.2473257691
  - # 8
    frequency:    3.6197624176
  - # 9
    frequency:    3.9498938626
  - # 10
    frequency:    4.5883581300
  - # 11
    frequency:    5.2047829072
  - # 12
    frequency:    5.4267959049
  - # 13
    frequency:    7.3542307372
  - # 14
    frequency:    8.3305385867
  - # 15
    frequency:   15.8514516925
  - # 16
    frequency:   17.7105984978
  - # 17
    frequency:   17.8633038188
  - # 18
    frequency:   33.9225836474

- q-position: [    0.1010101,    0.0000000,    0.0000000 ]
  distance:    0.0349247
  band:
  - # 1
    frequency:   -4.8257017459
  - # 2
    frequency:   -4.5702964400
  - # 3
    frequency:    0.5174939340
  - # 4
    frequency:    0.8340453851
  - # 5
    frequency:    1.4507494109
  - # 6
    frequency:    3.0014688118
  - # 7
    frequency:    3.2795640207
  - # 8
    frequency:    3.6124370718
  - # 9
    frequency:    3.9617243346
  - # 10
    frequency:    4.6029148424
  - # 11
    frequency:    5.2109865110
  - # 12
    frequency:    5.4549065145
  - # 13
    frequency:    7.3439565859
  - # 14
    frequency:    8.3153743864
  - # 15
    frequency:   15.8416664546
  - # 16
    frequency:   17.6838538702
  - # 17
    frequency:   17.8511291632
  - # 18
    frequency:   33.9152425471

- q-position: [    0.1060606,    0.0000000,    0.0000000 ]
  distance:    0.0366709
  band:
  - # 1
    frequency:   -4.8279664025
  - # 2
    frequency:   -4.5427167542
  - # 3
    frequency:    0.5629578792
  - # 4
    frequency:    0.8747573177
  - # 5
    frequency:    1.5177241192
  - # 6
    frequency:    3.0126465450
  - # 7
    frequency:    3.3117056600
  - # 8
    frequency:    3.6071491294
  - # 9
    frequency:    3.9739183576
  - # 10
    frequency:    4.6174303157
  - # 11
    frequency:    5.2175195127
  - # 12
    frequency:    5.4840171868
  - # 13
    frequency:    7.3332471498
  - # 14
    frequency:    8.2996202871
  - # 15
    frequency:   15.8315241362
  - # 16
    frequency:   17.6562950470
  - # 17
    frequency:   17.8385002182
  - # 18
    frequency:   33.9076119770

- q-position: [    0.1111111,    0.0000000,    0.0000000 ]
  distance:    0.0384172
  band:
  - # 1
    frequency:   -4.8311014049
  - # 2
    frequency:   -4.5141108597
  - # 3
    frequency:    0.6093599899
  - # 4
    frequency:    0.9153718782
  - # 5
    frequency:    1.5836730233
  - # 6
    frequency:    3.0241164170
  - # 7
    frequency:    3.3433268857
  - # 8
    frequency:    3.6043022288
  - # 9
    frequency:    3.9864389049
  - # 10
    frequency:    4.6319080094
  - # 11
    frequency:    5.2243794770
  - # 12
    frequency:    5.5140668452
  - # 13
    frequency:    7.3221184750
  - # 14
    frequency:    8.2833037489
  - # 15
    frequency:   15.8210446595
  - # 16
    frequency:   17.6280016879
  - # 17
    frequency:   17.8254431538
  - # 18
    frequency:   33.8997039943

- q-position: [    0.1161616,    0.0000000,    0.0000000 ]
  distance:    0.0401634
  band:
  - # 1
    frequency:   -4.8351490242
  - # 2
    frequency:   -4.4845330213
  - # 3
    frequency:    0.6565711142
  - # 4
    frequency:    0.9558931527
  - # 5
    frequency:    1.6485017518
  - # 6
    frequency:    3.0358557786
  - # 7
    frequency:    3.3738783578
  - # 8
    frequency:    3.6044170371
  - # 9
    frequency:    3.9992473713
  - # 10
    frequency:    4.6463531551
  - # 11
    frequency:    5.2315629360
  - # 12
    frequency:    5.5449948316
  - # 13
    frequency:    7.3105878329
  - # 14
    frequency:    8.2664533422
  - # 15
    frequency:   15.8102481402
  - # 16
    frequency:   17.5990565827
  - # 17
    frequency:   17.8119854616
  - # 18
    frequency:   33.8915310109

- q-position: [    0.1212121,    0.0000000,    0.0000000 ]
  distance:    0.0419097
  band:
  - # 1
    frequency:   -4.8401422982
  - # 2
    frequency:   -4.4540415727
  - # 3
    frequency:    0.7044652402
  - # 4
    frequency:    0.9963254505
  - # 5
    frequency:    1.7121146550
  - # 6
    frequency:    3.0478431574
  - # 7
    frequency:    3.4026672438
  - # 8
    frequency:    3.6081487092
  - # 9
    frequency:    4.0123037127
  - # 10
    frequency:    4.6607717374
  - # 11
    frequency:    5.2390653051
  - # 12
    frequency:    5.5767412635
  - # 13
    frequency:    7.2986737392
  - # 14
    frequency:    8.2490986970
  - # 15
    frequency:   15.7991546822
  - # 16
    frequency:   17.5695455923
  - # 17
    frequency:   17.7981559267
  - # 18
    frequency:   33.8831057627

- q-position: [    0.1262626,    0.0000000,    0.0000000 ]
  distance:    0.0436559
  band:
  - # 1
    frequency:   -4.8461049707
  - # 2
    frequency:   -4.4226989966
  - # 3
    frequency:    0.7529201573
  - # 4
    frequency:    1.0366730673
  - # 5
    frequency:    1.7744168455
  - # 6
    frequency:    3.0600583379
  - # 7
    frequency:    3.4289059726
  - # 8
    frequency:    3.6162373906
  - # 9
    frequency:    4.0255666097
  - # 10
    frequency:    4.6751696955
  - # 11
    frequency:    5.2468808093
  - # 12
    frequency:    5.6092473027
  - # 13
    frequency:    7.2863959616
  - # 14
    frequency:    8.2312704475
  - # 15
    frequency:   15.7877841505
  - # 16
    frequency:   17.5395575903
  - # 17
    frequency:   17.7839845905
  - # 18
    frequency:   33.8744412792

- q-position: [    0.1313131,    0.0000000,    0.0000000 ]
  distance:    0.0454021
  band:
  - # 1
    frequency:   -4.8530516969
  - # 2
    frequency:   -4.3905719841
  - # 3
    frequency:    0.8018180613
  - # 4
    frequency:    1.0769400224
  - # 5
    frequency:    1.8353165698
  - # 6
    frequency:    3.0724824170
  - # 7
    frequency:    3.4519025112
  - # 8
    frequency:    3.6293169940
  - # 9
    frequency:    4.0389936521
  - # 10
    frequency:    4.6895523126
  - # 11
    frequency:    5.2550024210
  - # 12
    frequency:    5.6424553438
  - # 13
    frequency:    7.2737755154
  - # 14
    frequency:    8.2130001713
  - # 15
    frequency:   15.7761559237
  - # 16
    frequency:   17.5091844025
  - # 17
    frequency:   17.7695027055
  - # 18
    frequency:   33.8655508511

- q-position: [    0.1363636,    0.0000000,    0.0000000 ]
  distance:    0.0471484
  band:
  - # 1
    frequency:   -4.8609885002
  - # 2
    frequency:   -4.3577314708
  - # 3
    frequency:    0.8510460938
  - # 4
    frequency:    1.1171297724
  - # 5
    frequency:    1.8947278424
  - # 6
    frequency:    3.0850978366
  - # 7
    frequency:    3.4713773056
  - # 8
    frequency:    3.6475971647
  - # 9
    frequency:    4.0525415459
  - # 10
    frequency:    4.7039237669
  - # 11
    frequency:    5.2634218129
  - # 12
    frequency:    5.6763091331
  - # 13
    frequency:    7.2608346440
  - # 14
    frequency:    8.1943203220
  - # 15
    frequency:   15.7642886295
  - # 16
    frequency:   17.4785207396
  - # 17
    frequency:   17.7547426806
  - # 18
    frequency:   33.8564479986

- q-position: [    0.1414141,    0.0000000,    0.0000000 ]
  distance:    0.0488946
  band:
  - # 1
    frequency:   -4.8699134605
  - # 2
    frequency:   -4.3242526474
  - # 3
    frequency:    0.9004968082
  - # 4
    frequency:    1.1572449043
  - # 5
    frequency:    1.9525732446
  - # 6
    frequency:    3.0978883928
  - # 7
    frequency:    3.4876686294
  - # 8
    frequency:    3.6706567726
  - # 9
    frequency:    4.0661663386
  - # 10
    frequency:    4.7182868120
  - # 11
    frequency:    5.2721293255
  - # 12
    frequency:    5.7107538316
  - # 13
    frequency:    7.2475967836
  - # 14
    frequency:    8.1752641574
  - # 15
    frequency:   15.7521998671
  - # 16
    frequency:   17.4476641202
  - # 17
    frequency:   17.7397380182
  - # 18
    frequency:   33.8471464394

- q-position: [    0.1464646,    0.0000000,    0.0000000 ]
  distance:    0.0506408
  band:
  - # 1
    frequency:   -4.8798176018
  - # 2
    frequency:   -4.2902149397
  - # 3
    frequency:    0.9500685597
  - # 4
    frequency:    1.1972868113
  - # 5
    frequency:    2.0087867599
  - # 6
    frequency:    3.1108392263
  - # 7
    frequency:    3.5015872232
  - # 8
    frequency:    3.6975881514
  - # 9
    frequency:    4.0798236626
  - # 10
    frequency:    4.7326425610
  - # 11
    frequency:    5.2811139510
  - # 12
    frequency:    5.7457360316
  - # 13
    frequency:    7.2340865090
  - # 14
    frequency:    8.1558656611
  - # 15
    frequency:   15.7399059210
  - # 16
    frequency:   17.4167147782
  - # 17
    frequency:   17.7245232405
  - # 18
    frequency:   33.8376600554

- q-position: [    0.1515152,    0.0000000,    0.0000000 ]
  distance:    0.0523871
  band:
  - # 1
    frequency:   -4.8906859420
  - # 2
    frequency:   -4.2557019562
  - # 3
    frequency:    0.9996658216
  - # 4
    frequency:    1.2372553550
  - # 5
    frequency:    2.0633164908
  - # 6
    frequency:    3.1239367912
  - # 7
    frequency:    3.5140593681
  - # 8
    frequency:    3.7273530662
  - # 9
    frequency:    4.0934689931
  - # 10
    frequency:    4.7469903497
  - # 11
    frequency:    5.2903633356
  - # 12
    frequency:    5.7812037395
  - # 13
    frequency:    7.2203294612
  - # 14
    frequency:    8.1361594587
  - # 15
    frequency:   15.7274214750
  - # 16
    frequency:   17.3857755471
  - # 17
    frequency:   17.7091338075
  - # 18
    frequency:   33.8280028604

- q-position: [    0.1565657,    0.0000000,    0.0000000 ]
  distance:    0.0541333
  band:
  - # 1
    frequency:   -4.9024986625
  - # 2
    frequency:   -4.2208013964
  - # 3
    frequency:    1.0491994336
  - # 4
    frequency:    1.2771485176
  - # 5
    frequency:    2.1161270824
  - # 6
    frequency:    3.1371688086
  - # 7
    frequency:    3.5258640876
  - # 8
    frequency:    3.7590448583
  - # 9
    frequency:    4.1070579188
  - # 10
    frequency:    4.7613276604
  - # 11
    frequency:    5.2998637981
  - # 12
    frequency:    5.8171063323
  - # 13
    frequency:    7.2063522520
  - # 14
    frequency:    8.1161807287
  - # 15
    frequency:   15.7147593318
  - # 16
    frequency:   17.3549517148
  - # 17
    frequency:   17.6936060247
  - # 18
    frequency:   33.8181889676

- q-position: [    0.1616162,    0.0000000,    0.0000000 ]
  distance:    0.0558795
  band:
  - # 1
    frequency:   -4.9152323538
  - # 2
    frequency:   -4.1856049181
  - # 3
    frequency:    1.0985867910
  - # 4
    frequency:    1.3169620495
  - # 5
    frequency:    2.1672016728
  - # 6
    frequency:    3.1505242036
  - # 7
    frequency:    3.5375523240
  - # 8
    frequency:    3.7919690670
  - # 9
    frequency:    4.1205464214
  - # 10
    frequency:    4.7756500905
  - # 11
    frequency:    5.3096003676
  - # 12
    frequency:    5.8533944953
  - # 13
    frequency:    7.1921823482
  - # 14
    frequency:    8.0959651079
  - # 15
    frequency:   15.7019301501
  - # 16
    frequency:   17.3243508393
  - # 17
    frequency:   17.6779769412
  - # 18
    frequency:   33.8082325568

- q-position: [    0.1666667,    0.0000000,    0.0000000 ]
  distance:    0.0576258
  band:
  - # 1
    frequency:   -4.9288612929
  - # 2
    frequency:   -4.1502079561
  - # 3
    frequency:    1.1477519866
  - # 4
    frequency:    1.3566891150
  - # 5
    frequency:    2.2165432040
  - # 6
    frequency:    3.1639930285
  - # 7
    frequency:    3.5494692465
  - # 8
    frequency:    3.8256215079
  - # 9
    frequency:    4.1338911624
  - # 10
    frequency:    4.7899513585
  - # 11
    frequency:    5.3195568379
  - # 12
    frequency:    5.8900201470
  - # 13
    frequency:    7.1778479329
  - # 14
    frequency:    8.0755485918
  - # 15
    frequency:   15.6889422090
  - # 16
    frequency:   17.2940825159
  - # 17
    frequency:   17.6622842390
  - # 18
    frequency:   33.7981478423

- q-position: [    0.1717172,    0.0000000,    0.0000000 ]
  distance:    0.0593720
  band:
  - # 1
    frequency:   -4.9433587102
  - # 2
    frequency:   -4.1147094879
  - # 3
    frequency:    1.1966259163
  - # 4
    frequency:    1.3963199431
  - # 5
    frequency:    2.2641749540
  - # 6
    frequency:    3.1775663750
  - # 7
    frequency:    3.5618035515
  - # 8
    frequency:    3.8596400513
  - # 9
    frequency:    4.1470497726
  - # 10
    frequency:    4.8042233398
  - # 11
    frequency:    5.3297158388
  - # 12
    frequency:    5.9269363547
  - # 13
    frequency:    7.1633777437
  - # 14
    frequency:    8.0549674299
  - # 15
    frequency:   15.6758012128
  - # 16
    frequency:   17.2642580853
  - # 17
    frequency:   17.6465661129
  - # 18
    frequency:   33.7879490411

- q-position: [    0.1767677,    0.0000000,    0.0000000 ]
  distance:    0.0611182
  band:
  - # 1
    frequency:   -4.9586980070
  - # 2
    frequency:   -4.0792117417
  - # 3
    frequency:    1.2451463587
  - # 4
    frequency:    1.4358414882
  - # 5
    frequency:    2.3101402086
  - # 6
    frequency:    3.1912362757
  - # 7
    frequency:    3.5746320294
  - # 8
    frequency:    3.8937618867
  - # 9
    frequency:    4.1599811418
  - # 10
    frequency:    4.8184561354
  - # 11
    frequency:    5.3400589225
  - # 12
    frequency:    5.9640972435
  - # 13
    frequency:    7.1488008901
  - # 14