nqpoint: 300    
npath: 3      
segment_nqpoint:
- 100
- 100
- 100
labels:
- [ 'G', 'M' ]
- [ 'M', 'K' ]
- [ 'K', 'G' ]
reciprocal_lattice:
- [   0.29911641,   0.17269494,   0.00000000 ] # a*
- [   0.00000000,   0.34538987,   0.00000000 ] # b*
- [   0.00000000,   0.00000000,   0.03891061 ] # c*
natom: 7      
lattice:
- [     3.343180051498769,     0.000000000000000,     0.000000000000000 ] # a
- [    -1.671590025749384,     2.895278853994736,     0.000000000000000 ] # b
- [     0.000000000000000,     0.000000000000000,    25.699931805242720 ] # c
points:
- symbol: C # 1
  coordinates: [  0.000000000000000,  0.000000000000000,  0.442586192461838 ]
  mass: 12.010700
- symbol: C # 2
  coordinates: [  0.333332985432215,  0.666666983183674,  0.589185724295598 ]
  mass: 12.010700
- symbol: N # 3
  coordinates: [  0.333332985432215,  0.666666983183674,  0.540781215471608 ]
  mass: 14.006700
- symbol: O # 4
  coordinates: [  0.666666984744047,  0.333332985985145,  0.350195481770268 ]
  mass: 15.999400
- symbol: S # 5
  coordinates: [  0.333332985432215,  0.666666983183674,  0.649804518229732 ]
  mass: 32.065000
- symbol: Sc # 6
  coordinates: [  0.333332985432215,  0.666666983183674,  0.377021353918489 ]
  mass: 44.955912
- symbol: Sc # 7
  coordinates: [  0.666666984744047,  0.333332985985145,  0.488658860958880 ]
  mass: 44.955912

phonon:
- q-position: [    0.0000000,    0.0000000,    0.0000000 ]
  distance:    0.0000000
  band:
  - # 1
    frequency:   -0.0000053959
  - # 2
    frequency:    0.0000011139
  - # 3
    frequency:    0.0000051835
  - # 4
    frequency:    0.6949312865
  - # 5
    frequency:    0.6949312865
  - # 6
    frequency:    2.5971728159
  - # 7
    frequency:    2.5971728159
  - # 8
    frequency:    3.6477387912
  - # 9
    frequency:    6.6729511094
  - # 10
    frequency:    6.6729511094
  - # 11
    frequency:    8.1909642534
  - # 12
    frequency:    9.3252212460
  - # 13
    frequency:    9.3252212460
  - # 14
    frequency:   12.8006738854
  - # 15
    frequency:   12.8006738854
  - # 16
    frequency:   14.0694028188
  - # 17
    frequency:   14.3753306479
  - # 18
    frequency:   14.3753306479
  - # 19
    frequency:   16.2706747218
  - # 20
    frequency:   27.1173553046
  - # 21
    frequency:   58.1699176476

- q-position: [    0.0050505,    0.0000000,    0.0000000 ]
  distance:    0.0017444
  band:
  - # 1
    frequency:   -0.0697460270
  - # 2
    frequency:   -0.0367408075
  - # 3
    frequency:    0.0959035689
  - # 4
    frequency:    0.6955181827
  - # 5
    frequency:    0.7003463949
  - # 6
    frequency:    2.5989715560
  - # 7
    frequency:    2.6007436923
  - # 8
    frequency:    3.6485945848
  - # 9
    frequency:    6.6733307776
  - # 10
    frequency:    6.6733764648
  - # 11
    frequency:    8.1872717026
  - # 12
    frequency:    9.3248896806
  - # 13
    frequency:    9.3286592184
  - # 14
    frequency:   12.7993933784
  - # 15
    frequency:   12.8005806303
  - # 16
    frequency:   14.0696844821
  - # 17
    frequency:   14.3754077293
  - # 18
    frequency:   14.3756513728
  - # 19
    frequency:   16.2705359163
  - # 20
    frequency:   27.1172849746
  - # 21
    frequency:   58.1692648491

- q-position: [    0.0101010,    0.0000000,    0.0000000 ]
  distance:    0.0034888
  band:
  - # 1
    frequency:   -0.0930918182
  - # 2
    frequency:   -0.0739567995
  - # 3
    frequency:    0.1620692595
  - # 4
    frequency:    0.6973660430
  - # 5
    frequency:    0.7161949547
  - # 6
    frequency:    2.6043416214
  - # 7
    frequency:    2.6114118051
  - # 8
    frequency:    3.6511592715
  - # 9
    frequency:    6.6744639172
  - # 10
    frequency:    6.6746504274
  - # 11
    frequency:    8.1763479754
  - # 12
    frequency:    9.3239009993
  - # 13
    frequency:    9.3388275625
  - # 14
    frequency:   12.7955638726
  - # 15
    frequency:   12.8003004607
  - # 16
    frequency:   14.0705222456
  - # 17
    frequency:   14.3756389410
  - # 18
    frequency:   14.3766131597
  - # 19
    frequency:   16.2701218113
  - # 20
    frequency:   27.1170739135
  - # 21
    frequency:   58.1673073167

- q-position: [    0.0151515,    0.0000000,    0.0000000 ]
  distance:    0.0052332
  band:
  - # 1
    frequency:   -0.1120283901
  - # 2
    frequency:   -0.1108228916
  - # 3
    frequency:    0.2296842100
  - # 4
    frequency:    0.7007179102
  - # 5
    frequency:    0.7414592675
  - # 6
    frequency:    2.6132059440
  - # 7
    frequency:    2.6290457506
  - # 8
    frequency:    3.6554249282
  - # 9
    frequency:    6.6763328710
  - # 10
    frequency:    6.6767666897
  - # 11
    frequency:    8.1586287881
  - # 12
    frequency:    9.3222731807
  - # 13
    frequency:    9.3553156417
  - # 14
    frequency:   12.7892211203
  - # 15
    frequency:   12.7998321788
  - # 16
    frequency:   14.0718947267
  - # 17
    frequency:   14.3760241842
  - # 18
    frequency:   14.3782148476
  - # 19
    frequency:   16.2694393154
  - # 20
    frequency:   27.1167219097
  - # 21
    frequency:   58.1640476374

- q-position: [    0.0202020,    0.0000000,    0.0000000 ]
  distance:    0.0069776
  band:
  - # 1
    frequency:   -0.1511667047
  - # 2
    frequency:   -0.1231612666
  - # 3
    frequency:    0.2981692284
  - # 4
    frequency:    0.7059207197
  - # 5
    frequency:    0.7748720912
  - # 6
    frequency:    2.6254405599
  - # 7
    frequency:    2.6534334292
  - # 8
    frequency:    3.6613788850
  - # 9
    frequency:    6.6789079981
  - # 10
    frequency:    6.6797147512
  - # 11
    frequency:    8.1347637121
  - # 12
    frequency:    9.3200359729
  - # 13
    frequency:    9.3775157730
  - # 14
    frequency:   12.7804237560
  - # 15
    frequency:   12.7991738356
  - # 16
    frequency:   14.0737672493
  - # 17
    frequency:   14.3765632914
  - # 18
    frequency:   14.3804545070
  - # 19
    frequency:   16.2684998593
  - # 20
    frequency:   27.1162286160
  - # 21
    frequency:   58.1594901167

- q-position: [    0.0252525,    0.0000000,    0.0000000 ]
  distance:    0.0087220
  band:
  - # 1
    frequency:   -0.1913762495
  - # 2
    frequency:   -0.1282451589
  - # 3
    frequency:    0.3667339861
  - # 4
    frequency:    0.7133509183
  - # 5
    frequency:    0.8152307559
  - # 6
    frequency:    2.6408807797
  - # 7
    frequency:    2.6842915968
  - # 8
    frequency:    3.6690045343
  - # 9
    frequency:    6.6821473353
  - # 10
    frequency:    6.6834799375
  - # 11
    frequency:    8.1055304271
  - # 12
    frequency:    9.3172305704
  - # 13
    frequency:    9.4047091200
  - # 14
    frequency:   12.7692519634
  - # 15
    frequency:   12.7983228004
  - # 16
    frequency:   14.0760931889
  - # 17
    frequency:   14.3772560217
  - # 18
    frequency:   14.3833294535
  - # 19
    frequency:   16.2673192682
  - # 20
    frequency:   27.1155935575
  - # 21
    frequency:   58.1536407689

- q-position: [    0.0303030,    0.0000000,    0.0000000 ]
  distance:    0.0104664
  band:
  - # 1
    frequency:   -0.2324629961
  - # 2
    frequency:   -0.1237346588
  - # 3
    frequency:    0.4349113131
  - # 4
    frequency:    0.7233364174
  - # 5
    frequency:    0.8615382944
  - # 6
    frequency:    2.6593288347
  - # 7
    frequency:    2.7212777560
  - # 8
    frequency:    3.6782824808
  - # 9
    frequency:    6.6859960821
  - # 10
    frequency:    6.6880434323
  - # 11
    frequency:    8.0717552868
  - # 12
    frequency:    9.3139091651
  - # 13
    frequency:    9.4361453638
  - # 14
    frequency:   12.7558057841
  - # 15
    frequency:   12.7972758550
  - # 16
    frequency:   14.0788156802
  - # 17
    frequency:   14.3781020547
  - # 18
    frequency:   14.3868362729
  - # 19
    frequency:   16.2659175834
  - # 20
    frequency:   27.1148161426
  - # 21
    frequency:   58.1465073039

- q-position: [    0.0353535,    0.0000000,    0.0000000 ]
  distance:    0.0122108
  band:
  - # 1
    frequency:   -0.2740823057
  - # 2
    frequency:   -0.1055050160
  - # 3
    frequency:    0.5024634413
  - # 4
    frequency:    0.7360962395
  - # 5
    frequency:    0.9130066308
  - # 6
    frequency:    2.6805622528
  - # 7
    frequency:    2.7640031888
  - # 8
    frequency:    3.6891920535
  - # 9
    frequency:    6.6903858689
  - # 10
    frequency:    6.6933823246
  - # 11
    frequency:    8.0342545141
  - # 12
    frequency:    9.3101343765
  - # 13
    frequency:    9.4711018644
  - # 14
    frequency:   12.7402032086
  - # 15
    frequency:   12.7960293082
  - # 16
    frequency:   14.0818695446
  - # 17
    frequency:   14.3791009826
  - # 18
    frequency:   14.3909708652
  - # 19
    frequency:   16.2643188315
  - # 20
    frequency:   27.1138956773
  - # 21
    frequency:   58.1380991099

- q-position: [    0.0404040,    0.0000000,    0.0000000 ]
  distance:    0.0139551
  band:
  - # 1
    frequency:   -0.3158081312
  - # 2
    frequency:   -0.0587498772
  - # 3
    frequency:    0.5693090429
  - # 4
    frequency:    0.7517125102
  - # 5
    frequency:    0.9689992045
  - # 6
    frequency:    2.7043422630
  - # 7
    frequency:    2.8120459288
  - # 8
    frequency:    3.7017132196
  - # 9
    frequency:    6.6952337613
  - # 10
    frequency:    6.6994696757
  - # 11
    frequency:    7.9937992104
  - # 12
    frequency:    9.3059785643
  - # 13
    frequency:    9.5089191658
  - # 14
    frequency:   12.7225781946
  - # 15
    frequency:   12.7945791287
  - # 16
    frequency:   14.0851832933
  - # 17
    frequency:   14.3802523001
  - # 18
    frequency:   14.3957285127
  - # 19
    frequency:   16.2625507392
  - # 20
    frequency:   27.1128313820
  - # 21
    frequency:   58.1284272331

- q-position: [    0.0454545,    0.0000000,    0.0000000 ]
  distance:    0.0156995
  band:
  - # 1
    frequency:   -0.3572006321
  - # 2
    frequency:    0.0897928978
  - # 3
    frequency:    0.6354771350
  - # 4
    frequency:    0.7701359847
  - # 5
    frequency:    1.0289687115
  - # 6
    frequency:    2.7304216632
  - # 7
    frequency:    2.8649626008
  - # 8
    frequency:    3.7158289589
  - # 9
    frequency:    6.7004409425
  - # 10
    frequency:    6.7062746132
  - # 11
    frequency:    7.9511003208
  - # 12
    frequency:    9.3015230297
  - # 13
    frequency:    9.5490167484
  - # 14
    frequency:   12.7030787418
  - # 15
    frequency:   12.7929210899
  - # 16
    frequency:   14.0886810803
  - # 17
    frequency:   14.3815553938
  - # 18
    frequency:   14.4011039765
  - # 19
    frequency:   16.2606443953
  - # 20
    frequency:   27.1116224119
  - # 21
    frequency:   58.1175043533

- q-position: [    0.0505051,    0.0000000,    0.0000000 ]
  distance:    0.0174439
  band:
  - # 1
    frequency:   -0.3978556539
  - # 2
    frequency:    0.1538530156
  - # 3
    frequency:    0.7010691882
  - # 4
    frequency:    0.7912144861
  - # 5
    frequency:    1.0924147496
  - # 6
    frequency:    2.7585517665
  - # 7
    frequency:    2.9222982782
  - # 8
    frequency:    3.7315282014
  - # 9
    frequency:    6.7058910242
  - # 10
    frequency:    6.7137624547
  - # 11
    frequency:    7.9068073389
  - # 12
    frequency:    9.2968571134
  - # 13
    frequency:    9.5908952864
  - # 14
    frequency:   12.6818651272
  - # 15
    frequency:   12.7910509235
  - # 16
    frequency:   14.0922845056
  - # 17
    frequency:   14.3830095288
  - # 18
    frequency:   14.4070916240
  - # 19
    frequency:   16.2586338579
  - # 20
    frequency:   27.1102678792
  - # 21
    frequency:   58.1053447566

- q-position: [    0.0555556,    0.0000000,    0.0000000 ]
  distance:    0.0191883
  band:
  - # 1
    frequency:   -0.4374307360
  - # 2
    frequency:    0.2088066134
  - # 3
    frequency:    0.7662234976
  - # 4
    frequency:    0.8147297050
  - # 5
    frequency:    1.1588649394
  - # 6
    frequency:    2.7884882173
  - # 7
    frequency:    2.9835937445
  - # 8
    frequency:    3.7488094795
  - # 9
    frequency:    6.7114479443
  - # 10
    frequency:    6.7218948703
  - # 11
    frequency:    7.8615150698
  - # 12
    frequency:    9.2920771972
  - # 13
    frequency:    9.6341311268
  - # 14
    frequency:   12.6591083720
  - # 15
    frequency:   12.7889644759
  - # 16
    frequency:   14.0959142053
  - # 17
    frequency:   14.3846138349
  - # 18
    frequency:   14.4136855834
  - # 19
    frequency:   16.2565557086
  - # 20
    frequency:   27.1087668782
  - # 21
    frequency:   58.0919643039

- q-position: [    0.0606061,    0.0000000,    0.0000000 ]
  distance:    0.0209327
  band:
  - # 1
    frequency:   -0.4756511872
  - # 2
    frequency:    0.2609209107
  - # 3
    frequency:    0.8310837534
  - # 4
    frequency:    0.8404310899
  - # 5
    frequency:    1.2278727373
  - # 6
    frequency:    2.8199956211
  - # 7
    frequency:    3.0483897346
  - # 8
    frequency:    3.7676855345
  - # 9
    frequency:    6.7169534506
  - # 10
    frequency:    6.7306300866
  - # 11
    frequency:    7.8157743262
  - # 12
    frequency:    9.2872856207
  - # 13
    frequency:    9.6783671099
  - # 14
    frequency:   12.6349889824
  - # 15
    frequency:   12.7866578634
  - # 16
    frequency:   14.0994911988
  - # 17
    frequency:   14.3863672910
  - # 18
    frequency:   14.4208799222
  - # 19
    frequency:   16.2544485546
  - # 20
    frequency:   27.1071185130
  - # 21
    frequency:   58.0773803971

- q-position: [    0.0656566,    0.0000000,    0.0000000 ]
  distance:    0.0226771
  band:
  - # 1
    frequency:   -0.5123033379
  - # 2
    frequency:    0.3120236051
  - # 3
    frequency:    0.8680614060
  - # 4
    frequency:    0.8957755183
  - # 5
    frequency:    1.2990228598
  - # 6
    frequency:    2.8528510397
  - # 7
    frequency:    3.1162278278
  - # 8
    frequency:    3.7881892429
  - # 9
    frequency:    6.7222242467
  - # 10
    frequency:    6.7399231395
  - # 11
    frequency:    7.7701039325
  - # 12
    frequency:    9.2825895219
  - # 13
    frequency:    9.7233022830
  - # 14
    frequency:   12.6096959739
  - # 15
    frequency:   12.7841276206
  - # 16
    frequency:   14.1029379952
  - # 17
    frequency:   14.3882687090
  - # 18
    frequency:   14.4286688352
  - # 19
    frequency:   16.2523524827
  - # 20
    frequency:   27.1053219266
  - # 21
    frequency:   58.0616119419

- q-position: [    0.0707071,    0.0000000,    0.0000000 ]
  distance:    0.0244215
  band:
  - # 1
    frequency:   -0.5472215760
  - # 2
    frequency:    0.3629272676
  - # 3
    frequency:    0.8973732105
  - # 4
    frequency:    0.9603924882
  - # 5
    frequency:    1.3719374602
  - # 6
    frequency:    2.8868464702
  - # 7
    frequency:    3.1866476212
  - # 8
    frequency:    3.8103814132
  - # 9
    frequency:    6.7270490126
  - # 10
    frequency:    6.7497261768
  - # 11
    frequency:    7.7250024504
  - # 12
    frequency:    9.2780996173
  - # 13
    frequency:    9.7686818910
  - # 14
    frequency:   12.5834261694
  - # 15
    frequency:   12.7813708384
  - # 16
    frequency:   14.1061794843
  - # 17
    frequency:   14.3903167168
  - # 18
    frequency:   14.4370468298
  - # 19
    frequency:   16.2503084677
  - # 20
    frequency:   27.1033763328
  - # 21
    frequency:   58.0446793076

- q-position: [    0.0757576,    0.0000000,    0.0000000 ]
  distance:    0.0261659
  band:
  - # 1
    frequency:   -0.5802736577
  - # 2
    frequency:    0.4140773030
  - # 3
    frequency:    0.9281378763
  - # 4
    frequency:    1.0249917851
  - # 5
    frequency:    1.4462796752
  - # 6
    frequency:    2.9217904595
  - # 7
    frequency:    3.2591796338
  - # 8
    frequency:    3.8343612653
  - # 9
    frequency:    6.7311857457
  - # 10
    frequency:    6.7599888163
  - # 11
    frequency:    7.6809585602
  - # 12
    frequency:    9.2739289333
  - # 13
    frequency:    9.8142882788
  - # 14
    frequency:   12.5563837409
  - # 15
    frequency:   12.7783852874
  - # 16
    frequency:   14.1091436520
  - # 17
    frequency:   14.3925097405
  - # 18
    frequency:   14.4460088906
  - # 19
    frequency:   16.2483577438
  - # 20
    frequency:   27.1012810484
  - # 21
    frequency:   58.0266042839

- q-position: [    0.0808081,    0.0000000,    0.0000000 ]
  distance:    0.0279103
  band:
  - # 1
    frequency:   -0.6113467065
  - # 2
    frequency:    0.4657458545
  - # 3
    frequency:    0.9601494109
  - # 4
    frequency:    1.0895958522
  - # 5
    frequency:    1.5217538734
  - # 6
    frequency:    2.9575090071
  - # 7
    frequency:    3.3333330825
  - # 8
    frequency:    3.8602807300
  - # 9
    frequency:    6.7343602134
  - # 10
    frequency:    6.7706585564
  - # 11
    frequency:    7.6384591222
  - # 12
    frequency:    9.2701915075
  - # 13
    frequency:    9.8599329182
  - # 14
    frequency:   12.5287799524
  - # 15
    frequency:   12.7751695238
  - # 16
    frequency:   14.1117621695
  - # 17
    frequency:   14.3948459872
  - # 18
    frequency:   14.4555506059
  - # 19
    frequency:   16.2465411447
  - # 20
    frequency:   27.0990355279
  - # 21
    frequency:   58.0074100359

- q-position: [    0.0858586,    0.0000000,    0.0000000 ]
  distance:    0.0296547
  band:
  - # 1
    frequency:   -0.6403348725
  - # 2
    frequency:    0.5181036330
  - # 3
    frequency:    0.9932250477
  - # 4
    frequency:    1.1541981455
  - # 5
    frequency:    1.5981033316
  - # 6
    frequency:    2.9938459041
  - # 7
    frequency:    3.4085773729
  - # 8
    frequency:    3.8883639929
  - # 9
    frequency:    6.7362667775
  - # 10
    frequency:    6.7816812388
  - # 11
    frequency:    7.5979936970
  - # 12
    frequency:    9.2670010761
  - # 13
    frequency:    9.9054495571
  - # 14
    frequency:   12.5008330542
  - # 15
    frequency:   12.7717229742
  - # 16
    frequency:   14.1139709021
  - # 17
    frequency:   14.3973234274
  - # 18
    frequency:   14.4656682403
  - # 19
    frequency:   16.2448984245
  - # 20
    frequency:   27.0966393982
  - # 21
    frequency:   57.9871210556

- q-position: [    0.0909091,    0.0000000,    0.0000000 ]
  distance:    0.0313991
  band:
  - # 1
    frequency:   -0.6671288100
  - # 2
    frequency:    0.5712505393
  - # 3
    frequency:    1.0272040518
  - # 4
    frequency:    1.2187703087
  - # 5
    frequency:    1.6751064297
  - # 6
    frequency:    3.0306626322
  - # 7
    frequency:    3.4843162800
  - # 8
    frequency:    3.9189335229
  - # 9
    frequency:    6.7365733633
  - # 10
    frequency:    6.7930015585
  - # 11
    frequency:    7.5600538997
  - # 12
    frequency:    9.2644697689
  - # 13
    frequency:    9.9506883977
  - # 14
    frequency:   12.4727682676
  - # 15
    frequency:   12.7680459983
  - # 16
    frequency:   14.1157103799
  - # 17
    frequency:   14.3999397787
  - # 18
    frequency:   14.4763587428
  - # 19
    frequency:   16.2434675698
  - # 20
    frequency:   27.0940924944
  - # 21
    frequency:   57.9657631124

- q-position: [    0.0959596,    0.0000000,    0.0000000 ]
  distance:    0.0331435
  band:
  - # 1
    frequency:   -0.6916067365
  - # 2
    frequency:    0.6252305524
  - # 3
    frequency:    1.0619456791
  - # 4
    frequency:    1.2832693137
  - # 5
    frequency:    1.7525722984
  - # 6
    frequency:    3.0678379279
  - # 7
    frequency:    3.5598556124
  - # 8
    frequency:    3.9524419612
  - # 9
    frequency:    6.7349326853
  - # 10
    frequency:    6.8045636127
  - # 11
    frequency:    7.5251256542
  - # 12
    frequency:    9.2627068315
  - # 13
    frequency:    9.9955111911
  - # 14
    frequency:   12.4448177958
  - # 15
    frequency:   12.7641399281
  - # 16
    frequency:   14.1169262591
  - # 17
    frequency:   14.4026924898
  - # 18
    frequency:   14.4876196838
  - # 19
    frequency:   16.2422841175
  - # 20
    frequency:   27.0913948955
  - # 21
    frequency:   57.9433631999

- q-position: [    0.1010101,    0.0000000,    0.0000000 ]
  distance:    0.0348879
  band:
  - # 1
    frequency:   -0.7136266719
  - # 2
    frequency:    0.6800401455
  - # 3
    frequency:    1.0973268497
  - # 4
    frequency:    1.3476437778
  - # 5
    frequency:    1.8303365394
  - # 6
    frequency:    3.1052670975
  - # 7
    frequency:    3.6343715822
  - # 8
    frequency:    3.9895027584
  - # 9
    frequency:    6.7310015859
  - # 10
    frequency:    6.8163114789
  - # 11
    frequency:    7.4936726776
  - # 12
    frequency:    9.2618173989
  - # 13
    frequency:   10.0397871467
  - # 14
    frequency:   12.4172207853
  - # 15
    frequency:   12.7600070824
  - # 16
    frequency:   14.1175697930
  - # 17
    frequency:   14.4055787263
  - # 18
    frequency:   14.4994491233
  - # 19
    frequency:   16.2413804932
  - # 20
    frequency:   27.0885469600
  - # 21
    frequency:   57.9199494827

- q-position: [    0.1060606,    0.0000000,    0.0000000 ]
  distance:    0.0366323
  band:
  - # 1
    frequency:   -0.7330193994
  - # 2
    frequency:    0.7356338655
  - # 3
    frequency:    1.1332398452
  - # 4
    frequency:    1.4118391904
  - # 5
    frequency:    1.9082573554
  - # 6
    frequency:    3.1428611469
  - # 7
    frequency:    3.7069029497
  - # 8
    frequency:    4.0308965520
  - # 9
    frequency:    6.7244689428
  - # 10
    frequency:    6.8281898091
  - # 11
    frequency:    7.4661109127
  - # 12
    frequency:    9.2619013424
  - # 13
    frequency:   10.0833895906
  - # 14
    frequency:   12.3902231530
  - # 15
    frequency:   12.7556507575
  - # 16
    frequency:   14.1175983171
  - # 17
    frequency:   14.4085953589
  - # 18
    frequency:   14.5118454174
  - # 19
    frequency:   16.2407853852
  - # 20
    frequency:   27.0855493607
  - # 21
    frequency:   57.8955512399

- q-position: [    0.1111111,    0.0000000,    0.0000000 ]
  distance:    0.0383767
  band:
  - # 1
    frequency:   -0.7495816442
  - # 2
    frequency:    0.7919285615
  - # 3
    frequency:    1.1695901815
  - # 4
    frequency:    1.4758020852
  - # 5
    frequency:    1.9862122240
  - # 6
    frequency:    3.1805457800
  - # 7
    frequency:    3.7764157592
  - # 8
    frequency:    4.0775044853
  - # 9
    frequency:    6.7150897554
  - # 10
    frequency:    6.8401444246
  - # 11
    frequency:    7.4427764516
  - # 12
    frequency:    9.2630522128
  - # 13
    frequency:   10.1261933403
  - # 14
    frequency:   12.3640771803
  - # 15
    frequency:   12.7510751948
  - # 16
    frequency:   14.1169757412
  - # 17
    frequency:   14.4117389520
  - # 18
    frequency:   14.5248069784
  - # 19
    frequency:   16.2405231711
  - # 20
    frequency:   27.0824031186
  - # 21
    frequency:   57.8701988081

- q-position: [    0.1161616,    0.0000000,    0.0000000 ]
  distance:    0.0401210
  band:
  - # 1
    frequency:   -0.7630689068
  - # 2
    frequency:    0.8488068903
  - # 3
    frequency:    1.2062947225
  - # 4
    frequency:    1.5394833409
  - # 5
    frequency:    2.0640951265
  - # 6
    frequency:    3.2182603049
  - # 7
    frequency:    3.8419984508
  - # 8
    frequency:    4.1301106635
  - # 9
    frequency:    6.7027193368
  - # 10
    frequency:    6.8521228952
  - # 11
    frequency:    7.4238931655
  - # 12
    frequency:    9.2653563026
  - # 13
    frequency:   10.1680728083
  - # 14
    frequency:   12.3390407621
  - # 15
    frequency:   12.7462855264
  - # 16
    frequency:   14.1156730363
  - # 17
    frequency:   14.4150057568
  - # 18
    frequency:   14.5383320036
  - # 19
    frequency:   16.2406134126
  - # 20
    frequency:   27.0791096353
  - # 21
    frequency:   57.8439235224

- q-position: [    0.1212121,    0.0000000,    0.0000000 ]
  distance:    0.0418654
  band:
  - # 1
    frequency:   -0.7731872608
  - # 2
    frequency:    0.9061203984
  - # 3
    frequency:    1.2432800448
  - # 4
    frequency:    1.6028408277
  - # 5
    frequency:    2.1418142843
  - # 6
    frequency:    3.2559564807
  - # 7
    frequency:    3.9031683899
  - # 8
    frequency:    4.1890926638
  - # 9
    frequency:    6.6873388824
  - # 10
    frequency:    6.8640750856
  - # 11
    frequency:    7.4095488897
  - # 12
    frequency:    9.2688918468
  - # 13
    frequency:   10.2089008795
  - # 14
    frequency:   12.3153761809
  - # 15
    frequency:   12.7412877010
  - # 16
    frequency:   14.1136686942
  - # 17
    frequency:   14.4183917061
  - # 18
    frequency:   14.5524181952
  - # 19
    frequency:   16.2410704315
  - # 20
    frequency:   27.0756707234
  - # 21
    frequency:   57.8167576569

- q-position: [    0.1262626,    0.0000000,    0.0000000 ]
  distance:    0.0436098
  band:
  - # 1
    frequency:   -0.7795831926
  - # 2
    frequency:    0.9636923650
  - # 3
    frequency:    1.2804810423
  - # 4
    frequency:    1.6658415919
  - # 5
    frequency:    2.2192903206
  - # 6
    frequency:    3.2935973307
  - # 7
    frequency:    3.9601052703
  - # 8
    frequency:    4.2541845862
  - # 9
    frequency:    6.6690644187
  - # 10
    frequency:    6.8759536511
  - # 11
    frequency:    7.3996882740
  - # 12
    frequency:    9.2737283789
  - # 13
    frequency:   10.2485486406
  - # 14
    frequency:   12.2933482674
  - # 15
    frequency:   12.7360883924
  - # 16
    frequency:   14.1109491412
  - # 17
    frequency:   14.4218924117
  - # 18
    frequency:   14.5670624868
  - # 19
    frequency:   16.2419029809
  - # 20
    frequency:   27.0720886344
  - # 21
    frequency:   57.7887343642

- q-position: [    0.1313131,    0.0000000,    0.0000000 ]
  distance:    0.0453542
  band:
  - # 1
    frequency:   -0.7818301514
  - # 2
    frequency:    1.0213205751
  - # 3
    frequency:    1.3178397469
  - # 4
    frequency:    1.7284637067
  - # 5
    frequency:    2.2964547648
  - # 6
    frequency:    3.3311559436
  - # 7
    frequency:    4.0135978427
  - # 8
    frequency:    4.3245261248
  - # 9
    frequency:    6.6481359831
  - # 10
    frequency:    6.8877144690
  - # 11
    frequency:    7.3941255501
  - # 12
    frequency:    9.2799262562
  - # 13
    frequency:   10.2868860585
  - # 14
    frequency:   12.2732218047
  - # 15
    frequency:   12.7306948940
  - # 16
    frequency:   14.1075090856
  - # 17
    frequency:   14.4255031663
  - # 18
    frequency:   14.5822607956
  - # 19
    frequency:   16.2431140197
  - # 20
    frequency:   27.0683660838
  - # 21
    frequency:   57.7598876134

- q-position: [    0.1363636,    0.0000000,    0.0000000 ]
  distance:    0.0470986
  band:
  - # 1
    frequency:   -0.7794097465
  - # 2
    frequency:    1.0787802055
  - # 3
    frequency:    1.3553043375
  - # 4
    frequency:    1.7906978387
  - # 5
    frequency:    2.3732488130
  - # 6
    frequency:    3.3686142815
  - # 7
    frequency:    4.0647435473
  - # 8
    frequency:    4.3989580203
  - # 9
    frequency:    6.6248906457
  - # 10
    frequency:    6.8993169896
  - # 11
    frequency:    7.3925737088
  - # 12
    frequency:    9.2875363618
  - # 13
    frequency:   10.3237837026
  - # 14
    frequency:   12.2552580422
  - # 15
    frequency:   12.7251150018
  - # 16
    frequency:   14.1033517857
  - # 17
    frequency:   14.4292189473
  - # 18
    frequency:   14.5980078104
  - # 19
    frequency:   16.2447005976
  - # 20
    frequency:   27.0645062735
  - # 21
    frequency:   57.7302521286

- q-position: [    0.1414141,    0.0000000,    0.0000000 ]
  distance:    0.0488430
  band:
  - # 1
    frequency:   -0.7716841969
  - # 2
    frequency:    1.1358270338
  - # 3
    frequency:    1.3928283122
  - # 4
    frequency:    1.8525484910
  - # 5
    frequency:    2.4496222717
  - # 6
    frequency:    3.4059620094
  - # 7
    frequency:    4.1146426081
  - # 8
    frequency:    4.4763222757
  - # 9
    frequency:    6.5997278397
  - # 10
    frequency:    6.9107245000
  - # 11
    frequency:    7.3946817256
  - # 12
    frequency:    9.2965999855
  - # 13
    frequency:   10.3591155813
  - # 14
    frequency:   12.2397102272
  - # 15
    frequency:   12.7193568895
  - # 16
    frequency:   14.0984892277
  - # 17
    frequency:   14.4330344252
  - # 18
    frequency:   14.6142968247
  - # 19
    frequency:   16.2466538534
  - # 20
    frequency:   27.0605129102
  - # 21
    frequency:   57.6998633265

- q-position: [    0.1464646,    0.0000000,    0.0000000 ]
  distance:    0.0505874
  band:
  - # 1
    frequency:   -0.7578541109
  - # 2
    frequency:    1.1922011991
  - # 3
    frequency:    1.4303697988
  - # 4
    frequency:    1.9140348016
  - # 5
    frequency:    2.5255326150
  - # 6
    frequency:    3.4431953613
  - # 7
    frequency:    4.1642346849
  - # 8
    frequency:    4.5556189908
  - # 9
    frequency:    6.5730761438
  - # 10
    frequency:    6.9219042920
  - # 11
    frequency:    7.4000708176
  - # 12
    frequency:    9.3071488818
  - # 13
    frequency:   10.3927631032
  - # 14
    frequency:   12.2268181244
  - # 15
    frequency:   12.7134289795
  - # 16
    frequency:   14.0929422120
  - # 17
    frequency:   14.4369439745
  - # 18
    frequency:   14.6311196181
  - # 19
    frequency:   16.2489591244
  - # 20
    frequency:   27.0563902193
  - # 21
    frequency:   57.6687572540

- q-position: [    0.1515152,    0.0000000,    0.0000000 ]
  distance:    0.0523318
  band:
  - # 1
    frequency:   -0.7368905492
  - # 2
    frequency:    1.2476317398
  - # 3
    frequency:    1.4678909834
  - # 4
    frequency:    1.9751907067
  - # 5
    frequency:    2.6009441008
  - # 6
    frequency:    3.4803160533
  - # 7
    frequency:    4.2142618836
  - # 8
    frequency:    4.6360359668
  - # 9
    frequency:    6.5453678631
  - # 10
    frequency:    6.9328277343
  - # 11
    frequency:    7.4083635299
  - # 12
    frequency:    9.3192054936
  - # 13
    frequency:   10.4246200719
  - # 14
    frequency:   12.2168015996
  - # 15
    frequency:   12.7073398139
  - # 16
    frequency:   14.0867403494
  - # 17
    frequency:   14.4409416889
  - # 18
    frequency:   14.6484663850
  - # 19
    frequency:   16.2515961646
  - # 20
    frequency:   27.0521429559
  - # 21
    frequency:   57.6369705261