nqpoint: 300    
npath: 3      
segment_nqpoint:
- 100
- 100
- 100
labels:
- [ 'G', 'M' ]
- [ 'M', 'K' ]
- [ 'K', 'G' ]
reciprocal_lattice:
- [   0.29911641,   0.17269494,   0.00000000 ] # a*
- [   0.00000000,   0.34538987,   0.00000000 ] # b*
- [   0.00000000,   0.00000000,   0.03891061 ] # c*
natom: 7      
lattice:
- [     3.343180051498769,     0.000000000000000,     0.000000000000000 ] # a
- [    -1.671590025749384,     2.895278853994736,     0.000000000000000 ] # b
- [     0.000000000000000,     0.000000000000000,    25.699931805242720 ] # c
points:
- symbol: C # 1
  coordinates: [  0.000000000000000,  0.000000000000000,  0.442586192461838 ]
  mass: 12.010700
- symbol: C # 2
  coordinates: [  0.333332985432215,  0.666666983183674,  0.589185724295598 ]
  mass: 12.010700
- symbol: N # 3
  coordinates: [  0.333332985432215,  0.666666983183674,  0.540781215471608 ]
  mass: 14.006700
- symbol: O # 4
  coordinates: [  0.666666984744047,  0.333332985985145,  0.350195481770268 ]
  mass: 15.999400
- symbol: S # 5
  coordinates: [  0.333332985432215,  0.666666983183674,  0.649804518229732 ]
  mass: 32.065000
- symbol: Sc # 6
  coordinates: [  0.333332985432215,  0.666666983183674,  0.377021353918489 ]
  mass: 44.955912
- symbol: Sc # 7
  coordinates: [  0.666666984744047,  0.333332985985145,  0.488658860958880 ]
  mass: 44.955912

phonon:
- q-position: [    0.0000000,    0.0000000,    0.0000000 ]
  distance:    0.0000000
  band:
  - # 1
    frequency:   -0.0000376959
  - # 2
    frequency:   -0.0000002793
  - # 3
    frequency:    0.0000337989
  - # 4
    frequency:    0.8963669818
  - # 5
    frequency:    0.8963669825
  - # 6
    frequency:    2.8720534780
  - # 7
    frequency:    2.8720534784
  - # 8
    frequency:    3.7568621899
  - # 9
    frequency:    6.7258719988
  - # 10
    frequency:    6.7258719989
  - # 11
    frequency:    8.3856071012
  - # 12
    frequency:    9.4426163974
  - # 13
    frequency:    9.4426163975
  - # 14
    frequency:   12.8153282812
  - # 15
    frequency:   12.8153282814
  - # 16
    frequency:   13.9321965924
  - # 17
    frequency:   14.3707155729
  - # 18
    frequency:   14.3707155731
  - # 19
    frequency:   16.2142402101
  - # 20
    frequency:   27.1434262813
  - # 21
    frequency:   58.1614226922

- q-position: [    0.0050505,    0.0000000,    0.0000000 ]
  distance:    0.0017444
  band:
  - # 1
    frequency:   -0.0766590462
  - # 2
    frequency:    0.0028554791
  - # 3
    frequency:    0.0612742107
  - # 4
    frequency:    0.8975209982
  - # 5
    frequency:    0.9011891789
  - # 6
    frequency:    2.8725524819
  - # 7
    frequency:    2.8750528149
  - # 8
    frequency:    3.7573892059
  - # 9
    frequency:    6.7261433063
  - # 10
    frequency:    6.7262825562
  - # 11
    frequency:    8.3817821372
  - # 12
    frequency:    9.4426053461
  - # 13
    frequency:    9.4469677183
  - # 14
    frequency:   12.8138060380
  - # 15
    frequency:   12.8152922548
  - # 16
    frequency:   13.9329393864
  - # 17
    frequency:   14.3708004813
  - # 18
    frequency:   14.3710226743
  - # 19
    frequency:   16.2142135447
  - # 20
    frequency:   27.1433033933
  - # 21
    frequency:   58.1607849017

- q-position: [    0.0101010,    0.0000000,    0.0000000 ]
  distance:    0.0034888
  band:
  - # 1
    frequency:   -0.1530712293
  - # 2
    frequency:    0.0112538400
  - # 3
    frequency:    0.1228821718
  - # 4
    frequency:    0.9009594419
  - # 5
    frequency:    0.9154232667
  - # 6
    frequency:    2.8740486766
  - # 7
    frequency:    2.8840228234
  - # 8
    frequency:    3.7589715873
  - # 9
    frequency:    6.7269547639
  - # 10
    frequency:    6.7275119162
  - # 11
    frequency:    8.3704981588
  - # 12
    frequency:    9.4425754925
  - # 13
    frequency:    9.4598294319
  - # 14
    frequency:   12.8092613591
  - # 15
    frequency:   12.8151835266
  - # 16
    frequency:   13.9351489601
  - # 17
    frequency:   14.3710551567
  - # 18
    frequency:   14.3719436663
  - # 19
    frequency:   16.2141346260
  - # 20
    frequency:   27.1429350105
  - # 21
    frequency:   58.1588723025

- q-position: [    0.0151515,    0.0000000,    0.0000000 ]
  distance:    0.0052332
  band:
  - # 1
    frequency:   -0.2290053258
  - # 2
    frequency:    0.0247377349
  - # 3
    frequency:    0.1851241989
  - # 4
    frequency:    0.9066164043
  - # 5
    frequency:    0.9384254515
  - # 6
    frequency:    2.8765396993
  - # 7
    frequency:    2.8988805700
  - # 8
    frequency:    3.7616134034
  - # 9
    frequency:    6.7282988626
  - # 10
    frequency:    6.7295531613
  - # 11
    frequency:    8.3522876591
  - # 12
    frequency:    9.4425366982
  - # 13
    frequency:    9.4806651193
  - # 14
    frequency:   12.8017592712
  - # 15
    frequency:   12.8150001617
  - # 16
    frequency:   13.9387700628
  - # 17
    frequency:   14.3714794502
  - # 18
    frequency:   14.3734776148
  - # 19
    frequency:   16.2140066763
  - # 20
    frequency:   27.1423219748
  - # 21
    frequency:   58.1556872115

- q-position: [    0.0202020,    0.0000000,    0.0000000 ]
  distance:    0.0069776
  band:
  - # 1
    frequency:   -0.3042556282
  - # 2
    frequency:    0.0426738870
  - # 3
    frequency:    0.2482413534
  - # 4
    frequency:    0.9143959803
  - # 5
    frequency:    0.9692750073
  - # 6
    frequency:    2.8800218898
  - # 7
    frequency:    2.9194912971
  - # 8
    frequency:    3.7653216697
  - # 9
    frequency:    6.7301627042
  - # 10
    frequency:    6.7323948225
  - # 11
    frequency:    8.3279225596
  - # 12
    frequency:    9.4425052682
  - # 13
    frequency:    9.5086965822
  - # 14
    frequency:   12.7914045678
  - # 15
    frequency:   12.8147389725
  - # 16
    frequency:   13.9437143510
  - # 17
    frequency:   14.3720731096
  - # 18
    frequency:   14.3756229684
  - # 19
    frequency:   16.2138350295
  - # 20
    frequency:   27.1414656864
  - # 21
    frequency:   58.1512334853

- q-position: [    0.0252525,    0.0000000,    0.0000000 ]
  distance:    0.0087220
  band:
  - # 1
    frequency:   -0.3786437207
  - # 2
    frequency:    0.0643801746
  - # 3
    frequency:    0.3124016428
  - # 4
    frequency:    0.9241866213
  - # 5
    frequency:    1.0069306569
  - # 6
    frequency:    2.8844906804
  - # 7
    frequency:    2.9456732539
  - # 8
    frequency:    3.7701067039
  - # 9
    frequency:    6.7325274185
  - # 10
    frequency:    6.7360209709
  - # 11
    frequency:    8.2982919791
  - # 12
    frequency:    9.4425037555
  - # 13
    frequency:    9.5430264815
  - # 14
    frequency:   12.7783369926
  - # 15
    frequency:   12.8143955732
  - # 16
    frequency:   13.9498654440
  - # 17
    frequency:   14.3728357743
  - # 18
    frequency:   14.3783775695
  - # 19
    frequency:   16.2136270754
  - # 20
    frequency:   27.1403680975
  - # 21
    frequency:   58.1455165147

- q-position: [    0.0303030,    0.0000000,    0.0000000 ]
  distance:    0.0104664
  band:
  - # 1
    frequency:   -0.4520138953
  - # 2
    frequency:    0.0892218981
  - # 3
    frequency:    0.3776985508
  - # 4
    frequency:    0.9358727957
  - # 5
    frequency:    1.0503590361
  - # 6
    frequency:    2.8899410930
  - # 7
    frequency:    2.9772037853
  - # 8
    frequency:    3.7759826409
  - # 9
    frequency:    6.7353673336
  - # 10
    frequency:    6.7404113439
  - # 11
    frequency:    8.2642978260
  - # 12
    frequency:    9.4425606928
  - # 13
    frequency:    9.5827433276
  - # 14
    frequency:   12.7627254699
  - # 15
    frequency:   12.8139644557
  - # 16
    frequency:   13.9570850278
  - # 17
    frequency:   14.3737669682
  - # 18
    frequency:   14.3817386724
  - # 19
    frequency:   16.2133921812
  - # 20
    frequency:   27.1390317054
  - # 21
    frequency:   58.1385432153

- q-position: [    0.0353535,    0.0000000,    0.0000000 ]
  distance:    0.0122108
  band:
  - # 1
    frequency:   -0.5242257309
  - # 2
    frequency:    0.1166623522
  - # 3
    frequency:    0.4441588317
  - # 4
    frequency:    0.9493419749
  - # 5
    frequency:    1.0986149898
  - # 6
    frequency:    2.8963683002
  - # 7
    frequency:    3.0138261286
  - # 8
    frequency:    3.7829681257
  - # 9
    frequency:    6.7386488826
  - # 10
    frequency:    6.7455415097
  - # 11
    frequency:    8.2267861404
  - # 12
    frequency:    9.4427102516
  - # 13
    frequency:    9.6269909116
  - # 14
    frequency:   12.7447620810
  - # 15
    frequency:   12.8134390830
  - # 16
    frequency:   13.9652193147
  - # 17
    frequency:   14.3748660897
  - # 18
    frequency:   14.3857029730
  - # 19
    frequency:   16.2131415877
  - # 20
    frequency:   27.1374595426
  - # 21
    frequency:   58.1303220162

- q-position: [    0.0404040,    0.0000000,    0.0000000 ]
  distance:    0.0139551
  band:
  - # 1
    frequency:   -0.5951468425
  - # 2
    frequency:    0.1462753941
  - # 3
    frequency:    0.5117552695
  - # 4
    frequency:    0.9644874416
  - # 5
    frequency:    1.1508778580
  - # 6
    frequency:    2.9037682043
  - # 7
    frequency:    3.0552563455
  - # 8
    frequency:    3.7910872211
  - # 9
    frequency:    6.7423292259
  - # 10
    frequency:    6.7513830657
  - # 11
    frequency:    8.1865136465
  - # 12
    frequency:    9.4429918372
  - # 13
    frequency:    9.6750027354
  - # 14
    frequency:   12.7246563946
  - # 15
    frequency:   12.8128120002
  - # 16
    frequency:   13.9741052511
  - # 17
    frequency:   14.3761324013
  - # 18
    frequency:   14.3902666530
  - # 19
    frequency:   16.2128882799
  - # 20
    frequency:   27.1356551653
  - # 21
    frequency:   58.1208628464

- q-position: [    0.0454545,    0.0000000,    0.0000000 ]
  distance:    0.0156995
  band:
  - # 1
    frequency:   -0.6646473201
  - # 2
    frequency:    0.1777354546
  - # 3
    frequency:    0.5804206025
  - # 4
    frequency:    0.9812084852
  - # 5
    frequency:    1.2064578038
  - # 6
    frequency:    2.9121379912
  - # 7
    frequency:    3.1011898511
  - # 8
    frequency:    3.8003705873
  - # 9
    frequency:    6.7463545636
  - # 10
    frequency:    6.7579038736
  - # 11
    frequency:    8.1441400202
  - # 12
    frequency:    9.4434496217
  - # 13
    frequency:    9.7261109570
  - # 14
    frequency:   12.7026305989
  - # 15
    frequency:   12.8120749590
  - # 16
    frequency:   13.9835760335
  - # 17
    frequency:   14.3775650168
  - # 18
    frequency:   14.3954254431
  - # 19
    frequency:   16.2126468303
  - # 20
    frequency:   27.1336226403
  - # 21
    frequency:   58.1101771183

- q-position: [    0.0505051,    0.0000000,    0.0000000 ]
  distance:    0.0174439
  band:
  - # 1
    frequency:   -0.7325961132
  - # 2
    frequency:    0.2107983073
  - # 3
    frequency:    0.6500601430
  - # 4
    frequency:    0.9994094737
  - # 5
    frequency:    1.2647858478
  - # 6
    frequency:    2.9214766188
  - # 7
    frequency:    3.1513070535
  - # 8
    frequency:    3.8108570364
  - # 9
    frequency:    6.7506581069
  - # 10
    frequency:    6.7650683285
  - # 11
    frequency:    8.1002353657
  - # 12
    frequency:    9.4441320234
  - # 13
    frequency:    9.7797403859
  - # 14
    frequency:   12.6789156888
  - # 15
    frequency:   12.8112190553
  - # 16
    frequency:   13.9934656825
  - # 17
    frequency:   14.3791628871
  - # 18
    frequency:   14.4011747087
  - # 19
    frequency:   16.2124332140
  - # 20
    frequency:   27.1313665289
  - # 21
    frequency:   58.0982777092

- q-position: [    0.0555556,    0.0000000,    0.0000000 ]
  distance:    0.0191883
  band:
  - # 1
    frequency:   -0.7988589701
  - # 2
    frequency:    0.2452807838
  - # 3
    frequency:    0.7205619550
  - # 4
    frequency:    1.0189987576
  - # 5
    frequency:    1.3253971578
  - # 6
    frequency:    2.9317852087
  - # 7
    frequency:    3.2052776606
  - # 8
    frequency:    3.8225956308
  - # 9
    frequency:    6.7551576802
  - # 10
    frequency:    6.7728376615
  - # 11
    frequency:    8.0552949550
  - # 12
    frequency:    9.4450911392
  - # 13
    frequency:    9.8353954985
  - # 14
    frequency:   12.6537487968
  - # 15
    frequency:   12.8102348745
  - # 16
    frequency:   14.0036125966
  - # 17
    frequency:   14.3809247855
  - # 18
    frequency:   14.4075095598
  - # 19
    frequency:   16.2122645937
  - # 20
    frequency:   27.1288918708
  - # 21
    frequency:   58.0851789399

- q-position: [    0.0606061,    0.0000000,    0.0000000 ]
  distance:    0.0209327
  band:
  - # 1
    frequency:   -0.8632973816
  - # 2
    frequency:    0.2810432310
  - # 3
    frequency:    0.7918043969
  - # 4
    frequency:    1.0398878421
  - # 5
    frequency:    1.3879130778
  - # 6
    frequency:    2.9430673194
  - # 7
    frequency:    3.2627631958
  - # 8
    frequency:    3.8356486235
  - # 9
    frequency:    6.7597529272
  - # 10
    frequency:    6.7811702730
  - # 11
    frequency:    8.0097563499
  - # 12
    frequency:    9.4463821374
  - # 13
    frequency:    9.8926453728
  - # 14
    frequency:   12.6273716260
  - # 15
    frequency:   12.8091126447
  - # 16
    frequency:   14.0138621347
  - # 17
    frequency:   14.3828492917
  - # 18
    frequency:   14.4144249864
  - # 19
    frequency:   16.2121590763
  - # 20
    frequency:   27.1262041647
  - # 21
    frequency:   58.0708965516

- q-position: [    0.0656566,    0.0000000,    0.0000000 ]
  distance:    0.0226771
  band:
  - # 1
    frequency:   -0.9257680657
  - # 2
    frequency:    0.3179758021
  - # 3
    frequency:    0.8636613497
  - # 4
    frequency:    1.0619909308
  - # 5
    frequency:    1.4520245536
  - # 6
    frequency:    2.9553290877
  - # 7
    frequency:    3.3234171346
  - # 8
    frequency:    3.8500957593
  - # 9
    frequency:    6.7643221215
  - # 10
    frequency:    6.7900220955
  - # 11
    frequency:    7.9640163584
  - # 12
    frequency:    9.4480626204
  - # 13
    frequency:    9.9511090900
  - # 14
    frequency:   12.6000298676
  - # 15
    frequency:   12.8078423925
  - # 16
    frequency:   14.0240683550
  - # 17
    frequency:   14.3849347752
  - # 18
    frequency:   14.4219160162
  - # 19
    frequency:   16.2121354387
  - # 20
    frequency:   27.1233093487
  - # 21
    frequency:   58.0554476803

- q-position: [    0.0707071,    0.0000000,    0.0000000 ]
  distance:    0.0244215
  band:
  - # 1
    frequency:   -0.9861226740
  - # 2
    frequency:    0.3559883562
  - # 3
    frequency:    0.9360056346
  - # 4
    frequency:    1.0852247839
  - # 5
    frequency:    1.5174779531
  - # 6
    frequency:    2.9685792354
  - # 7
    frequency:    3.3868817267
  - # 8
    frequency:    3.8660408768
  - # 9
    frequency:    6.7687186245
  - # 10
    frequency:    6.7993469825
  - # 11
    frequency:    7.9184466977
  - # 12
    frequency:    9.4501919650
  - # 13
    frequency:   10.0104426840
  - # 14
    frequency:   12.5719734472
  - # 15
    frequency:   12.8064140996
  - # 16
    frequency:   14.0340950772
  - # 17
    frequency:   14.3871793793
  - # 18
    frequency:   14.4299778888
  - # 19
    frequency:   16.2122128264
  - # 20
    frequency:   27.1202137785
  - # 21
    frequency:   58.0388508285

- q-position: [    0.0757576,    0.0000000,    0.0000000 ]
  distance:    0.0261659
  band:
  - # 1
    frequency:   -1.0442075387
  - # 2
    frequency:    0.3950032756
  - # 3
    frequency:    1.0087111312
  - # 4
    frequency:    1.1095087822
  - # 5
    frequency:    1.5840634366
  - # 6
    frequency:    2.9828289456
  - # 7
    frequency:    3.4527798283
  - # 8
    frequency:    3.8836225379
  - # 9
    frequency:    6.7727671229
  - # 10
    frequency:    6.8090971181
  - # 11
    frequency:    7.8734079530
  - # 12
    frequency:    9.4528306512
  - # 13
    frequency:   10.0703279238
  - # 14
    frequency:   12.5434574312
  - # 15
    frequency:   12.8048178584
  - # 16
    frequency:   14.0438164397
  - # 17
    frequency:   14.3895810039
  - # 18
    frequency:   14.4386062359
  - # 19
    frequency:   16.2124104251
  - # 20
    frequency:   27.1169242044
  - # 21
    frequency:   58.0211258357

- q-position: [    0.0808081,    0.0000000,    0.0000000 ]
  distance:    0.0279103
  band:
  - # 1
    frequency:   -1.0998633649
  - # 2
    frequency:    0.4349504603
  - # 3
    frequency:    1.0816540291
  - # 4
    frequency:    1.1347650966
  - # 5
    frequency:    1.6516056540
  - # 6
    frequency:    2.9980916184
  - # 7
    frequency:    3.5206985537
  - # 8
    frequency:    3.9030319525
  - # 9
    frequency:    6.7762599298
  - # 10
    frequency:    6.8192234455
  - # 11
    frequency:    7.8292616463
  - # 12
    frequency:    9.4560395880
  - # 13
    frequency:   10.1304628469
  - # 14
    frequency:   12.5147434309
  - # 15
    frequency:   12.8030440222
  - # 16
    frequency:   14.0531171110
  - # 17
    frequency:   14.3921372904
  - # 18
    frequency:   14.4477972557
  - # 19
    frequency:   16.2127471107
  - # 20
    frequency:   27.1134477482
  - # 21
    frequency:   58.0022938461

- q-position: [    0.0858586,    0.0000000,    0.0000000 ]
  distance:    0.0296547
  band:
  - # 1
    frequency:   -1.1529248271
  - # 2
    frequency:    0.4757638787
  - # 3
    frequency:    1.1547135503
  - # 4
    frequency:    1.1609188866
  - # 5
    frequency:    1.7199564138
  - # 6
    frequency:    3.0143825219
  - # 7
    frequency:    3.5901585567
  - # 8
    frequency:    3.9245444766
  - # 9
    frequency:    6.7789538754
  - # 10
    frequency:    6.8296761064
  - # 11
    frequency:    7.7863801371
  - # 12
    frequency:    9.4598794467
  - # 13
    frequency:   10.1905538292
  - # 14
    frequency:   12.4861013452
  - # 15
    frequency:   12.8010833494
  - # 16
    frequency:   14.0618922929
  - # 17
    frequency:   14.3948456060
  - # 18
    frequency:   14.4575478642
  - # 19
    frequency:   16.2132410811
  - # 20
    frequency:   27.1097918775
  - # 21
    frequency:   57.9823772743

- q-position: [    0.0909091,    0.0000000,    0.0000000 ]
  distance:    0.0313991
  band:
  - # 1
    frequency:   -1.2032200540
  - # 2
    frequency:    0.5173792074
  - # 3
    frequency:    1.1878984801
  - # 4
    frequency:    1.2277723859
  - # 5
    frequency:    1.7889889582
  - # 6
    frequency:    3.0317183562
  - # 7
    frequency:    3.6605570676
  - # 8
    frequency:    3.9485766421
  - # 9
    frequency:    6.7805686631
  - # 10
    frequency:    6.8404048876
  - # 11
    frequency:    7.7451537631
  - # 12
    frequency:    9.4644100121
  - # 13
    frequency:   10.2503089755
  - # 14
    frequency:   12.4578112790
  - # 15
    frequency:   12.7989271390
  - # 16
    frequency:   14.0700476240
  - # 17
    frequency:   14.3977030302
  - # 18
    frequency:   14.4678558072
  - # 19
    frequency:   16.2139094759
  - # 20
    frequency:   27.1059643803
  - # 21
    frequency:   57.9613997696

- q-position: [    0.0959596,    0.0000000,    0.0000000 ]
  distance:    0.0331435
  band:
  - # 1
    frequency:   -1.2505699926
  - # 2
    frequency:    0.5597322328
  - # 3
    frequency:    1.2156355074
  - # 4
    frequency:    1.3007170248
  - # 5
    frequency:    1.8585935137
  - # 6
    frequency:    3.0501167494
  - # 7
    frequency:    3.7310638996
  - # 8
    frequency:    3.9757895842
  - # 9
    frequency:    6.7807880134
  - # 10
    frequency:    6.8513596667
  - # 11
    frequency:    7.7059941592
  - # 12
    frequency:    9.4696895602
  - # 13
    frequency:   10.3094326766
  - # 14
    frequency:   12.4301654545
  - # 15
    frequency:   12.7965673552
  - # 16
    frequency:   14.0774990674
  - # 17
    frequency:   14.4007063424
  - # 18
    frequency:   14.4787197193
  - # 19
    frequency:   16.2147679926
  - # 20
    frequency:   27.1019733386
  - # 21
    frequency:   57.9393861777

- q-position: [    0.1010101,    0.0000000,    0.0000000 ]
  distance:    0.0348879
  band:
  - # 1
    frequency:   -1.2947876395
  - # 2
    frequency:    0.6027577954
  - # 3
    frequency:    1.2440649809
  - # 4
    frequency:    1.3734380901
  - # 5
    frequency:    1.9286738383
  - # 6
    frequency:    3.0695957072
  - # 7
    frequency:    3.8004468220
  - # 8
    frequency:    4.0072625309
  - # 9
    frequency:    6.7792653712
  - # 10
    frequency:    6.8624908516
  - # 11
    frequency:    7.6693322082
  - # 12
    frequency:    9.4757742728
  - # 13
    frequency:   10.3676212817
  - # 14
    frequency:   12.4034698916
  - # 15
    frequency:   12.7939967400
  - # 16
    frequency:   14.0841728350
  - # 17
    frequency:   14.4038520116
  - # 18
    frequency:   14.4901391183
  - # 19
    frequency:   16.2158305062
  - # 20
    frequency:   27.0978271013
  - # 21
    frequency:   57.9163625015

- q-position: [    0.1060606,    0.0000000,    0.0000000 ]
  distance:    0.0366323
  band:
  - # 1
    frequency:   -1.3356771189
  - # 2
    frequency:    0.6463891336
  - # 3
    frequency:    1.2731253204
  - # 4
    frequency:    1.4458307634
  - # 5
    frequency:    1.9991445399
  - # 6
    frequency:    3.0901730336
  - # 7
    frequency:    3.8668678534
  - # 8
    frequency:    4.0446948577
  - # 9
    frequency:    6.7756361810
  - # 10
    frequency:    6.8737498051
  - # 11
    frequency:    7.6356088039
  - # 12
    frequency:    9.4827176973
  - # 13
    frequency:   10.4245599607
  - # 14
    frequency:   12.3780455608
  - # 15
    frequency:   12.7912089128
  - # 16
    frequency:   14.0900053825
  - # 17
    frequency:   14.4071361879
  - # 18
    frequency:   14.5021143302
  - # 19
    frequency:   16.2171087025
  - # 20
    frequency:   27.0935342566
  - # 21
    frequency:   57.8923558595

- q-position: [    0.1111111,    0.0000000,    0.0000000 ]
  distance:    0.0383767
  band:
  - # 1
    frequency:   -1.3730325737
  - # 2
    frequency:    0.6905575341
  - # 3
    frequency:    1.3027583299
  - # 4
    frequency:    1.5177953389
  - # 5
    frequency:    2.0699289846
  - # 6
    frequency:    3.1118657427
  - # 7
    frequency:    3.9280042511
  - # 8
    frequency:    4.0902829736
  - # 9
    frequency:    6.7695383552
  - # 10
    frequency:    6.8850892490
  - # 11
    frequency:    7.6052569596
  - # 12
    frequency:    9.4905702606
  - # 13
    frequency:   10.4799209787
  - # 14
    frequency:   12.3542286181
  - # 15
    frequency:   12.7881984558
  - # 16
    frequency:   14.0949434833
  - # 17
    frequency:   14.4105546970
  - # 18
    frequency:   14.5146463491
  - # 19
    frequency:   16.2186117356
  - # 20
    frequency:   27.0891036042
  - # 21
    frequency:   57.8673944428

- q-position: [    0.1161616,    0.0000000,    0.0000000 ]
  distance:    0.0401210
  band:
  - # 1
    frequency:   -1.4066368183
  - # 2
    frequency:    0.7351922317
  - # 3
    frequency:    1.3329091356
  - # 4
    frequency:    1.5892379283
  - # 5
    frequency:    2.1409576548
  - # 6
    frequency:    3.1346894780
  - # 7
    frequency:    3.9822070558
  - # 8
    frequency:    4.1455592150
  - # 9
    frequency:    6.7606411080
  - # 10
    frequency:    6.8964636406
  - # 11
    frequency:    7.5786752118
  - # 12
    frequency:    9.4993788425
  - # 13
    frequency:   10.5333637646
  - # 14
    frequency:   12.3323692121
  - # 15
    frequency:   12.7849609838
  - # 16
    frequency:   14.0989443752
  - # 17
    frequency:   14.4141030369
  - # 18
    frequency:   14.5277366406
  - # 19
    frequency:   16.2203459176
  - # 20
    frequency:   27.0845441272
  - # 21
    frequency:   57.8415074709

- q-position: [    0.1212121,    0.0000000,    0.0000000 ]
  distance:    0.0418654
  band:
  - # 1
    frequency:   -1.4362596823
  - # 2
    frequency:    0.7802205151
  - # 3
    frequency:    1.3635260943
  - # 4
    frequency:    1.6600713110
  - # 5
    frequency:    2.2121668481
  - # 6
    frequency:    3.1586579532
  - # 7
    frequency:    4.0300340365
  - # 8
    frequency:    4.2098559332
  - # 9
    frequency:    6.7486796518
  - # 10
    frequency:    6.9078295143
  - # 11
    frequency:    7.5561949355
  - # 12
    frequency:    9.5091864162
  - # 13
    frequency:   10.5845373011
  - # 14
    frequency:   12.3128282364
  - # 15
    frequency:   12.7814931996
  - # 16
    frequency:   14.1019759588
  - # 17
    frequency:   14.4177763779
  - # 18
    frequency:   14.5413869044
  - # 19
    frequency:   16.2223144531
  - # 20
    frequency:   27.0798649638
  - # 21
    frequency:   57.8147251459

- q-position: [    0.1262626,    0.0000000,    0.0000000 ]
  distance:    0.0436098
  band:
  - # 1
    frequency:   -1.4616559482
  - # 2
    frequency:    0.8255680145
  - # 3
    frequency:    1.3945606826
  - # 4
    frequency:    1.7302159049
  - # 5
    frequency:    2.2834976323
  - # 6
    frequency:    3.1837824286
  - # 7
    frequency:    4.0737688875
  - # 8
    frequency:    4.2807829501
  - # 9
    frequency:    6.7334899790
  - # 10
    frequency:    6.9191457840
  - # 11
    frequency:    7.5380474421
  - # 12
    frequency:    9.5200317596
  - # 13
    frequency:   10.6330854670
  - # 14
    frequency:   12.2959713274
  - # 15
    frequency:   12.7777929334
  - # 16
    frequency:   14.1040170236
  - # 17
    frequency:   14.4215695654
  - # 18
    frequency:   14.5555988161
  - # 19
    frequency:   16.2245172245
  - # 20
    frequency:   27.0750753790
  - # 21
    frequency:   57.7870786052

- q-position: [    0.1313131,    0.0000000,    0.0000000 ]
  distance:    0.0453542
  band:
  - # 1
    frequency:   -1.4825627469
  - # 2
    frequency:    0.8711591441
  - # 3
    frequency:    1.4259673755
  - # 4
    frequency:    1.7996008118
  - # 5
    frequency:    2.3548949961
  - # 6
    frequency:    3.2100712327
  - # 7
    frequency:    4.1157015451
  - # 8
    frequency:    4.3559435390
  - # 9
    frequency:    6.7150357544
  - # 10
    frequency:    6.9303740006
  - # 11
    frequency:    7.5243389309
  - # 12
    frequency:    9.5319492396
  - # 13
    frequency:   10.6786559419
  - # 14
    frequency:   12.2821594424
  - # 15
    frequency:   12.7738591671
  - # 16
    frequency:   14.1050574686
  - # 17
    frequency:   14.4254771258
  - # 18
    frequency:   14.5703737649
  - # 19
    frequency:   16.2269506378
  - # 20
    frequency:   27.0701847365
  - # 21
    frequency:   57.7585998737

- q-position: [    0.1363636,    0.0000000,    0.0000000 ]
  distance:    0.0470986
  band:
  - # 1
    frequency:   -1.4986962307
  - # 2
    frequency:    0.9169176807
  - # 3
    frequency:    1.4577035221
  - # 4
    frequency:    1.8681648763
  - # 5
    frequency:    2.4263071486
  - # 6
    frequency:    3.2375293379
  - # 7
    frequency:    4.1573996343
  - # 8
    frequency:    4.4336589359
  - # 9
    frequency:    6.6934200936
  - # 10
    frequency:    6.9414785620
  - # 11
    frequency:    7.5150406177
  - # 12
    frequency:    9.5449686712
  - # 13
    frequency:   10.7209130595
  - # 14
    frequency:   12.2717355928
  - # 15
    frequency:   12.7696920434
  - # 16
    frequency:   14.1050984940
  - # 17
    frequency:   14.4294932754
  - # 18
    frequency:   14.5857126052
  - # 19
    frequency:   16.2296075338
  - # 20
    frequency:   27.0652024710
  - # 21
    frequency:   57.7293218143

- q-position: [    0.1414141,    0.0000000,    0.0000000 ]
  distance:    0.0488430
  band:
  - # 1
    frequency:   -1.5097472679
  - # 2
    frequency:    0.9627674568
  - # 3
    frequency:    1.4897292270
  - # 4
    frequency:    1.9358576809
  - # 5
    frequency:    2.4976849365
  - # 6
    frequency:    3.2661579969
  - # 7
    frequency:    4.1998118334
  - # 8
    frequency:    4.5128605982
  - # 9
    frequency:    6.6688792131
  - # 10
    frequency:    6.9524268718
  - # 11
    frequency:    7.5099971676
  - # 12
    frequency:    9.5591152513
  - # 13
    frequency:   10.7595544848
  - # 14
    frequency:   12.2650078300
  - # 15
    frequency:   12.7652928608
  - # 16
    frequency:   14.1041527385
  - # 17
    frequency:   14.4336119332
  - # 18
    frequency:   14.6016154327
  - # 19
    frequency:   16.2324771682
  - # 20
    frequency:   27.0601380597
  - # 21
    frequency:   57.6992780778

- q-position: [    0.1464646,    0.0000000,    0.0000000 ]
  distance:    0.0505874
  band:
  - # 1
    frequency:   -1.5153758024
  - # 2
    frequency:    1.0086331433
  - # 3
    frequency:    1.5220072424
  - # 4
    frequency:    2.0026403929
  - # 5
    frequency:    2.5689813573
  - # 6
    frequency:    3.2959544433
  - # 7
    frequency:    4.2435035049
  - # 8
    frequency:    4.5928498427
  - # 9
    frequency:    6.6417607612
  - # 10
    frequency:    6.9631894478
  - # 11
    frequency:    7.5089507611
  - # 12
    frequency:    9.5744095627
  - # 13
    frequency:   10.7943307578
  - # 14
    frequency:   12.2622294192
  - # 15
    frequency:   12.7606640547
  - # 16
    frequency:   14.1022443473
  - # 17
    frequency:   14.4378267358
  - # 18
    frequency:   14.6180813915
  - # 19
    frequency:   16.2355452633
  - # 20
    frequency:   27.0550009957
  - # 21
    frequency:   57.6685030516

- q-position: [    0.1515152,    0.0000000,    0.0000000 ]
  distance:    0.0523318
  band:
  - # 1
    frequency:   -1.5152033618
  - # 2
    frequency:    1.0544410969
  - # 3
    frequency:    1.5545028782
  - # 4
    frequency:    2.0684863776
  - # 5
    frequency:    2.6401511553
  - # 6
    frequency:    3.3269116592
  - # 7
    frequency:    4.2888174326
  - # 8
    frequency:    4.6731319641
  - # 9
    frequency:    6.6124940022
  - # 10
    frequency:    6.9737399793
  - # 11
    frequency:    7.5115737984
  - # 12
    frequency:    9.5908676462
  - # 13
    frequency:   10.8250657266
  - # 14
    frequency:   12.2635781667
  - # 15
    frequency:   12.7558091659
  - # 16
    frequency:   14.0994089616
  - # 17
    frequency:   14.4421310558
  - # 18
    frequency:   14.6351085119
  - # 19
    frequency:   16.2387941287
  - # 20
    frequency:   27.0498007605
  - # 21
    frequency:   57.6370318085