nqpoint: 300    
npath: 3      
segment_nqpoint:
- 100
- 100
- 100
labels:
- [ 'G', 'M' ]
- [ 'M', 'K' ]
- [ 'K', 'G' ]
reciprocal_lattice:
- [   0.31537139,   0.18207976,   0.00000000 ] # a*
- [   0.00000000,   0.36415952,   0.00000000 ] # b*
- [   0.00000000,   0.00000000,   0.03943346 ] # c*
natom: 7      
lattice:
- [     3.170864647347670,     0.000000000000000,     0.000000000000000 ] # a
- [    -1.585432323673835,     2.746049336555302,     0.000000000000000 ] # b
- [     0.000000000000000,     0.000000000000000,    25.359173581324598 ] # c
points:
- symbol: C # 1
  coordinates: [  0.333332985432215,  0.666666983183674,  0.597663487104645 ]
  mass: 12.010700
- symbol: C # 2
  coordinates: [  0.666666984744047,  0.333332985985145,  0.402336513442193 ]
  mass: 12.010700
- symbol: N # 3
  coordinates: [  0.000000000000000,  0.000000000000000,  0.500000036911515 ]
  mass: 14.006700
- symbol: N # 4
  coordinates: [  0.333332985432215,  0.666666983183674,  0.645098844757783 ]
  mass: 14.006700
- symbol: N # 5
  coordinates: [  0.666666984744047,  0.333332985985145,  0.354901155242217 ]
  mass: 14.006700
- symbol: Ti # 6
  coordinates: [  0.333332985432215,  0.666666983183674,  0.458128862170817 ]
  mass: 47.867000
- symbol: Ti # 7
  coordinates: [  0.666666984744047,  0.333332985985145,  0.541871137829174 ]
  mass: 47.867000

phonon:
- q-position: [    0.0000000,    0.0000000,    0.0000000 ]
  distance:    0.0000000
  band:
  - # 1
    frequency:   -0.0000298290
  - # 2
    frequency:    0.0000004870
  - # 3
    frequency:    0.0000152630
  - # 4
    frequency:    0.7664544475
  - # 5
    frequency:    0.7664544477
  - # 6
    frequency:    0.8592992372
  - # 7
    frequency:    0.8592992372
  - # 8
    frequency:    5.1107469254
  - # 9
    frequency:    5.1107469255
  - # 10
    frequency:    7.0203737294
  - # 11
    frequency:    8.1683789059
  - # 12
    frequency:    8.1683789059
  - # 13
    frequency:    9.1784177237
  - # 14
    frequency:    9.1784177237
  - # 15
    frequency:    9.9361194348
  - # 16
    frequency:   11.5707923873
  - # 17
    frequency:   16.3215241773
  - # 18
    frequency:   17.0959699075
  - # 19
    frequency:   17.0959699076
  - # 20
    frequency:   61.2203416211
  - # 21
    frequency:   61.2270259218

- q-position: [    0.0050505,    0.0000000,    0.0000000 ]
  distance:    0.0018392
  band:
  - # 1
    frequency:    0.0024097470
  - # 2
    frequency:    0.0789618030
  - # 3
    frequency:    0.1459980028
  - # 4
    frequency:    0.7663612157
  - # 5
    frequency:    0.7694470505
  - # 6
    frequency:    0.8618029857
  - # 7
    frequency:    0.8640856871
  - # 8
    frequency:    5.1107949218
  - # 9
    frequency:    5.1114658181
  - # 10
    frequency:    7.0199932544
  - # 11
    frequency:    8.1681224342
  - # 12
    frequency:    8.1692615620
  - # 13
    frequency:    9.1780912340
  - # 14
    frequency:    9.1786808786
  - # 15
    frequency:    9.9359770827
  - # 16
    frequency:   11.5700572426
  - # 17
    frequency:   16.3212754751
  - # 18
    frequency:   17.0958410866
  - # 19
    frequency:   17.0961368102
  - # 20
    frequency:   61.2202526003
  - # 21
    frequency:   61.2269278348

- q-position: [    0.0101010,    0.0000000,    0.0000000 ]
  distance:    0.0036784
  band:
  - # 1
    frequency:    0.0095327749
  - # 2
    frequency:    0.1562048426
  - # 3
    frequency:    0.2887218578
  - # 4
    frequency:    0.7660854759
  - # 5
    frequency:    0.7783962531
  - # 6
    frequency:    0.8695597006
  - # 7
    frequency:    0.8792530017
  - # 8
    frequency:    5.1109390062
  - # 9
    frequency:    5.1136246663
  - # 10
    frequency:    7.0188582979
  - # 11
    frequency:    8.1673541862
  - # 12
    frequency:    8.1719024462
  - # 13
    frequency:    9.1771124381
  - # 14
    frequency:    9.1794679655
  - # 15
    frequency:    9.9355507967
  - # 16
    frequency:   11.5678538001
  - # 17
    frequency:   16.3205292025
  - # 18
    frequency:   17.0954548014
  - # 19
    frequency:   17.0966367510
  - # 20
    frequency:   61.2199856969
  - # 21
    frequency:   61.2266337584

- q-position: [    0.0151515,    0.0000000,    0.0000000 ]
  distance:    0.0055176
  band:
  - # 1
    frequency:    0.0210653944
  - # 2
    frequency:    0.2298909786
  - # 3
    frequency:    0.4236723710
  - # 4
    frequency:    0.7656370204
  - # 5
    frequency:    0.7931497998
  - # 6
    frequency:    0.8833001846
  - # 7
    frequency:    0.9076692330
  - # 8
    frequency:    5.1111794755
  - # 9
    frequency:    5.1172298816
  - # 10
    frequency:    7.0169880558
  - # 11
    frequency:    8.1660776539
  - # 12
    frequency:    8.1762805443
  - # 13
    frequency:    9.1754833537
  - # 14
    frequency:    9.1807718681
  - # 15
    frequency:    9.9348428823
  - # 16
    frequency:   11.5641880276
  - # 17
    frequency:   16.3192848778
  - # 18
    frequency:   17.0948115809
  - # 19
    frequency:   17.0974674206
  - # 20
    frequency:   61.2195413875
  - # 21
    frequency:   61.2261442466

- q-position: [    0.0202020,    0.0000000,    0.0000000 ]
  distance:    0.0073568
  band:
  - # 1
    frequency:    0.0365463409
  - # 2
    frequency:    0.2980123930
  - # 3
    frequency:    0.5440405392
  - # 4
    frequency:    0.7650267598
  - # 5
    frequency:    0.8132285702
  - # 6
    frequency:    0.9041894999
  - # 7
    frequency:    0.9551672757
  - # 8
    frequency:    5.1115168620
  - # 9
    frequency:    5.1222918233
  - # 10
    frequency:    7.0144138418
  - # 11
    frequency:    8.1642986281
  - # 12
    frequency:    8.1823616085
  - # 13
    frequency:    9.1732073351
  - # 14
    frequency:    9.1825807839
  - # 15
    frequency:    9.9338571623
  - # 16
    frequency:   11.5590698486
  - # 17
    frequency:   16.3175417522
  - # 18
    frequency:   17.0939122928
  - # 19
    frequency:   17.0986249454
  - # 20
    frequency:   61.2189204651
  - # 21
    frequency:   61.2254602208

- q-position: [    0.0252525,    0.0000000,    0.0000000 ]
  distance:    0.0091959
  band:
  - # 1
    frequency:    0.0554086742
  - # 2
    frequency:    0.3585060282
  - # 3
    frequency:    0.6420840702
  - # 4
    frequency:    0.7642623060
  - # 5
    frequency:    0.8376411430
  - # 6
    frequency:    0.9336377224
  - # 7
    frequency:    1.0292019207
  - # 8
    frequency:    5.1119519878
  - # 9
    frequency:    5.1288243214
  - # 10
    frequency:    7.0111781334
  - # 11
    frequency:    8.1620251544
  - # 12
    frequency:    8.1900992542
  - # 13
    frequency:    9.1702890614
  - # 14
    frequency:    9.1848783123
  - # 15
    frequency:    9.9325989475
  - # 16
    frequency:   11.5525131084
  - # 17
    frequency:   16.3152988887
  - # 18
    frequency:   17.0927581229
  - # 19
    frequency:   17.1001038529
  - # 20
    frequency:   61.2181240364
  - # 21
    frequency:   61.2245829672

- q-position: [    0.0303030,    0.0000000,    0.0000000 ]
  distance:    0.0110351
  band:
  - # 1
    frequency:    0.0770304996
  - # 2
    frequency:    0.4096095343
  - # 3
    frequency:    0.7157524843
  - # 4
    frequency:    0.7633456488
  - # 5
    frequency:    0.8651434663
  - # 6
    frequency:    0.9728898011
  - # 7
    frequency:    1.1319176760
  - # 8
    frequency:    5.1124860401
  - # 9
    frequency:    5.1368440339
  - # 10
    frequency:    7.0073333554
  - # 11
    frequency:    8.1592674721
  - # 12
    frequency:    8.1994363703
  - # 13
    frequency:    9.1667345196
  - # 14
    frequency:    9.1876435813
  - # 15
    frequency:    9.9310749925
  - # 16
    frequency:   11.5445355277
  - # 17
    frequency:   16.3125552664
  - # 18
    frequency:   17.0913505465
  - # 19
    frequency:   17.1018970265
  - # 20
    frequency:   61.2171535192
  - # 21
    frequency:   61.2235141334

- q-position: [    0.0353535,    0.0000000,    0.0000000 ]
  distance:    0.0128743
  band:
  - # 1
    frequency:    0.1007760611
  - # 2
    frequency:    0.4503602363
  - # 3
    frequency:    0.7622729186
  - # 4
    frequency:    0.7716694927
  - # 5
    frequency:    0.8948369397
  - # 6
    frequency:    1.0224871289
  - # 7
    frequency:    1.2565609559
  - # 8
    frequency:    5.1131206650
  - # 9
    frequency:    5.1463696637
  - # 10
    frequency:    7.0029405013
  - # 11
    frequency:    8.1560379372
  - # 12
    frequency:    8.2103067411
  - # 13
    frequency:    9.1625509829
  - # 14
    frequency:    9.1908514147
  - # 15
    frequency:    9.9292934359
  - # 16
    frequency:   11.5351586435
  - # 17
    frequency:   16.3093099072
  - # 18
    frequency:   17.0896912918
  - # 19
    frequency:   17.1039956554
  - # 20
    frequency:   61.2160106377
  - # 21
    frequency:   61.2222557234

- q-position: [    0.0404040,    0.0000000,    0.0000000 ]
  distance:    0.0147135
  band:
  - # 1
    frequency:    0.1260247914
  - # 2
    frequency:    0.4808917832
  - # 3
    frequency:    0.7610353500
  - # 4
    frequency:    0.8181688064
  - # 5
    frequency:    0.9263469340
  - # 6
    frequency:    1.0819419973
  - # 7
    frequency:    1.3942680120
  - # 8
    frequency:    5.1138580782
  - # 9
    frequency:    5.1574210643
  - # 10
    frequency:    6.9980676957
  - # 11
    frequency:    8.1523509281
  - # 12
    frequency:    8.2226367698
  - # 13
    frequency:    9.1577469852
  - # 14
    frequency:    9.1944725438
  - # 15
    frequency:    9.9272637218
  - # 16
    frequency:   11.5244077401
  - # 17
    frequency:   16.3055620188
  - # 18
    frequency:   17.0877822965
  - # 19
    frequency:   17.1063891818
  - # 20
    frequency:   61.2146974182
  - # 21
    frequency:   61.2208100922

- q-position: [    0.0454545,    0.0000000,    0.0000000 ]
  distance:    0.0165527
  band:
  - # 1
    frequency:    0.1521901033
  - # 2
    frequency:    0.5022544472
  - # 3
    frequency:    0.7596206145
  - # 4
    frequency:    0.8606042067
  - # 5
    frequency:    0.9595861485
  - # 6
    frequency:    1.1498960458
  - # 7
    frequency:    1.5389909297
  - # 8
    frequency:    5.1147011898
  - # 9
    frequency:    5.1700182671
  - # 10
    frequency:    6.9927887926
  - # 11
    frequency:    8.1482227375
  - # 12
    frequency:    8.2363472019
  - # 13
    frequency:    9.1523322914
  - # 14
    frequency:    9.1984738681
  - # 15
    frequency:    9.9249965001
  - # 16
    frequency:   11.5123117685
  - # 17
    frequency:   16.3013111465
  - # 18
    frequency:   17.0856256568
  - # 19
    frequency:   17.1090652517
  - # 20
    frequency:   61.2132161828
  - # 21
    frequency:   61.2191799391

- q-position: [    0.0505051,    0.0000000,    0.0000000 ]
  distance:    0.0183919
  band:
  - # 1
    frequency:    0.1787313816
  - # 2
    frequency:    0.5159144291
  - # 3
    frequency:    0.7580140582
  - # 4
    frequency:    0.9017161177
  - # 5
    frequency:    0.9945434912
  - # 6
    frequency:    1.2246051518
  - # 7
    frequency:    1.6873352090
  - # 8
    frequency:    5.1156537403
  - # 9
    frequency:    5.1841804686
  - # 10
    frequency:    6.9871820912
  - # 11
    frequency:    8.1436714489
  - # 12
    frequency:    8.2513547621
  - # 13
    frequency:    9.1463178630
  - # 14
    frequency:    9.2028187698
  - # 15
    frequency:    9.9225035010
  - # 16
    frequency:   11.4989032587
  - # 17
    frequency:   16.2965573306
  - # 18
    frequency:   17.0832235704
  - # 19
    frequency:   17.1120096732
  - # 20
    frequency:   61.2115695427
  - # 21
    frequency:   61.2173683002

- q-position: [    0.0555556,    0.0000000,    0.0000000 ]
  distance:    0.0202311
  band:
  - # 1
    frequency:    0.2051624520
  - # 2
    frequency:    0.5233008338
  - # 3
    frequency:    0.7561996808
  - # 4
    frequency:    0.9428477403
  - # 5
    frequency:    1.0311992538
  - # 6
    frequency:    1.3043803886
  - # 7
    frequency:    1.8374154284
  - # 8
    frequency:    5.1167204450
  - # 9
    frequency:    5.1999250129
  - # 10
    frequency:    6.9813292293
  - # 11
    frequency:    8.1387168001
  - # 12
    frequency:    8.2675736367
  - # 13
    frequency:    9.1397158219
  - # 14
    frequency:    9.2074674864
  - # 15
    frequency:    9.9197973807
  - # 16
    frequency:   11.4842182230
  - # 17
    frequency:   16.2913012604
  - # 18
    frequency:   17.0805782735
  - # 19
    frequency:   17.1152063877
  - # 20
    frequency:   61.2097603909
  - # 21
    frequency:   61.2153785402

- q-position: [    0.0606061,    0.0000000,    0.0000000 ]
  distance:    0.0220703
  band:
  - # 1
    frequency:    0.2310587556
  - # 2
    frequency:    0.5255770004
  - # 3
    frequency:    0.7541608542
  - # 4
    frequency:    0.9846805741
  - # 5
    frequency:    1.0695039368
  - # 6
    frequency:    1.3878070144
  - # 7
    frequency:    1.9881235392
  - # 8
    frequency:    5.1179071431
  - # 9
    frequency:    5.2172664084
  - # 10
    frequency:    6.9753142926
  - # 11
    frequency:    8.1333800350
  - # 12
    frequency:    8.2849167550
  - # 13
    frequency:    9.1325394089
  - # 14
    frequency:    9.2123775500
  - # 15
    frequency:    9.9168915340
  - # 16
    frequency:   11.4682960536
  - # 17
    frequency:   16.2855444207
  - # 18
    frequency:   17.0776919726
  - # 19
    frequency:   17.1186374562
  - # 20
    frequency:   61.2077918933
  - # 21
    frequency:   61.2132143429

- q-position: [    0.0656566,    0.0000000,    0.0000000 ]
  distance:    0.0239095
  band:
  - # 1
    frequency:    0.2560642190
  - # 2
    frequency:    0.5235922326
  - # 3
    frequency:    0.7518808348
  - # 4
    frequency:    1.0275864824
  - # 5
    frequency:    1.1093784277
  - # 6
    frequency:    1.4737843376
  - # 7
    frequency:    2.1387570182
  - # 8
    frequency:    5.1192209473
  - # 9
    frequency:    5.2362154122
  - # 10
    frequency:    6.9692231598
  - # 11
    frequency:    8.1276837438
  - # 12
    frequency:    8.3032968446
  - # 13
    frequency:    9.1248029408
  - # 14
    frequency:    9.2175042966
  - # 15
    frequency:    9.9137998697
  - # 16
    frequency:   11.4511794148
  - # 17
    frequency:   16.2792892263
  - # 18
    frequency:   17.0745667723
  - # 19
    frequency:   17.1222830660
  - # 20
    frequency:   61.2056674797
  - # 21
    frequency:   61.2108797018

- q-position: [    0.0707071,    0.0000000,    0.0000000 ]
  distance:    0.0257487
  band:
  - # 1
    frequency:    0.2798977730
  - # 2
    frequency:    0.5179161503
  - # 3
    frequency:    0.7493431328
  - # 4
    frequency:    1.0717847576
  - # 5
    frequency:    1.1507217826
  - # 6
    frequency:    1.5614832553
  - # 7
    frequency:    2.2888342216
  - # 8
    frequency:    5.1206703901
  - # 9
    frequency:    5.2567782150
  - # 10
    frequency:    6.9631430846
  - # 11
    frequency:    8.1216516950
  - # 12
    frequency:    8.3226272487
  - # 13
    frequency:    9.1165217643
  - # 14
    frequency:    9.2228014538
  - # 15
    frequency:    9.9105365448
  - # 16
    frequency:   11.4329141315
  - # 17
    frequency:   16.2725391388
  - # 18
    frequency:   17.0712045990
  - # 19
    frequency:   17.1261215585
  - # 20
    frequency:   61.2033908333
  - # 21
    frequency:   61.2083789092

- q-position: [    0.0757576,    0.0000000,    0.0000000 ]
  distance:    0.0275878
  band:
  - # 1
    frequency:    0.3023588144
  - # 2
    frequency:    0.5088917288
  - # 3
    frequency:    0.7465317876
  - # 4
    frequency:    1.1174068392
  - # 5
    frequency:    1.1934231037
  - # 6
    frequency:    1.6502843842
  - # 7
    frequency:    2.4379996054
  - # 8
    frequency:    5.1222655628
  - # 9
    frequency:    5.2789557524
  - # 10
    frequency:    6.9571625037
  - # 11
    frequency:    8.1153086581
  - # 12
    frequency:    8.3428225105
  - # 13
    frequency:    9.1077122074
  - # 14
    frequency:    9.2282218117
  - # 15
    frequency:    9.9071156547
  - # 16
    frequency:   11.4135490739
  - # 17
    frequency:   16.2652987651
  - # 18
    frequency:   17.0676071224
  - # 19
    frequency:   17.1301294807
  - # 20
    frequency:   61.2009658791
  - # 21
    frequency:   61.2057165457

- q-position: [    0.0808081,    0.0000000,    0.0000000 ]
  distance:    0.0294270
  band:
  - # 1
    frequency:    0.3233306723
  - # 2
    frequency:    0.4966799126
  - # 3
    frequency:    0.7434315882
  - # 4
    frequency:    1.1645173825
  - # 5
    frequency:    1.2373763746
  - # 6
    frequency:    1.7397226540
  - # 7
    frequency:    2.5859726663
  - # 8
    frequency:    5.1240182425
  - # 9
    frequency:    5.3027431650
  - # 10
    frequency:    6.9513710521
  - # 11
    frequency:    8.1086802221
  - # 12
    frequency:    8.3637987338
  - # 13
    frequency:    9.0983915290
  - # 14
    frequency:    9.2337179836
  - # 15
    frequency:    9.9035508771
  - # 16
    frequency:   11.3931360409
  - # 17
    frequency:   16.2575739338
  - # 18
    frequency:   17.0637756754
  - # 19
    frequency:   17.1342816589
  - # 20
    frequency:   61.1983967716
  - # 21
    frequency:   61.2028974690

- q-position: [    0.0858586,    0.0000000,    0.0000000 ]
  distance:    0.0312662
  band:
  - # 1
    frequency:    0.3427812939
  - # 2
    frequency:    0.4812876866
  - # 3
    frequency:    0.7400282613
  - # 4
    frequency:    1.2131142852
  - # 5
    frequency:    1.2824980993
  - # 6
    frequency:    1.8294446731
  - # 7
    frequency:    2.7325190019
  - # 8
    frequency:    5.1259420027
  - # 9
    frequency:    5.3281294223
  - # 10
    frequency:    6.9458597593
  - # 11
    frequency:    8.1017926081
  - # 12
    frequency:    8.3854737369
  - # 13
    frequency:    9.0885778667
  - # 14
    frequency:    9.2392432596
  - # 15
    frequency:    9.8998550707
  - # 16
    frequency:   11.3717296414
  - # 17
    frequency:   16.2493717484
  - # 18
    frequency:   17.0597111734
  - # 19
    frequency:   17.1385512972
  - # 20
    frequency:   61.1956878808
  - # 21
    frequency:   61.1999268029

- q-position: [    0.0909091,    0.0000000,    0.0000000 ]
  distance:    0.0331054
  band:
  - # 1
    frequency:    0.3607607532
  - # 2
    frequency:    0.4625775892
  - # 3
    frequency:    0.7363086438
  - # 4
    frequency:    1.2631170950
  - # 5
    frequency:    1.3287489467
  - # 6
    frequency:    1.9191779085
  - # 7
    frequency:    2.8774330686
  - # 8
    frequency:    5.1280523040
  - # 9
    frequency:    5.3550971196
  - # 10
    frequency:    6.9407213974
  - # 11
    frequency:    8.0946724805
  - # 12
    frequency:    8.4077670162
  - # 13
    frequency:    9.0782901830
  - # 14
    frequency:    9.2447525576
  - # 15
    frequency:    9.8960398299
  - # 16
    frequency:   11.3493871740
  - # 17
    frequency:   16.2407006199
  - # 18
    frequency:   17.0554140342
  - # 19
    frequency:   17.1429100960
  - # 20
    frequency:   61.1928437764
  - # 21
    frequency:   61.1968099272

- q-position: [    0.0959596,    0.0000000,    0.0000000 ]
  distance:    0.0349446
  band:
  - # 1
    frequency:    0.3773956332
  - # 2
    frequency:    0.4402559602
  - # 3
    frequency:    0.7322608480
  - # 4
    frequency:    1.3143462680
  - # 5
    frequency:    1.3761617858
  - # 6
    frequency:    2.0087089538
  - # 7
    frequency:    3.0205273972
  - # 8
    frequency:    5.1303665598
  - # 9
    frequency:    5.3836224513
  - # 10
    frequency:    6.9360509529
  - # 11
    frequency:    8.0873467575
  - # 12
    frequency:    8.4305995369
  - # 13
    frequency:    9.0675482102
  - # 14
    frequency:    9.2502034713
  - # 15
    frequency:    9.8921150011
  - # 16
    frequency:   11.3261685057
  - # 17
    frequency:   16.2315702755
  - # 18
    frequency:   17.0508841001
  - # 19
    frequency:   17.1473283913
  - # 20
    frequency:   61.1898692094
  - # 21
    frequency:   61.1935524683

- q-position: [    0.1010101,    0.0000000,    0.0000000 ]
  distance:    0.0367838
  band:
  - # 1
    frequency:    0.3928806759
  - # 2
    frequency:    0.4138316499
  - # 3
    frequency:    0.7278744259
  - # 4
    frequency:    1.3664946470
  - # 5
    frequency:    1.4248766810
  - # 6
    frequency:    2.0978683130
  - # 7
    frequency:    3.1616255121
  - # 8
    frequency:    5.1329041744
  - # 9
    frequency:    5.4136753584
  - # 10
    frequency:    6.9319461886
  - # 11
    frequency:    8.0798424225
  - # 12
    frequency:    8.4538933657
  - # 13
    frequency:    9.0563723942
  - # 14
    frequency:    9.2555574150
  - # 15
    frequency:    9.8880881711
  - # 16
    frequency:   11.3021359487
  - # 17
    frequency:   16.2219917485
  - # 18
    frequency:   17.0461205624
  - # 19
    frequency:   17.1517753113
  - # 20
    frequency:   61.1867690900
  - # 21
    frequency:   61.1901602938

- q-position: [    0.1060606,    0.0000000,    0.0000000 ]
  distance:    0.0386230
  band:
  - # 1
    frequency:    0.3825231934
  - # 2
    frequency:    0.4074682496
  - # 3
    frequency:    0.7231405356
  - # 4
    frequency:    1.4191033230
  - # 5
    frequency:    1.4751712010
  - # 6
    frequency:    2.1865197175
  - # 7
    frequency:    3.3005570553
  - # 8
    frequency:    5.1356865491
  - # 9
    frequency:    5.4452198435
  - # 10
    frequency:    6.9285082653
  - # 11
    frequency:    8.0721863391
  - # 12
    frequency:    8.4775711551
  - # 13
    frequency:    9.0447838376
  - # 14
    frequency:    9.2607808591
  - # 15
    frequency:    9.8839641397
  - # 16
    frequency:   11.2773541337
  - # 17
    frequency:   16.2119773488
  - # 18
    frequency:   17.0411218912
  - # 19
    frequency:   17.1562189470
  - # 20
    frequency:   61.1835484586
  - # 21
    frequency:   61.1866395115

- q-position: [    0.1111111,    0.0000000,    0.0000000 ]
  distance:    0.0404622
  band:
  - # 1
    frequency:    0.3450557350
  - # 2
    frequency:    0.4214561802
  - # 3
    frequency:    0.7180521100
  - # 4
    frequency:    1.4715843029
  - # 5
    frequency:    1.5274435221
  - # 6
    frequency:    2.2745525705
  - # 7
    frequency:    3.4371542677
  - # 8
    frequency:    5.1387370547
  - # 9
    frequency:    5.4782144410
  - # 10
    frequency:    6.9258423880
  - # 11
    frequency:    8.0644050715
  - # 12
    frequency:    8.5015554907
  - # 13
    frequency:    9.0328042412
  - # 14
    frequency:    9.2658466502
  - # 15
    frequency:    9.8797443964
  - # 16
    frequency:   11.2518898793
  - # 17
    frequency:   16.2015406177
  - # 18
    frequency:   17.0358857700
  - # 19
    frequency:   17.1606265351
  - # 20
    frequency:   61.1802124468
  - # 21
    frequency:   61.1829964794

- q-position: [    0.1161616,    0.0000000,    0.0000000 ]
  distance:    0.0423014
  band:
  - # 1
    frequency:    0.2991690431
  - # 2
    frequency:    0.4351744016
  - # 3
    frequency:    0.7126040299
  - # 4
    frequency:    1.5233508333
  - # 5
    frequency:    1.5820872209
  - # 6
    frequency:    2.3618765463
  - # 7
    frequency:    3.5712493429
  - # 8
    frequency:    5.1420809672
  - # 9
    frequency:    5.5126128277
  - # 10
    frequency:    6.9240584380
  - # 11
    frequency:    8.0565247102
  - # 12
    frequency:    8.5257681028
  - # 13
    frequency:    9.0204558461
  - # 14
    frequency:    9.2707354034
  - # 15
    frequency:    9.8754266224
  - # 16
    frequency:   11.2258120544
  - # 17
    frequency:   16.1906962678
  - # 18
    frequency:   17.0304090375
  - # 19
    frequency:   17.1649646499
  - # 20
    frequency:   61.1767662162
  - # 21
    frequency:   61.1792378354

- q-position: [    0.1212121,    0.0000000,    0.0000000 ]
  distance:    0.0441405
  band:
  - # 1
    frequency:    0.2401321764
  - # 2
    frequency:    0.4489708160
  - # 3
    frequency:    0.7067932995
  - # 4
    frequency:    1.5740202235
  - # 5
    frequency:    1.6392927080
  - # 6
    frequency:    2.4484176870
  - # 7
    frequency:    3.7026723804
  - # 8
    frequency:    5.1457453667
  - # 9
    frequency:    5.5483645541
  - # 10
    frequency:    6.9232715483
  - # 11
    frequency:    8.0485707078
  - # 12
    frequency:    8.5501289496
  - # 13
    frequency:    9.0077613738
  - # 14
    frequency:    9.2754369515
  - # 15
    frequency:    9.8710042445
  - # 16
    frequency:   11.1991914315
  - # 17
    frequency:   16.1794601118
  - # 18
    frequency:   17.0246876380
  - # 19
    frequency:   17.1691994007
  - # 20
    frequency:   61.1732148563
  - # 21
    frequency:   61.1753705688

- q-position: [    0.1262626,    0.0000000,    0.0000000 ]
  distance:    0.0459797
  band:
  - # 1
    frequency:    0.1535308002
  - # 2
    frequency:    0.4631967743
  - # 3
    frequency:    0.7006192235
  - # 4
    frequency:    1.6235021743
  - # 5
    frequency:    1.6989622108
  - # 6
    frequency:    2.5341155437
  - # 7
    frequency:    3.8312497931
  - # 8
    frequency:    5.1497589971
  - # 9
    frequency:    5.5854158702
  - # 10
    frequency:    6.9236025678
  - # 11
    frequency:    8.0405677229
  - # 12
    frequency:    8.5745551721
  - # 13
    frequency:    8.9947439661
  - # 14
    frequency:    9.2799518318
  - # 15
    frequency:    9.8664660728
  - # 16
    frequency:   11.1721005259
  - # 17
    frequency:   16.1678489819
  - # 18
    frequency:   17.0187165804
  - # 19
    frequency:   17.1732966328
  - # 20
    frequency:   61.1695631902
  - # 21
    frequency:   61.1714021824

- q-position: [    0.1313131,    0.0000000,    0.0000000 ]
  distance:    0.0478189
  band:
  - # 1
    frequency:   -0.1128928185
  - # 2
    frequency:    0.4781927035
  - # 3
    frequency:    0.6940835847
  - # 4
    frequency:    1.6718954446
  - # 5
    frequency:    1.7608155070
  - # 6
    frequency:    2.6189210555
  - # 7
    frequency:    3.9568031169
  - # 8
    frequency:    5.1541520894
  - # 9
    frequency:    5.6237106146
  - # 10
    frequency:    6.9251783535
  - # 11
    frequency:    8.0325394758
  - # 12
    frequency:    8.5989599294
  - # 13
    frequency:    8.9814271252
  - # 14
    frequency:    9.2842927839
  - # 15
    frequency:    9.8617960496
  - # 16
    frequency:   11.1446134184
  - # 17
    frequency:   16.1558806411
  - # 18
    frequency:   17.0124899082
  - # 19
    frequency:   17.1772221301
  - # 20
    frequency:   61.1658153648
  - # 21
    frequency:   61.1673410708

- q-position: [    0.1363636,    0.0000000,    0.0000000 ]
  distance:    0.0496581
  band:
  - # 1
    frequency:   -0.2263862234
  - # 2
    frequency:    0.4942745749
  - # 3
    frequency:    0.6871908186
  - # 4
    frequency:    1.7193417935
  - # 5
    frequency:    1.8245375740
  - # 6
    frequency:    2.7027949538
  - # 7
    frequency:    4.0791482370
  - # 8
    frequency:    5.1589561475
  - # 9
    frequency:    5.6631911236
  - # 10
    frequency:    6.9281318118
  - # 11
    frequency:    8.0245086158
  - # 12
    frequency:    8.6232511264
  - # 13
    frequency:    8.9678346517
  - # 14
    frequency:    9.2884862254
  - # 15
    frequency:    9.8569731437
  - # 16
    frequency:   11.1168055544
  - # 17
    frequency:   16.1435736900
  - # 18
    frequency:   17.0060006814
  - # 19
    frequency:   17.1809418164
  - # 20
    frequency:   61.1619738815
  - # 21
    frequency:   61.1631974565

- q-position: [    0.1414141,    0.0000000,    0.0000000 ]
  distance:    0.0514973
  band:
  - # 1
    frequency:   -0.3031527663
  - # 2
    frequency:    0.5117220371
  - # 3
    frequency:    0.6799481834
  - # 4
    frequency:    1.7659511399
  - # 5
    frequency:    1.8898543610
  - # 6
    frequency:    2.7857065413
  - # 7
    frequency:    4.1980951080
  - # 8
    frequency:    5.1642037009
  - # 9
    frequency:    5.7037991029
  - # 10
    frequency:    6.9326015996
  - # 11
    frequency:    8.0164966006
  - # 12
    frequency:    8.6473300657
  - # 13
    frequency:    8.9539905830
  - # 14
    frequency:    9.2925736562
  - # 15
    frequency:    9.8519714161
  - # 16
    frequency:   11.0887535151
  - # 17
    frequency:   16.1309474692
  - # 18
    frequency:   16.9992409696
  - # 19
    frequency:   17.1844219541
  - # 20
    frequency:   61.1580371020
  - # 21
    frequency:   61.1589858526

- q-position: [    0.1464646,    0.0000000,    0.0000000 ]
  distance:    0.0533365
  band:
  - # 1
    frequency:   -0.3669358624
  - # 2
    frequency:    0.5307690364
  - # 3
    frequency:    0.6723659195
  - # 4
    frequency:    1.8117874989
  - # 5
    frequency:    1.9565472744
  - # 6
    frequency:    2.8676327415
  - # 7
    frequency:    4.3134480963
  - # 8
    frequency:    5.1699280257
  - # 9
    frequency:    5.7454763858
  - # 10
    frequency:    6.9387313778
  - # 11
    frequency:    8.0085235901
  - # 12
    frequency:    8.6710900740
  - # 13
    frequency:    8.9399191306
  - # 14
    frequency:    9.2966129238
  - # 15
    frequency:    9.8467602823
  - # 16
    frequency:   11.0605347528
  - # 17
    frequency:   16.1180219599
  - # 18
    frequency:   16.9922018606
  - # 19
    frequency:   17.1876293392
  - # 20
    frequency:   61.1539931465
  - # 21
    frequency:   61.1547311316

- q-position: [    0.1515152,    0.0000000,    0.0000000 ]
  distance:    0.0551757
  band:
  - # 1
    frequency:   -0.4235608557
  - # 2
    frequency:    0.5515975751
  - # 3
    frequency:    0.6644573973
  - # 4
    frequency:    1.8568776321
  - # 5
    frequency:    2.0244445772
  - # 6
    frequency:    2.9485573436
  - # 7
    frequency:    4.4250071231
  - # 8
    frequency:    5.1761628400
  - # 9
    frequency:    5.7881654806
  - # 10
    frequency:    6.9466685009
  - # 11
    frequency:    8.0006083528
  - # 12
    frequency:    8.6944151991
  - # 13
    frequency:    8.9256446164
  - # 14
    frequency:    9.3006792465
  - # 15
    frequency:    9.8413049898
  - # 16
    frequency:   11.0322272854
  - # 17
    frequency:   16.1048176826
  - # 18
    frequency:   16.9848734809
  - # 19
    frequency:   17.1905314908
  - # 20
    frequency:   61.1498139912
  - # 21
    frequency:   61.1504743954