nqpoint: 300    
npath: 3      
segment_nqpoint:
- 100
- 100
- 100
labels:
- [ 'G', 'M' ]
- [ 'M', 'K' ]
- [ 'K', 'G' ]
reciprocal_lattice:
- [   0.31537139,   0.18207976,   0.00000000 ] # a*
- [   0.00000000,   0.36415952,   0.00000000 ] # b*
- [   0.00000000,   0.00000000,   0.03943346 ] # c*
natom: 7      
lattice:
- [     3.170864647347670,     0.000000000000000,     0.000000000000000 ] # a
- [    -1.585432323673835,     2.746049336555302,     0.000000000000000 ] # b
- [     0.000000000000000,     0.000000000000000,    25.359173581324598 ] # c
points:
- symbol: C # 1
  coordinates: [  0.333332985432215,  0.666666983183674,  0.597663487104645 ]
  mass: 12.010700
- symbol: C # 2
  coordinates: [  0.666666984744047,  0.333332985985145,  0.402336513442193 ]
  mass: 12.010700
- symbol: N # 3
  coordinates: [  0.000000000000000,  0.000000000000000,  0.500000036911515 ]
  mass: 14.006700
- symbol: N # 4
  coordinates: [  0.333332985432215,  0.666666983183674,  0.645098844757783 ]
  mass: 14.006700
- symbol: N # 5
  coordinates: [  0.666666984744047,  0.333332985985145,  0.354901155242217 ]
  mass: 14.006700
- symbol: Ti # 6
  coordinates: [  0.333332985432215,  0.666666983183674,  0.458128862170817 ]
  mass: 47.867000
- symbol: Ti # 7
  coordinates: [  0.666666984744047,  0.333332985985145,  0.541871137829174 ]
  mass: 47.867000

phonon:
- q-position: [    0.0000000,    0.0000000,    0.0000000 ]
  distance:    0.0000000
  band:
  - # 1
    frequency:   -0.0000024814
  - # 2
    frequency:    0.0000013254
  - # 3
    frequency:    0.0000024066
  - # 4
    frequency:    0.7514608598
  - # 5
    frequency:    0.7514608598
  - # 6
    frequency:    1.3851267036
  - # 7
    frequency:    1.3851267036
  - # 8
    frequency:    5.6427612533
  - # 9
    frequency:    5.6427612533
  - # 10
    frequency:    7.0397884689
  - # 11
    frequency:    8.2139843051
  - # 12
    frequency:    8.2139843051
  - # 13
    frequency:    8.9839444638
  - # 14
    frequency:    8.9839444638
  - # 15
    frequency:    9.9263411868
  - # 16
    frequency:   11.6067929057
  - # 17
    frequency:   16.2719267378
  - # 18
    frequency:   17.0653365477
  - # 19
    frequency:   17.0653365477
  - # 20
    frequency:   61.2116084205
  - # 21
    frequency:   61.2449630015

- q-position: [    0.0050505,    0.0000000,    0.0000000 ]
  distance:    0.0018392
  band:
  - # 1
    frequency:    0.0364765490
  - # 2
    frequency:    0.0845559678
  - # 3
    frequency:    0.1315038109
  - # 4
    frequency:    0.7517692862
  - # 5
    frequency:    0.7551577532
  - # 6
    frequency:    1.3852966688
  - # 7
    frequency:    1.3868004438
  - # 8
    frequency:    5.6425777947
  - # 9
    frequency:    5.6427673506
  - # 10
    frequency:    7.0394117554
  - # 11
    frequency:    8.2139763968
  - # 12
    frequency:    8.2153916348
  - # 13
    frequency:    8.9835185686
  - # 14
    frequency:    8.9839947320
  - # 15
    frequency:    9.9261321039
  - # 16
    frequency:   11.6059992363
  - # 17
    frequency:   16.2717951184
  - # 18
    frequency:   17.0654124473
  - # 19
    frequency:   17.0654234037
  - # 20
    frequency:   61.2115200161
  - # 21
    frequency:   61.2448437772

- q-position: [    0.0101010,    0.0000000,    0.0000000 ]
  distance:    0.0036784
  band:
  - # 1
    frequency:    0.0731769425
  - # 2
    frequency:    0.1685444898
  - # 3
    frequency:    0.2620957419
  - # 4
    frequency:    0.7527929943
  - # 5
    frequency:    0.7663996805
  - # 6
    frequency:    1.3858197615
  - # 7
    frequency:    1.3918124572
  - # 8
    frequency:    5.6420278520
  - # 9
    frequency:    5.6427945891
  - # 10
    frequency:    7.0382908827
  - # 11
    frequency:    8.2139527212
  - # 12
    frequency:    8.2195952626
  - # 13
    frequency:    8.9822416175
  - # 14
    frequency:    8.9841485474
  - # 15
    frequency:    9.9255058010
  - # 16
    frequency:   11.6036204453
  - # 17
    frequency:   16.2713979786
  - # 18
    frequency:   17.0656414172
  - # 19
    frequency:   17.0656823675
  - # 20
    frequency:   61.2112550292
  - # 21
    frequency:   61.2444863622

- q-position: [    0.0151515,    0.0000000,    0.0000000 ]
  distance:    0.0055176
  band:
  - # 1
    frequency:    0.1103138510
  - # 2
    frequency:    0.2512737400
  - # 3
    frequency:    0.3904833206
  - # 4
    frequency:    0.7548619466
  - # 5
    frequency:    0.7857879945
  - # 6
    frequency:    1.3867372535
  - # 7
    frequency:    1.4001444356
  - # 8
    frequency:    5.6411127373
  - # 9
    frequency:    5.6428696079
  - # 10
    frequency:    7.0364531065
  - # 11
    frequency:    8.2139134178
  - # 12
    frequency:    8.2265407523
  - # 13
    frequency:    8.9801158170
  - # 14
    frequency:    8.9844149376
  - # 15
    frequency:    9.9244651250
  - # 16
    frequency:   11.5996631786
  - # 17
    frequency:   16.2707285448
  - # 18
    frequency:   17.0660272137
  - # 19
    frequency:   17.0661086375
  - # 20
    frequency:   61.2108141354
  - # 21
    frequency:   61.2438915298

- q-position: [    0.0202020,    0.0000000,    0.0000000 ]
  distance:    0.0073568
  band:
  - # 1
    frequency:    0.1480772274
  - # 2
    frequency:    0.3317506171
  - # 3
    frequency:    0.5142981948
  - # 4
    frequency:    0.7586588371
  - # 5
    frequency:    0.8149528645
  - # 6
    frequency:    1.3881238800
  - # 7
    frequency:    1.4117993205
  - # 8
    frequency:    5.6398346819
  - # 9
    frequency:    5.6430361433
  - # 10
    frequency:    7.0339420963
  - # 11
    frequency:    8.2138586934
  - # 12
    frequency:    8.2361394672
  - # 13
    frequency:    8.9771448529
  - # 14
    frequency:    8.9848089322
  - # 15
    frequency:    9.9230148511
  - # 16
    frequency:   11.5941384968
  - # 17
    frequency:   16.2697757591
  - # 18
    frequency:   17.0665759084
  - # 19
    frequency:   17.0666942478
  - # 20
    frequency:   61.2101984525
  - # 21
    frequency:   61.2430605709

- q-position: [    0.0252525,    0.0000000,    0.0000000 ]
  distance:    0.0091959
  band:
  - # 1
    frequency:    0.1866228002
  - # 2
    frequency:    0.4083798406
  - # 3
    frequency:    0.6286407418
  - # 4
    frequency:    0.7654797343
  - # 5
    frequency:    0.8579274057
  - # 6
    frequency:    1.3900980759
  - # 7
    frequency:    1.4268620440
  - # 8
    frequency:    5.6381969008
  - # 9
    frequency:    5.6433540537
  - # 10
    frequency:    7.0308155301
  - # 11
    frequency:    8.2137887829
  - # 12
    frequency:    8.2482714685
  - # 13
    frequency:    8.9733339021
  - # 14
    frequency:    8.9853515313
  - # 15
    frequency:    9.9211617276
  - # 16
    frequency:   11.5870618511
  - # 17
    frequency:   16.2685246216
  - # 18
    frequency:   17.0672956112
  - # 19
    frequency:   17.0674281236
  - # 20
    frequency:   61.2094095276
  - # 21
    frequency:   61.2419952956

- q-position: [    0.0303030,    0.0000000,    0.0000000 ]
  distance:    0.0110351
  band:
  - # 1
    frequency:    0.2260618760
  - # 2
    frequency:    0.4784778991
  - # 3
    frequency:    0.7249761397
  - # 4
    frequency:    0.7776841408
  - # 5
    frequency:    0.9221476723
  - # 6
    frequency:    1.3928392996
  - # 7
    frequency:    1.4456149768
  - # 8
    frequency:    5.6362036819
  - # 9
    frequency:    5.6438979916
  - # 10
    frequency:    7.0271421347
  - # 11
    frequency:    8.2137038982
  - # 12
    frequency:    8.2627891497
  - # 13
    frequency:    8.9686896494
  - # 14
    frequency:    8.9860696504
  - # 15
    frequency:    9.9189145380
  - # 16
    frequency:   11.5784530508
  - # 17
    frequency:   16.2669566555
  - # 18
    frequency:   17.0681960920
  - # 19
    frequency:   17.0682961568
  - # 20
    frequency:   61.2084493192
  - # 21
    frequency:   61.2406980375

- q-position: [    0.0353535,    0.0000000,    0.0000000 ]
  distance:    0.0128743
  band:
  - # 1
    frequency:    0.2664539887
  - # 2
    frequency:    0.5378675364
  - # 3
    frequency:    0.7981948241
  - # 4
    frequency:    0.7990601152
  - # 5
    frequency:    1.0111878825
  - # 6
    frequency:    1.3966163583
  - # 7
    frequency:    1.4687673767
  - # 8
    frequency:    5.6338604971
  - # 9
    frequency:    5.6447557560
  - # 10
    frequency:    7.0229984867
  - # 11
    frequency:    8.2136041630
  - # 12
    frequency:    8.2795212835
  - # 13
    frequency:    8.9632203079
  - # 14
    frequency:    8.9869960258
  - # 15
    frequency:    9.9162841779
  - # 16
    frequency:   11.5683362240
  - # 17
    frequency:   16.2650504829
  - # 18
    frequency:   17.0692813031
  - # 19
    frequency:   17.0692883144
  - # 20
    frequency:   61.2073201751
  - # 21
    frequency:   61.2391716567

- q-position: [    0.0404040,    0.0000000,    0.0000000 ]
  distance:    0.0147135
  band:
  - # 1
    frequency:    0.3078033847
  - # 2
    frequency:    0.5819884698
  - # 3
    frequency:    0.8336597395
  - # 4
    frequency:    0.8555216273
  - # 5
    frequency:    1.1154015191
  - # 6
    frequency:    1.4018331342
  - # 7
    frequency:    1.4979330760
  - # 8
    frequency:    5.6311741315
  - # 9
    frequency:    5.6460263692
  - # 10
    frequency:    7.0184658673
  - # 11
    frequency:    8.2134895386
  - # 12
    frequency:    8.2982771790
  - # 13
    frequency:    8.9569356426
  - # 14
    frequency:    8.9881690612
  - # 15
    frequency:    9.9132837461
  - # 16
    frequency:   11.5567397706
  - # 17
    frequency:   16.2627824954
  - # 18
    frequency:   17.0703636988
  - # 19
    frequency:   17.0705838953
  - # 20
    frequency:   61.2060248048
  - # 21
    frequency:   61.2374195461

- q-position: [    0.0454545,    0.0000000,    0.0000000 ]
  distance:    0.0165527
  band:
  - # 1
    frequency:    0.3500593804
  - # 2
    frequency:    0.6095751655
  - # 3
    frequency:    0.8820432244
  - # 4
    frequency:    0.9063134918
  - # 5
    frequency:    1.2212135049
  - # 6
    frequency:    1.4091010732
  - # 7
    frequency:    1.5365653005
  - # 8
    frequency:    5.6281528300
  - # 9
    frequency:    5.6478179279
  - # 10
    frequency:    7.0136274120
  - # 11
    frequency:    8.2133597418
  - # 12
    frequency:    8.3188507066
  - # 13
    frequency:    8.9498469966
  - # 14
    frequency:    8.9896325865
  - # 15
    frequency:    9.9099286468
  - # 16
    frequency:   11.5436963118
  - # 17
    frequency:   16.2601275969
  - # 18
    frequency:   17.0715207951
  - # 19
    frequency:   17.0720945071
  - # 20
    frequency:   61.2045662477
  - # 21
    frequency:   61.2354456367

- q-position: [    0.0505051,    0.0000000,    0.0000000 ]
  distance:    0.0183919
  band:
  - # 1
    frequency:    0.3931197936
  - # 2
    frequency:    0.6240260787
  - # 3
    frequency:    0.9397966049
  - # 4
    frequency:    0.9553180313
  - # 5
    frequency:    1.3168595666
  - # 6
    frequency:    1.4193481783
  - # 7
    frequency:    1.5909775917
  - # 8
    frequency:    5.6248064556
  - # 9
    frequency:    5.6502452815
  - # 10
    frequency:    7.0085657198
  - # 11
    frequency:    8.2132141563
  - # 12
    frequency:    8.3410240372
  - # 13
    frequency:    8.9419673190
  - # 14
    frequency:    8.9914354873
  - # 15
    frequency:    9.9062367001
  - # 16
    frequency:   11.5292426347
  - # 17
    frequency:   16.2570599974
  - # 18
    frequency:   17.0727275113
  - # 19
    frequency:   17.0738312450
  - # 20
    frequency:   61.2029478364
  - # 21
    frequency:   61.2332544053

- q-position: [    0.0555556,    0.0000000,    0.0000000 ]
  distance:    0.0202311
  band:
  - # 1
    frequency:    0.4368362565
  - # 2
    frequency:    0.6298896242
  - # 3
    frequency:    1.0009023343
  - # 4
    frequency:    1.0044118980
  - # 5
    frequency:    1.3930015697
  - # 6
    frequency:    1.4339593654
  - # 7
    frequency:    1.6680026540
  - # 8
    frequency:    5.6211466569
  - # 9
    frequency:    5.6534275991
  - # 10
    frequency:    7.0033610072
  - # 11
    frequency:    8.2130517419
  - # 12
    frequency:    8.3645710347
  - # 13
    frequency:    8.9333111944
  - # 14
    frequency:    8.9936311533
  - # 15
    frequency:    9.9022282569
  - # 16
    frequency:   11.5134196361
  - # 17
    frequency:   16.2535540295
  - # 18
    frequency:   17.0739564031
  - # 19
    frequency:   17.0758039817
  - # 20
    frequency:   61.2011731552
  - # 21
    frequency:   61.2308508824

- q-position: [    0.0606061,    0.0000000,    0.0000000 ]
  distance:    0.0220703
  band:
  - # 1
    frequency:    0.4810202771
  - # 2
    frequency:    0.6303670335
  - # 3
    frequency:    1.0542895814
  - # 4
    frequency:    1.0601323814
  - # 5
    frequency:    1.4487098499
  - # 6
    frequency:    1.4548780576
  - # 7
    frequency:    1.7673282301
  - # 8
    frequency:    5.6171870391
  - # 9
    frequency:    5.6574858834
  - # 10
    frequency:    6.9980898257
  - # 11
    frequency:    8.2128709442
  - # 12
    frequency:    8.3892603300
  - # 13
    frequency:    8.9238948709
  - # 14
    frequency:    8.9962766723
  - # 15
    frequency:    9.8979263133
  - # 16
    frequency:   11.4962722656
  - # 17
    frequency:   16.2495849608
  - # 18
    frequency:   17.0751778460
  - # 19
    frequency:   17.0780207342
  - # 20
    frequency:   61.1992459945
  - # 21
    frequency:   61.2282406632

- q-position: [    0.0656566,    0.0000000,    0.0000000 ]
  distance:    0.0239095
  band:
  - # 1
    frequency:    0.5254492512
  - # 2
    frequency:    0.6272826018
  - # 3
    frequency:    1.1051714824
  - # 4
    frequency:    1.1132363522
  - # 5
    frequency:    1.4844457403
  - # 6
    frequency:    1.4906754886
  - # 7
    frequency:    1.8815793984
  - # 8
    frequency:    5.6129433364
  - # 9
    frequency:    5.6625404951
  - # 10
    frequency:    6.9928243086
  - # 11
    frequency:    8.2126696057
  - # 12
    frequency:    8.4148581799
  - # 13
    frequency:    8.9137362881
  - # 14
    frequency:    8.9994316842
  - # 15
    frequency:    9.8933566162
  - # 16
    frequency:   11.4778494702
  - # 17
    frequency:   16.2451297736
  - # 18
    frequency:   17.0763602316
  - # 19
    frequency:   17.0804870684
  - # 20
    frequency:   61.1971702992
  - # 21
    frequency:   61.2254299190

- q-position: [    0.0707071,    0.0000000,    0.0000000 ]
  distance:    0.0257487
  band:
  - # 1
    frequency:    0.5698720677
  - # 2
    frequency:    0.6216264538
  - # 3
    frequency:    1.1570804575
  - # 4
    frequency:    1.1571306665
  - # 5
    frequency:    1.5246681292
  - # 6
    frequency:    1.5252614621
  - # 7
    frequency:    2.0039902794
  - # 8
    frequency:    5.6084335784
  - # 9
    frequency:    5.6687087491
  - # 10
    frequency:    6.9876318829
  - # 11
    frequency:    8.2124448835
  - # 12
    frequency:    8.4411312702
  - # 13
    frequency:    8.9028551020
  - # 14
    frequency:    9.0031567859
  - # 15
    frequency:    9.8885477532
  - # 16
    frequency:   11.4582041413
  - # 17
    frequency:   16.2401678853
  - # 18
    frequency:   17.0774701757
  - # 19
    frequency:   17.0832055645
  - # 20
    frequency:   61.1949501122
  - # 21
    frequency:   61.2224254125

- q-position: [    0.0757576,    0.0000000,    0.0000000 ]
  distance:    0.0275878
  band:
  - # 1
    frequency:    0.6139358706
  - # 2
    frequency:    0.6140143479
  - # 3
    frequency:    1.1906162937
  - # 4
    frequency:    1.2099551703
  - # 5
    frequency:    1.5561083181
  - # 6
    frequency:    1.5761142513
  - # 7
    frequency:    2.1306819705
  - # 8
    frequency:    5.6036782487
  - # 9
    frequency:    5.6761026400
  - # 10
    frequency:    6.9825753627
  - # 11
    frequency:    8.2121931748
  - # 12
    frequency:    8.4678496567
  - # 13
    frequency:    8.8912727065
  - # 14
    frequency:    9.0075113736
  - # 15
    frequency:    9.8835312130
  - # 16
    frequency:   11.4373930666
  - # 17
    frequency:   16.2346817843
  - # 18
    frequency:   17.0784727364
  - # 19
    frequency:   17.0861753659
  - # 20
    frequency:   61.1925895114
  - # 21
    frequency:   61.2192345170

- q-position: [    0.0808081,    0.0000000,    0.0000000 ]
  distance:    0.0294270
  band:
  - # 1
    frequency:    0.6044996644
  - # 2
    frequency:    0.6575836799
  - # 3
    frequency:    1.2145539649
  - # 4
    frequency:    1.2636986099
  - # 5
    frequency:    1.5851156378
  - # 6
    frequency:    1.6375348892
  - # 7
    frequency:    2.2596275135
  - # 8
    frequency:    5.5987004284
  - # 9
    frequency:    5.6848267526
  - # 10
    frequency:    6.9777133418
  - # 11
    frequency:    8.2119100521
  - # 12
    frequency:    8.4947900463
  - # 13
    frequency:    8.8790122505
  - # 14
    frequency:    9.0125508070
  - # 15
    frequency:    9.8783414016
  - # 16
    frequency:   11.4154768868
  - # 17
    frequency:   16.2286575617
  - # 18
    frequency:   17.0793316399
  - # 19
    frequency:   17.0893918282
  - # 20
    frequency:   61.1900925396
  - # 21
    frequency:   61.2158652394

- q-position: [    0.0858586,    0.0000000,    0.0000000 ]
  distance:    0.0312662
  band:
  - # 1
    frequency:    0.5934623603
  - # 2
    frequency:    0.7002754166
  - # 3
    frequency:    1.2309443989
  - # 4
    frequency:    1.3181983572
  - # 5
    frequency:    1.6133463717
  - # 6
    frequency:    1.7066759312
  - # 7
    frequency:    2.3897202986
  - # 8
    frequency:    5.5935259223
  - # 9
    frequency:    5.6949764070
  - # 10
    frequency:    6.9731008059
  - # 11
    frequency:    8.2115902121
  - # 12
    frequency:    8.5217395908
  - # 13
    frequency:    8.8660986487
  - # 14
    frequency:    9.0183228190
  - # 15
    frequency:    9.8730155938
  - # 16
    frequency:   11.3925200580
  - # 17
    frequency:   16.2220853238
  - # 18
    frequency:   17.0800095141
  - # 19
    frequency:   17.0928462812
  - # 20
    frequency:   61.1874631262
  - # 21
    frequency:   61.2123262513

- q-position: [    0.0909091,    0.0000000,    0.0000000 ]
  distance:    0.0331054
  band:
  - # 1
    frequency:    0.5808774333
  - # 2
    frequency:    0.7417797019
  - # 3
    frequency:    1.2418433213
  - # 4
    frequency:    1.3733328884
  - # 5
    frequency:    1.6414821693
  - # 6
    frequency:    1.7813074076
  - # 7
    frequency:    2.5203033212
  - # 8
    frequency:    5.5881833624
  - # 9
    frequency:    5.7066360783
  - # 10
    frequency:    6.9687898950
  - # 11
    frequency:    8.2112274378
  - # 12
    frequency:    8.5485002934
  - # 13
    frequency:    8.8525585851
  - # 14
    frequency:    9.0248631614
  - # 15
    frequency:    9.8675937947
  - # 16
    frequency:   11.3685908203
  - # 17
    frequency:   16.2149594765
  - # 18
    frequency:   17.0804681259
  - # 19
    frequency:   17.0965259105
  - # 20
    frequency:   61.1847049977
  - # 21
    frequency:   61.2086269269

- q-position: [    0.0959596,    0.0000000,    0.0000000 ]
  distance:    0.0349446
  band:
  - # 1
    frequency:    0.5667343777
  - # 2
    frequency:    0.7817903327
  - # 3
    frequency:    1.2488612382
  - # 4
    frequency:    1.4289694113
  - # 5
    frequency:    1.6700347280
  - # 6
    frequency:    1.8596932088
  - # 7
    frequency:    2.6509484958
  - # 8
    frequency:    5.5827042841
  - # 9
    frequency:    5.7198781256
  - # 10
    frequency:    6.9648307616
  - # 11
    frequency:    8.2108145768
  - # 12
    frequency:    8.5748939944
  - # 13
    frequency:    8.8384205083
  - # 14
    frequency:    9.0321906136
  - # 15
    frequency:    9.8621184772
  - # 16
    frequency:   11.3437611721
  - # 17
    frequency:   16.2072788797
  - # 18
    frequency:   17.0806686231
  - # 19
    frequency:   17.1004137596
  - # 20
    frequency:   61.1818215784
  - # 21
    frequency:   61.2047773928

- q-position: [    0.1010101,    0.0000000,    0.0000000 ]
  distance:    0.0367838
  band:
  - # 1
    frequency:    0.5509714551
  - # 2
    frequency:    0.8200158428
  - # 3
    frequency:    1.2531257676
  - # 4
    frequency:    1.4849547085
  - # 5
    frequency:    1.6994476142
  - # 6
    frequency:    1.9406114535
  - # 7
    frequency:    2.7813499425
  - # 8
    frequency:    5.5771231729
  - # 9
    frequency:    5.7347618507
  - # 10
    frequency:    6.9612724805
  - # 11
    frequency:    8.2103435361
  - # 12
    frequency:    8.6007677178
  - # 13
    frequency:    8.8237146174
  - # 14
    frequency:    9.0403016603
  - # 15
    frequency:    9.8566341588
  - # 16
    frequency:   11.3181068469
  - # 17
    frequency:   16.1990468753
  - # 18
    frequency:   17.0805717773
  - # 19
    frequency:   17.1044888454
  - # 20
    frequency:   61.1788158755
  - # 21
    frequency:   61.2007885887

- q-position: [    0.1060606,    0.0000000,    0.0000000 ]
  distance:    0.0386230
  band:
  - # 1
    frequency:    0.5334796129
  - # 2
    frequency:    0.8561927540
  - # 3
    frequency:    1.2553975546
  - # 4
    frequency:    1.5410982207
  - # 5
    frequency:    1.7301513472
  - # 6
    frequency:    2.0232284038
  - # 7
    frequency:    2.9112694041
  - # 8
    frequency:    5.5714774773
  - # 9
    frequency:    5.7513328984
  - # 10
    frequency:    6.9581639758
  - # 11
    frequency:    8.2098052943
  - # 12
    frequency:    8.6259989378
  - # 13
    frequency:    8.8084728369
  - # 14
    frequency:    9.0491653687
  - # 15
    frequency:    9.8511867697
  - # 16
    frequency:   11.2917072929
  - # 17
    frequency:   16.1902711990
  - # 18
    frequency:   17.0801382275
  - # 19
    frequency:   17.1087263789
  - # 20
    frequency:   61.1756903524
  - # 21
    frequency:   61.1966723423

- q-position: [    0.1111111,    0.0000000,    0.0000000 ]
  distance:    0.0404622
  band:
  - # 1
    frequency:    0.5140997533
  - # 2
    frequency:    0.8901003328
  - # 3
    frequency:    1.2561896625
  - # 4
    frequency:    1.5971455619
  - # 5
    frequency:    1.7626014474
  - # 6
    frequency:    2.1069729078
  - # 7
    frequency:    3.0405066315
  - # 8
    frequency:    5.5658075849
  - # 9
    frequency:    5.7696229971
  - # 10
    frequency:    6.9555549433
  - # 11
    frequency:    8.2091899300
  - # 12
    frequency:    8.6505001208
  - # 13
    frequency:    8.7927287802
  - # 14
    frequency:    9.0587191958
  - # 15
    frequency:    9.8458227631
  - # 16
    frequency:   11.2646456478
  - # 17
    frequency:   16.1809637891
  - # 18
    frequency:   17.0793287229
  - # 19
    frequency:   17.1130980746
  - # 20
    frequency:   61.1724467873
  - # 21
    frequency:   61.1924414560

- q-position: [    0.1161616,    0.0000000,    0.0000000 ]
  distance:    0.0423014
  band:
  - # 1
    frequency:    0.4926134338
  - # 2
    frequency:    0.9215755128
  - # 3
    frequency:    1.2558545878
  - # 4
    frequency:    1.6527426586
  - # 5
    frequency:    1.7973129614
  - # 6
    frequency:    2.1914455483
  - # 7
    frequency:    3.1688823948
  - # 8
    frequency:    5.5601567603
  - # 9
    frequency:    5.7896500280
  - # 10
    frequency:    6.9534967483
  - # 11
    frequency:    8.2084866690
  - # 12
    frequency:    8.6742217852
  - # 13
    frequency:    8.7765176998
  - # 14
    frequency:    9.0688665639
  - # 15
    frequency:    9.8405879155
  - # 16
    frequency:   11.2370087050
  - # 17
    frequency:   16.1711405113
  - # 18
    frequency:   17.0781043625
  - # 19
    frequency:   17.1175725307
  - # 20
    frequency:   61.1690861266
  - # 21
    frequency:   61.1881098003

- q-position: [    0.1212121,    0.0000000,    0.0000000 ]
  distance:    0.0441405
  band:
  - # 1
    frequency:    0.4687250963
  - # 2
    frequency:    0.9505261145
  - # 3
    frequency:    1.2546414023
  - # 4
    frequency:    1.7074025423
  - # 5
    frequency:    1.8348871892
  - # 6
    frequency:    2.2763590652
  - # 7
    frequency:    3.2962282261
  - # 8
    frequency:    5.5545710419
  - # 9
    frequency:    5.8114183983
  - # 10
    frequency:    6.9520432878
  - # 11
    frequency:    8.2076839459
  - # 12
    frequency:    8.6971533780
  - # 13
    frequency:    8.7598764247
  - # 14
    frequency:    9.0794769802
  - # 15
    frequency:    9.8355257732
  - # 16
    frequency:   11.2088868611
  - # 17
    frequency:   16.1608208159
  - # 18
    frequency:   17.0764268320
  - # 19
    frequency:   17.1221156631
  - # 20
    frequency:   61.1656083451
  - # 21
    frequency:   61.1836923991

- q-position: [    0.1262626,    0.0000000,    0.0000000 ]
  distance:    0.0459797
  band:
  - # 1
    frequency:    0.4420310139
  - # 2
    frequency:    0.9769403561
  - # 3
    frequency:    1.2527321361
  - # 4
    frequency:    1.7605198311
  - # 5
    frequency:    1.8759905213
  - # 6
    frequency:    2.3615003958
  - # 7
    frequency:    3.4223799324
  - # 8
    frequency:    5.5490990980
  - # 9
    frequency:    5.8349196859
  - # 10
    frequency:    6.9512518052
  - # 11
    frequency:    8.2067694824
  - # 12
    frequency:    8.7193215199
  - # 13
    frequency:    8.7428432829
  - # 14
    frequency:    9.0903892015
  - # 15
    frequency:    9.8306757165
  - # 16
    frequency:   11.1803740332
  - # 17
    frequency:   16.1500273492
  - # 18
    frequency:   17.0742586345
  - # 19
    frequency:   17.1266911721
  - # 20
    frequency:   61.1620123439
  - # 21
    frequency:   61.1792054789

- q-position: [    0.1313131,    0.0000000,    0.0000000 ]
  distance:    0.0478189
  band:
  - # 1
    frequency:    0.4119643868
  - # 2
    frequency:    1.0008910511
  - # 3
    frequency:    1.2502649054
  - # 4
    frequency:    1.8115158704
  - # 5
    frequency:    1.9212055418
  - # 6
    frequency:    2.4467065056
  - # 7
    frequency:    3.5471733243
  - # 8
    frequency:    5.5437920396
  - # 9
    frequency:    5.8601335133
  - # 10
    frequency:    6.9511836467
  - # 11
    frequency:    8.2057303791
  - # 12
    frequency:    8.7254580080
  - # 13
    frequency:    8.7407855711
  - # 14
    frequency:    9.1014175124
  - # 15
    frequency:    9.8260706472
  - # 16
    frequency:   11.1515675313
  - # 17
    frequency:   16.1387855359
  - # 18
    frequency:   17.0715633161
  - # 19
    frequency:   17.1312610248
  - # 20
    frequency:   61.1582959340
  - # 21
    frequency:   61.1746664326

- q-position: [    0.1363636,    0.0000000,    0.0000000 ]
  distance:    0.0496581
  band:
  - # 1
    frequency:    0.3776924213
  - # 2
    frequency:    1.0225337670
  - # 3
    frequency:    1.2473487703
  - # 4
    frequency:    1.8601221912
  - # 5
    frequency:    1.9707482754
  - # 6
    frequency:    2.5318488219
  - # 7
    frequency:    3.6704413118
  - # 8
    frequency:    5.5387031922
  - # 9
    frequency:    5.8870286023
  - # 10
    frequency:    6.9519049485
  - # 11
    frequency:    8.2045532202
  - # 12
    frequency:    8.7077616315
  - # 13
    frequency:    8.7616309135
  - # 14
    frequency:    9.1123606964
  - # 15
    frequency:    9.8217343549
  - # 16
    frequency:   11.1225678652
  - # 17
    frequency:   16.1271231503
  - # 18
    frequency:   17.0683056836
  - # 19
    frequency:   17.1357859377
  - # 20
    frequency:   61.1544559820
  - # 21
    frequency:   61.1700936217

- q-position: [    0.1414141,    0.0000000,    0.0000000 ]
  distance:    0.0514973
  band:
  - # 1
    frequency:    0.3379036789
  - # 2
    frequency:    1.0420993025
  - # 3
    frequency:    1.2440734127
  - # 4
    frequency:    1.9065612194
  - # 5
    frequency:    2.0242927246
  - # 6
    frequency:    2.6168230464
  - # 7
    frequency:    3.7920119001
  - # 8
    frequency:    5.5338878260
  - # 9
    frequency:    5.9155639538
  - # 10
    frequency:    6.9534872386
  - # 11
    frequency:    8.2032241893
  - # 12
    frequency:    8.6897963566
  - # 13
    frequency:    8.7819606616
  - # 14
    frequency:    9.1230128932
  - # 15
    frequency:    9.8176786839
  - # 16
    frequency:   11.0934784629
  - # 17
    frequency:   16.1150698899
  - # 18
    frequency:   17.0644520150
  - # 19
    frequency:   17.1402258443
  - # 20
    frequency:   61.1504888111
  - # 21
    frequency:   61.1655059245

- q-position: [    0.1464646,    0.0000000,    0.0000000 ]
  distance:    0.0533365
  band:
  - # 1
    frequency:    0.2902981100
  - # 2
    frequency:    1.0598817533
  - # 3
    frequency:    1.2405155215
  - # 4
    frequency:    1.9513862229
  - # 5
    frequency:    2.0811396851
  - # 6
    frequency:    2.7015423718
  - # 7
    frequency:    3.9117068273
  - # 8
    frequency:    5.5294028468
  - # 9
    frequency:    5.9456900934
  - # 10
    frequency:    6.9560079329
  - # 11
    frequency:    8.2017291955
  - # 12
    frequency:    8.6716054159
  - # 13
    frequency:    8.8018866242
  - # 14
    frequency:    9.1331753482
  - # 15
    frequency:    9.8139007071
  - # 16
    frequency:   11.0644052716
  - # 17
    frequency:   16.1026569636
  - # 18
    frequency:   17.0599702597
  - # 19
    frequency:   17.1445403387
  - # 20
    frequency:   61.1463909394
  - # 21
    frequency:   61.1609219496

- q-position: [    0.1515152,    0.0000000,    0.0000000 ]
  distance:    0.0551757
  band:
  - # 1
    frequency:    0.2300244831
  - # 2
    frequency:    1.0762239102
  - # 3
    frequency:    1.2367430367
  - # 4
    frequency:    1.9951653811
  - # 5
    frequency:    2.1405433452
  - # 6
    frequency:    2.7859328900
  - # 7
    frequency:    4.0293407165
  - # 8
    frequency:    5.5253064496
  - # 9
    frequency:    5.9773503170
  - # 10
    frequency:    6.9595507005
  - # 11
    frequency:    8.2000540070
  - # 12
    frequency:    8.6532329110
  - # 13
    frequency:    8.8215202143
  - # 14
    frequency:    9.1426681105
  - # 15
    frequency:    9.8103801911
  - # 16
    frequency:   11.0354562076
  - # 17
    frequency:   16.0899167040
  - # 18
    frequency:   17.0548302297
  - # 19
    frequency:   17.1486890861
  - # 20
    frequency:   61.1421601590
  - # 21
    frequency:   61.1563589090