nqpoint: 300    
npath: 3      
segment_nqpoint:
- 100
- 100
- 100
labels:
- [ 'G', 'M' ]
- [ 'M', 'K' ]
- [ 'K', 'G' ]
reciprocal_lattice:
- [   0.29713280,   0.17154970,   0.00000000 ] # a*
- [   0.00000000,   0.34309940,   0.00000000 ] # b*
- [   0.00000000,   0.00000000,   0.03938600 ] # c*
natom: 7      
lattice:
- [     3.365498562032844,     0.000000000000000,     0.000000000000000 ] # a
- [    -1.682749281016422,     2.914607251119744,     0.000000000000000 ] # b
- [     0.000000000000000,     0.000000000000000,    25.389732719728819 ] # c
points:
- symbol: C # 1
  coordinates: [  0.000000000000000,  0.000000000000000,  0.447433534312618 ]
  mass: 12.010700
- symbol: C # 2
  coordinates: [  0.333332985432215,  0.666666983183674,  0.598072962456146 ]
  mass: 12.010700
- symbol: F # 3
  coordinates: [  0.666666984744047,  0.333332985985145,  0.354473995427555 ]
  mass: 18.998403
- symbol: N # 4
  coordinates: [  0.333332985432215,  0.666666983183674,  0.549029498808736 ]
  mass: 14.006700
- symbol: O # 5
  coordinates: [  0.333332985432215,  0.666666983183674,  0.645526004572445 ]
  mass: 15.999400
- symbol: Sc # 6
  coordinates: [  0.333332985432215,  0.666666983183674,  0.397848276975634 ]
  mass: 44.955912
- symbol: Sc # 7
  coordinates: [  0.666666984744047,  0.333332985985145,  0.496454586193348 ]
  mass: 44.955912

phonon:
- q-position: [    0.0000000,    0.0000000,    0.0000000 ]
  distance:    0.0000000
  band:
  - # 1
    frequency:   -1.0276568881
  - # 2
    frequency:   -1.0276568881
  - # 3
    frequency:   -0.0000010378
  - # 4
    frequency:   -0.0000008039
  - # 5
    frequency:    0.0000005609
  - # 6
    frequency:    4.6936160218
  - # 7
    frequency:    4.6936160218
  - # 8
    frequency:    6.0971669102
  - # 9
    frequency:    6.0971669102
  - # 10
    frequency:    6.3387296295
  - # 11
    frequency:    6.9594944269
  - # 12
    frequency:    6.9594944269
  - # 13
    frequency:   10.3110594246
  - # 14
    frequency:   11.8359579956
  - # 15
    frequency:   11.8359579956
  - # 16
    frequency:   12.9702899276
  - # 17
    frequency:   17.7049496435
  - # 18
    frequency:   17.7049496435
  - # 19
    frequency:   19.3847025155
  - # 20
    frequency:   38.8925918759
  - # 21
    frequency:   69.4873510677

- q-position: [    0.0050505,    0.0000000,    0.0000000 ]
  distance:    0.0017328
  band:
  - # 1
    frequency:   -1.0267447037
  - # 2
    frequency:   -1.0249280568
  - # 3
    frequency:   -0.0214149351
  - # 4
    frequency:    0.0833475164
  - # 5
    frequency:    0.1296948310
  - # 6
    frequency:    4.6939938337
  - # 7
    frequency:    4.6951943794
  - # 8
    frequency:    6.0976295617
  - # 9
    frequency:    6.1037177097
  - # 10
    frequency:    6.3391786387
  - # 11
    frequency:    6.9595435708
  - # 12
    frequency:    6.9599588799
  - # 13
    frequency:   10.3105196069
  - # 14
    frequency:   11.8365208160
  - # 15
    frequency:   11.8423570403
  - # 16
    frequency:   12.9693662068
  - # 17
    frequency:   17.7050048514
  - # 18
    frequency:   17.7052656066
  - # 19
    frequency:   19.3833337568
  - # 20
    frequency:   38.8925340113
  - # 21
    frequency:   69.4858488821

- q-position: [    0.0101010,    0.0000000,    0.0000000 ]
  distance:    0.0034657
  band:
  - # 1
    frequency:   -1.0240430136
  - # 2
    frequency:   -1.0168797861
  - # 3
    frequency:   -0.0137547677
  - # 4
    frequency:    0.1668882089
  - # 5
    frequency:    0.2569651876
  - # 6
    frequency:    4.6951259639
  - # 7
    frequency:    4.6999016851
  - # 8
    frequency:    6.0990136159
  - # 9
    frequency:    6.1228469227
  - # 10
    frequency:    6.3408384635
  - # 11
    frequency:    6.9596897029
  - # 12
    frequency:    6.9613605519
  - # 13
    frequency:   10.3089031668
  - # 14
    frequency:   11.8382052185
  - # 15
    frequency:   11.8615233226
  - # 16
    frequency:   12.9666384992
  - # 17
    frequency:   17.7051703235
  - # 18
    frequency:   17.7062123624
  - # 19
    frequency:   19.3792314860
  - # 20
    frequency:   38.8923605898
  - # 21
    frequency:   69.4813468240

- q-position: [    0.0151515,    0.0000000,    0.0000000 ]
  distance:    0.0051985
  band:
  - # 1
    frequency:   -1.0196515609
  - # 2
    frequency:   -1.0038861920
  - # 3
    frequency:    0.0212498403
  - # 4
    frequency:    0.2507913487
  - # 5
    frequency:    0.3860875103
  - # 6
    frequency:    4.6970085015
  - # 7
    frequency:    4.7076584031
  - # 8
    frequency:    6.1013074298
  - # 9
    frequency:    6.1527553478
  - # 10
    frequency:    6.3448845260
  - # 11
    frequency:    6.9599289435
  - # 12
    frequency:    6.9637273795
  - # 13
    frequency:   10.3062190284
  - # 14
    frequency:   11.8409990569
  - # 15
    frequency:   11.8933534024
  - # 16
    frequency:   12.9622453113
  - # 17
    frequency:   17.7054456060
  - # 18
    frequency:   17.7077865182
  - # 19
    frequency:   19.3724077189
  - # 20
    frequency:   38.8920721272
  - # 21
    frequency:   69.4738583672

- q-position: [    0.0202020,    0.0000000,    0.0000000 ]
  distance:    0.0069313
  band:
  - # 1
    frequency:   -1.0137213290
  - # 2
    frequency:   -0.9864497263
  - # 3
    frequency:    0.0413563911
  - # 4
    frequency:    0.3351824122
  - # 5
    frequency:    0.5168743445
  - # 6
    frequency:    4.6996349474
  - # 7
    frequency:    4.7183432917
  - # 8
    frequency:    6.1044917889
  - # 9
    frequency:    6.1894729400
  - # 10
    frequency:    6.3542706178
  - # 11
    frequency:    6.9602548866
  - # 12
    frequency:    6.9671168342
  - # 13
    frequency:   10.3024817039
  - # 14
    frequency:   11.8448821859
  - # 15
    frequency:   11.9376357480
  - # 16
    frequency:   12.9564475776
  - # 17
    frequency:   17.7058299460
  - # 18
    frequency:   17.7099824449
  - # 19
    frequency:   19.3628824818
  - # 20
    frequency:   38.8916694810
  - # 21
    frequency:   69.4634058916

- q-position: [    0.0252525,    0.0000000,    0.0000000 ]
  distance:    0.0086641
  band:
  - # 1
    frequency:   -1.0064346902
  - # 2
    frequency:   -0.9650652974
  - # 3
    frequency:    0.0627502005
  - # 4
    frequency:    0.4201304647
  - # 5
    frequency:    0.6492594844
  - # 6
    frequency:    4.7029962425
  - # 7
    frequency:    4.7318066937
  - # 8
    frequency:    6.1085401888
  - # 9
    frequency:    6.2252475046
  - # 10
    frequency:    6.3753701133
  - # 11
    frequency:    6.9606586907
  - # 12
    frequency:    6.9716360041
  - # 13
    frequency:   10.2977108305
  - # 14
    frequency:   11.8498266102
  - # 15
    frequency:   11.9939805126
  - # 16
    frequency:   12.9496856955
  - # 17
    frequency:   17.7063222963
  - # 18
    frequency:   17.7127923149
  - # 19
    frequency:   19.3506838141
  - # 20
    frequency:   38.8911538459
  - # 21
    frequency:   69.4500205692

- q-position: [    0.0303030,    0.0000000,    0.0000000 ]
  distance:    0.0103970
  band:
  - # 1
    frequency:   -0.9979831633
  - # 2
    frequency:   -0.9401038705
  - # 3
    frequency:    0.0870337824
  - # 4
    frequency:    0.5056445629
  - # 5
    frequency:    0.7830374781
  - # 6
    frequency:    4.7070808109
  - # 7
    frequency:    4.7478835874
  - # 8
    frequency:    6.1134192150
  - # 9
    frequency:    6.2503522507
  - # 10
    frequency:    6.4161969893
  - # 11
    frequency:    6.9611292048
  - # 12
    frequency:    6.9774792794
  - # 13
    frequency:   10.2919306504
  - # 14
    frequency:   11.8557966906
  - # 15
    frequency:   12.0616915533
  - # 16
    frequency:   12.9426898862
  - # 17
    frequency:   17.7069213217
  - # 18
    frequency:   17.7162061544
  - # 19
    frequency:   19.3358477768
  - # 20
    frequency:   38.8905267490
  - # 21
    frequency:   69.4337422060

- q-position: [    0.0353535,    0.0000000,    0.0000000 ]
  distance:    0.0121298
  band:
  - # 1
    frequency:   -0.9885469414
  - # 2
    frequency:   -0.9117471519
  - # 3
    frequency:    0.1146637121
  - # 4
    frequency:    0.5916788869
  - # 5
    frequency:    0.9179016367
  - # 6
    frequency:    4.7118746167
  - # 7
    frequency:    4.7664038757
  - # 8
    frequency:    6.1190890135
  - # 9
    frequency:    6.2624474395
  - # 10
    frequency:    6.4770506012
  - # 11
    frequency:    6.9616531281
  - # 12
    frequency:    6.9849996777
  - # 13
    frequency:   10.2851695125
  - # 14
    frequency:   11.8627494102
  - # 15
    frequency:   12.1395314954
  - # 16
    frequency:   12.9366940929
  - # 17
    frequency:   17.7076254081
  - # 18
    frequency:   17.7202119105
  - # 19
    frequency:   19.3184184721
  - # 20
    frequency:   38.8897900427
  - # 21
    frequency:   69.4146190398

- q-position: [    0.0404040,    0.0000000,    0.0000000 ]
  distance:    0.0138626
  band:
  - # 1
    frequency:   -0.9782795355
  - # 2
    frequency:   -0.8799735655
  - # 3
    frequency:    0.1458025259
  - # 4
    frequency:    0.6781443679
  - # 5
    frequency:    1.0535158014
  - # 6
    frequency:    4.7173612389
  - # 7
    frequency:    4.7871988990
  - # 8
    frequency:    6.1255038364
  - # 9
    frequency:    6.2661898088
  - # 10
    frequency:    6.5508500052
  - # 11
    frequency:    6.9622152040
  - # 12
    frequency:    6.9948481075
  - # 13
    frequency:   10.2774594485
  - # 14
    frequency:   11.8706346981
  - # 15
    frequency:   12.2252794779
  - # 16
    frequency:   12.9338552397
  - # 17
    frequency:   17.7084326726
  - # 18
    frequency:   17.7247955314
  - # 19
    frequency:   19.2984480817
  - # 20
    frequency:   38.8889458964
  - # 21
    frequency:   69.3927074962

- q-position: [    0.0454545,    0.0000000,    0.0000000 ]
  distance:    0.0155954
  band:
  - # 1
    frequency:   -0.9672991664
  - # 2
    frequency:   -0.8445723258
  - # 3
    frequency:    0.1804932451
  - # 4
    frequency:    0.7649234488
  - # 5
    frequency:    1.1895675023
  - # 6
    frequency:    4.7235219636
  - # 7
    frequency:    4.8101044502
  - # 8
    frequency:    6.1326126483
  - # 9
    frequency:    6.2655237437
  - # 10
    frequency:    6.6306478880
  - # 11
    frequency:    6.9627984445
  - # 12
    frequency:    7.0082498389
  - # 13
    frequency:   10.2688358483
  - # 14
    frequency:   11.8793958099
  - # 15
    frequency:   12.3149109595
  - # 16
    frequency:   12.9380503313
  - # 17
    frequency:   17.7093409752
  - # 18
    frequency:   17.7299410611
  - # 19
    frequency:   19.2759969339
  - # 20
    frequency:   38.8879967868
  - # 21
    frequency:   69.3680719036

- q-position: [    0.0505051,    0.0000000,    0.0000000 ]
  distance:    0.0173283
  band:
  - # 1
    frequency:   -0.9556866311
  - # 2
    frequency:   -0.8051577236
  - # 3
    frequency:    0.2187194664
  - # 4
    frequency:    0.8518846573
  - # 5
    frequency:    1.3257931882
  - # 6
    frequency:    4.7303358974
  - # 7
    frequency:    4.8349612549
  - # 8
    frequency:    6.1403597782
  - # 9
    frequency:    6.2624516740
  - # 10
    frequency:    6.7104198088
  - # 11
    frequency:    6.9633843854
  - # 12
    frequency:    7.0275189149
  - # 13
    frequency:   10.2593372316
  - # 14
    frequency:   11.8889697637
  - # 15
    frequency:   12.4013307592
  - # 16
    frequency:   12.9561223485
  - # 17
    frequency:   17.7103479333
  - # 18
    frequency:   17.7356307481
  - # 19
    frequency:   19.2511336101
  - # 20
    frequency:   38.8869454868
  - # 21
    frequency:   69.3407841695

- q-position: [    0.0555556,    0.0000000,    0.0000000 ]
  distance:    0.0190611
  band:
  - # 1
    frequency:   -0.9434880168
  - # 2
    frequency:   -0.7611615335
  - # 3
    frequency:    0.2604303767
  - # 4
    frequency:    0.9388946489
  - # 5
    frequency:    1.4619825102
  - # 6
    frequency:    4.7377801017
  - # 7
    frequency:    4.8616139907
  - # 8
    frequency:    6.1486856004
  - # 9
    frequency:    6.2579647075
  - # 10
    frequency:    6.7835560191
  - # 11
    frequency:    6.9639533668
  - # 12
    frequency:    7.0566975240
  - # 13
    frequency:   10.2490050933
  - # 14
    frequency:   11.8992878305
  - # 15
    frequency:   12.4737824776
  - # 16
    frequency:   12.9984539320
  - # 17
    frequency:   17.7114509358
  - # 18
    frequency:   17.7418451688
  - # 19
    frequency:   19.2239351103
  - # 20
    frequency:   38.8857950532
  - # 21
    frequency:   69.3109234205

- q-position: [    0.0606061,    0.0000000,    0.0000000 ]
  distance:    0.0207939
  band:
  - # 1
    frequency:   -0.9307201510
  - # 2
    frequency:   -0.7117842407
  - # 3
    frequency:    0.3055505694
  - # 4
    frequency:    1.0258266905
  - # 5
    frequency:    1.5979716334
  - # 6
    frequency:    4.7458297489
  - # 7
    frequency:    4.8899097014
  - # 8
    frequency:    6.1575272286
  - # 9
    frequency:    6.2526075480
  - # 10
    frequency:    6.8429737483
  - # 11
    frequency:    6.9644848398
  - # 12
    frequency:    7.1009254738
  - # 13
    frequency:   10.2378837991
  - # 14
    frequency:   11.9102760748
  - # 15
    frequency:   12.5217259688
  - # 16
    frequency:   13.0750790131
  - # 17
    frequency:   17.7126471605
  - # 18
    frequency:   17.7485633700
  - # 19
    frequency:   19.1944870953
  - # 20
    frequency:   38.8845488125
  - # 21
    frequency:   69.2785756069

- q-position: [    0.0656566,    0.0000000,    0.0000000 ]
  distance:    0.0225267
  band:
  - # 1
    frequency:   -0.9173769148
  - # 2
    frequency:   -0.6558746477
  - # 3
    frequency:    0.3539807502
  - # 4
    frequency:    1.1125656478
  - # 5
    frequency:    1.7336328751
  - # 6
    frequency:    4.7544583012
  - # 7
    frequency:    4.9196961389
  - # 8
    frequency:    6.1668192110
  - # 9
    frequency:    6.2467216749
  - # 10
    frequency:    6.8850654621
  - # 11
    frequency:    6.9649576917
  - # 12
    frequency:    7.1622791611
  - # 13
    frequency:   10.2260205025
  - # 14
    frequency:   11.9218559440
  - # 15
    frequency:   12.5426653621
  - # 16
    frequency:   13.1878510978
  - # 17
    frequency:   17.7139335916
  - # 18
    frequency:   17.7557630319
  - # 19
    frequency:   19.1628842354
  - # 20
    frequency:   38.8832103464
  - # 21
    frequency:   69.2438330765

- q-position: [    0.0707071,    0.0000000,    0.0000000 ]
  distance:    0.0242596
  band:
  - # 1
    frequency:   -0.9034351427
  - # 2
    frequency:   -0.5916650782
  - # 3
    frequency:    0.4055911355
  - # 4
    frequency:    1.1990101630
  - # 5
    frequency:    1.8688645410
  - # 6
    frequency:    4.7636377104
  - # 7
    frequency:    4.9508202870
  - # 8
    frequency:    6.1764942106
  - # 9
    frequency:    6.2405502569
  - # 10
    frequency:    6.9126127944
  - # 11
    frequency:    6.9653505885
  - # 12
    frequency:    7.2367673793
  - # 13
    frequency:   10.2134650633
  - # 14
    frequency:   11.9339449009
  - # 15
    frequency:   12.5422882596
  - # 16
    frequency:   13.3303079281
  - # 17
    frequency:   17.7153070387
  - # 18
    frequency:   17.7634206613
  - # 19
    frequency:   19.1292306990
  - # 20
    frequency:   38.8817834755
  - # 21
    frequency:   69.2067941183

- q-position: [    0.0757576,    0.0000000,    0.0000000 ]
  distance:    0.0259924
  band:
  - # 1
    frequency:   -0.8888594433
  - # 2
    frequency:   -0.5161529981
  - # 3
    frequency:    0.4602083918
  - # 4
    frequency:    1.2850728985
  - # 5
    frequency:    2.0035824589
  - # 6
    frequency:    4.7733386386
  - # 7
    frequency:    4.9831271281
  - # 8
    frequency:    6.1864836641
  - # 9
    frequency:    6.2342866359
  - # 10
    frequency:    6.9308165692
  - # 11
    frequency:    6.9656423296
  - # 12
    frequency:    7.3182535307
  - # 13
    frequency:   10.2002699527
  - # 14
    frequency:   11.9464570972
  - # 15
    frequency:   12.5275695457
  - # 16
    frequency:   13.4945785128
  - # 17
    frequency:   17.7167641569
  - # 18
    frequency:   17.7715118258
  - # 19
    frequency:   19.0936408283
  - # 20
    frequency:   38.8802722421
  - # 21
    frequency:   69.1675624807

- q-position: [    0.0808081,    0.0000000,    0.0000000 ]
  distance:    0.0277252
  band:
  - # 1
    frequency:   -0.8736057365
  - # 2
    frequency:   -0.4233788415
  - # 3
    frequency:    0.5175983545
  - # 4
    frequency:    1.3706796326
  - # 5
    frequency:    2.1377134612
  - # 6
    frequency:    4.7835306976
  - # 7
    frequency:    5.0164586177
  - # 8
    frequency:    6.1967184080
  - # 9
    frequency:    6.2280986588
  - # 10
    frequency:    6.9435058614
  - # 11
    frequency:    6.9658122076
  - # 12
    frequency:    7.4022117336
  - # 13
    frequency:   10.1864901381
  - # 14
    frequency:   11.9593040788
  - # 15
    frequency:   12.5033792776
  - # 16
    frequency:   13.6747916748
  - # 17
    frequency:   17.7183014677
  - # 18
    frequency:   17.7800114473
  - # 19
    frequency:   19.0562400607
  - # 20
    frequency:   38.8786808921
  - # 21
    frequency:   69.1262468663

- q-position: [    0.0858586,    0.0000000,    0.0000000 ]
  distance:    0.0294580
  band:
  - # 1
    frequency:   -0.8576235651
  - # 2
    frequency:   -0.2974960945
  - # 3
    frequency:    0.5774502549
  - # 4
    frequency:    1.4557677984
  - # 5
    frequency:    2.2711905667
  - # 6
    frequency:    4.7941827031
  - # 7
    frequency:    5.0506527873
  - # 8
    frequency:    6.2071292686
  - # 9
    frequency:    6.2221419997
  - # 10
    frequency:    6.9528388883
  - # 11
    frequency:    6.9658403701
  - # 12
    frequency:    7.4859940537
  - # 13
    frequency:   10.1721829436
  - # 14
    frequency:   11.9723955215
  - # 15
    frequency:   12.4726287392
  - # 16
    frequency:   13.8669500849
  - # 17
    frequency:   17.7199153806
  - # 18
    frequency:   17.7888941844
  - # 19
    frequency:   19.0171661768
  - # 20
    frequency:   38.8770138559
  - # 21
    frequency:   69.0829604065

- q-position: [    0.0909091,    0.0000000,    0.0000000 ]
  distance:    0.0311909
  band:
  - # 1
    frequency:   -0.8408573554
  - # 2
    frequency:    0.0778885551
  - # 3
    frequency:    0.6393720962
  - # 4
    frequency:    1.5402848521
  - # 5
    frequency:    2.4039494766
  - # 6
    frequency:    4.8052629439
  - # 7
    frequency:    5.0855429067
  - # 8
    frequency:    6.2165681611
  - # 9
    frequency:    6.2176476123
  - # 10
    frequency:    6.9599683355
  - # 11
    frequency:    6.9657081750
  - # 12
    frequency:    7.5681337445
  - # 13
    frequency:   10.1574078911
  - # 14
    frequency:   11.9856399858
  - # 15
    frequency:   12.4370381426
  - # 16
    frequency:   14.0681841079
  - # 17
    frequency:   17.7216022151
  - # 18
    frequency:   17.7981349496
  - # 19
    frequency:   18.9765709766
  - # 20
    frequency:   38.8752757285
  - # 21
    frequency:   69.0378201200

- q-position: [    0.0959596,    0.0000000,    0.0000000 ]
  distance:    0.0329237
  band:
  - # 1
    frequency:   -0.8232468127
  - # 2
    frequency:    0.3239120632
  - # 3
    frequency:    0.7029069530
  - # 4
    frequency:    1.6241866902
  - # 5
    frequency:    2.5359260221
  - # 6
    frequency:    4.8167394590
  - # 7
    frequency:    5.1209566599
  - # 8
    frequency:    6.2115297554
  - # 9
    frequency:    6.2282058554
  - # 10
    frequency:    6.9653985343
  - # 11
    frequency:    6.9655222339
  - # 12
    frequency:    7.6478336116
  - # 13
    frequency:   10.1422265240
  - # 14
    frequency:   11.9989456870
  - # 15
    frequency:   12.3976667923
  - # 16
    frequency:   14.2762425096
  - # 17
    frequency:   17.7233582233
  - # 18
    frequency:   17.8077096312
  - # 19
    frequency:   18.9346225262
  - # 20
    frequency:   38.8734712489
  - # 21
    frequency:   68.9909463580

- q-position: [    0.1010101,    0.0000000,    0.0000000 ]
  distance:    0.0346565
  band:
  - # 1
    frequency:   -0.8047266063
  - # 2
    frequency:    0.4568572508
  - # 3
    frequency:    0.7675724673
  - # 4
    frequency:    1.7074362263
  - # 5
    frequency:    2.6670542728
  - # 6
    frequency:    4.8285803224
  - # 7
    frequency:    5.1567153368
  - # 8
    frequency:    6.2071842992
  - # 9
    frequency:    6.2387379366
  - # 10
    frequency:    6.9648962374
  - # 11
    frequency:    6.9698568576
  - # 12
    frequency:    7.7246840514
  - # 13
    frequency:   10.1267022236
  - # 14
    frequency:   12.0122212713
  - # 15
    frequency:   12.3552069582
  - # 16
    frequency:   14.4892169017
  - # 17
    frequency:   17.7251796126
  - # 18
    frequency:   17.8175961325
  - # 19
    frequency:   18.8915081589
  - # 20
    frequency:   38.8716052790
  - # 21
    frequency:   68.9424622400

- q-position: [    0.1060606,    0.0000000,    0.0000000 ]
  distance:    0.0363893
  band:
  - # 1
    frequency:   -0.7852254366
  - # 2
    frequency:    0.5641625603
  - # 3
    frequency:    0.8329134484
  - # 4
    frequency:    1.7900021643
  - # 5
    frequency:    2.7972650848
  - # 6
    frequency:    4.8407539296
  - # 7
    frequency:    5.1926330987
  - # 8
    frequency:    6.2036970896
  - # 9
    frequency:    6.2491797550
  - # 10
    frequency:    6.9641882486
  - # 11
    frequency:    6.9731836925
  - # 12
    frequency:    7.7985097084
  - # 13
    frequency:   10.1109000271
  - # 14
    frequency:   12.0253765895
  - # 15
    frequency:   12.3101410868
  - # 16
    frequency:   14.7053987561
  - # 17
    frequency:   17.7270625680
  - # 18
    frequency:   17.8277759017
  - # 19
    frequency:   18.8474384835
  - # 20
    frequency:   38.8696827819
  - # 21
    frequency:   68.8924930832

- q-position: [    0.1111111,    0.0000000,    0.0000000 ]
  distance:    0.0381222
  band:
  - # 1
    frequency:   -0.7646645127
  - # 2
    frequency:    0.6591418384
  - # 3
    frequency:    0.8985501869
  - # 4
    frequency:    1.8718579678
  - # 5
    frequency:    2.9264849286
  - # 6
    frequency:    4.8532292829
  - # 7
    frequency:    5.2285164531
  - # 8
    frequency:    6.2012433645
  - # 9
    frequency:    6.2594695797
  - # 10
    frequency:    6.9632639694
  - # 11
    frequency:    6.9756347375
  - # 12
    frequency:    7.8692811484
  - # 13
    frequency:   10.0948864570
  - # 14
    frequency:   12.0383234618
  - # 15
    frequency:   12.2628273527
  - # 16
    frequency:   14.9232027487
  - # 17
    frequency:   17.7290032751
  - # 18
    frequency:   17.8382362258
  - # 19
    frequency:   18.8026527378
  - # 20
    frequency:   38.8677087999
  - # 21
    frequency:   68.8411658301

- q-position: [    0.1161616,    0.0000000,    0.0000000 ]
  distance:    0.0398550
  band:
  - # 1
    frequency:   -0.7429553887
  - # 2
    frequency:    0.7470591430
  - # 3
    frequency:    0.9642094281
  - # 4
    frequency:    1.9529810067
  - # 5
    frequency:    3.0546348774
  - # 6
    frequency:    4.8659762716
  - # 7
    frequency:    5.2641641562
  - # 8
    frequency:    6.2000097219
  - # 9
    frequency:    6.2695484385
  - # 10
    frequency:    6.9621154590
  - # 11
    frequency:    6.9772975959
  - # 12
    frequency:    7.9370603692
  - # 13
    frequency:   10.0787293766
  - # 14
    frequency:   12.0509764237
  - # 15
    frequency:   12.2135477678
  - # 16
    frequency:   15.1411211192
  - # 17
    frequency:   17.7309979418
  - # 18
    frequency:   17.8489737182
  - # 19
    frequency:   18.7574259458
  - # 20
    frequency:   38.8656884325
  - # 21
    frequency:   68.7886084770

- q-position: [    0.1212121,    0.0000000,    0.0000000 ]
  distance:    0.0415878
  band:
  - # 1
    frequency:   -0.7199970232
  - # 2
    frequency:    0.8305625457
  - # 3
    frequency:    1.0297362016
  - # 4
    frequency:    2.0333518551
  - # 5
    frequency:    3.1816296686
  - # 6
    frequency:    4.8789659447
  - # 7
    frequency:    5.2993678739
  - # 8
    frequency:    6.2001945881
  - # 9
    frequency:    6.2793604924
  - # 10
    frequency:    6.9607376056
  - # 11
    frequency:    6.9782352495
  - # 12
    frequency:    8.0019651990
  - # 13
    frequency:   10.0624978815
  - # 14
    frequency:   12.0632534468
  - # 15
    frequency:   12.1625362254
  - # 16
    frequency:   15.3576904989
  - # 17
    frequency:   17.7330428198
  - # 18
    frequency:   17.8599996637
  - # 19
    frequency:   18.7120785047
  - # 20
    frequency:   38.8636268137
  - # 21
    frequency:   68.7349495070

- q-position: [    0.1262626,    0.0000000,    0.0000000 ]
  distance:    0.0433206
  band:
  - # 1
    frequency:   -0.6956718039
  - # 2
    frequency:    0.9111100912
  - # 3
    frequency:    1.0950933720
  - # 4
    frequency:    2.1129537141
  - # 5
    frequency:    3.3073767658
  - # 6
    frequency:    4.8921707704
  - # 7
    frequency:    5.3339140349
  - # 8
    frequency:    6.2020073860
  - # 9
    frequency:    6.2888534054
  - # 10
    frequency:    6.9591282408
  - # 11
    frequency:    6.9784977299
  - # 12
    frequency:    8.0641450825
  - # 13
    frequency:   10.0462622442
  - # 14
    frequency:   12.0750766245
  - # 15
    frequency:   12.1099954223
  - # 16
    frequency:   15.5714607279
  - # 17
    frequency:   17.7351342256
  - # 18
    frequency:   17.8713482335
  - # 19
    frequency:   18.6669890490
  - # 20
    frequency:   38.8615290897
  - # 21
    frequency:   68.6803173317

- q-position: [    0.1313131,    0.0000000,    0.0000000 ]
  distance:    0.0450535
  band:
  - # 1
    frequency:   -0.6698401079
  - # 2
    frequency:    0.9895008852
  - # 3
    frequency:    1.1603575958
  - # 4
    frequency:    2.1917719355
  - # 5
    frequency:    3.4317753625
  - # 6
    frequency:    4.9055648827
  - # 7
    frequency:    5.3675873999
  - # 8
    frequency:    6.2056659422
  - # 9
    frequency:    6.2979787144
  - # 10
    frequency:    6.9572881922
  - # 11
    frequency:    6.9781293171
  - # 12
    frequency:    8.1237642061
  - # 13
    frequency:   10.0300939245
  - # 14
    frequency:   12.0561074003
  - # 15
    frequency:   12.0863728179
  - # 16
    frequency:   15.7809587292
  - # 17
    frequency:   17.7372685600
  - # 18
    frequency:   17.8830890340
  - # 19
    frequency:   18.6226117599
  - # 20
    frequency:   38.8594003972
  - # 21
    frequency:   68.6248397448

- q-position: [    0.1363636,    0.0000000,    0.0000000 ]
  distance:    0.0467863
  band:
  - # 1
    frequency:   -0.6423326877
  - # 2
    frequency:    1.0661138055
  - # 3
    frequency:    1.2257168457
  - # 4
    frequency:    2.2697936268
  - # 5
    frequency:    3.5547152645
  - # 6
    frequency:    4.9191243098
  - # 7
    frequency:    5.4001768894
  - # 8
    frequency:    6.2113916493
  - # 9
    frequency:    6.3066922094
  - # 10
    frequency:    6.9552212673
  - # 11
    frequency:    6.9771731743
  - # 12
    frequency:    8.1809895803
  - # 13
    frequency:   10.0140656600
  - # 14
    frequency:   12.0010403061
  - # 15
    frequency:   12.0970742535
  - # 16
    frequency:   15.9846417733
  - # 17
    frequency:   17.7394423267
  - # 18
    frequency:   17.8953459029
  - # 19
    frequency:   18.5794997491
  - # 20
    frequency:   38.8572458412
  - # 21
    frequency:   68.5686433897

- q-position: [    0.1414141,    0.0000000,    0.0000000 ]
  distance:    0.0485191
  band:
  - # 1
    frequency:   -0.6129396963
  - # 2
    frequency:    1.1410299787
  - # 3
    frequency:    1.2914680475
  - # 4
    frequency:    2.3470073215
  - # 5
    frequency:    3.6760755876
  - # 6
    frequency:    4.9328271842
  - # 7
    frequency:    5.4314840956
  - # 8
    frequency:    6.2194020126
  - # 9
    frequency:    6.3149543247
  - # 10
    frequency:    6.9529341667
  - # 11
    frequency:    6.9756744708
  - # 12
    frequency:    8.2359825659
  - # 13
    frequency:    9.9982516502
  - # 14
    frequency:   11.9449528491
  - # 15
    frequency:   12.1071190666
  - # 16
    frequency:   16.1808348973
  - # 17
    frequency:   17.7416521502
  - # 18
    frequency:   17.9083238023
  - # 19
    frequency:   18.5383368849
  - # 20
    frequency:   38.8550704735
  - # 21
    frequency:   68.5118532464

- q-position: [    0.1464646,    0.0000000,    0.0000000 ]
  distance:    0.0502519
  band:
  - # 1
    frequency:   -0.5813942919
  - # 2
    frequency:    1.2141121900
  - # 3
    frequency:    1.3580044754
  - # 4
    frequency:    2.4234027022
  - # 5
    frequency:    3.7957231930
  - # 6
    frequency:    4.9466539308
  - # 7
    frequency:    5.4613345923
  - # 8
    frequency:    6.2299005296
  - # 9
    frequency:    6.3227305467
  - # 10
    frequency:    6.9504363248
  - # 11
    frequency:    6.9736825997
  - # 12
    frequency:    8.2888928177
  - # 13
    frequency:    9.9827278453
  - # 14
    frequency:   11.8879973224
  - # 15
    frequency:   12.1164517860
  - # 16
    frequency:   16.3676486097
  - # 17
    frequency:   17.7438947908
  - # 18
    frequency:   17.9223435577
  - # 19
    frequency:   18.4999817295
  - # 20
    frequency:   38.8528792720
  - # 21
    frequency:   68.4545921388

- q-position: [    0.1515152,    0.0000000,    0.0000000 ]
  distance:    0.0519848
  band:
  - # 1
    frequency:   -0.5473470699
  - # 2
    frequency:    1.2850859581
  - # 3
    frequency:    1.4257744169
  - # 4
    frequency:    2.4989703664
  - # 5
    frequency:    3.9135107617
  - # 6
    frequency:    4.9605874338
  - # 7
    frequency:    5.4895916126
  - # 8
    frequency:    6.2430643979
  - # 9
    frequency:    6.3299918356
  - # 10
    frequency:    6.9477396782
  - # 11
    frequency:    6.9712528715
  - # 12
    frequency:    8.3398539193
  - # 13
    frequency:    9.9675723461
  - # 14
    frequency:   11.8303217179
  - # 15
    frequency:   12.1250237551
  - # 16
    frequency:   16.5428789862
  - # 17
    frequency:   17.7461671596
  - # 18
    frequency:   17.9378760509
  - # 19
    frequency:   18.4655297000
  - # 20
    frequency:   38.8506771207
  - # 21
    frequency:   68.3969802668