nqpoint: 300    
npath: 3      
segment_nqpoint:
- 100
- 100
- 100
labels:
- [ 'G', 'M' ]
- [ 'M', 'K' ]
- [ 'K', 'G' ]
reciprocal_lattice:
- [   0.28003673,   0.16167928,   0.00000000 ] # a*
- [   0.00000000,   0.32335856,   0.00000000 ] # b*
- [   0.00000000,   0.00000000,   0.04431009 ] # c*
natom: 5      
lattice:
- [     3.570960192914558,     0.000000000000000,     0.000000000000000 ] # a
- [    -1.785480096457279,     3.092542242959706,     0.000000000000000 ] # b
- [     0.000000000000000,     0.000000000000000,    22.568222875292481 ] # c
points:
- symbol: N # 1
  coordinates: [  0.000000000000000,  0.000000000000000,  0.500000032460561 ]
  mass: 14.006700
- symbol: O # 2
  coordinates: [  0.333332985432215,  0.666666983183674,  0.601209184713736 ]
  mass: 15.999400
- symbol: O # 3
  coordinates: [  0.666666984744048,  0.333332985985145,  0.398790815286264 ]
  mass: 15.999400
- symbol: Y # 4
  coordinates: [  0.333332985432215,  0.666666983183674,  0.432237371812112 ]
  mass: 88.905850
- symbol: Y # 5
  coordinates: [  0.666666984744048,  0.333332985985145,  0.567762627703394 ]
  mass: 88.905850

phonon:
- q-position: [    0.0000000,    0.0000000,    0.0000000 ]
  distance:    0.0000000
  band:
  - # 1
    frequency:   -0.0000168081
  - # 2
    frequency:   -0.0000000854
  - # 3
    frequency:    0.0000154453
  - # 4
    frequency:    2.6900463971
  - # 5
    frequency:    2.6900463972
  - # 6
    frequency:    4.2462644834
  - # 7
    frequency:    7.9175610290
  - # 8
    frequency:    7.9175610290
  - # 9
    frequency:    9.9185348446
  - # 10
    frequency:   11.7310908656
  - # 11
    frequency:   12.1061609668
  - # 12
    frequency:   12.1061609668
  - # 13
    frequency:   12.3106263184
  - # 14
    frequency:   12.3106263184
  - # 15
    frequency:   13.3290374875

- q-position: [    0.0050505,    0.0000000,    0.0000000 ]
  distance:    0.0016331
  band:
  - # 1
    frequency:    0.0018525416
  - # 2
    frequency:    0.0615525533
  - # 3
    frequency:    0.1004879636
  - # 4
    frequency:    2.6903614423
  - # 5
    frequency:    2.6919371459
  - # 6
    frequency:    4.2460303393
  - # 7
    frequency:    7.9169112108
  - # 8
    frequency:    7.9179143544
  - # 9
    frequency:    9.9167311519
  - # 10
    frequency:   11.7296108381
  - # 11
    frequency:   12.1059290689
  - # 12
    frequency:   12.1064953977
  - # 13
    frequency:   12.3105817794
  - # 14
    frequency:   12.3119291725
  - # 15
    frequency:   13.3307099016

- q-position: [    0.0101010,    0.0000000,    0.0000000 ]
  distance:    0.0032662
  band:
  - # 1
    frequency:    0.0073941726
  - # 2
    frequency:    0.1230703239
  - # 3
    frequency:    0.2009440925
  - # 4
    frequency:    2.6913068143
  - # 5
    frequency:    2.6975931532
  - # 6
    frequency:    4.2453288631
  - # 7
    frequency:    7.9149649737
  - # 8
    frequency:    7.9189731217
  - # 9
    frequency:    9.9113474713
  - # 10
    frequency:   11.7252086247
  - # 11
    frequency:   12.1052340625
  - # 12
    frequency:   12.1074767482
  - # 13
    frequency:   12.3104479508
  - # 14
    frequency:   12.3157997552
  - # 15
    frequency:   13.3357218778

- q-position: [    0.0151515,    0.0000000,    0.0000000 ]
  distance:    0.0048994
  band:
  - # 1
    frequency:    0.0165775267
  - # 2
    frequency:    0.1845186526
  - # 3
    frequency:    0.3013362560
  - # 4
    frequency:    2.6928832126
  - # 5
    frequency:    2.7069663372
  - # 6
    frequency:    4.2441629297
  - # 7
    frequency:    7.9117319551
  - # 8
    frequency:    7.9207337115
  - # 9
    frequency:    9.9024647493
  - # 10
    frequency:   11.7179928083
  - # 11
    frequency:   12.1040780038
  - # 12
    frequency:   12.1090406454
  - # 13
    frequency:   12.3102242008
  - # 14
    frequency:   12.3221294239
  - # 15
    frequency:   13.3440571472

- q-position: [    0.0202020,    0.0000000,    0.0000000 ]
  distance:    0.0065325
  band:
  - # 1
    frequency:    0.0293256512
  - # 2
    frequency:    0.2458631190
  - # 3
    frequency:    0.4016317405
  - # 4
    frequency:    2.6950917645
  - # 5
    frequency:    2.7199786205
  - # 6
    frequency:    4.2425373523
  - # 7
    frequency:    7.9072281702
  - # 8
    frequency:    7.9231901161
  - # 9
    frequency:    9.8902138773
  - # 10
    frequency:   11.7081291181
  - # 11
    frequency:   12.1024643018
  - # 12
    frequency:   12.1110845178
  - # 13
    frequency:   12.3099094893
  - # 14
    frequency:   12.3307531709
  - # 15
    frequency:   13.3556871024

- q-position: [    0.0252525,    0.0000000,    0.0000000 ]
  distance:    0.0081656
  band:
  - # 1
    frequency:    0.0455347972
  - # 2
    frequency:    0.3070696623
  - # 3
    frequency:    0.5017969589
  - # 4
    frequency:    2.6979339703
  - # 5
    frequency:    2.7365248169
  - # 6
    frequency:    4.2404589158
  - # 7
    frequency:    7.9014759407
  - # 8
    frequency:    7.9263339763
  - # 9
    frequency:    9.8747700994
  - # 10
    frequency:   11.6958220839
  - # 11
    frequency:   12.1003976915
  - # 12
    frequency:   12.1134742162
  - # 13
    frequency:   12.3095023848
  - # 14
    frequency:   12.3414689546
  - # 15
    frequency:   13.3705688197

- q-position: [    0.0303030,    0.0000000,    0.0000000 ]
  distance:    0.0097987
  band:
  - # 1
    frequency:    0.0650779659
  - # 2
    frequency:    0.3681046976
  - # 3
    frequency:    0.6017971671
  - # 4
    frequency:    2.7014116265
  - # 5
    frequency:    2.7564763043
  - # 6
    frequency:    4.2379364252
  - # 7
    frequency:    7.8945037986
  - # 8
    frequency:    7.9301546319
  - # 9
    frequency:    9.8563459785
  - # 10
    frequency:   11.6812962138
  - # 11
    frequency:   12.0978841981
  - # 12
    frequency:   12.1160523765
  - # 13
    frequency:   12.3090010882
  - # 14
    frequency:   12.3540575340
  - # 15
    frequency:   13.3886427714

- q-position: [    0.0353535,    0.0000000,    0.0000000 ]
  distance:    0.0114319
  band:
  - # 1
    frequency:    0.0878089208
  - # 2
    frequency:    0.4289352300
  - # 3
    frequency:    0.7015961861
  - # 4
    frequency:    2.7055267312
  - # 5
    frequency:    2.7796851842
  - # 6
    frequency:    4.2349807690
  - # 7
    frequency:    7.8863463634
  - # 8
    frequency:    7.9346391854
  - # 9
    frequency:    9.8351835402
  - # 10
    frequency:   11.6647799783
  - # 11
    frequency:   12.0949310939
  - # 12
    frequency:   12.1186476855
  - # 13
    frequency:   12.3084034603
  - # 14
    frequency:   12.3682993453
  - # 15
    frequency:   13.4098306179

- q-position: [    0.0404040,    0.0000000,    0.0000000 ]
  distance:    0.0130650
  band:
  - # 1
    frequency:    0.1135663715
  - # 2
    frequency:    0.4895289654
  - # 3
    frequency:    0.8011561306
  - # 4
    frequency:    2.7102813732
  - # 5
    frequency:    2.8059886249
  - # 6
    frequency:    4.2316050010
  - # 7
    frequency:    7.8770441980
  - # 8
    frequency:    7.9397725784
  - # 9
    frequency:    9.8115462038
  - # 10
    frequency:   11.6464942024
  - # 11
    frequency:   12.0915468486
  - # 12
    frequency:   12.1210841579
  - # 13
    frequency:   12.3077070529
  - # 14
    frequency:   12.3839867185
  - # 15
    frequency:   13.4340334666

- q-position: [    0.0454545,    0.0000000,    0.0000000 ]
  distance:    0.0146981
  band:
  - # 1
    frequency:    0.1421780672
  - # 2
    frequency:    0.5498544168
  - # 3
    frequency:    0.9004371437
  - # 4
    frequency:    2.7156776063
  - # 5
    frequency:    2.8352131126
  - # 6
    frequency:    4.2278244423
  - # 7
    frequency:    7.8666436416
  - # 8
    frequency:    7.9455376790
  - # 9
    frequency:    9.7857110208
  - # 10
    frequency:   11.6266449844
  - # 11
    frequency:   12.0877410752
  - # 12
    frequency:   12.1231896151
  - # 13
    frequency:   12.3069091405
  - # 14
    frequency:   12.4009312785
  - # 15
    frequency:   13.4611309184

- q-position: [    0.0505051,    0.0000000,    0.0000000 ]
  distance:    0.0163312
  band:
  - # 1
    frequency:    0.1734645925
  - # 2
    frequency:    0.6098810069
  - # 3
    frequency:    0.9993971390
  - # 4
    frequency:    2.7217173140
  - # 5
    frequency:    2.8671783905
  - # 6
    frequency:    4.2236568056
  - # 7
    frequency:    7.8551966251
  - # 8
    frequency:    7.9519153797
  - # 9
    frequency:    9.7579616095
  - # 10
    frequency:   11.6054203780
  - # 11
    frequency:   12.0835244726
  - # 12
    frequency:   12.1248027603
  - # 13
    frequency:   12.3060067536
  - # 14
    frequency:   12.4189673068
  - # 15
    frequency:   13.4909811071

- q-position: [    0.0555556,    0.0000000,    0.0000000 ]
  distance:    0.0179644
  band:
  - # 1
    frequency:    0.2072427204
  - # 2
    frequency:    0.6695791639
  - # 3
    frequency:    1.0979915467
  - # 4
    frequency:    2.7284020655
  - # 5
    frequency:    2.9017009296
  - # 6
    frequency:    4.2191223473
  - # 7
    frequency:    7.8427604672
  - # 8
    frequency:    7.9588847037
  - # 9
    frequency:    9.7285820318
  - # 10
    frequency:   11.5829897667
  - # 11
    frequency:   12.0789087662
  - # 12
    frequency:   12.1257784936
  - # 13
    frequency:   12.3049967106
  - # 14
    frequency:   12.4379521768
  - # 15
    frequency:   13.5234217959

- q-position: [    0.0606061,    0.0000000,    0.0000000 ]
  distance:    0.0195975
  band:
  - # 1
    frequency:    0.2433282475
  - # 2
    frequency:    0.7289204129
  - # 3
    frequency:    1.1961730640
  - # 4
    frequency:    2.7357329682
  - # 5
    frequency:    2.9385968399
  - # 6
    frequency:    4.2142440504
  - # 7
    frequency:    7.8293976550
  - # 8
    frequency:    7.9664229195
  - # 9
    frequency:    9.6978517230
  - # 10
    frequency:   11.5595049249
  - # 11
    frequency:   12.0739066476
  - # 12
    frequency:   12.1259913593
  - # 13
    frequency:   12.3038756486
  - # 14
    frequency:   12.4577649385
  - # 15
    frequency:   13.5582724567

- q-position: [    0.0656566,    0.0000000,    0.0000000 ]
  distance:    0.0212306
  band:
  - # 1
    frequency:    0.2815382878
  - # 2
    frequency:    0.7878774588
  - # 3
    frequency:    1.2938914048
  - # 4
    frequency:    2.7437105179
  - # 5
    frequency:    2.9776841872
  - # 6
    frequency:    4.2090478461
  - # 7
    frequency:    7.8151756082
  - # 8
    frequency:    7.9745056612
  - # 9
    frequency:    9.6660414820
  - # 10
    frequency:   11.5351019786
  - # 11
    frequency:   12.0685317146
  - # 12
    frequency:   12.1253372308
  - # 13
    frequency:   12.3026400521
  - # 14
    frequency:   12.4783039159
  - # 15
    frequency:   13.5953371435

- q-position: [    0.0707071,    0.0000000,    0.0000000 ]
  distance:    0.0228637
  band:
  - # 1
    frequency:    0.3216930476
  - # 2
    frequency:    0.8464242631
  - # 3
    frequency:    1.3910930446
  - # 4
    frequency:    2.7523344532
  - # 5
    frequency:    3.0187847242
  - # 6
    frequency:    4.2035628809
  - # 7
    frequency:    7.8001664268
  - # 8
    frequency:    7.9831070544
  - # 9
    frequency:    9.6334104510
  - # 10
    frequency:   11.5099037248
  - # 11
    frequency:   12.0627984108
  - # 12
    frequency:   12.1237334843
  - # 13
    frequency:   12.3012862793
  - # 14
    frequency:   12.4994839331
  - # 15
    frequency:   13.6344079022

- q-position: [    0.0757576,    0.0000000,    0.0000000 ]
  distance:    0.0244969
  band:
  - # 1
    frequency:    0.3636171339
  - # 2
    frequency:    0.9045361118
  - # 3
    frequency:    1.4877209554
  - # 4
    frequency:    2.7616036140
  - # 5
    frequency:    3.0617250780
  - # 6
    frequency:    4.1978218405
  - # 7
    frequency:    7.7844466215
  - # 8
    frequency:    7.9921998446
  - # 9
    frequency:    9.6002039718
  - # 10
    frequency:   11.4840219712
  - # 11
    frequency:   12.0567219665
  - # 12
    frequency:   12.1211179976
  - # 13
    frequency:   12.2998105872
  - # 14
    frequency:   12.5212335630
  - # 15
    frequency:   13.6752684374

- q-position: [    0.0808081,    0.0000000,    0.0000000 ]
  distance:    0.0261300
  band:
  - # 1
    frequency:    0.4071404640
  - # 2
    frequency:    0.9621896755
  - # 3
    frequency:    1.5837143209
  - # 4
    frequency:    2.7715158104
  - # 5
    frequency:    3.1063374485
  - # 6
    frequency:    4.1918613427
  - # 7
    frequency:    7.7680968239
  - # 8
    frequency:    8.0017555287
  - # 9
    frequency:    9.5666521834
  - # 10
    frequency:   11.4575597089
  - # 11
    frequency:   12.0503183398
  - # 12
    frequency:   12.1174473349
  - # 13
    frequency:   12.2982091535
  - # 14
    frequency:   12.5434926231
  - # 15
    frequency:   13.7176977740

- q-position: [    0.0858586,    0.0000000,    0.0000000 ]
  distance:    0.0277631
  band:
  - # 1
    frequency:    0.4520988520
  - # 2
    frequency:    1.0193630589
  - # 3
    frequency:    1.6790082217
  - # 4
    frequency:    2.7820677016
  - # 5
    frequency:    3.1524598842
  - # 6
    frequency:    4.1857224195
  - # 7
    frequency:    7.7512014736
  - # 8
    frequency:    8.0117444874
  - # 9
    frequency:    9.5329692263
  - # 10
    frequency:   11.4306130276
  - # 11
    frequency:   12.0436041585
  - # 12
    frequency:   12.1126944519
  - # 13
    frequency:   12.2964780980
  - # 14
    frequency:   12.5662100206
  - # 15
    frequency:   13.7614737030

- q-position: [    0.0909091,    0.0000000,    0.0000000 ]
  distance:    0.0293962
  band:
  - # 1
    frequency:    0.4983343442
  - # 2
    frequency:    1.0760358419
  - # 3
    frequency:    1.7735332782
  - # 4
    frequency:    2.7932546915
  - # 5
    frequency:    3.1999361951
  - # 6
    frequency:    4.1794511104
  - # 7
    frequency:    7.7338484783
  - # 8
    frequency:    8.0221361168
  - # 9
    frequency:    9.4993529258
  - # 10
    frequency:   11.4032727430
  - # 11
    frequency:   12.0365966629
  - # 12
    frequency:   12.1068462032
  - # 13
    frequency:   12.2946135022
  - # 14
    frequency:   12.5893419731
  - # 15
    frequency:   13.8063758601

- q-position: [    0.0959596,    0.0000000,    0.0000000 ]
  distance:    0.0310294
  band:
  - # 1
    frequency:    0.5456953724
  - # 2
    frequency:    1.1321891099
  - # 3
    frequency:    1.8672152328
  - # 4
    frequency:    2.8050708389
  - # 5
    frequency:    3.2486155553
  - # 6
    frequency:    4.1730992013
  - # 7
    frequency:    7.7161288406
  - # 8
    frequency:    8.0328989597
  - # 9
    frequency:    9.4659848456
  - # 10
    frequency:   11.3756257384
  - # 11
    frequency:   12.0293136476
  - # 12
    frequency:   12.0999008694
  - # 13
    frequency:   12.2926114285
  - # 14
    frequency:   12.6128505843
  - # 15
    frequency:   13.8521883500

- q-position: [    0.1010101,    0.0000000,    0.0000000 ]
  distance:    0.0326625
  band:
  - # 1
    frequency:    0.5940367800
  - # 2
    frequency:    1.1878054729
  - # 3
    frequency:    1.9599744504
  - # 4
    frequency:    2.8175087877
  - # 5
    frequency:    3.2983518323
  - # 6
    frequency:    4.1667251548
  - # 7
    frequency:    7.6981362479
  - # 8
    frequency:    8.0440008334
  - # 9
    frequency:    9.4330306186
  - # 10
    frequency:   11.3477560414
  - # 11
    frequency:   12.0217734047
  - # 12
    frequency:   12.0918658479
  - # 13
    frequency:   12.2904679395
  - # 14
    frequency:   12.6367027340
  - # 15
    frequency:   13.8987018860

- q-position: [    0.1060606,    0.0000000,    0.0000000 ]
  distance:    0.0342956
  band:
  - # 1
    frequency:    0.6432197701
  - # 2
    frequency:    1.2428690750
  - # 3
    frequency:    2.0517253134
  - # 4
    frequency:    2.8305597162
  - # 5
    frequency:    3.3490026575
  - # 6
    frequency:    4.1603952962
  - # 7
    frequency:    7.6799666180
  - # 8
    frequency:    8.0554089558
  - # 9
    frequency:    9.4006404822
  - # 10
    frequency:   11.3197456617
  - # 11
    frequency:   12.0139946659
  - # 12
    frequency:   12.0827555964
  - # 13
    frequency:   12.2881791175
  - # 14
    frequency:   12.6608692302
  - # 15
    frequency:   13.9457154522

- q-position: [    0.1111111,    0.0000000,    0.0000000 ]
  distance:    0.0359287
  band:
  - # 1
    frequency:    0.6931118115
  - # 2
    frequency:    1.2973655922
  - # 3
    frequency:    2.1423754781
  - # 4
    frequency:    2.8442133076
  - # 5
    frequency:    3.4004282185
  - # 6
    frequency:    4.1541853510
  - # 7
    frequency:    7.6617175955
  - # 8
    frequency:    8.0670900668
  - # 9
    frequency:    9.3689499595
  - # 10
    frequency:   11.2916752172
  - # 11
    frequency:   12.0059965441
  - # 12
    frequency:   12.0725898695
  - # 13
    frequency:   12.2857410843
  - # 14
    frequency:   12.6853241774
  - # 15
    frequency:   13.9930375308

- q-position: [    0.1161616,    0.0000000,    0.0000000 ]
  distance:    0.0375619
  band:
  - # 1
    frequency:    0.7435865284
  - # 2
    frequency:    1.3512822190
  - # 3
    frequency:    2.2318249584
  - # 4
    frequency:    2.8584577415
  - # 5
    frequency:    3.4524897101
  - # 6
    frequency:    4.1481824724
  - # 7
    frequency:    7.6434879951
  - # 8
    frequency:    8.0790105460
  - # 9
    frequency:    9.3380806441
  - # 10
    frequency:   11.2636243754
  - # 11
    frequency:   11.9977984752
  - # 12
    frequency:   12.0613922517
  - # 13
    frequency:   12.2831500231
  - # 14
    frequency:   12.7100445159
  - # 15
    frequency:   14.0404869465

- q-position: [    0.1212121,    0.0000000,    0.0000000 ]
  distance:    0.0391950
  band:
  - # 1
    frequency:    0.7945235943
  - # 2
    frequency:    1.4046076447
  - # 3
    frequency:    2.3199649939
  - # 4
    frequency:    2.8732797067
  - # 5
    frequency:    3.5050472988
  - # 6
    frequency:    4.1424879759
  - # 7
    frequency:    7.6253771862
  - # 8
    frequency:    8.0911365251
  - # 9
    frequency:    9.3081410534
  - # 10
    frequency:   11.2356721323
  - # 11
    frequency:   11.9894201586
  - # 12
    frequency:   12.0491889721
  - # 13
    frequency:   12.2804022007
  - # 14
    frequency:   12.7350096944
  - # 15
    frequency:   14.0878933917

- q-position: [    0.1262626,    0.0000000,    0.0000000 ]
  distance:    0.0408281
  band:
  - # 1
    frequency:    0.8458086403
  - # 2
    frequency:    1.4573320188
  - # 3
    frequency:    2.4066766572
  - # 4
    frequency:    2.8886644348
  - # 5
    frequency:    3.5579573314
  - # 6
    frequency:    4.1372211237
  - # 7
    frequency:    7.6074844197
  - # 8
    frequency:    8.1034339955
  - # 9
    frequency:    9.2792275277
  - # 10
    frequency:   11.2078969494
  - # 11
    frequency:   11.9808814971
  - # 12
    frequency:   12.0360079701
  - # 13
    frequency:   12.2774939917
  - # 14
    frequency:   12.7602014474
  - # 15
    frequency:   14.1350976930

- q-position: [    0.1313131,    0.0000000,    0.0000000 ]
  distance:    0.0424612
  band:
  - # 1
    frequency:    0.8973331837
  - # 2
    frequency:    1.5094469059
  - # 3
    frequency:    2.4918291540
  - # 4
    frequency:    2.9045957534
  - # 5
    frequency:    3.6110682850
  - # 6
    frequency:    4.1325245283
  - # 7
    frequency:    7.5899080947
  - # 8
    frequency:    8.1158689111
  - # 9
    frequency:    9.2514251559
  - # 10
    frequency:   11.1803767651
  - # 11
    frequency:   11.9722025364
  - # 12
    frequency:   12.0218781782
  - # 13
    frequency:   12.2744219047
  - # 14
    frequency:   12.7856036509
  - # 15
    frequency:   14.1819518763

- q-position: [    0.1363636,    0.0000000,    0.0000000 ]
  distance:    0.0440943
  band:
  - # 1
    frequency:    0.9489945791
  - # 2
    frequency:    1.5609452317
  - # 3
    frequency:    2.5752777733
  - # 4
    frequency:    2.9210561572
  - # 5
    frequency:    3.6642145355
  - # 6
    frequency:    4.1285721559
  - # 7
    frequency:    7.5727449698
  - # 8
    frequency:    8.1284072850
  - # 9
    frequency:    9.2248087123
  - # 10
    frequency:   11.1531888939
  - # 11
    frequency:   11.9634034046
  - # 12
    frequency:   12.0068289859
  - # 13
    frequency:   12.2711826089
  - # 14
    frequency:   12.8112022372
  - # 15
    frequency:   14.2283190788

- q-position: [    0.1414141,    0.0000000,    0.0000000 ]
  distance:    0.0457275
  band:
  - # 1
    frequency:    1.0006959900
  - # 2
    frequency:    1.6118212191
  - # 3
    frequency:    2.6568614639
  - # 4
    frequency:    2.9380268959
  - # 5
    frequency:    3.7172062078
  - # 6
    frequency:    4.1255817051
  - # 7
    frequency:    7.5560893237
  - # 8
    frequency:    8.1410152816
  - # 9
    frequency:    9.1994435944
  - # 10
    frequency:   11.1264098266
  - # 11
    frequency:   11.9545042498
  - # 12
    frequency:   11.9908898514
  - # 13
    frequency:   12.2677729638
  - # 14
    frequency:   12.8369851524
  - # 15
    frequency:   14.2740733520

- q-position: [    0.1464646,    0.0000000,    0.0000000 ]
  distance:    0.0473606
  band:
  - # 1
    frequency:    1.0523463769
  - # 2
    frequency:    1.6620703169
  - # 3
    frequency:    2.7364000519
  - # 4
    frequency:    2.9554880769
  - # 5
    frequency:    3.7698117800
  - # 6
    frequency:    4.1238346809
  - # 7
    frequency:    7.5400320752
  - # 8
    frequency:    8.1536593033
  - # 9
    frequency:    9.1753867495
  - # 10
    frequency:   11.1001149398
  - # 11
    frequency:   11.9455251795
  - # 12
    frequency:   11.9740900322
  - # 13
    frequency:   12.2641900492
  - # 14
    frequency:   12.8629423434
  - # 15
    frequency:   14.3190993875

- q-position: [    0.1515152,    0.0000000,    0.0000000 ]
  distance:    0.0489937
  band:
  - # 1
    frequency:    1.1038604978
  - # 2
    frequency:    1.7116891211
  - # 3
    frequency:    2.8136911873
  - # 4
    frequency:    2.9734187791
  - # 5
    frequency:    3.8217269669
  - # 6
    frequency:    4.1237105538
  - # 7
    frequency:    7.5246598745
  - # 8
    frequency:    8.1663060726
  - # 9
    frequency:    9.1526875825
  - # 10
    frequency:   11.0743781236
  - # 11
    frequency:   11.9364861985
  - # 12
    frequency:   11.9564584092
  - # 13
    frequency:   12.2604311965
  - # 14
    frequency:   12.8890657620
  - # 15
    frequency:   14.3632921946

- q-position: [    0.1565657,    0.0000000,    0.0000000 ]
  distance:    0.0506268
  band:
  - # 1
    frequency:    1.1551589157
  - # 2
    frequency:    1.7606752895
  - # 3
    frequency:    2.8885072442
  - # 4
    frequency:    2.9917971776
  - # 5
    frequency:    3.8725175579
  - # 6
    frequency:    4.1257471090
  - # 7
    frequency:    7.5100541817
  - # 8
    frequency:    8.1789227095
  - # 9
    frequency:    9.1313888327
  - # 10
    frequency:   11.0492713369
  - # 11
    frequency:   11.9274071478
  - # 12
    frequency:   11.9380233841
  - # 13
    frequency:   12.2564940212
  - # 14
    frequency:   12.9153493780
  - # 15
    frequency:   14.4065567503

- q-position: [    0.1616162,    0.0000000,    0.0000000 ]
  distance:    0.0522600
  band:
  - # 1
    frequency:    1.2061680080
  - # 2
    frequency:    1.8090274524
  - # 3
    frequency:    2.9605926159
  - # 4
    frequency:    3.0106006738
  - # 5
    frequency:    3.9215157595
  - # 6
    frequency:    4.1307469863
  - # 7
    frequency:    7.4962903518
  - # 8
    frequency:    8.1914768050
  - # 9
    frequency:    9.1115274136
  - # 10
    frequency:   11.0248640952
  - # 11
    frequency:   11.9183076437
  - # 12
    frequency:   11.9188128326
  - # 13
    frequency:   12.2523764563
  - # 14
    frequency:   12.9417891900
  - # 15
    frequency:   14.4488076375

- q-position: [    0.1666667,    0.0000000,    0.0000000 ]
  distance:    0.0538931
  band:
  - # 1
    frequency:    1.2568199718
  - # 2
    frequency:    1.8567451186
  - # 3
    frequency:    3.0296621820
  - # 4
    frequency:    3.0298060314
  - # 5
    frequency:    3.9676558313
  - # 6
    frequency:    4.1399438402
  - # 7
    frequency:    7.4834367490
  - # 8
    frequency:    8.2039364902
  - # 9
    frequency:    9.0931352032
  - # 10
    frequency:   11.0012229021
  - # 11
    frequency:   11.8988541027
  - # 12
    frequency:   11.9092070185
  - # 13
    frequency:   12.2480767853
  - # 14
    frequency:   12.9683832285
  - # 15
    frequency:   14.4899686835

- q-position: [    0.1717172,    0.0000000,    0.0000000 ]
  distance:    0.0555262
  band:
  - # 1
    frequency:    1.3070528236
  - # 2
    frequency:    1.9038285791
  - # 3
    frequency:    3.0493895126
  - # 4
    frequency:    3.0954021770
  - # 5
    frequency:    4.0093482503
  - # 6
    frequency:    4.1551276433
  - # 7
    frequency:    7.4715539143
  - # 8
    frequency:    8.2162705031
  - # 9
    frequency:    9.0762397777
  - # 10
    frequency:   10.9784106289
  - # 11
    frequency:   11.8781740450
  - # 12
    frequency:   11.9001242606
  - # 13
    frequency:   12.2435936758
  - # 14
    frequency:   12.9951315413
  - # 15
    frequency:   14.5299726085

- q-position: [    0.1767677,    0.0000000,    0.0000000 ]
  distance:    0.0571593
  band:
  - # 1
    frequency:    1.3568103882
  - # 2
    frequency:    1.9502788092
  - # 3
    frequency:    3.0693270140
  - # 4
    frequency:    3.1574752104
  - # 5
    frequency:    4.0448968445
  - # 6
    frequency:    4.1782229271
  - # 7
    frequency:    7.4606938140
  - # 8
    frequency:    8.2284482519
  - # 9
    frequency:    9.0608650771
  - # 10
    frequency:   10.9564858552
  - # 11
    frequency:   11.8567990708
  - # 12
    frequency:   11.8910779580
  - # 13
    frequency:   12.2389262121
  - # 14
    frequency:   13.0220361552
  - # 15
    frequency:   14.5687606885

- q-position: [    0.1818182,    0.0000000,    0.0000000 ]
  distance:    0.0587925
  band:
  - # 1
    frequency:    1.4060422752
  - # 2
    frequency:    1.9960973707
  - # 3
    frequency:    3.0895941988
  - # 4
    frequency:    3.2155315753
  - # 5
    frequency:    4.0739847595
  - # 6
    frequency:    4.2097919395
  - # 7
    frequency:    7.4508991961
  - # 8
    frequency:    8.2404398760
  - # 9
    frequency:    9.0470319962
  - # 10
    frequency:   10.9355021787
  - # 11
    frequency:   11.8347552314
  - # 12
    frequency:   11.8820862418
  - # 13
    frequency:   12.2340739277
  - # 14
    frequency:   13.0491010078
  - # 15
    frequency:   14.6062824389

- q-position: [    0.1868687,    0.0000000,    0.0000000 ]
  distance:    0.0604256
  band:
  - # 1
    frequency:    1.4547038414
  - # 2
    frequency:    2.0412863150
  - # 3
    frequency:    3.1101666238
  - # 4
    frequency:    3.2692288428
  - # 5
    frequency:    4.0985752254
  - # 6
    frequency:    4.2481147350
  - # 7
    frequency:    7.4422030831
  - # 8
    frequency:    8.2522163055
  - # 9
    frequency:    9.0347588905
  - # 10
    frequency:   10.9155075060
  - # 11
    frequency:   11.8120683142
  - # 12
    frequency:   11.8731667325
  - # 13
    frequency:   12.2290368356
  - # 14
    frequency:   13.0763318401
  - # 15
    frequency:   14.6424953210

- q-position: [    0.1919192,    0.0000000,    0.0000000 ]
  distance:    0.0620587
  band:
  - # 1
    frequency:    1.5027561382
  - # 2
    frequency:    2.0858480879
  - # 3
    frequency:    3.1310198572
  - # 4
    frequency:    3.3182604974
  - # 5
    frequency:    4.1214832322
  - # 6
    frequency:    4.2905893102
  - # 7
    frequency:    7.4346284255
  - # 8
    frequency:    8.2637493192
  - # 9
    frequency:    9.0240619905
  - # 10
    frequency:   10.8965433383
  - # 11
    frequency:   11.7887639555
  - # 12
    frequency:   11.8643364881
  - # 13
    frequency:   12.2238154580
  - # 14
    frequency:   13.1037360470
  - # 15
    frequency:   14.6773644734

- q-position: [    0.1969697,    0.0000000,    0.0000000 ]
  distance:    0.0636918
  band:
  - # 1
    frequency:    1.5501658428
  - # 2
    frequency:    2.1297854374
  - # 3
    frequency:    3.1521295886
  - # 4
    frequency:    3.3623915972
  - # 5
    frequency:    4.1448710233
  - # 6
    frequency:    4.3352008671
  - # 7
    frequency:    7.4281879407
  - # 8
    frequency:    8.2750116013
  - # 9
    frequency:    9.0149557185
  - # 10
    frequency:   10.8786440668
  - # 11
    frequency:   11.7648677678
  - # 12
    frequency:   11.8556119545
  - # 13
    frequency:   12.2184108532
  - # 14
    frequency:   13.1313224765
  - # 15
    frequency:   14.7108624690

- q-position: [    0.2020202,    0.0000000,    0.0000000 ]
  distance:    0.0653250
  band:
  - # 1
    frequency:    1.5969051728
  - # 2
    frequency:    2.1731013254
  - # 3
    frequency:    3.1734717266
  - # 4
    frequency:    3.4014955128
  - # 5
    frequency:    4.1700106941
  - # 6
    frequency:    4.3807228438
  - # 7
    frequency:    7.4228841527
  - # 8
    frequency:    8.2859767982
  - # 9
    frequency:    9.0074529024
  - # 10
    frequency:   10.8618362929
  - # 11
    frequency:   11.7404054813
  - # 12
    frequency:   11.8470089188
  - # 13
    frequency:   12.2128246405
  - # 14
    frequency:   13.1591011736
  - # 15
    frequency:   14.7429691002

- q-position: [    0.2070707,    0.0000000,    0.0000000 ]
  distance:    0.0669581
  band:
  - # 1
    frequency:    1.6429517832
  - # 2
    frequency:    2.2157988439
  - # 3
    frequency:    3.1950224850
  - # 4
    frequency:    3.4355824767
  - # 5
    frequency:    4.1975249180
  - # 6
    frequency:    4.4264479362
  - # 7
    frequency:    7.4187096464
  - # 8
    frequency:    8.2966195745
  - # 9
    frequency:    9.0015648845
  - # 10
    frequency:   10.8461381905
  - # 11
    frequency:   11.7154031018
  - # 12
    frequency:   11.8385424655
  - # 13
    frequency:   12.2070590223
  - # 14
    frequency:   13.1870830639
  - # 15
    frequency:   14.7736711906

- q-position: [    0.2121212,    0.0000000,    0.0000000 ]
  distance:    0.0685912
  band:
  - # 1
    frequency:    1.6882886447
  - # 2