nqpoint: 300    
npath: 3      
segment_nqpoint:
- 100
- 100
- 100
labels:
- [ 'G', 'M' ]
- [ 'M', 'K' ]
- [ 'K', 'G' ]
reciprocal_lattice:
- [   0.29875507,   0.17248632,   0.00000000 ] # a*
- [   0.00000000,   0.34497263,   0.00000000 ] # b*
- [   0.00000000,   0.00000000,   0.04086462 ] # c*
natom: 6      
lattice:
- [     3.347223584548623,     0.000000000000000,     0.000000000000000 ] # a
- [    -1.673611792274311,     2.898780656357623,     0.000000000000000 ] # b
- [     0.000000000000000,     0.000000000000000,    24.471044817192837 ] # c
points:
- symbol: Br # 1
  coordinates: [  0.333332985432215,  0.666666983183674,  0.632218400675856 ]
  mass: 79.904000
- symbol: H # 2
  coordinates: [  0.666666984744047,  0.333332985985145,  0.367781599324145 ]
  mass: 1.007940
- symbol: N # 3
  coordinates: [  0.000000000000000,  0.000000000000000,  0.506227868781399 ]
  mass: 14.006700
- symbol: O # 4
  coordinates: [  0.666666984744047,  0.333332985985145,  0.408067246035119 ]
  mass: 15.999400
- symbol: Sc # 5
  coordinates: [  0.333332985432215,  0.666666983183674,  0.457350863449263 ]
  mass: 44.955912
- symbol: Sc # 6
  coordinates: [  0.666666984744047,  0.333332985985145,  0.555302269725196 ]
  mass: 44.955912

phonon:
- q-position: [    0.0000000,    0.0000000,    0.0000000 ]
  distance:    0.0000000
  band:
  - # 1
    frequency:   -0.0000168801
  - # 2
    frequency:   -0.0000005730
  - # 3
    frequency:    0.0000127094
  - # 4
    frequency:    3.4374609418
  - # 5
    frequency:    3.4374609419
  - # 6
    frequency:    5.2185851488
  - # 7
    frequency:    6.2890789345
  - # 8
    frequency:    6.2890789345
  - # 9
    frequency:    8.0968441027
  - # 10
    frequency:    8.0968441027
  - # 11
    frequency:    9.9440369343
  - # 12
    frequency:   12.2835870202
  - # 13
    frequency:   12.5008513489
  - # 14
    frequency:   12.5008513489
  - # 15
    frequency:   13.2816067730
  - # 16
    frequency:   14.0664482607
  - # 17
    frequency:   14.0664482607
  - # 18
    frequency:  112.6887960736

- q-position: [    0.0050505,    0.0000000,    0.0000000 ]
  distance:    0.0017423
  band:
  - # 1
    frequency:    0.0013537975
  - # 2
    frequency:    0.0569985660
  - # 3
    frequency:    0.0740500882
  - # 4
    frequency:    3.4381774332
  - # 5
    frequency:    3.4392001112
  - # 6
    frequency:    5.2178987391
  - # 7
    frequency:    6.2888918732
  - # 8
    frequency:    6.2894559991
  - # 9
    frequency:    8.0964376930
  - # 10
    frequency:    8.0968100766
  - # 11
    frequency:    9.9429131470
  - # 12
    frequency:   12.2825594853
  - # 13
    frequency:   12.4999711884
  - # 14
    frequency:   12.5011755578
  - # 15
    frequency:   13.2820155156
  - # 16
    frequency:   14.0646837642
  - # 17
    frequency:   14.0662287449
  - # 18
    frequency:  112.6875158642

- q-position: [    0.0101010,    0.0000000,    0.0000000 ]
  distance:    0.0034846
  band:
  - # 1
    frequency:    0.0054267577
  - # 2
    frequency:    0.1143441115
  - # 3
    frequency:    0.1479824939
  - # 4
    frequency:    3.4403269743
  - # 5
    frequency:    3.4444025217
  - # 6
    frequency:    5.2158428993
  - # 7
    frequency:    6.2883329096
  - # 8
    frequency:    6.2905863276
  - # 9
    frequency:    8.0952163866
  - # 10
    frequency:    8.0967075585
  - # 11
    frequency:    9.9395443744
  - # 12
    frequency:   12.2794718962
  - # 13
    frequency:   12.4973354318
  - # 14
    frequency:   12.5021468525
  - # 15
    frequency:   13.2832363084
  - # 16
    frequency:   14.0594061528
  - # 17
    frequency:   14.0655704590
  - # 18
    frequency:  112.6836805162

- q-position: [    0.0151515,    0.0000000,    0.0000000 ]
  distance:    0.0052269
  band:
  - # 1
    frequency:    0.0122507807
  - # 2
    frequency:    0.1723712674
  - # 3
    frequency:    0.2216806226
  - # 4
    frequency:    3.4439097135
  - # 5
    frequency:    3.4530232059
  - # 6
    frequency:    5.2124278796
  - # 7
    frequency:    6.2874086735
  - # 8
    frequency:    6.2924671942
  - # 9
    frequency:    8.0931740103
  - # 10
    frequency:    8.0965352402
  - # 11
    frequency:    9.9339383948
  - # 12
    frequency:   12.2743089007
  - # 13
    frequency:   12.4929585395
  - # 14
    frequency:   12.5037612394
  - # 15
    frequency:   13.2852528268
  - # 16
    frequency:   14.0506632186
  - # 17
    frequency:   14.0644741911
  - # 18
    frequency:  112.6773058497

- q-position: [    0.0202020,    0.0000000,    0.0000000 ]
  distance:    0.0069691
  band:
  - # 1
    frequency:    0.0218741812
  - # 2
    frequency:    0.2313911262
  - # 3
    frequency:    0.2950300611
  - # 4
    frequency:    3.4489257219
  - # 5
    frequency:    3.4649882762
  - # 6
    frequency:    5.2076710337
  - # 7
    frequency:    6.2861301095
  - # 8
    frequency:    6.2950936295
  - # 9
    frequency:    8.0903004663
  - # 10
    frequency:    8.0962909780
  - # 11
    frequency:    9.9261082050
  - # 12
    frequency:   12.2670436427
  - # 13
    frequency:   12.4868655053
  - # 14
    frequency:   12.5060120671
  - # 15
    frequency:   13.2880377946
  - # 16
    frequency:   14.0385351417
  - # 17
    frequency:   14.0629412651
  - # 18
    frequency:  112.6684181651

- q-position: [    0.0252525,    0.0000000,    0.0000000 ]
  distance:    0.0087114
  band:
  - # 1
    frequency:    0.0343549909
  - # 2
    frequency:    0.2916821102
  - # 3
    frequency:    0.3679196863
  - # 4
    frequency:    3.4553747329
  - # 5
    frequency:    3.4801964321
  - # 6
    frequency:    5.2015971998
  - # 7
    frequency:    6.2845123202
  - # 8
    frequency:    6.2984578078
  - # 9
    frequency:    8.0865820180
  - # 10
    frequency:    8.0959718478
  - # 11
    frequency:    9.9160720690
  - # 12
    frequency:   12.2576360734
  - # 13
    frequency:   12.4790929889
  - # 14
    frequency:   12.5088900336
  - # 15
    frequency:   13.2915528749
  - # 16
    frequency:   14.0231352778
  - # 17
    frequency:   14.0609735585
  - # 18
    frequency:  112.6570541444

- q-position: [    0.0303030,    0.0000000,    0.0000000 ]
  distance:    0.0104537
  band:
  - # 1
    frequency:    0.0497534364
  - # 2
    frequency:    0.3534834693
  - # 3
    frequency:    0.4402427922
  - # 4
    frequency:    3.4632557832
  - # 5
    frequency:    3.4985209163
  - # 6
    frequency:    5.1942391940
  - # 7
    frequency:    6.2825743495
  - # 8
    frequency:    6.3025482384
  - # 9
    frequency:    8.0820016858
  - # 10
    frequency:    8.0955742199
  - # 11
    frequency:    9.9038535840
  - # 12
    frequency:   12.2460310156
  - # 13
    frequency:   12.4696904952
  - # 14
    frequency:   12.5123831931
  - # 15
    frequency:   13.2957484966
  - # 16
    frequency:   14.0046112590
  - # 17
    frequency:   14.0585735275
  - # 18
    frequency:  112.6432607117

- q-position: [    0.0353535,    0.0000000,    0.0000000 ]
  distance:    0.0121960
  band:
  - # 1
    frequency:    0.0681245921
  - # 2
    frequency:    0.4169915400
  - # 3
    frequency:    0.5118982344
  - # 4
    frequency:    3.4725667626
  - # 5
    frequency:    3.5198117824
  - # 6
    frequency:    5.1856383797
  - # 7
    frequency:    6.2803389082
  - # 8
    frequency:    6.3073488035
  - # 9
    frequency:    8.0765397522
  - # 10
    frequency:    8.0950938534
  - # 11
    frequency:    9.8894817623
  - # 12
    frequency:   12.2321563973
  - # 13
    frequency:   12.4587212215
  - # 14
    frequency:   12.5164769604
  - # 15
    frequency:   13.3005635807
  - # 16
    frequency:   13.9831464044
  - # 17
    frequency:   14.0557442431
  - # 18
    frequency:  112.6270948564

- q-position: [    0.0404040,    0.0000000,    0.0000000 ]
  distance:    0.0139383
  band:
  - # 1
    frequency:    0.0895120841
  - # 2
    frequency:    0.4823585432
  - # 3
    frequency:    0.5827915889
  - # 4
    frequency:    3.4833038818
  - # 5
    frequency:    3.5438983223
  - # 6
    frequency:    5.1758452807
  - # 7
    frequency:    6.2778320445
  - # 8
    frequency:    6.3128376867
  - # 9
    frequency:    8.0701743740
  - # 10
    frequency:    8.0945260080
  - # 11
    frequency:    9.8729911264
  - # 12
    frequency:   12.2159221588
  - # 13
    frequency:   12.4462621299
  - # 14
    frequency:   12.5211541107
  - # 15
    frequency:   13.3059251017
  - # 16
    frequency:   13.9589614430
  - # 17
    frequency:   14.0524894393
  - # 18
    frequency:  112.6086234170

- q-position: [    0.0454545,    0.0000000,    0.0000000 ]
  distance:    0.0156806
  band:
  - # 1
    frequency:    0.1139433696
  - # 2
    frequency:    0.5496934501
  - # 3
    frequency:    0.6528363157
  - # 4
    frequency:    3.4954610734
  - # 5
    frequency:    3.5705914931
  - # 6
    frequency:    5.1649202088
  - # 7
    frequency:    6.2750827641
  - # 8
    frequency:    6.3189862335
  - # 9
    frequency:    8.0628823024
  - # 10
    frequency:    8.0938655718
  - # 11
    frequency:    9.8544218150
  - # 12
    frequency:   12.1972203772
  - # 13
    frequency:   12.4324027976
  - # 14
    frequency:   12.5263947707
  - # 15
    frequency:   13.3117473800
  - # 16
    frequency:   13.9323165532
  - # 17
    frequency:   14.0488135766
  - # 18
    frequency:  112.5879228274

- q-position: [    0.0505051,    0.0000000,    0.0000000 ]
  distance:    0.0174229
  band:
  - # 1
    frequency:    0.1414267626
  - # 2
    frequency:    0.6190643360
  - # 3
    frequency:    0.7219549104
  - # 4
    frequency:    3.5090293403
  - # 5
    frequency:    3.5996861889
  - # 6
    frequency:    5.1529338882
  - # 7
    frequency:    6.2721226046
  - # 8
    frequency:    6.3257577783
  - # 9
    frequency:    8.0546397132
  - # 10
    frequency:    8.0931072014
  - # 11
    frequency:    9.8338196978
  - # 12
    frequency:   12.1759270945
  - # 13
    frequency:   12.4172426888
  - # 14
    frequency:   12.5321763973
  - # 15
    frequency:   13.3179309529
  - # 16
    frequency:   13.9035137397
  - # 17
    frequency:   14.0447219227
  - # 18
    frequency:  112.5650788265

- q-position: [    0.0555556,    0.0000000,    0.0000000 ]
  distance:    0.0191651
  band:
  - # 1
    frequency:    0.1719501004
  - # 2
    frequency:    0.6905016473
  - # 3
    frequency:    0.7900800235
  - # 4
    frequency:    3.5239960749
  - # 5
    frequency:    3.6309632192
  - # 6
    frequency:    5.1399680690
  - # 7
    frequency:    6.2689851690
  - # 8
    frequency:    6.3331064634
  - # 9
    frequency:    8.0454231548
  - # 10
    frequency:    8.0922454736
  - # 11
    frequency:    9.8112364968
  - # 12
    frequency:   12.1519061573
  - # 13
    frequency:   12.4008867089
  - # 14
    frequency:   12.5384737394
  - # 15
    frequency:   13.3243608120
  - # 16
    frequency:   13.8728995857
  - # 17
    frequency:   14.0402206552
  - # 18
    frequency:  112.5401861306

- q-position: [    0.0606061,    0.0000000,    0.0000000 ]
  distance:    0.0209074
  band:
  - # 1
    frequency:    0.2054807759
  - # 2
    frequency:    0.7640018803
  - # 3
    frequency:    0.8571555162
  - # 4
    frequency:    3.5403443739
  - # 5
    frequency:    3.6641908690
  - # 6
    frequency:    5.1261161410
  - # 7
    frequency:    6.2657056262
  - # 8
    frequency:    6.3409760640
  - # 9
    frequency:    8.0352106238
  - # 10
    frequency:    8.0912750445
  - # 11
    frequency:    9.7867299116
  - # 12
    frequency:   12.1250150584
  - # 13
    frequency:   12.3834392483
  - # 14
    frequency:   12.5452587789
  - # 15
    frequency:   13.3309037327
  - # 16
    frequency:   13.8408684508
  - # 17
    frequency:   14.0353169879
  - # 18
    frequency:  112.5133480725

- q-position: [    0.0656566,    0.0000000,    0.0000000 ]
  distance:    0.0226497
  band:
  - # 1
    frequency:    0.2419667906
  - # 2
    frequency:    0.8395312871
  - # 3
    frequency:    0.9231374223
  - # 4
    frequency:    3.5580523770
  - # 5
    frequency:    3.6991259420
  - # 6
    frequency:    5.1114837677
  - # 7
    frequency:    6.2623201847
  - # 8
    frequency:    6.3492988222
  - # 9
    frequency:    8.0239827841
  - # 10
    frequency:    8.0901908130
  - # 11
    frequency:    9.7603637471
  - # 12
    frequency:   12.0951123832
  - # 13
    frequency:   12.3649973383
  - # 14
    frequency:   12.5525006452
  - # 15
    frequency:   13.3374043689
  - # 16
    frequency:   13.8078662111
  - # 17
    frequency:   14.0300193267
  - # 18
    frequency:  112.4846762041

- q-position: [    0.0707071,    0.0000000,    0.0000000 ]
  distance:    0.0243920
  band:
  - # 1
    frequency:    0.2813384800
  - # 2
    frequency:    0.9170293384
  - # 3
    frequency:    0.9879947742
  - # 4
    frequency:    3.5770926616
  - # 5
    frequency:    3.7355142074
  - # 6
    frequency:    5.0961895756
  - # 7
    frequency:    6.2588655487
  - # 8
    frequency:    6.3579942898
  - # 9
    frequency:    8.0117243510
  - # 10
    frequency:    8.0889880865
  - # 11
    frequency:    9.7322080434
  - # 12
    frequency:   12.0620661236
  - # 13
    frequency:   12.3456438870
  - # 14
    frequency:   12.5601654994
  - # 15
    frequency:   13.3436797965
  - # 16
    frequency:   13.7743946109
  - # 17
    frequency:   14.0243374570
  - # 18
    frequency:  112.4542898687

- q-position: [    0.0757576,    0.0000000,    0.0000000 ]
  distance:    0.0261343
  band:
  - # 1
    frequency:    0.3235106084
  - # 2
    frequency:    0.9964117753
  - # 3
    frequency:    1.0517102555
  - # 4
    frequency:    3.5974317260
  - # 5
    frequency:    3.7730901972
  - # 6
    frequency:    5.0803659346
  - # 7
    frequency:    6.2553783659
  - # 8
    frequency:    6.3669681724
  - # 9
    frequency:    7.9984256633
  - # 10
    frequency:    8.0876627434
  - # 11
    frequency:    9.7023392065
  - # 12
    frequency:   12.0257619794
  - # 13
    frequency:   12.3254420965
  - # 14
    frequency:   12.5682163835
  - # 15
    frequency:   13.3495124103
  - # 16
    frequency:   13.7410160892
  - # 17
    frequency:   14.0182827671
  - # 18
    frequency:  112.4223157394

- q-position: [    0.0808081,    0.0000000,    0.0000000 ]
  distance:    0.0278766
  band:
  - # 1
    frequency:    0.3683845909
  - # 2
    frequency:    1.0775731620
  - # 3
    frequency:    1.1142806373
  - # 4
    frequency:    3.6190295928
  - # 5
    frequency:    3.8115763235
  - # 6
    frequency:    5.0641598648
  - # 7
    frequency:    6.2518946774
  - # 8
    frequency:    6.3761111758
  - # 9
    frequency:    7.9840844727
  - # 10
    frequency:    8.0862113914
  - # 11
    frequency:    9.6708401424
  - # 12
    frequency:   11.9861109016
  - # 13
    frequency:   12.3044319835
  - # 14
    frequency:   12.5766130299
  - # 15
    frequency:   13.3546418470
  - # 16
    frequency:   13.7083582130
  - # 17
    frequency:   14.0118685116
  - # 18
    frequency:  112.3888873293

- q-position: [    0.0858586,    0.0000000,    0.0000000 ]
  distance:    0.0296189
  band:
  - # 1
    frequency:    0.4158506617
  - # 2
    frequency:    1.1603889013
  - # 3
    frequency:    1.1757169604
  - # 4
    frequency:    3.6418395627
  - # 5
    frequency:    3.8506813233
  - # 6
    frequency:    5.0477340805
  - # 7
    frequency:    6.2484493806
  - # 8
    frequency:    6.3852978657
  - # 9
    frequency:    7.9687079745
  - # 10
    frequency:    8.0846315145
  - # 11
    frequency:    9.6378003940
  - # 12
    frequency:   11.9430554694
  - # 13
    frequency:   12.2826295070
  - # 14
    frequency:   12.5853116279
  - # 15
    frequency:   13.3587586289
  - # 16
    frequency:   13.6771148984
  - # 17
    frequency:   14.0051101181
  - # 18
    frequency:  112.3541444726

- q-position: [    0.0909091,    0.0000000,    0.0000000 ]
  distance:    0.0313611
  band:
  - # 1
    frequency:    0.4657898692
  - # 2
    frequency:    1.2360444319
  - # 3
    frequency:    1.2447167107
  - # 4
    frequency:    3.6658081412
  - # 5
    frequency:    3.8900980867
  - # 6
    frequency:    5.0312681409
  - # 7
    frequency:    6.2450757174
  - # 8
    frequency:    6.3943855782
  - # 9
    frequency:    7.9523151003
  - # 10
    frequency:    8.0829216080
  - # 11
    frequency:    9.6033162867
  - # 12
    frequency:   11.8965750841
  - # 13
    frequency:   12.2600282906
  - # 14
    frequency:   12.5942645449
  - # 15
    frequency:   13.3615066317
  - # 16
    frequency:   13.6480373165
  - # 17
    frequency:   13.9980255386
  - # 18
    frequency:  112.3182327782

- q-position: [    0.0959596,    0.0000000,    0.0000000 ]
  distance:    0.0331034
  band:
  - # 1
    frequency:    0.5180758186
  - # 2
    frequency:    1.2953020113
  - # 3
    frequency:    1.3303975683
  - # 4
    frequency:    3.6908751562
  - # 5
    frequency:    3.9295010090
  - # 6
    frequency:    5.0149595954
  - # 7
    frequency:    6.2418048011
  - # 8
    frequency:    6.4032134525
  - # 9
    frequency:    7.9349390733
  - # 10
    frequency:    8.0810812957
  - # 11
    frequency:    9.5674910850
  - # 12
    frequency:   11.8466902163
  - # 13
    frequency:   12.2366035154
  - # 14
    frequency:   12.6034199991
  - # 15
    frequency:   13.3625088052
  - # 16
    frequency:   13.6219002041
  - # 17
    frequency:   13.9906356492
  - # 18
    frequency:  112.2813030598

- q-position: [    0.1010101,    0.0000000,    0.0000000 ]
  distance:    0.0348457
  band:
  - # 1
    frequency:    0.5725761235
  - # 2
    frequency:    1.3535416740
  - # 3
    frequency:    1.4172561354
  - # 4
    frequency:    3.7169740729
  - # 5
    frequency:    3.9685431409
  - # 6
    frequency:    4.9990248707
  - # 7
    frequency:    6.2386651935
  - # 8
    frequency:    6.4116017163
  - # 9
    frequency:    7.9166302027
  - # 10
    frequency:    8.0791114259
  - # 11
    frequency:    9.5304351676
  - # 12
    frequency:   11.7934659793
  - # 13
    frequency:   12.2123173266
  - # 14
    frequency:   12.6127216860
  - # 15
    frequency:   13.3614368187
  - # 16
    frequency:   13.5994232372
  - # 17
    frequency:   13.9829646968
  - # 18
    frequency:  112.2435107421

- q-position: [    0.1060606,    0.0000000,    0.0000000 ]
  distance:    0.0365880
  band:
  - # 1
    frequency:    0.6291535482
  - # 2
    frequency:    1.4108273516
  - # 3
    frequency:    1.5051006561
  - # 4
    frequency:    3.7440325033
  - # 5
    frequency:    4.0068536280
  - # 6
    frequency:    4.9836994292
  - # 7
    frequency:    6.2356825477
  - # 8
    frequency:    6.4193514280
  - # 9
    frequency:    7.8974588394
  - # 10
    frequency:    8.0770141423
  - # 11
    frequency:    9.4922662268
  - # 12
    frequency:   11.7370151610
  - # 13
    frequency:   12.1871250592
  - # 14
    frequency:   12.6221083582
  - # 15
    frequency:   13.3581352285
  - # 16
    frequency:   13.5811373800
  - # 17
    frequency:   13.9750407921
  - # 18
    frequency:  112.2050152458

- q-position: [    0.1111111,    0.0000000,    0.0000000 ]
  distance:    0.0383303
  band:
  - # 1
    frequency:    0.6876668381
  - # 2
    frequency:    1.4672335646
  - # 3
    frequency:    1.5937223096
  - # 4
    frequency:    3.7719728965
  - # 5
    frequency:    4.0440362506
  - # 6
    frequency:    4.9692364013
  - # 7
    frequency:    6.2328793280
  - # 8
    frequency:    6.4262449815
  - # 9
    frequency:    7.8775183512
  - # 10
    frequency:    8.0747929272
  - # 11
    frequency:    9.4531095008
  - # 12
    frequency:   11.6775006284
  - # 13
    frequency:   12.1609816465
  - # 14
    frequency:   12.6315133658
  - # 15
    frequency:   13.3527651691
  - # 16
    frequency:   13.5672318543
  - # 17
    frequency:   13.9668964436
  - # 18
    frequency:  112.1659793553

- q-position: [    0.1161616,    0.0000000,    0.0000000 ]
  distance:    0.0400726
  band:
  - # 1
    frequency:    0.7479712453
  - # 2
    frequency:    1.5228437737
  - # 3
    frequency:    1.6828939701
  - # 4
    frequency:    3.8007133850
  - # 5
    frequency:    4.0796703106
  - # 6
    frequency:    4.9559024581
  - # 7
    frequency:    6.2302746198
  - # 8
    frequency:    6.4320478096
  - # 9
    frequency:    7.8569278720
  - # 10
    frequency:    8.0724526121
  - # 11
    frequency:    9.4130980475
  - # 12
    frequency:   11.6151368427
  - # 13
    frequency:   12.1338476772
  - # 14
    frequency:   12.6408641652
  - # 15
    frequency:   13.3458749242
  - # 16
    frequency:   13.5574750970
  - # 17
    frequency:   13.9585691262
  - # 18
    frequency:  112.1265685680

- q-position: [    0.1212121,    0.0000000,    0.0000000 ]
  distance:    0.0418149
  band:
  - # 1
    frequency:    0.8099187544
  - # 2
    frequency:    1.5777484917
  - # 3
    frequency:    1.7723682900
  - # 4
    frequency:    3.8301687548
  - # 5
    frequency:    4.1133156197
  - # 6
    frequency:    4.9439691972
  - # 7
    frequency:    6.2278840432
  - # 8
    frequency:    6.4365118673
  - # 9
    frequency:    7.8358344587
  - # 10
    frequency:    8.0699993541
  - # 11
    frequency:    9.3723730661
  - # 12
    frequency:   11.5501901425
  - # 13
    frequency:   12.1056946662
  - # 14
    frequency:   12.6500818088
  - # 15
    frequency:   13.3383225805
  - # 16
    frequency:   13.5512851905
  - # 17
    frequency:   13.9501018702
  - # 18
    frequency:  112.0869504313

- q-position: [    0.1262626,    0.0000000,    0.0000000 ]
  distance:    0.0435572
  band:
  - # 1
    frequency:    0.8733580104
  - # 2
    frequency:    1.6320432078
  - # 3
    frequency:    1.8618749886
  - # 4
    frequency:    3.8602514984
  - # 5
    frequency:    4.1445237435
  - # 6
    frequency:    4.9336979373
  - # 7
    frequency:    6.2257197772
  - # 8
    frequency:    6.4393816345
  - # 9
    frequency:    7.8144141472
  - # 10
    frequency:    8.0674405754
  - # 11
    frequency:    9.3310842722
  - # 12
    frequency:   11.4829774916
  - # 13
    frequency:   12.0765092011
  - # 14
    frequency:   12.6590804379
  - # 15
    frequency:   13.3310895827
  - # 16
    frequency:   13.5479115016
  - # 17
    frequency:   13.9415438527
  - # 18
    frequency:  112.0472938667

- q-position: [    0.1313131,    0.0000000,    0.0000000 ]
  distance:    0.0452994
  band:
  - # 1
    frequency:    0.9381339391
  - # 2
    frequency:    1.6858261821
  - # 3
    frequency:    1.9511171760
  - # 4
    frequency:    3.8908729070
  - # 5
    frequency:    4.1728576105
  - # 6
    frequency:    4.9253159259
  - # 7
    frequency:    6.2237907050
  - # 8
    frequency:    6.4404034952
  - # 9
    frequency:    7.7928712653
  - # 10
    frequency:    8.0647848649
  - # 11
    frequency:    9.2893903265
  - # 12
    frequency:   11.4138635081
  - # 13
    frequency:   12.0462957377
  - # 14
    frequency:   12.6677668024
  - # 15
    frequency:   13.3250996641
  - # 16
    frequency:   13.5466133789
  - # 17
    frequency:   13.9329509670
  - # 18
    frequency:  112.0077684860

- q-position: [    0.1363636,    0.0000000,    0.0000000 ]
  distance:    0.0470417
  band:
  - # 1
    frequency:    1.0040870299
  - # 2
    frequency:    1.7391961779
  - # 3
    frequency:    2.0397664886
  - # 4
    frequency:    3.9219441566
  - # 5
    frequency:    4.1979205625
  - # 6
    frequency:    4.9189831014
  - # 7
    frequency:    6.2221026857
  - # 8
    frequency:    6.4393393828
  - # 9
    frequency:    7.7714352799
  - # 10
    frequency:    8.0620418398
  - # 11
    frequency:    9.2474593075
  - # 12
    frequency:   11.3432557489
  - # 13
    frequency:   12.0150779530
  - # 14
    frequency:   12.6760398453
  - # 15
    frequency:   13.3211153410
  - # 16
    frequency:   13.5467637658
  - # 17
    frequency:   13.9243863336
  - # 18
    frequency:  111.9685439001

- q-position: [    0.1414141,    0.0000000,    0.0000000 ]
  distance:    0.0487840
  band:
  - # 1
    frequency:    1.0710522262
  - # 2
    frequency:    1.7922501946
  - # 3
    frequency:    2.1274567531
  - # 4
    frequency:    3.9533773437
  - # 5
    frequency:    4.2193934769
  - # 6
    frequency:    4.9147511855
  - # 7
    frequency:    6.2206589541
  - # 8
    frequency:    6.4359854171
  - # 9
    frequency:    7.7503544928
  - # 10
    frequency:    8.0592219703
  - # 11
    frequency:    9.2054692072
  - # 12
    frequency:   11.2715983824
  - # 13
    frequency:   11.9828987048
  - # 14
    frequency:   12.6837903963
  - # 15
    frequency:   13.3197085141
  - # 16
    frequency:   13.5478809492
  - # 17
    frequency:   13.9159207097
  - # 18
    frequency:  111.9297890250

- q-position: [    0.1464646,    0.0000000,    0.0000000 ]
  distance:    0.0505263
  band:
  - # 1
    frequency:    1.1388573241
  - # 2
    frequency:    1.8450812679
  - # 3
    frequency:    2.2137758287
  - # 4
    frequency:    3.9850864315
  - # 5
    frequency:    4.2370749404
  - # 6
    frequency:    4.9125208301
  - # 7
    frequency:    6.2194606473
  - # 8
    frequency:    6.4301957956
  - # 9
    frequency:    7.7298861321
  - # 10
    frequency:    8.0563363655
  - # 11
    frequency:    9.1636084088
  - # 12
    frequency:   11.1993644985
  - # 13
    frequency:   11.9498187889
  - # 14
    frequency:   12.6909010303
  - # 15
    frequency:   13.3212707200
  - # 16
    frequency:   13.5496224514
  - # 17
    frequency:   13.9076327429
  - # 18
    frequency:  111.8916713869

- q-position: [    0.1515152,    0.0000000,    0.0000000 ]
  distance:    0.0522686
  band:
  - # 1
    frequency:    1.2073207208
  - # 2
    frequency:    1.8977763962
  - # 3
    frequency:    2.2982552353
  - # 4
    frequency:    4.0169880716
  - # 5
    frequency:    4.2509160764
  - # 6
    frequency:    4.9120063863
  - # 7
    frequency:    6.2185074537
  - # 8
    frequency:    6.4219113191
  - # 9
    frequency:    7.7102828638
  - # 10
    frequency:    8.0533965268
  - # 11
    frequency:    9.1220760801
  - # 12
    frequency:   11.1270473904
  - # 13
    frequency:   11.9159147805
  - # 14
    frequency:   12.6972461567
  - # 15
    frequency:   13.3260342240
  - # 16
    frequency:   13.5517692843
  - # 17
    frequency:   13.8996090033
  - # 18
    frequency:  111.8543564289

- q-position: [    0.1565657,    0.0000000,    0.0000000 ]
  distance:    0.0540109
  band:
  - # 1
    frequency:    1.2762482610
  - # 2
    frequency:    1.9504146465
  - # 3
    frequency:    2.3803571706
  - # 4
    frequency:    4.0490022765
  - # 5
    frequency:    4.2610409526
  - # 6
    frequency:    4.9127191994
  - # 7
    frequency:    6.2177983736
  - # 8
    frequency:    6.4111905908
  - # 9
    frequency:    7.6917764712
  - # 10
    frequency:    8.0504140702
  - # 11
    frequency:    9.0810823838
  - # 12
    frequency:   11.0551511798
  - # 13
    frequency:   11.8812762995
  - # 14
    frequency:   12.7026924122
  - # 15
    frequency:   13.3340878843
  - # 16
    frequency:   13.5542160231
  - # 17
    frequency:   13.8919437232
  - # 18
    frequency:  111.8180068234

- q-position: [    0.1616162,    0.0000000,    0.0000000 ]
  distance:    0.0557532
  band:
  - # 1
    frequency:    1.3454287850
  - # 2
    frequency:    2.0030654838
  - # 3
    frequency:    2.4594586362
  - # 4
    frequency:    4.0810529249
  - # 5
    frequency:    4.2677471502
  - # 6
    frequency:    4.9139775393
  - # 7
    frequency:    6.2173325777
  - # 8
    frequency:    6.3982401906
  - # 9
    frequency:    7.6745602853
  - # 10
    frequency:    8.0474004259
  - # 11
    frequency:    9.0408483659
  - # 12
    frequency:   10.9841811729
  - # 13
    frequency:   11.8460030307
  - # 14
    frequency:   12.7070994337
  - # 15
    frequency:   13.3453789444
  - # 16
    frequency:   13.5569749895
  - # 17
    frequency:   13.8847381672
  - # 18
    frequency:  111.7827817918

- q-position: [    0.1666667,    0.0000000,    0.0000000 ]
  distance:    0.0574954
  band:
  - # 1
    frequency:    1.4146277574
  - # 2
    frequency:    2.0557873602
  - # 3
    frequency:    2.5348327481
  - # 4
    frequency:    4.1130680900
  - # 5
    frequency:    4.2714878525
  - # 6
    frequency:    4.9149454349
  - # 7
    frequency:    6.2171103427
  - # 8
    frequency:    6.3834382787
  - # 9
    frequency:    7.6587726673
  - # 10
    frequency:    8.0443665195
  - # 11
    frequency:    9.0016053417
  - # 12
    frequency:   10.9146343373
  - # 13
    frequency:   11.8102017803
  - # 14
    frequency:   12.7103210829
  - # 15
    frequency:   13.3596928778
  - # 16
    frequency:   13.5602019850
  - # 17
    frequency:   13.8780995629
  - # 18
    frequency:  111.7488364355

- q-position: [    0.1717172,    0.0000000,    0.0000000 ]
  distance:    0.0592377
  band:
  - # 1
    frequency:    1.4835779854
  - # 2
    frequency:    2.1086265864
  - # 3
    frequency:    2.6056281399
  - # 4
    frequency:    4.1449801934
  - # 5
    frequency:    4.2728428056
  - # 6
    frequency:    4.9146973122
  - # 7
    frequency:    6.2171340407
  - # 8
    frequency:    6.3673446096
  - # 9
    frequency:    7.6444841585
  - # 10
    frequency:    8.0413224453
  - # 11
    frequency:    8.9635935545
  - # 12
    frequency:   10.8469902744
  - # 13
    frequency:   11.7739837744
  - # 14
    frequency:   12.7122071785
  - # 15
    frequency:   13.3766002763
  - # 16
    frequency:   13.5642542925
  - # 17
    frequency:   13.8721395361
  - # 18
    frequency:  111.7163210805

- q-position: [    0.1767677,    0.0000000,    0.0000000 ]
  distance:    0.0609800
  band:
  - # 1
    frequency:    1.5519658248
  - # 2
    frequency:    2.1616165027
  - # 3
    frequency:    2.6708490419
  - # 4
    frequency:    4.1767259909
  - # 5
    frequency:    4.2724870619
  - # 6
    frequency:    4.9123032938
  - # 7
    frequency:    6.2174091534
  - # 8
    frequency:    6.3506895590
  - # 9
    frequency:    7.6316906149
  - # 10
    frequency:    8.0382771400
  - # 11
    frequency:    8.9270598516
  - # 12
    frequency:   10.7817030442
  - # 13
    frequency:   11.7374623277
  - # 14