nqpoint: 300    
npath: 3      
segment_nqpoint:
- 100
- 100
- 100
labels:
- [ 'G', 'M' ]
- [ 'M', 'K' ]
- [ 'K', 'G' ]
reciprocal_lattice:
- [   0.29875507,   0.17248632,   0.00000000 ] # a*
- [   0.00000000,   0.34497263,   0.00000000 ] # b*
- [   0.00000000,   0.00000000,   0.04086462 ] # c*
natom: 6      
lattice:
- [     3.347223584548623,     0.000000000000000,     0.000000000000000 ] # a
- [    -1.673611792274311,     2.898780656357623,     0.000000000000000 ] # b
- [     0.000000000000000,     0.000000000000000,    24.471044817192837 ] # c
points:
- symbol: Br # 1
  coordinates: [  0.333332985432215,  0.666666983183674,  0.632218400675856 ]
  mass: 79.904000
- symbol: H # 2
  coordinates: [  0.666666984744047,  0.333332985985145,  0.367781599324145 ]
  mass: 1.007940
- symbol: N # 3
  coordinates: [  0.000000000000000,  0.000000000000000,  0.506227868781399 ]
  mass: 14.006700
- symbol: O # 4
  coordinates: [  0.666666984744047,  0.333332985985145,  0.408067246035119 ]
  mass: 15.999400
- symbol: Sc # 5
  coordinates: [  0.333332985432215,  0.666666983183674,  0.457350863449263 ]
  mass: 44.955912
- symbol: Sc # 6
  coordinates: [  0.666666984744047,  0.333332985985145,  0.555302269725196 ]
  mass: 44.955912

phonon:
- q-position: [    0.0000000,    0.0000000,    0.0000000 ]
  distance:    0.0000000
  band:
  - # 1
    frequency:   -0.0000021564
  - # 2
    frequency:   -0.0000012745
  - # 3
    frequency:    0.0000024155
  - # 4
    frequency:    3.2118240553
  - # 5
    frequency:    3.2118240553
  - # 6
    frequency:    5.2279106093
  - # 7
    frequency:    6.0066990784
  - # 8
    frequency:    6.0066990784
  - # 9
    frequency:    7.5713934693
  - # 10
    frequency:    7.5713934693
  - # 11
    frequency:   10.1503436725
  - # 12
    frequency:   12.3666714008
  - # 13
    frequency:   12.3666714008
  - # 14
    frequency:   12.4540498270
  - # 15
    frequency:   13.5089201883
  - # 16
    frequency:   13.5089201883
  - # 17
    frequency:   14.2337027998
  - # 18
    frequency:  112.4474841327

- q-position: [    0.0050505,    0.0000000,    0.0000000 ]
  distance:    0.0017423
  band:
  - # 1
    frequency:   -0.1550644374
  - # 2
    frequency:    0.0737722041
  - # 3
    frequency:    0.1988469005
  - # 4
    frequency:    3.2123968949
  - # 5
    frequency:    3.2142141680
  - # 6
    frequency:    5.2269571953
  - # 7
    frequency:    6.0066946309
  - # 8
    frequency:    6.0079445112
  - # 9
    frequency:    7.5716480817
  - # 10
    frequency:    7.5720264664
  - # 11
    frequency:   10.1488071046
  - # 12
    frequency:   12.3652129596
  - # 13
    frequency:   12.3666796586
  - # 14
    frequency:   12.4537113077
  - # 15
    frequency:   13.5080003291
  - # 16
    frequency:   13.5092202845
  - # 17
    frequency:   14.2319579731
  - # 18
    frequency:  112.4466052778

- q-position: [    0.0101010,    0.0000000,    0.0000000 ]
  distance:    0.0034846
  band:
  - # 1
    frequency:   -0.2008213051
  - # 2
    frequency:    0.1475231328
  - # 3
    frequency:    0.3198611058
  - # 4
    frequency:    3.2141155084
  - # 5
    frequency:    3.2213583942
  - # 6
    frequency:    5.2241158882
  - # 7
    frequency:    6.0066842654
  - # 8
    frequency:    6.0116597401
  - # 9
    frequency:    7.5724062901
  - # 10
    frequency:    7.5739192171
  - # 11
    frequency:   10.1442042935
  - # 12
    frequency:   12.3608839713
  - # 13
    frequency:   12.3667084313
  - # 14
    frequency:   12.4526430679
  - # 15
    frequency:   13.5052470611
  - # 16
    frequency:   13.5101167352
  - # 17
    frequency:   14.2267410310
  - # 18
    frequency:  112.4439715894

- q-position: [    0.0151515,    0.0000000,    0.0000000 ]
  distance:    0.0052269
  band:
  - # 1
    frequency:   -0.2323146965
  - # 2
    frequency:    0.2212308820
  - # 3
    frequency:    0.4398079467
  - # 4
    frequency:    3.2169801749
  - # 5
    frequency:    3.2331796956
  - # 6
    frequency:    5.2194419579
  - # 7
    frequency:    6.0066768595
  - # 8
    frequency:    6.0177830629
  - # 9
    frequency:    7.5736512794
  - # 10
    frequency:    7.5770531363
  - # 11
    frequency:   10.1365558567
  - # 12
    frequency:   12.3538057805
  - # 13
    frequency:   12.3667695537
  - # 14
    frequency:   12.4507051237
  - # 15
    frequency:   13.5006791493
  - # 16
    frequency:   13.5115981486
  - # 17
    frequency:   14.2181043789
  - # 18
    frequency:  112.4395916930

- q-position: [    0.0202020,    0.0000000,    0.0000000 ]
  distance:    0.0069691
  band:
  - # 1
    frequency:   -0.2595123073
  - # 2
    frequency:    0.2948723099
  - # 3
    frequency:    0.5614860774
  - # 4
    frequency:    3.2209913420
  - # 5
    frequency:    3.2495538430
  - # 6
    frequency:    5.2130226927
  - # 7
    frequency:    6.0066870359
  - # 8
    frequency:    6.0262163744
  - # 9
    frequency:    7.5753552609
  - # 10
    frequency:    7.5813976995
  - # 11
    frequency:   10.1258959566
  - # 12
    frequency:   12.3441341435
  - # 13
    frequency:   12.3668822131
  - # 14
    frequency:   12.4477119818
  - # 15
    frequency:   13.4943273409
  - # 16
    frequency:   13.5136459388
  - # 17
    frequency:   14.2061346557
  - # 18
    frequency:  112.4334799555

- q-position: [    0.0252525,    0.0000000,    0.0000000 ]
  distance:    0.0087114
  band:
  - # 1
    frequency:   -0.2848891228
  - # 2
    frequency:    0.3684224648
  - # 3
    frequency:    0.6844552376
  - # 4
    frequency:    3.2261495979
  - # 5
    frequency:    3.2703151488
  - # 6
    frequency:    5.2049710794
  - # 7
    frequency:    6.0067349099
  - # 8
    frequency:    6.0368313453
  - # 9
    frequency:    7.5774798263
  - # 10
    frequency:    7.5869110988
  - # 11
    frequency:   10.1122720135
  - # 12
    frequency:   12.3320191394
  - # 13
    frequency:   12.3670721694
  - # 14
    frequency:   12.4434746670
  - # 15
    frequency:   13.4862336339
  - # 16
    frequency:   13.5162349063
  - # 17
    frequency:   14.1909516496
  - # 18
    frequency:  112.4256564710

- q-position: [    0.0303030,    0.0000000,    0.0000000 ]
  distance:    0.0104537
  band:
  - # 1
    frequency:   -0.3086546135
  - # 2
    frequency:    0.4418540701
  - # 3
    frequency:    0.8079773078
  - # 4
    frequency:    3.2324556323
  - # 5
    frequency:    3.2952635587
  - # 6
    frequency:    5.1954185073
  - # 7
    frequency:    6.0068457504
  - # 8
    frequency:    6.0494765271
  - # 9
    frequency:    7.5799764381
  - # 10
    frequency:    7.5935411246
  - # 11
    frequency:   10.0957443277
  - # 12
    frequency:   12.3175794088
  - # 13
    frequency:   12.3673707094
  - # 14
    frequency:   12.4378290943
  - # 15
    frequency:   13.4764503776
  - # 16
    frequency:   13.5193340138
  - # 17
    frequency:   14.1727067251
  - # 18
    frequency:  112.4161470410

- q-position: [    0.0353535,    0.0000000,    0.0000000 ]
  distance:    0.0121960
  band:
  - # 1
    frequency:   -0.3302905674
  - # 2
    frequency:    0.5151370814
  - # 3
    frequency:    0.9314363973
  - # 4
    frequency:    3.2399101826
  - # 5
    frequency:    3.3241723855
  - # 6
    frequency:    5.1845075007
  - # 7
    frequency:    6.0070495667
  - # 8
    frequency:    6.0639843846
  - # 9
    frequency:    7.5827870557
  - # 10
    frequency:    7.6012262366
  - # 11
    frequency:   10.0763856287
  - # 12
    frequency:   12.3008911039
  - # 13
    frequency:   12.3678133822
  - # 14
    frequency:   12.4306502889
  - # 15
    frequency:   13.4650393299
  - # 16
    frequency:   13.5229073234
  - # 17
    frequency:   14.1515807106
  - # 18
    frequency:  112.4049831478

- q-position: [    0.0404040,    0.0000000,    0.0000000 ]
  distance:    0.0139383
  band:
  - # 1
    frequency:   -0.3490615647
  - # 2
    frequency:    0.5882383320
  - # 3
    frequency:    1.0543571616
  - # 4
    frequency:    3.2485139653
  - # 5
    frequency:    3.3567959976
  - # 6
    frequency:    5.1723852577
  - # 7
    frequency:    6.0073806357
  - # 8
    frequency:    6.0801774836
  - # 9
    frequency:    7.5858448949
  - # 10
    frequency:    7.6098967843
  - # 11
    frequency:   10.0542805758
  - # 12
    frequency:   12.2819862437
  - # 13
    frequency:   12.3684385638
  - # 14
    frequency:   12.4218576116
  - # 15
    frequency:   13.4520708408
  - # 16
    frequency:   13.5269150568
  - # 17
    frequency:   14.1277811912
  - # 18
    frequency:  112.3922019212

- q-position: [    0.0454545,    0.0000000,    0.0000000 ]
  distance:    0.0156806
  band:
  - # 1
    frequency:   -0.3641739648
  - # 2
    frequency:    0.6611212798
  - # 3
    frequency:    1.1763683862
  - # 4
    frequency:    3.2582675904
  - # 5
    frequency:    3.3928768954
  - # 6
    frequency:    5.1591984546
  - # 7
    frequency:    6.0078769800
  - # 8
    frequency:    6.0978733811
  - # 9
    frequency:    7.5890753179
  - # 10
    frequency:    7.6194763334
  - # 11
    frequency:   10.0295252267
  - # 12
    frequency:   12.2608557415
  - # 13
    frequency:   12.3692859075
  - # 14
    frequency:   12.4114155398
  - # 15
    frequency:   13.4376233556
  - # 16
    frequency:   13.5313147397
  - # 17
    frequency:   14.1015391555
  - # 18
    frequency:  112.3778460970

- q-position: [    0.0505051,    0.0000000,    0.0000000 ]
  distance:    0.0174229
  band:
  - # 1
    frequency:   -0.3748039385
  - # 2
    frequency:    0.7337458668
  - # 3
    frequency:    1.2971710038
  - # 4
    frequency:    3.2691714558
  - # 5
    frequency:    3.4321517738
  - # 6
    frequency:    5.1450894742
  - # 7
    frequency:    6.0085798108
  - # 8
    frequency:    6.1168880651
  - # 9
    frequency:    7.5923968593
  - # 10
    frequency:    7.6298830508
  - # 11
    frequency:   10.0022264941
  - # 12
    frequency:   12.2374546532
  - # 13
    frequency:   12.3703947355
  - # 14
    frequency:   12.3993322354
  - # 15
    frequency:   13.4217834568
  - # 16
    frequency:   13.5360623887
  - # 17
    frequency:   14.0731049608
  - # 18
    frequency:  112.3619639672

- q-position: [    0.0555556,    0.0000000,    0.0000000 ]
  distance:    0.0191651
  band:
  - # 1
    frequency:   -0.3800675513
  - # 2
    frequency:    0.8060684988
  - # 3
    frequency:    1.4165165558
  - # 4
    frequency:    3.2812256217
  - # 5
    frequency:    3.4743563422
  - # 6
    frequency:    5.1301939922
  - # 7
    frequency:    6.0095329423
  - # 8
    frequency:    6.1370380129
  - # 9
    frequency:    7.5957223887
  - # 10
    frequency:    7.6410311053
  - # 11
    frequency:    9.9725015989
  - # 12
    frequency:   12.2117089366
  - # 13
    frequency:   12.3718024269
  - # 14
    frequency:   12.3856563685
  - # 15
    frequency:   13.4046466545
  - # 16
    frequency:   13.5411137059
  - # 17
    frequency:   14.0427436115
  - # 18
    frequency:  112.3446093210

- q-position: [    0.0606061,    0.0000000,    0.0000000 ]
  distance:    0.0209074
  band:
  - # 1
    frequency:   -0.3789495438
  - # 2
    frequency:    0.8780421502
  - # 3
    frequency:    1.5341935592
  - # 4
    frequency:    3.2944296608
  - # 5
    frequency:    3.5192288291
  - # 6
    frequency:    5.1146397285
  - # 7
    frequency:    6.0107821846
  - # 8
    frequency:    6.1581410645
  - # 9
    frequency:    7.5989604227
  - # 10
    frequency:    7.6528320406
  - # 11
    frequency:    9.9404775250
  - # 12
    frequency:   12.1835238199
  - # 13
    frequency:   12.3704718490
  - # 14
    frequency:   12.3735428540
  - # 15
    frequency:   13.3863190987
  - # 16
    frequency:   13.5464252464
  - # 17
    frequency:   14.0107294032
  - # 18
    frequency:  112.3258413750

- q-position: [    0.0656566,    0.0000000,    0.0000000 ]
  distance:    0.0226497
  band:
  - # 1
    frequency:   -0.3701752300
  - # 2
    frequency:    0.9496165945
  - # 3
    frequency:    1.6500189564
  - # 4
    frequency:    3.3087824849
  - # 5
    frequency:    3.5665122162
  - # 6
    frequency:    5.0985461205
  - # 7
    frequency:    6.0123747180
  - # 8
    frequency:    6.1800163515
  - # 9
    frequency:    7.6020165988
  - # 10
    frequency:    7.6651960849
  - # 11
    frequency:    9.9062904748
  - # 12
    frequency:   12.1527939553
  - # 13
    frequency:   12.3538900514
  - # 14
    frequency:   12.3756449127
  - # 15
    frequency:   13.3669203083
  - # 16
    frequency:   13.5519555309
  - # 17
    frequency:   13.9773400520
  - # 18
    frequency:  112.3057246921

- q-position: [    0.0707071,    0.0000000,    0.0000000 ]
  distance:    0.0243920
  band:
  - # 1
    frequency:   -0.3519658041
  - # 2
    frequency:    1.0207387572
  - # 3
    frequency:    1.7638326803
  - # 4
    frequency:    3.3242821450
  - # 5
    frequency:    3.6159553238
  - # 6
    frequency:    5.0820246852
  - # 7
    frequency:    6.0143584484
  - # 8
    frequency:    6.2024835146
  - # 9
    frequency:    7.6047953320
  - # 10
    frequency:    7.6780333640
  - # 11
    frequency:    9.8700853122
  - # 12
    frequency:   12.1194151449
  - # 13
    frequency:   12.3360395493
  - # 14
    frequency:   12.3781311904
  - # 15
    frequency:   13.3465868918
  - # 16
    frequency:   13.5576660772
  - # 17
    frequency:   13.9428505228
  - # 18
    frequency:  112.2843290884

- q-position: [    0.0757576,    0.0000000,    0.0000000 ]
  distance:    0.0261343
  band:
  - # 1
    frequency:   -0.3214962399
  - # 2
    frequency:    1.0913531841
  - # 3
    frequency:    1.8754940870
  - # 4
    frequency:    3.3409256065
  - # 5
    frequency:    3.6673129107
  - # 6
    frequency:    5.0651798687
  - # 7
    frequency:    6.0167813447
  - # 8
    frequency:    6.2253614051
  - # 9
    frequency:    7.6072016804
  - # 10
    frequency:    7.6912549931
  - # 11
    frequency:    9.8320149786
  - # 12
    frequency:   12.0832968308
  - # 13
    frequency:   12.3170540299
  - # 14
    frequency:   12.3810168047
  - # 15
    frequency:   13.3254770810
  - # 16
    frequency:   13.5635223325
  - # 17
    frequency:   13.9075268659
  - # 18
    frequency:  112.2617295256

- q-position: [    0.0808081,    0.0000000,    0.0000000 ]
  distance:    0.0278766
  band:
  - # 1
    frequency:   -0.2733851724
  - # 2
    frequency:    1.1614026112
  - # 3
    frequency:    1.9848794740
  - # 4
    frequency:    3.3587084981
  - # 5
    frequency:    3.7203449625
  - # 6
    frequency:    5.0481102347
  - # 7
    frequency:    6.0196907555
  - # 8
    frequency:    6.2484664177
  - # 9
    frequency:    7.6091434522
  - # 10
    frequency:    7.7047740289
  - # 11
    frequency:    9.7922398566
  - # 12
    frequency:   12.0443740467
  - # 13
    frequency:   12.2970596495
  - # 14
    frequency:   12.3843084455
  - # 15
    frequency:   13.3037757322
  - # 16
    frequency:   13.5694944876
  - # 17
    frequency:   13.8716204581
  - # 18
    frequency:  112.2380059890

- q-position: [    0.0858586,    0.0000000,    0.0000000 ]
  distance:    0.0296189
  band:
  - # 1
    frequency:   -0.1932743133
  - # 2
    frequency:    1.2308286215
  - # 3
    frequency:    2.0918801903
  - # 4
    frequency:    3.3776248389
  - # 5
    frequency:    3.7748153309
  - # 6
    frequency:    5.0309098843
  - # 7
    frequency:    6.0231327054
  - # 8
    frequency:    6.2716105606
  - # 9
    frequency:    7.6105335905
  - # 10
    frequency:    7.7185062704
  - # 11
    frequency:    9.7509270547
  - # 12
    frequency:   12.0026173713
  - # 13
    frequency:   12.2761633549
  - # 14
    frequency:   12.3880036408
  - # 15
    frequency:   13.2816992933
  - # 16
    frequency:   13.5755581600
  - # 17
    frequency:   13.8353630950
  - # 18
    frequency:  112.2132433497

- q-position: [    0.0909091,    0.0000000,    0.0000000 ]
  distance:    0.0313611
  band:
  - # 1
    frequency:    0.0969053288
  - # 2
    frequency:    1.2995723668
  - # 3
    frequency:    2.1964010131
  - # 4
    frequency:    3.3976667456
  - # 5
    frequency:    3.8304898616
  - # 6
    frequency:    5.0136700473
  - # 7
    frequency:    6.0271511716
  - # 8
    frequency:    6.2945993325
  - # 9
    frequency:    7.6112928749
  - # 10
    frequency:    7.7323709041
  - # 11
    frequency:    9.7082495810
  - # 12
    frequency:   11.9580397195
  - # 13
    frequency:   12.2544435311
  - # 14
    frequency:   12.3920902668
  - # 15
    frequency:   13.2595001249
  - # 16
    frequency:   13.5816949330
  - # 17
    frequency:   13.7989633730
  - # 18
    frequency:  112.1875312095

- q-position: [    0.0959596,    0.0000000,    0.0000000 ]
  distance:    0.0331034
  band:
  - # 1
    frequency:    0.2569592771
  - # 2
    frequency:    1.3675753301
  - # 3
    frequency:    2.2983585724
  - # 4
    frequency:    3.4188241242
  - # 5
    frequency:    3.8871341107
  - # 6
    frequency:    4.9964808157
  - # 7
    frequency:    6.0317873458
  - # 8
    frequency:    6.3172294601
  - # 9
    frequency:    7.6113529727
  - # 10
    frequency:    7.7462909964
  - # 11
    frequency:    9.6643853743
  - # 12
    frequency:   11.9106994324
  - # 13
    frequency:   12.2319438460
  - # 14
    frequency:   12.3965463128
  - # 15
    frequency:   13.2374695150
  - # 16
    frequency:   13.5878927402
  - # 17
    frequency:   13.7626047167
  - # 18
    frequency:  112.1609637274

- q-position: [    0.1010101,    0.0000000,    0.0000000 ]
  distance:    0.0348457
  band:
  - # 1
    frequency:    0.3647233067
  - # 2
    frequency:    1.4347801030
  - # 3
    frequency:    2.3976796692
  - # 4
    frequency:    3.4410843553
  - # 5
    frequency:    3.9445107088
  - # 6
    frequency:    4.9794330251
  - # 7
    frequency:    6.0370788881
  - # 8
    frequency:    6.3392865467
  - # 9
    frequency:    7.6106598652
  - # 10
    frequency:    7.7601938401
  - # 11
    frequency:    9.6195161628
  - # 12
    frequency:   11.8606998236
  - # 13
    frequency:   12.2086705955
  - # 14
    frequency:   12.4013399083
  - # 15
    frequency:   13.2159387631
  - # 16
    frequency:   13.5941460844
  - # 17
    frequency:   13.7264452444
  - # 18
    frequency:  112.1336394267

- q-position: [    0.1060606,    0.0000000,    0.0000000 ]
  distance:    0.0365880
  band:
  - # 1
    frequency:    0.4591059907
  - # 2
    frequency:    1.5011311482
  - # 3
    frequency:    2.4942993799
  - # 4
    frequency:    3.4644319785
  - # 5
    frequency:    4.0023763811
  - # 6
    frequency:    4.9626203135
  - # 7
    frequency:    6.0430591844
  - # 8
    frequency:    6.3605427051
  - # 9
    frequency:    7.6091776415
  - # 10
    frequency:    7.7740111699
  - # 11
    frequency:    9.5738261248
  - # 12
    frequency:   11.8081858697
  - # 13
    frequency:   12.1845934313
  - # 14
    frequency:   12.4064296126
  - # 15
    frequency:   13.1952778180
  - # 16
    frequency:   13.6004560841
  - # 17
    frequency:   13.6906194565
  - # 18
    frequency:  112.1056609820

- q-position: [    0.1111111,    0.0000000,    0.0000000 ]
  distance:    0.0383303
  band:
  - # 1
    frequency:    0.5473893824
  - # 2
    frequency:    1.5665755190
  - # 3
    frequency:    2.5881588667
  - # 4
    frequency:    3.4888483865
  - # 5
    frequency:    4.0604785747
  - # 6
    frequency:    4.9461414194
  - # 7
    frequency:    6.0497566232
  - # 8
    frequency:    6.3807542916
  - # 9
    frequency:    7.6068926133
  - # 10
    frequency:    7.7876792645
  - # 11
    frequency:    9.5275003377
  - # 12
    frequency:   11.7533389762
  - # 13
    frequency:   12.1596491645
  - # 14
    frequency:   12.4117649621
  - # 15
    frequency:   13.1758911194
  - # 16
    frequency:   13.6068303374
  - # 17
    frequency:   13.6552415023
  - # 18
    frequency:  112.0771349849

- q-position: [    0.1161616,    0.0000000,    0.0000000 ]
  distance:    0.0400726
  band:
  - # 1
    frequency:    0.6323572596
  - # 2
    frequency:    1.6310635095
  - # 3
    frequency:    2.6792028388
  - # 4
    frequency:    3.5143115388
  - # 5
    frequency:    4.1185515795
  - # 6
    frequency:    4.9301028141
  - # 7
    frequency:    6.0571939093
  - # 8
    frequency:    6.3996599395
  - # 9
    frequency:    7.6038176262
  - # 10
    frequency:    7.8011389562
  - # 11
    frequency:    9.4807230131
  - # 12
    frequency:   11.6963707419
  - # 13
    frequency:   12.1337483168
  - # 14
    frequency:   12.4172872660
  - # 15
    frequency:   13.1582105104
  - # 16
    frequency:   13.6132826004
  - # 17
    frequency:   13.6204096029
  - # 18
    frequency:  112.0481716869

- q-position: [    0.1212121,    0.0000000,    0.0000000 ]
  distance:    0.0418149
  band:
  - # 1
    frequency:    0.7153493149
  - # 2
    frequency:    1.6945492100
  - # 3
    frequency:    2.7673766273
  - # 4
    frequency:    3.5407957052
  - # 5
    frequency:    4.1763119483
  - # 6
    frequency:    4.9146218083
  - # 7
    frequency:    6.0653874359
  - # 8
    frequency:    6.4169792042
  - # 9
    frequency:    7.5999963374
  - # 10
    frequency:    7.8143355708
  - # 11
    frequency:    9.4336755419
  - # 12
    frequency:   11.6375164886
  - # 13
    frequency:   12.1067840974
  - # 14
    frequency:   12.4229306300
  - # 15
    frequency:   13.1426853306
  - # 16
    frequency:   13.5862110984
  - # 17
    frequency:   13.6198322767
  - # 18
    frequency:  112.0188847201

- q-position: [    0.1262626,    0.0000000,    0.0000000 ]
  distance:    0.0435572
  band:
  - # 1
    frequency:    0.7970887925
  - # 2
    frequency:    1.7569909499
  - # 3
    frequency:    2.8526228457
  - # 4
    frequency:    3.5682712499
  - # 5
    frequency:    4.2334529251
  - # 6
    frequency:    4.8998303337
  - # 7
    frequency:    6.0743467379
  - # 8
    frequency:    6.4324122931
  - # 9
    frequency:    7.5955070834
  - # 10
    frequency:    7.8272188232
  - # 11
    frequency:    9.3865343945
  - # 12
    frequency:   11.5770291226
  - # 13
    frequency:   12.0786433963
  - # 14
    frequency:   12.4286231874
  - # 15
    frequency:   13.1297700806
  - # 16
    frequency:   13.5527275942
  - # 17
    frequency:   13.6265037207
  - # 18
    frequency:  111.9893907947

- q-position: [    0.1313131,    0.0000000,    0.0000000 ]
  distance:    0.0452994
  band:
  - # 1
    frequency:    0.8779903575
  - # 2
    frequency:    1.8183516151
  - # 3
    frequency:    2.9348776220
  - # 4
    frequency:    3.5967044644
  - # 5
    frequency:    4.2896374762
  - # 6
    frequency:    4.8858796792
  - # 7
    frequency:    6.0840740491
  - # 8
    frequency:    6.4456415439
  - # 9
    frequency:    7.5904657821
  - # 10
    frequency:    7.8397426899
  - # 11
    frequency:    9.3394689634
  - # 12
    frequency:   11.5151737064
  - # 13
    frequency:   12.0492191684
  - # 14
    frequency:   12.4342885032
  - # 15
    frequency:   13.1199103246
  - # 16
    frequency:   13.5200397885
  - # 17
    frequency:   13.6333253645
  - # 18
    frequency:  111.9598093714

- q-position: [    0.1363636,    0.0000000,    0.0000000 ]
  distance:    0.0470417
  band:
  - # 1
    frequency:    0.9582972550
  - # 2
    frequency:    1.8785988334
  - # 3
    frequency:    3.0140663904
  - # 4
    frequency:    3.6260574596
  - # 5
    frequency:    4.3444893986
  - # 6
    frequency:    4.8729465410
  - # 7
    frequency:    6.0945639842
  - # 8
    frequency:    6.4563355282
  - # 9
    frequency:    7.5850271196
  - # 10
    frequency:    7.8518652816
  - # 11
    frequency:    9.2926394684
  - # 12
    frequency:   11.4522229823
  - # 13
    frequency:   12.0184232725
  - # 14
    frequency:   12.4398471141
  - # 15
    frequency:   13.1135277164
  - # 16
    frequency:   13.4882317765
  - # 17
    frequency:   13.6403286830
  - # 18
    frequency:  111.9302623114

- q-position: [    0.1414141,    0.0000000,    0.0000000 ]
  distance:    0.0487840
  band:
  - # 1
    frequency:    1.0381500846
  - # 2
    frequency:    1.9377050315
  - # 3
    frequency:    3.0900992375
  - # 4
    frequency:    3.6562881208
  - # 5
    frequency:    4.3975819264
  - # 6
    frequency:    4.8612407699
  - # 7
    frequency:    6.1058033660
  - # 8
    frequency:    6.4641568288
  - # 9
    frequency:    7.5793831177
  - # 10
    frequency:    7.8635487334
  - # 11
    frequency:    9.2461950917
  - # 12
    frequency:   11.3884539748
  - # 13
    frequency:   11.9861985548
  - # 14
    frequency:   12.4452181556
  - # 15
    frequency:   13.1110050606
  - # 16
    frequency:   13.4573949635
  - # 17
    frequency:   13.6475470233
  - # 18
    frequency:  111.9008735009

- q-position: [    0.1464646,    0.0000000,    0.0000000 ]
  distance:    0.0505263
  band:
  - # 1
    frequency:    1.1176242632
  - # 2
    frequency:    1.9956473740
  - # 3
    frequency:    3.1628658006
  - # 4
    frequency:    3.6873501331
  - # 5
    frequency:    4.4484234961
  - # 6
    frequency:    4.8510149288
  - # 7
    frequency:    6.1177712108
  - # 8
    frequency:    6.4687746006
  - # 9
    frequency:    7.5737581316
  - # 10
    frequency:    7.8747591275
  - # 11
    frequency:    9.2002725483
  - # 12
    frequency:   11.3241457205
  - # 13
    frequency:   11.9525288633
  - # 14
    frequency:   12.4503210243
  - # 15
    frequency:   13.1126719258
  - # 16
    frequency:   13.4276322688
  - # 17
    frequency:   13.6550143324
  - # 18
    frequency:  111.8717684531

- q-position: [    0.1515152,    0.0000000,    0.0000000 ]
  distance:    0.0522686
  band:
  - # 1
    frequency:    1.1967516845
  - # 2
    frequency:    2.0524076002
  - # 3
    frequency:    3.2322297212
  - # 4
    frequency:    3.7191930802
  - # 5
    frequency:    4.4964415495
  - # 6
    frequency:    4.8425745499
  - # 7
    frequency:    6.1304388838
  - # 8
    frequency:    6.4698828576
  - # 9
    frequency:    7.5683995054
  - # 10
    frequency:    7.8854664564
  - # 11
    frequency:    9.1549953298
  - # 12
    frequency:   11.2595780932
  - # 13
    frequency:   11.9174458298
  - # 14
    frequency:   12.4550770136
  - # 15
    frequency:   13.1187901081
  - # 16
    frequency:   13.3990644163
  - # 17
    frequency:   13.6627638247
  - # 18
    frequency:  111.8430738853

- q-position: [    0.1565657,    0.0000000,    0.0000000 ]
  distance:    0.0540109
  band:
  - # 1
    frequency:    1.2755337727
  - # 2
    frequency:    2.1079717837
  - # 3
    frequency:    3.2980226660
  - # 4
    frequency:    3.7517626175
  - # 5
    frequency:    4.5409692342
  - # 6
    frequency:    4.8362840389
  - # 7
    frequency:    6.1437704268
  - # 8
    frequency:    6.4672249137
  - # 9
    frequency:    7.5635635944
  - # 10
    frequency:    7.8956446334
  - # 11
    frequency:    9.1104738726
  - # 12
    frequency:   11.1950316160
  - # 13
    frequency:   11.8810316744
  - # 14
    frequency:   12.4594108590
  - # 15
    frequency:   13.1295350699
  - # 16
    frequency:   13.3718429124
  - # 17
    frequency:   13.6708266429
  - # 18
    frequency:  111.8149172742

- q-position: [    0.1616162,    0.0000000,    0.0000000 ]
  distance:    0.0557532
  band:
  - # 1
    frequency:    1.3539495402
  - # 2
    frequency:    2.1623300398
  - # 3
    frequency:    3.3600379284
  - # 4
    frequency:    3.7850007240
  - # 5
    frequency:    4.5812503385
  - # 6
    frequency:    4.8325528238
  - # 7
    frequency:    6.1577230582
  - # 8
    frequency:    6.4606234944
  - # 9
    frequency:    7.5594976909
  - # 10
    frequency:    7.9052715445
  - # 11
    frequency:    9.0668068928
  - # 12
    frequency:   11.1307880707
  - # 13
    frequency:   11.8434178435
  - # 14
    frequency:   12.4632521294
  - # 15
    frequency:   13.1449603297
  - # 16
    frequency:   13.3461829547
  - # 17
    frequency:   13.6792305652
  - # 18
    frequency:  111.7874263895

- q-position: [    0.1666667,    0.0000000,    0.0000000 ]
  distance:    0.0574954
  band:
  - # 1
    frequency:    1.4319605650
  - # 2
    frequency:    2.2154762087
  - # 3
    frequency:    3.4180236206
  - # 4
    frequency:    3.8188460332
  - # 5
    frequency:    4.6164984865
  - # 6
    frequency:    4.8317659624
  - # 7
    frequency:    6.1722478349
  - # 8
    frequency:    6.4500147735
  - # 9
    frequency:    7.5564194126
  - # 10
    frequency:    7.9143291384
  - # 11
    frequency:    9.0240840796
  - # 12
    frequency:   11.0671316278
  - # 13
    frequency:   11.8047798607
  - # 14
    frequency:   12.4665364008
  - # 15
    frequency:   13.1648988440
  - # 16
    frequency:   13.3224619533
  - # 17
    frequency:   13.6879988199
  - # 18
    frequency:  111.7607288055

- q-position: [    0.1717172,    0.0000000,    0.0000000 ]
  distance:    0.0592377
  band:
  - # 1
    frequency:    1.5095139316
  - # 2
    frequency:    2.2674075417
  - # 3
    frequency:    3.4716754077
  - # 4
    frequency:    3.8532342467
  - # 5
    frequency:    4.6460648713
  - # 6
    frequency:    4.8341057809
  - # 7
    frequency:    6.1872904637
  - # 8
    frequency:    6.4354831810
  - # 9
    frequency:    7.5544960646
  - # 10
    frequency:    7.9228035380
  - # 11
    frequency:    8.9823902538
  - # 12
    frequency:   11.0043501452
  - # 13
    frequency:   11.7653291845
  - # 14
    frequency:   12.4692061590
  - # 15
    frequency:   13.1886015751
  - # 16
    frequency:   13.3015828515
  - # 17
    frequency:   13.6971490606
  - # 18
    frequency:  111.7349513949

- q-position: [    0.1767677,    0.0000000,    0.0000000 ]
  distance:    0.0609800
  band:
  - # 1
    frequency:    1.5865436928
  - # 2
    frequency:    2.3181244126
  - # 3
    frequency:    3.5206285891
  - # 4
    frequency:    3.8880986322
  - # 5
    frequency:    4.6697191379
  - # 6
    frequency:    4.8392618857
  - # 7
    frequency:    6.2027922423
  - # 8
    frequency:    6.4172925241
  - # 9
    frequency:    7.5538269495
  - # 10
    frequency:    7.9306851571
  - # 11
    frequency:    8.9418109586
  - # 12
    frequency:   10.9427362250
  - # 13
    frequency:   11.7253030914
  - # 14