nqpoint: 300    
npath: 3      
segment_nqpoint:
- 100
- 100
- 100
labels:
- [ 'G', 'M' ]
- [ 'M', 'K' ]
- [ 'K', 'G' ]
reciprocal_lattice:
- [   0.29911388,   0.17269348,   0.00000000 ] # a*
- [   0.00000000,   0.34538696,   0.00000000 ] # b*
- [   0.00000000,   0.00000000,   0.03551137 ] # c*
natom: 9      
lattice:
- [     3.343208300121480,     0.000000000000000,     0.000000000000000 ] # a
- [    -1.671604150060740,     2.895303318050308,     0.000000000000000 ] # b
- [     0.000000000000000,     0.000000000000000,    28.159996799728134 ] # c
points:
- symbol: C # 1
  coordinates: [  0.000000000000000,  0.000000000000000,  0.500000029680002 ]
  mass: 12.010700
- symbol: C # 2
  coordinates: [  0.333332985432215,  0.666666983183674,  0.638221660873618 ]
  mass: 12.010700
- symbol: C # 3
  coordinates: [  0.666666984744047,  0.333332985985145,  0.361778338683396 ]
  mass: 12.010700
- symbol: Hf # 4
  coordinates: [  0.333332985432215,  0.666666983183674,  0.458330679734826 ]
  mass: 178.490000
- symbol: Hf # 5
  coordinates: [  0.666666984744047,  0.333332985985145,  0.541669319822181 ]
  mass: 178.490000
- symbol: N # 6
  coordinates: [  0.333332985432215,  0.666666983183674,  0.680397690951198 ]
  mass: 14.006700
- symbol: N # 7
  coordinates: [  0.666666984744047,  0.333332985985145,  0.319602309048802 ]
  mass: 14.006700
- symbol: O # 8
  coordinates: [  0.333332985432215,  0.666666983183674,  0.590598912275034 ]
  mass: 15.999400
- symbol: O # 9
  coordinates: [  0.666666984744047,  0.333332985985145,  0.409401087724966 ]
  mass: 15.999400

phonon:
- q-position: [    0.0000000,    0.0000000,    0.0000000 ]
  distance:    0.0000000
  band:
  - # 1
    frequency:   -0.0000035444
  - # 2
    frequency:   -0.0000003670
  - # 3
    frequency:    0.0000084103
  - # 4
    frequency:    1.6448959664
  - # 5
    frequency:    1.6448959665
  - # 6
    frequency:    1.7314643572
  - # 7
    frequency:    1.7314643572
  - # 8
    frequency:    3.9021671313
  - # 9
    frequency:    3.9021671313
  - # 10
    frequency:    5.1470249864
  - # 11
    frequency:    5.1470249864
  - # 12
    frequency:    5.1918491804
  - # 13
    frequency:    6.1056879327
  - # 14
    frequency:    6.1056879327
  - # 15
    frequency:    7.9186040726
  - # 16
    frequency:    8.6529087968
  - # 17
    frequency:   13.9225808184
  - # 18
    frequency:   13.9225808185
  - # 19
    frequency:   13.9744467999
  - # 20
    frequency:   13.9744467999
  - # 21
    frequency:   17.0882170812
  - # 22
    frequency:   19.7312617925
  - # 23
    frequency:   19.7312617925
  - # 24
    frequency:   31.4531878352
  - # 25
    frequency:   31.5311655760
  - # 26
    frequency:   67.8709956565
  - # 27
    frequency:   67.8740373156

- q-position: [    0.0050505,    0.0000000,    0.0000000 ]
  distance:    0.0017444
  band:
  - # 1
    frequency:    0.0013279354
  - # 2
    frequency:    0.0427416152
  - # 3
    frequency:    0.0898005847
  - # 4
    frequency:    1.6444139861
  - # 5
    frequency:    1.6462707099
  - # 6
    frequency:    1.7308932144
  - # 7
    frequency:    1.7325827091
  - # 8
    frequency:    3.9018729199
  - # 9
    frequency:    3.9024877999
  - # 10
    frequency:    5.1476059025
  - # 11
    frequency:    5.1478918876
  - # 12
    frequency:    5.1916844745
  - # 13
    frequency:    6.1057041250
  - # 14
    frequency:    6.1059666604
  - # 15
    frequency:    7.9182800585
  - # 16
    frequency:    8.6521386022
  - # 17
    frequency:   13.9226540537
  - # 18
    frequency:   13.9227423605
  - # 19
    frequency:   13.9744800243
  - # 20
    frequency:   13.9745842602
  - # 21
    frequency:   17.0881204070
  - # 22
    frequency:   19.7309858279
  - # 23
    frequency:   19.7313999727
  - # 24
    frequency:   31.4527553806
  - # 25
    frequency:   31.5306822648
  - # 26
    frequency:   67.8707452170
  - # 27
    frequency:   67.8737881279

- q-position: [    0.0101010,    0.0000000,    0.0000000 ]
  distance:    0.0034888
  band:
  - # 1
    frequency:    0.0052852860
  - # 2
    frequency:    0.0855219780
  - # 3
    frequency:    0.1795714162
  - # 4
    frequency:    1.6429688638
  - # 5
    frequency:    1.6503811278
  - # 6
    frequency:    1.7291821395
  - # 7
    frequency:    1.7359346106
  - # 8
    frequency:    3.9009888054
  - # 9
    frequency:    3.9034482965
  - # 10
    frequency:    5.1493490694
  - # 11
    frequency:    5.1504779724
  - # 12
    frequency:    5.1912028903
  - # 13
    frequency:    6.1057522855
  - # 14
    frequency:    6.1068007184
  - # 15
    frequency:    7.9173085733
  - # 16
    frequency:    8.6498295049
  - # 17
    frequency:   13.9228736070
  - # 18
    frequency:   13.9232268580
  - # 19
    frequency:   13.9745796654
  - # 20
    frequency:   13.9749964890
  - # 21
    frequency:   17.0878305566
  - # 22
    frequency:   19.7301592245
  - # 23
    frequency:   19.7318126599
  - # 24
    frequency:   31.4514590310
  - # 25
    frequency:   31.5292334327
  - # 26
    frequency:   67.8699944350
  - # 27
    frequency:   67.8730410975

- q-position: [    0.0151515,    0.0000000,    0.0000000 ]
  distance:    0.0052331
  band:
  - # 1
    frequency:    0.0118404996
  - # 2
    frequency:    0.1283789121
  - # 3
    frequency:    0.2692819609
  - # 4
    frequency:    1.6405630857
  - # 5
    frequency:    1.6571864505
  - # 6
    frequency:    1.7263382088
  - # 7
    frequency:    1.7415107169
  - # 8
    frequency:    3.8995104836
  - # 9
    frequency:    3.9050441302
  - # 10
    frequency:    5.1522556236
  - # 11
    frequency:    5.1547297226
  - # 12
    frequency:    5.1904516764
  - # 13
    frequency:    6.1058311804
  - # 14
    frequency:    6.1081837433
  - # 15
    frequency:    7.9156912911
  - # 16
    frequency:    8.6459859606
  - # 17
    frequency:   13.9232390198
  - # 18
    frequency:   13.9240339227
  - # 19
    frequency:   13.9747456287
  - # 20
    frequency:   13.9756830321
  - # 21
    frequency:   17.0873480475
  - # 22
    frequency:   19.7287858497
  - # 23
    frequency:   19.7324943075
  - # 24
    frequency:   31.4493018256
  - # 25
    frequency:   31.5268223809
  - # 26
    frequency:   67.8687449185
  - # 27
    frequency:   67.8717978213

- q-position: [    0.0202020,    0.0000000,    0.0000000 ]
  distance:    0.0069775
  band:
  - # 1
    frequency:    0.0209352920
  - # 2
    frequency:    0.1713484064
  - # 3
    frequency:    0.3589001044
  - # 4
    frequency:    1.6372008978
  - # 5
    frequency:    1.6666208783
  - # 6
    frequency:    1.7223732710
  - # 7
    frequency:    1.7492958474
  - # 8
    frequency:    3.8974312286
  - # 9
    frequency:    3.9072679352
  - # 10
    frequency:    5.1563270695
  - # 11
    frequency:    5.1605085943
  - # 12
    frequency:    5.1895588855
  - # 13
    frequency:    6.1059388014
  - # 14
    frequency:    6.1101051675
  - # 15
    frequency:    7.9134310112
  - # 16
    frequency:    8.6406153807
  - # 17
    frequency:   13.9237495226
  - # 18
    frequency:   13.9251629032
  - # 19
    frequency:   13.9749777612
  - # 20
    frequency:   13.9766431365
  - # 21
    frequency:   17.0866737453
  - # 22
    frequency:   19.7268721356
  - # 23
    frequency:   19.7334357158
  - # 24
    frequency:   31.4462888190
  - # 25
    frequency:   31.5234546003
  - # 26
    frequency:   67.8669993419
  - # 27
    frequency:   67.8700609544

- q-position: [    0.0252525,    0.0000000,    0.0000000 ]
  distance:    0.0087219
  band:
  - # 1
    frequency:    0.0324923176
  - # 2
    frequency:    0.2144637287
  - # 3
    frequency:    0.4483913151
  - # 4
    frequency:    1.6328884553
  - # 5
    frequency:    1.6785965576
  - # 6
    frequency:    1.7173040321
  - # 7
    frequency:    1.7592695801
  - # 8
    frequency:    3.8947425384
  - # 9
    frequency:    3.9101096385
  - # 10
    frequency:    5.1615647189
  - # 11
    frequency:    5.1674026117
  - # 12
    frequency:    5.1889217256
  - # 13
    frequency:    6.1060724367
  - # 14
    frequency:    6.1125502752
  - # 15
    frequency:    7.9105316712
  - # 16
    frequency:    8.6337281116
  - # 17
    frequency:   13.9244040270
  - # 18
    frequency:   13.9266128768
  - # 19
    frequency:   13.9752758590
  - # 20
    frequency:   13.9778757573
  - # 21
    frequency:   17.0858088685
  - # 22
    frequency:   19.7244270591
  - # 23
    frequency:   19.7346240981
  - # 24
    frequency:   31.4424270650
  - # 25
    frequency:   31.5191377558
  - # 26
    frequency:   67.8647614367
  - # 27
    frequency:   67.8678342024

- q-position: [    0.0303030,    0.0000000,    0.0000000 ]
  distance:    0.0104663
  band:
  - # 1
    frequency:    0.0464188949
  - # 2
    frequency:    0.2577545717
  - # 3
    frequency:    0.5377177472
  - # 4
    frequency:    1.6276340300
  - # 5
    frequency:    1.6930072984
  - # 6
    frequency:    1.7111521801
  - # 7
    frequency:    1.7714070936
  - # 8
    frequency:    3.8914349886
  - # 9
    frequency:    3.9135566769
  - # 10
    frequency:    5.1679689552
  - # 11
    frequency:    5.1739040259
  - # 12
    frequency:    5.1900288415
  - # 13
    frequency:    6.1062287685
  - # 14
    frequency:    6.1155002803
  - # 15
    frequency:    7.9069983655
  - # 16
    frequency:    8.6253374046
  - # 17
    frequency:   13.9252011160
  - # 18
    frequency:   13.9283826401
  - # 19
    frequency:   13.9756396771
  - # 20
    frequency:   13.9793795663
  - # 21
    frequency:   17.0847549945
  - # 22
    frequency:   19.7214621137
  - # 23
    frequency:   19.7360431727
  - # 24
    frequency:   31.4377255942
  - # 25
    frequency:   31.5138816634
  - # 26
    frequency:   67.8620359804
  - # 27
    frequency:   67.8651223087

- q-position: [    0.0353535,    0.0000000,    0.0000000 ]
  distance:    0.0122106
  band:
  - # 1
    frequency:    0.0626111370
  - # 2
    frequency:    0.3012462353
  - # 3
    frequency:    0.6268372560
  - # 4
    frequency:    1.6214482704
  - # 5
    frequency:    1.7039445555
  - # 6
    frequency:    1.7097326774
  - # 7
    frequency:    1.7856802683
  - # 8
    frequency:    3.8874992472
  - # 9
    frequency:    3.9175942446
  - # 10
    frequency:    5.1755383632
  - # 11
    frequency:    5.1766331653
  - # 12
    frequency:    5.1962364113
  - # 13
    frequency:    6.1064039943
  - # 14
    frequency:    6.1189324249
  - # 15
    frequency:    7.9028373673
  - # 16
    frequency:    8.6154593799
  - # 17
    frequency:   13.9261390302
  - # 18
    frequency:   13.9304706959
  - # 19
    frequency:   13.9760689416
  - # 20
    frequency:   13.9811529635
  - # 21
    frequency:   17.0835140671
  - # 22
    frequency:   19.7179912736
  - # 23
    frequency:   19.7376732788
  - # 24
    frequency:   31.4321953853
  - # 25
    frequency:   31.5076982614
  - # 26
    frequency:   67.8588287804
  - # 27
    frequency:   67.8619310399

- q-position: [    0.0404040,    0.0000000,    0.0000000 ]
  distance:    0.0139550
  band:
  - # 1
    frequency:    0.0809581549
  - # 2
    frequency:    0.3449588399
  - # 3
    frequency:    0.7157022928
  - # 4
    frequency:    1.6143445109
  - # 5
    frequency:    1.6957133784
  - # 6
    frequency:    1.7286421809
  - # 7
    frequency:    1.8020590675
  - # 8
    frequency:    3.8829271949
  - # 9
    frequency:    3.9222055540
  - # 10
    frequency:    5.1756980163
  - # 11
    frequency:    5.1842687794
  - # 12
    frequency:    5.2074085371
  - # 13
    frequency:    6.1065939705
  - # 14
    frequency:    6.1228200963
  - # 15
    frequency:    7.8980561541
  - # 16
    frequency:    8.6041129816
  - # 17
    frequency:   13.9272156529
  - # 18
    frequency:   13.9328752387
  - # 19
    frequency:   13.9765633654
  - # 20
    frequency:   13.9831940903
  - # 21
    frequency:   17.0820884061
  - # 22
    frequency:   19.7140309492
  - # 23
    frequency:   19.7394915157
  - # 24
    frequency:   31.4258493300
  - # 25
    frequency:   31.5006015753
  - # 26
    frequency:   67.8551466553
  - # 27
    frequency:   67.8582671664

- q-position: [    0.0454545,    0.0000000,    0.0000000 ]
  distance:    0.0156994
  band:
  - # 1
    frequency:    0.1013460483
  - # 2
    frequency:    0.3889065608
  - # 3
    frequency:    0.8042586347
  - # 4
    frequency:    1.6063391296
  - # 5
    frequency:    1.6864965459
  - # 6
    frequency:    1.7495990877
  - # 7
    frequency:    1.8205132275
  - # 8
    frequency:    3.8777130935
  - # 9
    frequency:    3.9273720920
  - # 10
    frequency:    5.1732738190
  - # 11
    frequency:    5.1941523142
  - # 12
    frequency:    5.2213376612
  - # 13
    frequency:    6.1067943742
  - # 14
    frequency:    6.1271329626
  - # 15
    frequency:    7.8926634363
  - # 16
    frequency:    8.5913199289
  - # 17
    frequency:   13.9284284927
  - # 18
    frequency:   13.9355941380
  - # 19
    frequency:   13.9771226652
  - # 20
    frequency:   13.9855008450
  - # 21
    frequency:   17.0804807165
  - # 22
    frequency:   19.7095999355
  - # 23
    frequency:   19.7414719037
  - # 24
    frequency:   31.4187021921
  - # 25
    frequency:   31.4926076765
  - # 26
    frequency:   67.8509974134
  - # 27
    frequency:   67.8541384413

- q-position: [    0.0505051,    0.0000000,    0.0000000 ]
  distance:    0.0174438
  band:
  - # 1
    frequency:    0.1236614721
  - # 2
    frequency:    0.4330968584
  - # 3
    frequency:    0.8924438971
  - # 4
    frequency:    1.5974519489
  - # 5
    frequency:    1.6763380200
  - # 6
    frequency:    1.7724638723
  - # 7
    frequency:    1.8410142924
  - # 8
    frequency:    3.8718547397
  - # 9
    frequency:    3.9330738542
  - # 10
    frequency:    5.1701435144
  - # 11
    frequency:    5.2051764046
  - # 12
    frequency:    5.2372041820
  - # 13
    frequency:    6.1070008812
  - # 14
    frequency:    6.1318371243
  - # 15
    frequency:    7.8866691870
  - # 16
    frequency:    8.5771046592
  - # 17
    frequency:   13.9297746647
  - # 18
    frequency:   13.9386249193
  - # 19
    frequency:   13.9777465815
  - # 20
    frequency:   13.9880708995
  - # 21
    frequency:   17.0786940989
  - # 22
    frequency:   19.7047193518
  - # 23
    frequency:   19.7435855646
  - # 24
    frequency:   31.4107705607
  - # 25
    frequency:   31.4837346353
  - # 26
    frequency:   67.8463898273
  - # 27
    frequency:   67.8495535750

- q-position: [    0.0555556,    0.0000000,    0.0000000 ]
  distance:    0.0191882
  band:
  - # 1
    frequency:    0.1477946453
  - # 2
    frequency:    0.4775296682
  - # 3
    frequency:    0.9801857607
  - # 4
    frequency:    1.5877066810
  - # 5
    frequency:    1.6652883402
  - # 6
    frequency:    1.7970970007
  - # 7
    frequency:    1.8635380330
  - # 8
    frequency:    3.8653545485
  - # 9
    frequency:    3.9392895462
  - # 10
    frequency:    5.1665512731
  - # 11
    frequency:    5.2173229454
  - # 12
    frequency:    5.2547230573
  - # 13
    frequency:    6.1072093568
  - # 14
    frequency:    6.1368952805
  - # 15
    frequency:    7.8800846718
  - # 16
    frequency:    8.5614942691
  - # 17
    frequency:   13.9312508699
  - # 18
    frequency:   13.9419647444
  - # 19
    frequency:   13.9784348999
  - # 20
    frequency:   13.9909017180
  - # 21
    frequency:   17.0767320605
  - # 22
    frequency:   19.6994125736
  - # 23
    frequency:   19.7458009202
  - # 24
    frequency:   31.4020727976
  - # 25
    frequency:   31.4740024676
  - # 26
    frequency:   67.8413336058
  - # 27
    frequency:   67.8445222077

- q-position: [    0.0606061,    0.0000000,    0.0000000 ]
  distance:    0.0209325
  band:
  - # 1
    frequency:    0.1736417417
  - # 2
    frequency:    0.5221964949
  - # 3
    frequency:    1.0673998315
  - # 4
    frequency:    1.5771314154
  - # 5
    frequency:    1.6534053035
  - # 6
    frequency:    1.8233610914
  - # 7
    frequency:    1.8880672780
  - # 8
    frequency:    3.8582205159
  - # 9
    frequency:    3.9459967417
  - # 10
    frequency:    5.1626005240
  - # 11
    frequency:    5.2305675449
  - # 12
    frequency:    5.2737459796
  - # 13
    frequency:    6.1074160563
  - # 14
    frequency:    6.1422669086
  - # 15
    frequency:    7.8729224789
  - # 16
    frequency:    8.5445184493
  - # 17
    frequency:   13.9328533751
  - # 18
    frequency:   13.9456103911
  - # 19
    frequency:   13.9791874752
  - # 20
    frequency:   13.9939905768
  - # 21
    frequency:   17.0745985255
  - # 22
    frequency:   19.6937051575
  - # 23
    frequency:   19.7480839059
  - # 24
    frequency:   31.3926289792
  - # 25
    frequency:   31.4634330763
  - # 26
    frequency:   67.8358393631
  - # 27
    frequency:   67.8390548783

- q-position: [    0.0656566,    0.0000000,    0.0000000 ]
  distance:    0.0226769
  band:
  - # 1
    frequency:    0.2011066595
  - # 2
    frequency:    0.5670793282
  - # 3
    frequency:    1.1539870412
  - # 4
    frequency:    1.5657591491
  - # 5
    frequency:    1.6407548856
  - # 6
    frequency:    1.8511225098
  - # 7
    frequency:    1.9145951626
  - # 8
    frequency:    3.8504670199
  - # 9
    frequency:    3.9531719977
  - # 10
    frequency:    5.1583508066
  - # 11
    frequency:    5.2448789385
  - # 12
    frequency:    5.2941648078
  - # 13
    frequency:    6.1076178318
  - # 14
    frequency:    6.1479084552
  - # 15
    frequency:    7.8651965460
  - # 16
    frequency:    8.5262094184
  - # 17
    frequency:   13.9345779905
  - # 18
    frequency:   13.9495582311
  - # 19
    frequency:   13.9800042567
  - # 20
    frequency:   13.9973345849
  - # 21
    frequency:   17.0722978447
  - # 22
    frequency:   19.6876247566
  - # 23
    frequency:   19.7503981991
  - # 24
    frequency:   31.3824608331
  - # 25
    frequency:   31.4520501870
  - # 26
    frequency:   67.8299185852
  - # 27
    frequency:   67.8331629913

- q-position: [    0.0707071,    0.0000000,    0.0000000 ]
  distance:    0.0244213
  band:
  - # 1
    frequency:    0.2301022093
  - # 2
    frequency:    0.6121492629
  - # 3
    frequency:    1.2398304939
  - # 4
    frequency:    1.5536283577
  - # 5
    frequency:    1.6274125082
  - # 6
    frequency:    1.8802525561
  - # 7
    frequency:    1.9431287562
  - # 8
    frequency:    3.8421154293
  - # 9
    frequency:    3.9607909266
  - # 10
    frequency:    5.1538457495
  - # 11
    frequency:    5.2602185822
  - # 12
    frequency:    5.3158839507
  - # 13
    frequency:    6.1078123430
  - # 14
    frequency:    6.1537735375
  - # 15
    frequency:    7.8569221848
  - # 16
    frequency:    8.5066018532
  - # 17
    frequency:   13.9364200492
  - # 18
    frequency:   13.9538042089
  - # 19
    frequency:   13.9808853153
  - # 20
    frequency:   14.0009307060
  - # 21
    frequency:   17.0698348044
  - # 22
    frequency:   19.6812010295
  - # 23
    frequency:   19.7527054582
  - # 24
    frequency:   31.3715916695
  - # 25
    frequency:   31.4398792787
  - # 26
    frequency:   67.8235835929
  - # 27
    frequency:   67.8268587800

- q-position: [    0.0757576,    0.0000000,    0.0000000 ]
  distance:    0.0261657
  band:
  - # 1
    frequency:    0.2605507813
  - # 2
    frequency:    0.6573646505
  - # 3
    frequency:    1.3247916928
  - # 4
    frequency:    1.5407836012
  - # 5
    frequency:    1.6134648192
  - # 6
    frequency:    1.9106284580
  - # 7
    frequency:    1.9736929766
  - # 8
    frequency:    3.8331945050
  - # 9
    frequency:    3.9688282358
  - # 10
    frequency:    5.1491228840
  - # 11
    frequency:    5.2765404348
  - # 12
    frequency:    5.3388109913
  - # 13
    frequency:    6.1079982697
  - # 14
    frequency:    6.1598131531
  - # 15
    frequency:    7.8481161000
  - # 16
    frequency:    8.4857328185
  - # 17
    frequency:   13.9383743857
  - # 18
    frequency:   13.9583438202
  - # 19
    frequency:   13.9818308720
  - # 20
    frequency:   14.0047757800
  - # 21
    frequency:   17.0672146337
  - # 22
    frequency:   19.6744655407
  - # 23
    frequency:   19.7549655702
  - # 24
    frequency:   31.3600463081
  - # 25
    frequency:   31.4269475091
  - # 26
    frequency:   67.8168475035
  - # 27
    frequency:   67.8201552684

- q-position: [    0.0808081,    0.0000000,    0.0000000 ]
  distance:    0.0279101
  band:
  - # 1
    frequency:    0.2923845675
  - # 2
    frequency:    0.7026685268
  - # 3
    frequency:    1.4087061719
  - # 4
    frequency:    1.5272761497
  - # 5
    frequency:    1.5990122396
  - # 6
    frequency:    1.9421343663
  - # 7
    frequency:    2.0063346358
  - # 8
    frequency:    3.8237405876
  - # 9
    frequency:    3.9772577461
  - # 10
    frequency:    5.1442176421
  - # 11
    frequency:    5.2937909287
  - # 12
    frequency:    5.3628531935
  - # 13
    frequency:    6.1081755236
  - # 14
    frequency:    6.1659758988
  - # 15
    frequency:    7.8387964020
  - # 16
    frequency:    8.4636416958
  - # 17
    frequency:   13.9404353161
  - # 18
    frequency:   13.9631720911
  - # 19
    frequency:   13.9828413277
  - # 20
    frequency:   14.0088665459
  - # 21
    frequency:   17.0644430097
  - # 22
    frequency:   19.6674516533
  - # 23
    frequency:   19.7571369067
  - # 24
    frequency:   31.3478509998
  - # 25
    frequency:   31.4132836353
  - # 26
    frequency:   67.8097241893
  - # 27
    frequency:   67.8130662302

- q-position: [    0.0858586,    0.0000000,    0.0000000 ]
  distance:    0.0296544
  band:
  - # 1
    frequency:    0.3255454140
  - # 2
    frequency:    0.7479849339
  - # 3
    frequency:    1.4913787718
  - # 4
    frequency:    1.5131645978
  - # 5
    frequency:    1.5841726797
  - # 6
    frequency:    1.9746624378
  - # 7
    frequency:    2.0411263681
  - # 8
    frequency:    3.8137975760
  - # 9
    frequency:    3.9860524055
  - # 10
    frequency:    5.1391651836
  - # 11
    frequency:    5.3119091139
  - # 12
    frequency:    5.3879162376
  - # 13
    frequency:    6.1083454565
  - # 14
    frequency:    6.1722081946
  - # 15
    frequency:    7.8289826120
  - # 16
    frequency:    8.4403701121
  - # 17
    frequency:   13.9425966197
  - # 18
    frequency:   13.9682835584
  - # 19
    frequency:   13.9839172935
  - # 20
    frequency:   14.0131996646
  - # 21
    frequency:   17.0615260605
  - # 22
    frequency:   19.6601944144
  - # 23
    frequency:   19.7591765827
  - # 24
    frequency:   31.3350333446
  - # 25
    frequency:   31.3989179297
  - # 26
    frequency:   67.8022282342
  - # 27
    frequency:   67.8056061452

- q-position: [    0.0909091,    0.0000000,    0.0000000 ]
  distance:    0.0313988
  band:
  - # 1
    frequency:    0.3599843751
  - # 2
    frequency:    0.7932135549
  - # 3
    frequency:    1.4985154038
  - # 4
    frequency:    1.5690870513
  - # 5
    frequency:    1.5725792424
  - # 6
    frequency:    2.0081138957
  - # 7
    frequency:    2.0781699374
  - # 8
    frequency:    3.8034167123
  - # 9
    frequency:    3.9951843162
  - # 10
    frequency:    5.1340013057
  - # 11
    frequency:    5.3308269567
  - # 12
    frequency:    5.4139039172
  - # 13
    frequency:    6.1085110660
  - # 14
    frequency:    6.1784545168
  - # 15
    frequency:    7.8186956571
  - # 16
    frequency:    8.4159618689
  - # 17
    frequency:   13.9448515232
  - # 18
    frequency:   13.9736722509
  - # 19
    frequency:   13.9850596213
  - # 20
    frequency:   14.0177717410
  - # 21
    frequency:   17.0584703642
  - # 22
    frequency:   19.6527304324
  - # 23
    frequency:   19.7610407192
  - # 24
    frequency:   31.3216222051
  - # 25
    frequency:   31.3838820916
  - # 26
    frequency:   67.7943748887
  - # 27
    frequency:   67.7977901551

- q-position: [    0.0959596,    0.0000000,    0.0000000 ]
  distance:    0.0331432
  band:
  - # 1
    frequency:    0.3956610377
  - # 2
    frequency:    0.8382217714
  - # 3
    frequency:    1.4834032448
  - # 4
    frequency:    1.5539275653
  - # 5
    frequency:    1.6520396523
  - # 6
    frequency:    2.0423997812
  - # 7
    frequency:    2.1175977922
  - # 8
    frequency:    3.7926561918
  - # 9
    frequency:    4.0046247945
  - # 10
    frequency:    5.1287629291
  - # 11
    frequency:    5.3504697655
  - # 12
    frequency:    5.4407182910
  - # 13
    frequency:    6.1086771949
  - # 14
    frequency:    6.1846576352
  - # 15
    frequency:    7.8079578548
  - # 16
    frequency:    8.3904628723
  - # 17
    frequency:   13.9471926879
  - # 18
    frequency:   13.9793316729
  - # 19
    frequency:   13.9862694338
  - # 20
    frequency:   14.0225793468
  - # 21
    frequency:   17.0552829461
  - # 22
    frequency:   19.6450977462
  - # 23
    frequency:   19.7626847056
  - # 24
    frequency:   31.3076476165
  - # 25
    frequency:   31.3682091550
  - # 26
    frequency:   67.7861800219
  - # 27
    frequency:   67.7896340158

- q-position: [    0.1010101,    0.0000000,    0.0000000 ]
  distance:    0.0348876
  band:
  - # 1
    frequency:    0.4325426710
  - # 2
    frequency:    0.8828327824
  - # 3
    frequency:    1.4679109943
  - # 4
    frequency:    1.5389103479
  - # 5
    frequency:    1.7294563263
  - # 6
    frequency:    2.0774410876
  - # 7
    frequency:    2.1595705163
  - # 8
    frequency:    3.7815806238
  - # 9
    frequency:    4.0143444828
  - # 10
    frequency:    5.1234883703
  - # 11
    frequency:    5.3707567149
  - # 12
    frequency:    5.4682600647
  - # 13
    frequency:    6.1088507236
  - # 14
    frequency:    6.1907588597
  - # 15
    frequency:    7.7967928834
  - # 16
    frequency:    8.3639210635
  - # 17
    frequency:   13.9496122033
  - # 18
    frequency:   13.9852547898
  - # 19
    frequency:   13.9875481515
  - # 20
    frequency:   14.0276190416
  - # 21
    frequency:   17.0519712703
  - # 22
    frequency:   19.6373356883
  - # 23
    frequency:   19.7640634605
  - # 24
    frequency:   31.2931406927
  - # 25
    frequency:   31.3519333923
  - # 26
    frequency:   67.7776600735
  - # 27
    frequency:   67.7811540494

- q-position: [    0.1060606,    0.0000000,    0.0000000 ]
  distance:    0.0366319
  band:
  - # 1
    frequency:    0.4706032549
  - # 2
    frequency:    0.9268077454
  - # 3
    frequency:    1.4521290277
  - # 4
    frequency:    1.5243146963
  - # 5
    frequency:    1.8045004906
  - # 6
    frequency:    2.1131681357
  - # 7
    frequency:    2.2042661809
  - # 8
    frequency:    3.7702603659
  - # 9
    frequency:    4.0243135307
  - # 10
    frequency:    5.1182174969
  - # 11
    frequency:    5.3916014388
  - # 12
    frequency:    5.4964290913
  - # 13
    frequency:    6.1090407552
  - # 14
    frequency:    6.1966982933
  - # 15
    frequency:    7.7852257392
  - # 16
    frequency:    8.3363863505
  - # 17
    frequency:   13.9521015874
  - # 18
    frequency:   13.9888975152
  - # 19
    frequency:   13.9914340163
  - # 20
    frequency:   14.0328873938
  - # 21
    frequency:   17.0485432275
  - # 22
    frequency:   19.6294847391
  - # 23
    frequency:   19.7651316900
  - # 24
    frequency:   31.2781335298
  - # 25
    frequency:   31.3350902142
  - # 26
    frequency:   67.7688320029
  - # 27
    frequency:   67.7723670943

- q-position: [    0.1111111,    0.0000000,    0.0000000 ]
  distance:    0.0383763
  band:
  - # 1
    frequency:    0.5098224311
  - # 2
    frequency:    0.9698190842
  - # 3
    frequency:    1.4361534335
  - # 4
    frequency:    1.5105122308
  - # 5
    frequency:    1.8768425190
  - # 6
    frequency:    2.1495193195
  - # 7
    frequency:    2.2518566193
  - # 8
    frequency:    3.7587707600
  - # 9
    frequency:    4.0345018608
  - # 10
    frequency:    5.1129918147
  - # 11
    frequency:    5.4129126660
  - # 12
    frequency:    5.5251249277
  - # 13
    frequency:    6.1092587896
  - # 14
    frequency:    6.2024150952
  - # 15
    frequency:    7.7732826752
  - # 16
    frequency:    8.3079105404
  - # 17
    frequency:   13.9546517987
  - # 18
    frequency:   13.9903196006
  - # 19
    frequency:   13.9978612083
  - # 20
    frequency:   14.0383809997
  - # 21
    frequency:   17.0450071186
  - # 22
    frequency:   19.6215863748
  - # 23
    frequency:   19.7658441400
  - # 24
    frequency:   31.2626591061
  - # 25
    frequency:   31.3177160672
  - # 26
    frequency:   67.7597132382
  - # 27
    frequency:   67.7632904537

- q-position: [    0.1161616,    0.0000000,    0.0000000 ]
  distance:    0.0401207
  band:
  - # 1
    frequency:    0.5501844133
  - # 2
    frequency:    1.0114116471
  - # 3
    frequency:    1.4200826561
  - # 4
    frequency:    1.4980097094
  - # 5
    frequency:    1.9461925224
  - # 6
    frequency:    2.1864395383
  - # 7
    frequency:    2.3024675986
  - # 8
    frequency:    3.7471912913
  - # 9
    frequency:    4.0448795327
  - # 10
    frequency:    5.1078545088
  - # 11
    frequency:    5.4345948749
  - # 12
    frequency:    5.5542474128
  - # 13
    frequency:    6.1095188847
  - # 14
    frequency:    6.2078477556
  - # 15
    frequency:    7.7609911222
  - # 16
    frequency:    8.2785472721
  - # 17
    frequency:   13.9572532641
  - # 18
    frequency:   13.9918168192
  - # 19
    frequency:   14.0045276592
  - # 20
    frequency:   14.0440965001
  - # 21
    frequency:   17.0413716319
  - # 22
    frequency:   19.6136829077
  - # 23
    frequency:   19.7661558431
  - # 24
    frequency:   31.2467511796
  - # 25
    frequency:   31.2998483274
  - # 26
    frequency:   67.7503216233
  - # 27
    frequency:   67.7539418441

- q-position: [    0.1212121,    0.0000000,    0.0000000 ]
  distance:    0.0418651
  band:
  - # 1
    frequency:    0.5916768930
  - # 2
    frequency:    1.0509502065
  - # 3
    frequency:    1.4040123200
  - # 4
    frequency:    1.4875072398
  - # 5
    frequency:    2.0123528202
  - # 6
    frequency:    2.2238786467
  - # 7
    frequency:    2.3561270440
  - # 8
    frequency:    3.7356046919
  - # 9
    frequency:    4.0554172118
  - # 10