nqpoint: 300    
npath: 3      
segment_nqpoint:
- 100
- 100
- 100
labels:
- [ 'G', 'M' ]
- [ 'M', 'K' ]
- [ 'K', 'G' ]
reciprocal_lattice:
- [   0.31374279,   0.18113948,   0.00000000 ] # a*
- [   0.00000000,   0.36227896,   0.00000000 ] # b*
- [   0.00000000,   0.00000000,   0.04498145 ] # c*
natom: 5      
lattice:
- [     3.187324280379996,     0.000000000000000,     0.000000000000000 ] # a
- [    -1.593662140189998,     2.760303796906907,     0.000000000000000 ] # b
- [     0.000000000000000,     0.000000000000000,    22.231384849319777 ] # c
points:
- symbol: F # 1
  coordinates: [  0.333332985432215,  0.666666983183674,  0.595166920054673 ]
  mass: 18.998403
- symbol: H # 2
  coordinates: [  0.666666984744047,  0.333332985985145,  0.404833079945327 ]
  mass: 1.007940
- symbol: N # 3
  coordinates: [  0.000000000000000,  0.000000000000000,  0.495268722925108 ]
  mass: 14.006700
- symbol: Ti # 4
  coordinates: [  0.333332985432215,  0.666666983183674,  0.447728743987790 ]
  mass: 47.867000
- symbol: Ti # 5
  coordinates: [  0.666666984744047,  0.333332985985145,  0.540912111914698 ]
  mass: 47.867000

phonon:
- q-position: [    0.0000000,    0.0000000,    0.0000000 ]
  distance:    0.0000000
  band:
  - # 1
    frequency:   -0.0000093826
  - # 2
    frequency:    0.0000002395
  - # 3
    frequency:    0.0000072847
  - # 4
    frequency:    6.0424373113
  - # 5
    frequency:    6.0424373113
  - # 6
    frequency:    7.6036950108
  - # 7
    frequency:    7.6036950108
  - # 8
    frequency:    9.2398746824
  - # 9
    frequency:   13.5132908846
  - # 10
    frequency:   16.5068321297
  - # 11
    frequency:   17.1077894972
  - # 12
    frequency:   17.1077894972
  - # 13
    frequency:   27.0821109588
  - # 14
    frequency:   27.0821109588
  - # 15
    frequency:   28.9815421325

- q-position: [    0.0050505,    0.0000000,    0.0000000 ]
  distance:    0.0018297
  band:
  - # 1
    frequency:    0.0017547312
  - # 2
    frequency:    0.0970833410
  - # 3
    frequency:    0.1463875566
  - # 4
    frequency:    6.0421742362
  - # 5
    frequency:    6.0428847532
  - # 6
    frequency:    7.6036356982
  - # 7
    frequency:    7.6043054322
  - # 8
    frequency:    9.2396807226
  - # 9
    frequency:   13.5122772028
  - # 10
    frequency:   16.5063503726
  - # 11
    frequency:   17.1077111771
  - # 12
    frequency:   17.1082220668
  - # 13
    frequency:   27.0816541717
  - # 14
    frequency:   27.0820426958
  - # 15
    frequency:   28.9814116264

- q-position: [    0.0101010,    0.0000000,    0.0000000 ]
  distance:    0.0036594
  band:
  - # 1
    frequency:    0.0070158086
  - # 2
    frequency:    0.1940905662
  - # 3
    frequency:    0.2926534523
  - # 4
    frequency:    6.0413859081
  - # 5
    frequency:    6.0442271605
  - # 6
    frequency:    7.6034573483
  - # 7
    frequency:    7.6061334164
  - # 8
    frequency:    9.2391013664
  - # 9
    frequency:   13.5092383660
  - # 10
    frequency:   16.5049078408
  - # 11
    frequency:   17.1074765413
  - # 12
    frequency:   17.1095149578
  - # 13
    frequency:   27.0802849298
  - # 14
    frequency:   27.0818398279
  - # 15
    frequency:   28.9810192234

- q-position: [    0.0151515,    0.0000000,    0.0000000 ]
  distance:    0.0054891
  band:
  - # 1
    frequency:    0.0157739505
  - # 2
    frequency:    0.2909457805
  - # 3
    frequency:    0.4386763750
  - # 4
    frequency:    6.0400750174
  - # 5
    frequency:    6.0464647778
  - # 6
    frequency:    7.6031587309
  - # 7
    frequency:    7.6091691178
  - # 8
    frequency:    9.2381441728
  - # 9
    frequency:   13.5041809902
  - # 10
    frequency:   16.5025126497
  - # 11
    frequency:   17.1070865574
  - # 12
    frequency:   17.1116538473
  - # 13
    frequency:   27.0780065879
  - # 14
    frequency:   27.0815080996
  - # 15
    frequency:   28.9803622815

- q-position: [    0.0202020,    0.0000000,    0.0000000 ]
  distance:    0.0073188
  band:
  - # 1
    frequency:    0.0280137381
  - # 2
    frequency:    0.3875735294
  - # 3
    frequency:    0.5843357107
  - # 4
    frequency:    6.0382460489
  - # 5
    frequency:    6.0495980124
  - # 6
    frequency:    7.6027378160
  - # 7
    frequency:    7.6133961107
  - # 8
    frequency:    9.2368217010
  - # 9
    frequency:   13.4971160696
  - # 10
    frequency:   16.4991779950
  - # 11
    frequency:   17.1065428169
  - # 12
    frequency:   17.1146152899
  - # 13
    frequency:   27.0748247261
  - # 14
    frequency:   27.0810570200
  - # 15
    frequency:   28.9794364416

- q-position: [    0.0252525,    0.0000000,    0.0000000 ]
  distance:    0.0091485
  band:
  - # 1
    frequency:    0.0437137079
  - # 2
    frequency:    0.4838990179
  - # 3
    frequency:    0.7295118874
  - # 4
    frequency:    6.0359052811
  - # 5
    frequency:    6.0536274324
  - # 6
    frequency:    7.6021918038
  - # 7
    frequency:    7.6187913675
  - # 8
    frequency:    9.2351514528
  - # 9
    frequency:   13.4880589283
  - # 10
    frequency:   16.4949216913
  - # 11
    frequency:   17.1058475044
  - # 12
    frequency:   17.1183673189
  - # 13
    frequency:   27.0707471331
  - # 14
    frequency:   27.0804997666
  - # 15
    frequency:   28.9782356907

- q-position: [    0.0303030,    0.0000000,    0.0000000 ]
  distance:    0.0109782
  band:
  - # 1
    frequency:    0.0628464712
  - # 2
    frequency:    0.5798483290
  - # 3
    frequency:    0.8740867144
  - # 4
    frequency:    6.0330607885
  - # 5
    frequency:    6.0585537615
  - # 6
    frequency:    7.6015171659
  - # 7
    frequency:    7.6253252332
  - # 8
    frequency:    9.2331557889
  - # 9
    frequency:   13.4770291554
  - # 10
    frequency:   16.4897655928
  - # 11
    frequency:   17.1050033538
  - # 12
    frequency:   17.1228702190
  - # 13
    frequency:   27.0657837824
  - # 14
    frequency:   27.0798530525
  - # 15
    frequency:   28.9767524513

- q-position: [    0.0353535,    0.0000000,    0.0000000 ]
  distance:    0.0128078
  band:
  - # 1
    frequency:    0.0853788647
  - # 2
    frequency:    0.6753486389
  - # 3
    frequency:    1.0179437147
  - # 4
    frequency:    6.0297224439
  - # 5
    frequency:    6.0643778701
  - # 6
    frequency:    7.6007096969
  - # 7
    frequency:    7.6329614025
  - # 8
    frequency:    9.2308618199
  - # 9
    frequency:   13.4640505248
  - # 10
    frequency:   16.4837349450
  - # 11
    frequency:   17.1040135935
  - # 12
    frequency:   17.1280774158
  - # 13
    frequency:   27.0599468028
  - # 14
    frequency:   27.0791369588
  - # 15
    frequency:   28.9749776914

- q-position: [    0.0404040,    0.0000000,    0.0000000 ]
  distance:    0.0146375
  band:
  - # 1
    frequency:    0.1112721284
  - # 2
    frequency:    0.7703284317
  - # 3
    frequency:    1.1609684486
  - # 4
    frequency:    6.0259019237
  - # 5
    frequency:    6.0711007580
  - # 6
    frequency:    7.5997645746
  - # 7
    frequency:    7.6416569055
  - # 8
    frequency:    9.2283012682
  - # 9
    frequency:   13.4491509009
  - # 10
    frequency:   16.4768577197
  - # 11
    frequency:   17.1028818796
  - # 12
    frequency:   17.1339364253
  - # 13
    frequency:   27.0532504413
  - # 14
    frequency:   27.0783747348
  - # 15
    frequency:   28.9729010561

- q-position: [    0.0454545,    0.0000000,    0.0000000 ]
  distance:    0.0164672
  band:
  - # 1
    frequency:    0.1404821084
  - # 2
    frequency:    0.8647177099
  - # 3
    frequency:    1.3030488264
  - # 4
    frequency:    6.0216127162
  - # 5
    frequency:    6.0787235293
  - # 6
    frequency:    7.5986764292
  - # 7
    frequency:    7.6513621106
  - # 8
    frequency:    9.2255102989
  - # 9
    frequency:   13.4323621345
  - # 10
    frequency:   16.4691639782
  - # 11
    frequency:   17.1016122182
  - # 12
    frequency:   17.1403898135
  - # 13
    frequency:   27.0457110201
  - # 14
    frequency:   27.0775925682
  - # 15
    frequency:   28.9705110160

- q-position: [    0.0505051,    0.0000000,    0.0000000 ]
  distance:    0.0182969
  band:
  - # 1
    frequency:    0.1729594819
  - # 2
    frequency:    0.9584482024
  - # 3
    frequency:    1.4440754092
  - # 4
    frequency:    6.0168701339
  - # 5
    frequency:    6.0872473557
  - # 6
    frequency:    7.5974394187
  - # 7
    frequency:    7.6620207538
  - # 8
    frequency:    9.2225293161
  - # 9
    frequency:   13.4137199497
  - # 10
    frequency:   16.4606852954
  - # 11
    frequency:   17.1002088783
  - # 12
    frequency:   17.1473761272
  - # 13
    frequency:   27.0373468881
  - # 14
    frequency:   27.0768193291
  - # 15
    frequency:   28.9677950321

- q-position: [    0.0555556,    0.0000000,    0.0000000 ]
  distance:    0.0201266
  band:
  - # 1
    frequency:    0.2086499998
  - # 2
    frequency:    1.0514535686
  - # 3
    frequency:    1.5839416940
  - # 4
    frequency:    6.0116913309
  - # 5
    frequency:    6.0966734276
  - # 6
    frequency:    7.5960473088
  - # 7
    frequency:    7.6735700051
  - # 8
    frequency:    9.2194027182
  - # 9
    frequency:   13.3932638249
  - # 10
    frequency:   16.4514542679
  - # 11
    frequency:   17.0986762941
  - # 12
    frequency:   17.1548307663
  - # 13
    frequency:   27.0281783643
  - # 14
    frequency:   27.0760862906
  - # 15
    frequency:   28.9647397330

- q-position: [    0.0606061,    0.0000000,    0.0000000 ]
  distance:    0.0219563
  band:
  - # 1
    frequency:    0.2474947447
  - # 2
    frequency:    1.1436695980
  - # 3
    frequency:    1.7225443840
  - # 4
    frequency:    6.0060953247
  - # 5
    frequency:    6.1070028924
  - # 6
    frequency:    7.5944935577
  - # 7
    frequency:    7.6859405825
  - # 8
    frequency:    9.2161786082
  - # 9
    frequency:   13.3710368693
  - # 10
    frequency:   16.4415041153
  - # 11
    frequency:   17.0970189597
  - # 12
    frequency:   17.1626867832
  - # 13
    frequency:   27.0182276772
  - # 14
    frequency:   27.0754268290
  - # 15
    frequency:   28.9613311016

- q-position: [    0.0656566,    0.0000000,    0.0000000 ]
  distance:    0.0237860
  band:
  - # 1
    frequency:    0.2894304008
  - # 2
    frequency:    1.2350344052
  - # 3
    frequency:    1.8597836391
  - # 4
    frequency:    6.0001030250
  - # 5
    frequency:    6.1182367781
  - # 6
    frequency:    7.5927714020
  - # 7
    frequency:    7.6990569285
  - # 8
    frequency:    9.2129084496
  - # 9
    frequency:   13.3470856983
  - # 10
    frequency:   16.4308683750
  - # 11
    frequency:   17.0952413155
  - # 12
    frequency:   17.1708756016
  - # 13
    frequency:   27.0075188975
  - # 14
    frequency:   27.0748761079
  - # 15
    frequency:   28.9575546693

- q-position: [    0.0707071,    0.0000000,    0.0000000 ]
  distance:    0.0256157
  band:
  - # 1
    frequency:    0.3343895316
  - # 2
    frequency:    1.3254886194
  - # 3
    frequency:    1.9955633071
  - # 4
    frequency:    5.9937372676
  - # 5
    frequency:    6.1303759056
  - # 6
    frequency:    7.5908739432
  - # 7
    frequency:    7.7128374601
  - # 8
    frequency:    9.2096466624
  - # 9
    frequency:   13.3214603071
  - # 10
    frequency:   16.4195806842
  - # 11
    frequency:   17.0933476296
  - # 12
    frequency:   17.1793276566
  - # 13
    frequency:   26.9960778647
  - # 14
    frequency:   27.0744707498
  - # 15
    frequency:   28.9533957148

- q-position: [    0.0757576,    0.0000000,    0.0000000 ]
  distance:    0.0274454
  band:
  - # 1
    frequency:    0.3823008652
  - # 2
    frequency:    1.4149755677
  - # 3
    frequency:    2.1297911332
  - # 4
    frequency:    5.9870228546
  - # 5
    frequency:    6.1434207875
  - # 6
    frequency:    7.5887942338
  - # 7
    frequency:    7.7271949079
  - # 8
    frequency:    9.2064501454
  - # 9
    frequency:   13.2942139457
  - # 10
    frequency:   16.4076746357
  - # 11
    frequency:   17.0913418724
  - # 12
    frequency:   17.1879729611
  - # 13
    frequency:   26.9839321088
  - # 14
    frequency:   27.0742484977
  - # 15
    frequency:   28.9488394640

- q-position: [    0.0808081,    0.0000000,    0.0000000 ]
  distance:    0.0292751
  band:
  - # 1
    frequency:    0.4330895807
  - # 2
    frequency:    1.5034414519
  - # 3
    frequency:    2.2623789453
  - # 4
    frequency:    5.9799865994
  - # 5
    frequency:    6.1573715174
  - # 6
    frequency:    7.5865253600
  - # 7
    frequency:    7.7420367573
  - # 8
    frequency:    9.2033777191
  - # 9
    frequency:   13.2654029948
  - # 10
    frequency:   16.3951836956
  - # 11
    frequency:   17.0892275895
  - # 12
    frequency:   17.1967416085
  - # 13
    frequency:   26.9711107670
  - # 14
    frequency:   27.0742478716
  - # 15
    frequency:   28.9438712898

- q-position: [    0.0858586,    0.0000000,    0.0000000 ]
  distance:    0.0311048
  band:
  - # 1
    frequency:    0.4866775978
  - # 2
    frequency:    1.5908355183
  - # 3
    frequency:    2.3932428159
  - # 4
    frequency:    5.9726573767
  - # 5
    frequency:    6.1722276515
  - # 6
    frequency:    7.5840605209
  - # 7
    frequency:    7.7572658069
  - # 8
    frequency:    9.2004894753
  - # 9
    frequency:   13.2350868432
  - # 10
    frequency:   16.3821411687
  - # 11
    frequency:   17.0870077714
  - # 12
    frequency:   17.2055642190
  - # 13
    frequency:   26.9576444949
  - # 14
    frequency:   27.0745078218
  - # 15
    frequency:   28.9384769088

- q-position: [    0.0909091,    0.0000000,    0.0000000 ]
  distance:    0.0329345
  band:
  - # 1
    frequency:    0.5429838635
  - # 2
    frequency:    1.6771102197
  - # 3
    frequency:    2.5223031973
  - # 4
    frequency:    5.9650661743
  - # 5
    frequency:    6.1879880842
  - # 6
    frequency:    7.5813931029
  - # 7
    frequency:    7.7727808562
  - # 8
    frequency:    9.1978460243
  - # 9
    frequency:   13.2033277666
  - # 10
    frequency:   16.3685801970
  - # 11
    frequency:   17.0846847234
  - # 12
    frequency:   17.2143723396
  - # 13
    frequency:   26.9435653728
  - # 14
    frequency:   27.0750673833
  - # 15
    frequency:   28.9326425731

- q-position: [    0.0959596,    0.0000000,    0.0000000 ]
  distance:    0.0347641
  band:
  - # 1
    frequency:    0.6019246375
  - # 2
    frequency:    1.7622213684
  - # 3
    frequency:    2.6494850317
  - # 4
    frequency:    5.9572461467
  - # 5
    frequency:    6.2046509209
  - # 6
    frequency:    7.5785167475
  - # 7
    frequency:    7.7884775325
  - # 8
    frequency:    9.1955076331
  - # 9
    frequency:   13.1701908073
  - # 10
    frequency:   16.3545337821
  - # 11
    frequency:   17.0822599373
  - # 12
    frequency:   17.2230988052
  - # 13
    frequency:   26.9289068077
  - # 14
    frequency:   27.0759653340
  - # 15
    frequency:   28.9263552553

- q-position: [    0.1010101,    0.0000000,    0.0000000 ]
  distance:    0.0365938
  band:
  - # 1
    frequency:    0.6634137731
  - # 2
    frequency:    1.8461282809
  - # 3
    frequency:    2.7747178345
  - # 4
    frequency:    5.9492326667
  - # 5
    frequency:    6.2222133506
  - # 6
    frequency:    7.5754254124
  - # 7
    frequency:    7.8042492654
  - # 8
    frequency:    9.1935332462
  - # 9
    frequency:   13.1357436544
  - # 10
    frequency:   16.3400348194
  - # 11
    frequency:   17.0797339664
  - # 12
    frequency:   17.2316780664
  - # 13
    frequency:   26.9137034316
  - # 14
    frequency:   27.0772398593
  - # 15
    frequency:   28.9196028260

- q-position: [    0.1060606,    0.0000000,    0.0000000 ]
  distance:    0.0384235
  band:
  - # 1
    frequency:    0.7273629924
  - # 2
    frequency:    1.9287939131
  - # 3
    frequency:    2.8979357523
  - # 4
    frequency:    5.9410633725
  - # 5
    frequency:    6.2406715195
  - # 6
    frequency:    7.5721134244
  - # 7
    frequency:    7.8199884094
  - # 8
    frequency:    9.1919793921
  - # 9
    frequency:   13.1000565221
  - # 10
    frequency:   16.3251161397
  - # 11
    frequency:   17.0771063056
  - # 12
    frequency:   17.2400464887
  - # 13
    frequency:   26.8979909948
  - # 14
    frequency:   27.0789282255
  - # 15
    frequency:   28.9123742215

- q-position: [    0.1111111,    0.0000000,    0.0000000 ]
  distance:    0.0402532
  band:
  - # 1
    frequency:    0.7936821561
  - # 2
    frequency:    2.0101849848
  - # 3
    frequency:    3.0190775962
  - # 4
    frequency:    5.9327782077
  - # 5
    frequency:    6.2600204087
  - # 6
    frequency:    7.5685755245
  - # 7
    frequency:    7.8355875100
  - # 8
    frequency:    9.1908989795
  - # 9
    frequency:   13.0632020275
  - # 10
    frequency:   16.3098105494
  - # 11
    frequency:   17.0743752794
  - # 12
    frequency:   17.2481426272
  - # 13
    frequency:   26.8818062558
  - # 14
    frequency:   27.0810664654
  - # 15
    frequency:   28.9046596016

- q-position: [    0.1161616,    0.0000000,    0.0000000 ]
  distance:    0.0420829
  band:
  - # 1
    frequency:    0.8622795255
  - # 2
    frequency:    2.0902720942
  - # 3
    frequency:    3.1380868519
  - # 4
    frequency:    5.9244194488
  - # 5
    frequency:    6.2802537154
  - # 6
    frequency:    7.5648069043
  - # 7
    frequency:    7.8509406982
  - # 8
    frequency:    9.1903399994
  - # 9
    frequency:   13.0252550628
  - # 10
    frequency:   16.2941508673
  - # 11
    frequency:   17.0715379389
  - # 12
    frequency:   17.2559074775
  - # 13
    frequency:   26.8651868689
  - # 14
    frequency:   27.0836890767
  - # 15
    frequency:   28.8964504963

- q-position: [    0.1212121,    0.0000000,    0.0000000 ]
  distance:    0.0439126
  band:
  - # 1
    frequency:    0.9330620171
  - # 2
    frequency:    2.1690298206
  - # 3
    frequency:    3.2549116701
  - # 4
    frequency:    5.9160317177
  - # 5
    frequency:    6.3013637388
  - # 6
    frequency:    7.5608032336
  - # 7
    frequency:    7.8659451894
  - # 8
    frequency:    9.1903441582
  - # 9
    frequency:   12.9862926639
  - # 10
    frequency:   16.2781699532
  - # 11
    frequency:   17.0685899709
  - # 12
    frequency:   17.2632847050
  - # 13
    frequency:   26.8481712668
  - # 14
    frequency:   27.0868287369
  - # 15
    frequency:   28.8877399417

- q-position: [    0.1262626,    0.0000000,    0.0000000 ]
  distance:    0.0457423
  band:
  - # 1
    frequency:    1.0059354489
  - # 2
    frequency:    2.2464368166
  - # 3
    frequency:    3.3695048389
  - # 4
    frequency:    5.9076619746
  - # 5
    frequency:    6.3233412700
  - # 6
    frequency:    7.5565606795
  - # 7
    frequency:    7.8805028505
  - # 8
    frequency:    9.1909454786
  - # 9
    frequency:   12.9463938714
  - # 10
    frequency:   16.2619007283
  - # 11
    frequency:   17.0655256193
  - # 12
    frequency:   17.2702208535
  - # 13
    frequency:   26.8307985428
  - # 14
    frequency:   27.0905160340
  - # 15
    frequency:   28.8785226036

- q-position: [    0.1313131,    0.0000000,    0.0000000 ]
  distance:    0.0475720
  band:
  - # 1
    frequency:    1.0808047783
  - # 2
    frequency:    2.3224758866
  - # 3
    frequency:    3.4818237423
  - # 4
    frequency:    5.8993594853
  - # 5
    frequency:    6.3461754833
  - # 6
    frequency:    7.5520759177
  - # 7
    frequency:    7.8945217870
  - # 8
    frequency:    9.1921689152
  - # 9
    frequency:   12.9056395826
  - # 10
    frequency:   16.2453761837
  - # 11
    frequency:   17.0623376220
  - # 12
    frequency:   17.2766655321
  - # 13
    frequency:   26.8131083284
  - # 14
    frequency:   27.0947792173
  - # 15
    frequency:   28.8687948900

- q-position: [    0.1363636,    0.0000000,    0.0000000 ]
  distance:    0.0494017
  band:
  - # 1
    frequency:    1.1575743297
  - # 2
    frequency:    2.3971340542
  - # 3
    frequency:    3.5918303098
  - # 4
    frequency:    5.8911757610
  - # 5
    frequency:    6.3698538286
  - # 6
    frequency:    7.5473461349
  - # 7
    frequency:    7.9079178930
  - # 8
    frequency:    9.1940290445
  - # 9
    frequency:   12.8641123939
  - # 10
    frequency:   16.2286293781
  - # 11
    frequency:   17.0590171649
  - # 12
    frequency:   17.2825715816
  - # 13
    frequency:   26.7951406708
  - # 14
    frequency:   27.0996439664
  - # 15
    frequency:   28.8585550524

- q-position: [    0.1414141,    0.0000000,    0.0000000 ]
  distance:    0.0512314
  band:
  - # 1
    frequency:    1.2361480139
  - # 2
    frequency:    2.4704026156
  - # 3
    frequency:    3.6994909612
  - # 4
    frequency:    5.8831644635
  - # 5
    frequency:    6.3943619195
  - # 6
    frequency:    7.5423690252
  - # 7
    frequency:    7.9206163001
  - # 8
    frequency:    9.1965288918
  - # 9
    frequency:   12.8218964302
  - # 10
    frequency:   16.2116934224
  - # 11
    frequency:   17.0555538537
  - # 12
    frequency:   17.2878952201
  - # 13
    frequency:   26.7769359080
  - # 14
    frequency:   27.1051331815
  - # 15
    frequency:   28.8478032749

- q-position: [    0.1464646,    0.0000000,    0.0000000 ]
  distance:    0.0530611
  band:
  - # 1
    frequency:    1.3164295361
  - # 2
    frequency:    2.5422771802
  - # 3
    frequency:    3.8047765507
  - # 4
    frequency:    5.8753812736
  - # 5
    frequency:    6.4196834159
  - # 6
    frequency:    7.5371427795
  - # 7
    frequency:    7.9325526563
  - # 8
    frequency:    9.1996589649
  - # 9
    frequency:   12.7790771597
  - # 10
    frequency:   16.1946014521
  - # 11
    frequency:   17.0519357051
  - # 12
    frequency:   17.2925961678
  - # 13
    frequency:   26.7585345425
  - # 14
    frequency:   27.1112667944
  - # 15
    frequency:   28.8365417537

- q-position: [    0.1515152,    0.0000000,    0.0000000 ]
  distance:    0.0548908
  band:
  - # 1
    frequency:    1.3983225950
  - # 2
    frequency:    2.6127576961
  - # 3
    frequency:    3.9076623174
  - # 4
    frequency:    5.8678837178
  - # 5
    frequency:    6.4457998959
  - # 6
    frequency:    7.5316660690
  - # 7
    frequency:    7.9436741725
  - # 8
    frequency:    9.2033965564
  - # 9
    frequency:   12.7357411938
  - # 10
    frequency:   16.1773865863
  - # 11
    frequency:   17.0481491594
  - # 12
    frequency:   17.2966377511
  - # 13
    frequency:   26.7399771151
  - # 14
    frequency:   27.1180616010
  - # 15
    frequency:   28.8247747659

- q-position: [    0.1565657,    0.0000000,    0.0000000 ]
  distance:    0.0567204
  band:
  - # 1
    frequency:    1.4817310702
  - # 2
    frequency:    2.6818484624
  - # 3
    frequency:    4.0081278449
  - # 4
    frequency:    5.8607309503
  - # 5
    frequency:    6.4726907138
  - # 6
    frequency:    7.5259380241
  - # 7
    frequency:    7.9539403804
  - # 8
    frequency:    9.2077053727
  - # 9
    frequency:   12.6919760673
  - # 10
    frequency:   16.1600818736
  - # 11
    frequency:   17.0441791132
  - # 12
    frequency:   17.2999869873
  - # 13
    frequency:   26.7213040780
  - # 14
    frequency:   27.1255311148
  - # 15
    frequency:   28.8125087287

- q-position: [    0.1616162,    0.0000000,    0.0000000 ]
  distance:    0.0585501
  band:
  - # 1
    frequency:    1.5665591989
  - # 2
    frequency:    2.7495581251
  - # 3
    frequency:    4.1061570355
  - # 4
    frequency:    5.8539834883
  - # 5
    frequency:    6.5003328397
  - # 6
    frequency:    7.5199582101
  - # 7
    frequency:    7.9633235626
  - # 8
    frequency:    9.2125355266
  - # 9
    frequency:   12.6478699998
  - # 10
    frequency:   16.1427202243
  - # 11
    frequency:   17.0400089753
  - # 12
    frequency:   17.3026146489
  - # 13
    frequency:   26.7025556675
  - # 14
    frequency:   27.1336854419
  - # 15
    frequency:   28.7997522498

- q-position: [    0.1666667,    0.0000000,    0.0000000 ]
  distance:    0.0603798
  band:
  - # 1
    frequency:    1.6527117415
  - # 2
    frequency:    2.8158996575
  - # 3
    frequency:    4.2017381024
  - # 4
    frequency:    5.8477028988
  - # 5
    frequency:    6.5287006804
  - # 6
    frequency:    7.5137265994
  - # 7
    frequency:    7.9718088346
  - # 8
    frequency:    9.2178239166
  - # 9
    frequency:   12.6035116350
  - # 10
    frequency:   16.1253343291
  - # 11
    frequency:   17.0356207435
  - # 12
    frequency:   17.3044953105
  - # 13
    frequency:   26.6837717789
  - # 14
    frequency:   27.1425311757
  - # 15
    frequency:   28.7865161706

- q-position: [    0.1717172,    0.0000000,    0.0000000 ]
  distance:    0.0622095
  band:
  - # 1
    frequency:    1.7400941354
  - # 2
    frequency:    2.8808903240
  - # 3
    frequency:    4.2948635820
  - # 4
    frequency:    5.8419514350
  - # 5
    frequency:    6.5577658761
  - # 6
    frequency:    7.5072435416
  - # 7
    frequency:    7.9793938813
  - # 8
    frequency:    9.2234949880
  - # 9
    frequency:   12.5589897564
  - # 10
    frequency:   16.1079565637
  - # 11
    frequency:   17.0309951046
  - # 12
    frequency:   17.3056073779
  - # 13
    frequency:   26.6649918409
  - # 14
    frequency:   27.1520713117
  - # 15
    frequency:   28.7728136018

- q-position: [    0.1767677,    0.0000000,    0.0000000 ]
  distance:    0.0640392
  band:
  - # 1
    frequency:    1.8286126370
  - # 2
    frequency:    2.9445516255
  - # 3
    frequency:    4.3855303674
  - # 4
    frequency:    5.8367916255
  - # 5
    frequency:    6.5874970752
  - # 6
    frequency:    7.5005097337
  - # 7
    frequency:    7.9860883723
  - # 8
    frequency:    9.2294618535
  - # 9
    frequency:   12.5143929791
  - # 10
    frequency:   16.0906188797
  - # 11
    frequency:   17.0261115550
  - # 12
    frequency:   17.3059331014
  - # 13
    frequency:   26.6462546927
  - # 14
    frequency:   27.1623051804
  - # 15
    frequency:   28.7586599533

- q-position: [    0.1818182,    0.0000000,    0.0000000 ]
  distance:    0.0658689
  band:
  - # 1
    frequency:    1.9181744519
  - # 2
    frequency:    3.0069092264
  - # 3
    frequency:    4.4737397626
  - # 4
    frequency:    5.8322858161
  - # 5
    frequency:    6.6178596873
  - # 6
    frequency:    7.4935261889
  - # 7
    frequency:    7.9919131017
  - # 8
    frequency:    9.2356277259
  - # 9
    frequency:   12.4698094147
  - # 10
    frequency:   16.0733526813
  - # 11
    frequency:   17.0209485428
  - # 12
    frequency:   17.3054585749
  - # 13
    frequency:   26.6275984630
  - # 14
    frequency:   27.1732283976
  - # 15
    frequency:   28.7440729597

- q-position: [    0.1868687,    0.0000000,    0.0000000 ]
  distance:    0.0676986
  band:
  - # 1
    frequency:    2.0086878521
  - # 2
    frequency:    3.0679928605
  - # 3
    frequency:    4.5594975545
  - # 4
    frequency:    5.8284956679
  - # 5
    frequency:    6.6488156159
  - # 6
    frequency:    7.4862942070
  - # 7
    frequency:    7.9968989093
  - # 8
    frequency:    9.2418876060
  - # 9
    frequency:   12.4253263112
  - # 10
    frequency:   16.0561886893
  - # 11
    frequency:   17.0154836296
  - # 12
    frequency:   17.3041737218
  - # 13
    frequency:   26.6090604511
  - # 14
    frequency:   27.1848328285
  - # 15
    frequency:   28.7290727022

- q-position: [    0.1919192,    0.0000000,    0.0000000 ]
  distance:    0.0695283
  band:
  - # 1
    frequency:    2.1000622818
  - # 2
    frequency:    3.1278362162
  - # 3
    frequency:    4.6428140980
  - # 4
    frequency:    5.8254816172
  - # 5
    frequency:    6.6803229781
  - # 6
    frequency:    7.4788153458
  - # 7
    frequency:    8.0010854541
  - # 8
    frequency:    9.2481301528
  - # 9
    frequency:   12.3810296662
  - # 10
    frequency:   16.0391567903
  - # 11
    frequency:   17.0096936706
  - # 12
    frequency:   17.3020722702
  - # 13
    frequency:   26.5906770125
  - # 14
    frequency:   27.1971065670
  - # 15
    frequency:   28.7136816281

- q-position: [    0.1969697,    0.0000000,    0.0000000 ]
  distance:    0.0713580
  band:
  - # 1
    frequency:    2.1922084495
  - # 2
    frequency:    3.1864767968
  - # 3
    frequency:    4.7237044083
  - # 4
    frequency:    5.8233023024
  - # 5
    frequency:    6.7123358151
  - # 6
    frequency:    7.4710913943
  - # 7
    frequency:    8.0045199076
  - # 8
    frequency:    9.2542396671
  - # 9
    frequency:   12.3370038148
  - # 10
    frequency:   16.0222858743
  - # 11
    frequency:   17.0035550124
  - # 12
    frequency:   17.2991517195
  - # 13
    frequency:   26.5724834462
  - # 14
    frequency:   27.2100339237
  - # 15
    frequency:   28.6979245706

- q-position: [    0.2020202,    0.0000000,    0.0000000 ]
  distance:    0.0731877
  band:
  - # 1
    frequency:    2.2850384083
  - # 2
    frequency:    3.2439557563
  - # 3
    frequency:    4.8021882514
  - # 4
    frequency:    5.8220139656
  - # 5
    frequency:    6.7448038043
  - # 6
    frequency:    7.4631243486
  - # 7
    frequency:    8.0072556361
  - # 8
    frequency:    9.2600981156
  - # 9
    frequency:   12.2933309954
  - # 10
    frequency:   16.0056036601
  - # 11
    frequency:   16.9970437055
  - # 12
    frequency:   17.2954132983
  - # 13
    frequency:   26.5545138882
  - # 14
    frequency:   27.2235954241
  - # 15
    frequency:   28.6818287681

- q-position: [    0.2070707,    0.0000000,    0.0000000 ]
  distance:    0.0750174
  band:
  - # 1
    frequency:    2.3784656229
  - # 2
    frequency:    3.3003177080
  - # 3
    frequency:    4.8782902228
  - # 4
    frequency:    5.8216698379
  - # 5
    frequency:    6.7776719820
  - # 6
    frequency:    7.4549163909
  - # 7
    frequency:    8.0093509284
  - # 8
    frequency:    9.2655871345
  - # 9
    frequency:   12.2500908946
  - # 10
    frequency:   15.9891365093
  - # 11
    frequency:   16.9901357303
  - # 12
    frequency:   17.2908619182
  - # 13
    frequency:   26.5368012081
  - # 14
    frequency:   27.2377678114
  - # 15
    frequency:   28.6654238877

- q-position: [    0.2121212,    0.0000000,    0.0000000 ]
  distance:    0.0768471
  band:
  - # 1
    frequency:    2.4724050241
  - # 2