nqpoint: 300    
npath: 3      
segment_nqpoint:
- 100
- 100
- 100
labels:
- [ 'G', 'M' ]
- [ 'M', 'K' ]
- [ 'K', 'G' ]
reciprocal_lattice:
- [   0.31374279,   0.18113948,   0.00000000 ] # a*
- [   0.00000000,   0.36227896,   0.00000000 ] # b*
- [   0.00000000,   0.00000000,   0.04498145 ] # c*
natom: 5      
lattice:
- [     3.187324280379996,     0.000000000000000,     0.000000000000000 ] # a
- [    -1.593662140189998,     2.760303796906907,     0.000000000000000 ] # b
- [     0.000000000000000,     0.000000000000000,    22.231384849319777 ] # c
points:
- symbol: F # 1
  coordinates: [  0.333332985432215,  0.666666983183674,  0.595166920054673 ]
  mass: 18.998403
- symbol: H # 2
  coordinates: [  0.666666984744047,  0.333332985985145,  0.404833079945327 ]
  mass: 1.007940
- symbol: N # 3
  coordinates: [  0.000000000000000,  0.000000000000000,  0.495268722925108 ]
  mass: 14.006700
- symbol: Ti # 4
  coordinates: [  0.333332985432215,  0.666666983183674,  0.447728743987790 ]
  mass: 47.867000
- symbol: Ti # 5
  coordinates: [  0.666666984744047,  0.333332985985145,  0.540912111914698 ]
  mass: 47.867000

phonon:
- q-position: [    0.0000000,    0.0000000,    0.0000000 ]
  distance:    0.0000000
  band:
  - # 1
    frequency:   -0.0000012660
  - # 2
    frequency:   -0.0000006302
  - # 3
    frequency:    0.0000010417
  - # 4
    frequency:    5.7538178885
  - # 5
    frequency:    5.7538178885
  - # 6
    frequency:    7.5170471832
  - # 7
    frequency:    7.5170471832
  - # 8
    frequency:    9.2452628926
  - # 9
    frequency:   13.6121293162
  - # 10
    frequency:   16.5019688435
  - # 11
    frequency:   17.2026187655
  - # 12
    frequency:   17.2026187655
  - # 13
    frequency:   26.7918627972
  - # 14
    frequency:   26.7918627972
  - # 15
    frequency:   29.0601060181

- q-position: [    0.0050505,    0.0000000,    0.0000000 ]
  distance:    0.0018297
  band:
  - # 1
    frequency:   -0.0497409418
  - # 2
    frequency:    0.0940691710
  - # 3
    frequency:    0.1578777195
  - # 4
    frequency:    5.7538079675
  - # 5
    frequency:    5.7543169998
  - # 6
    frequency:    7.5169703097
  - # 7
    frequency:    7.5178197871
  - # 8
    frequency:    9.2450780996
  - # 9
    frequency:   13.6109117076
  - # 10
    frequency:   16.5015405929
  - # 11
    frequency:   17.2024465219
  - # 12
    frequency:   17.2026899902
  - # 13
    frequency:   26.7916240372
  - # 14
    frequency:   26.7922262518
  - # 15
    frequency:   29.0596055093

- q-position: [    0.0101010,    0.0000000,    0.0000000 ]
  distance:    0.0036594
  band:
  - # 1
    frequency:    0.0372007067
  - # 2
    frequency:    0.1880729108
  - # 3
    frequency:    0.2972803235
  - # 4
    frequency:    5.7537778797
  - # 5
    frequency:    5.7558149514
  - # 6
    frequency:    7.5167391941
  - # 7
    frequency:    7.5201328839
  - # 8
    frequency:    9.2445256914
  - # 9
    frequency:   13.6072619492
  - # 10
    frequency:   16.5002566930
  - # 11
    frequency:   17.2019306154
  - # 12
    frequency:   17.2029033678
  - # 13
    frequency:   26.7909081833
  - # 14
    frequency:   26.7933160499
  - # 15
    frequency:   29.0581060665

- q-position: [    0.0151515,    0.0000000,    0.0000000 ]
  distance:    0.0054891
  band:
  - # 1
    frequency:    0.0929670831
  - # 2
    frequency:    0.2819459409
  - # 3
    frequency:    0.4394839499
  - # 4
    frequency:    5.7537266597
  - # 5
    frequency:    5.7583135771
  - # 6
    frequency:    7.5163523593
  - # 7
    frequency:    7.5239723470
  - # 8
    frequency:    9.2436115776
  - # 9
    frequency:   13.6011892417
  - # 10
    frequency:   16.4981197127
  - # 11
    frequency:   17.2010735081
  - # 12
    frequency:   17.2032579929
  - # 13
    frequency:   26.7897165129
  - # 14
    frequency:   26.7951304956
  - # 15
    frequency:   29.0556139235

- q-position: [    0.0202020,    0.0000000,    0.0000000 ]
  distance:    0.0073188
  band:
  - # 1
    frequency:    0.1381735253
  - # 2
    frequency:    0.3756232890
  - # 3
    frequency:    0.5824282193
  - # 4
    frequency:    5.7536527241
  - # 5
    frequency:    5.7618158676
  - # 6
    frequency:    7.5158073712
  - # 7
    frequency:    7.5293146910
  - # 8
    frequency:    9.2423455969
  - # 9
    frequency:   13.5927089125
  - # 10
    frequency:   16.4951339727
  - # 11
    frequency:   17.1998792685
  - # 12
    frequency:   17.2037523062
  - # 13
    frequency:   26.7880511520
  - # 14
    frequency:   26.7976667631
  - # 15
    frequency:   29.0521394191

- q-position: [    0.0252525,    0.0000000,    0.0000000 ]
  distance:    0.0091485
  band:
  - # 1
    frequency:    0.1811672108
  - # 2
    frequency:    0.4690404408
  - # 3
    frequency:    0.7253973504
  - # 4
    frequency:    5.7535539118
  - # 5
    frequency:    5.7663258744
  - # 6
    frequency:    7.5151008797
  - # 7
    frequency:    7.5361271611
  - # 8
    frequency:    9.2407414997
  - # 9
    frequency:   13.5818424031
  - # 10
    frequency:   16.4913056018
  - # 11
    frequency:   17.1983535197
  - # 12
    frequency:   17.2043840242
  - # 13
    frequency:   26.7859150698
  - # 14
    frequency:   26.8009208990
  - # 15
    frequency:   29.0476969190

- q-position: [    0.0303030,    0.0000000,    0.0000000 ]
  distance:    0.0109782
  band:
  - # 1
    frequency:    0.2236153507
  - # 2
    frequency:    0.5621334916
  - # 3
    frequency:    0.8680501870
  - # 4
    frequency:    5.7534275386
  - # 5
    frequency:    5.7718485793
  - # 6
    frequency:    7.5142286752
  - # 7
    frequency:    7.5443678588
  - # 8
    frequency:    9.2388169223
  - # 9
    frequency:   13.5686172511
  - # 10
    frequency:   16.4866426061
  - # 11
    frequency:   17.1965033670
  - # 12
    frequency:   17.2051500488
  - # 13
    frequency:   26.7833120724
  - # 14
    frequency:   26.8048878249
  - # 15
    frequency:   29.0423047098

- q-position: [    0.0353535,    0.0000000,    0.0000000 ]
  distance:    0.0128078
  band:
  - # 1
    frequency:    0.2661948885
  - # 2
    frequency:    0.6548392973
  - # 3
    frequency:    1.0101726861
  - # 4
    frequency:    5.7532704684
  - # 5
    frequency:    5.7783897343
  - # 6
    frequency:    7.5131857595
  - # 7
    frequency:    7.5539859053
  - # 8
    frequency:    9.2365933495
  - # 9
    frequency:   13.5530670627
  - # 10
    frequency:   16.4811549458
  - # 11
    frequency:   17.1943373067
  - # 12
    frequency:   17.2060463658
  - # 13
    frequency:   26.7802467935
  - # 14
    frequency:   26.8095613404
  - # 15
    frequency:   29.0359848637

- q-position: [    0.0404040,    0.0000000,    0.0000000 ]
  distance:    0.0146375
  band:
  - # 1
    frequency:    0.3092744500
  - # 2
    frequency:    0.7470956239
  - # 3
    frequency:    1.1516035631
  - # 4
    frequency:    5.7530791996
  - # 5
    frequency:    5.7859556761
  - # 6
    frequency:    7.5119664299
  - # 7
    frequency:    7.5649216444
  - # 8
    frequency:    9.2340960633
  - # 9
    frequency:   13.5352314757
  - # 10
    frequency:   16.4748546103
  - # 11
    frequency:   17.1918651151
  - # 12
    frequency:   17.2070679411
  - # 13
    frequency:   26.7767246843
  - # 14
    frequency:   26.8149341270
  - # 15
    frequency:   29.0287630760

- q-position: [    0.0454545,    0.0000000,    0.0000000 ]
  distance:    0.0164672
  band:
  - # 1
    frequency:    0.3530930565
  - # 2
    frequency:    0.8388412954
  - # 3
    frequency:    1.2922074218
  - # 4
    frequency:    5.7528499672
  - # 5
    frequency:    5.7945531215
  - # 6
    frequency:    7.5105643749
  - # 7
    frequency:    7.5771068871
  - # 8
    frequency:    9.2313540747
  - # 9
    frequency:   13.5151561086
  - # 10
    frequency:   16.4677556840
  - # 11
    frequency:   17.1890977214
  - # 12
    frequency:   17.2082086226
  - # 13
    frequency:   26.7727520001
  - # 14
    frequency:   26.8209977535
  - # 15
    frequency:   29.0206684776

- q-position: [    0.0505051,    0.0000000,    0.0000000 ]
  distance:    0.0182969
  band:
  - # 1
    frequency:    0.3978233567
  - # 2
    frequency:    0.9300163409
  - # 3
    frequency:    1.4318636077
  - # 4
    frequency:    5.7525788598
  - # 5
    frequency:    5.8041889485
  - # 6
    frequency:    7.5089727798
  - # 7
    frequency:    7.5904652003
  - # 8
    frequency:    9.2284000319
  - # 9
    frequency:   13.4928924954
  - # 10
    frequency:   16.4598743959
  - # 11
    frequency:   17.1860470629
  - # 12
    frequency:   17.2094610573
  - # 13
    frequency:   26.7683357868
  - # 14
    frequency:   26.8277426811
  - # 15
    frequency:   29.0117334240

- q-position: [    0.0555556,    0.0000000,    0.0000000 ]
  distance:    0.0201266
  band:
  - # 1
    frequency:    0.4435983034
  - # 2
    frequency:    1.0205621394
  - # 3
    frequency:    1.5704610870
  - # 4
    frequency:    5.7522619519
  - # 5
    frequency:    5.8148699719
  - # 6
    frequency:    7.5071844410
  - # 7
    frequency:    7.6049122441
  - # 8
    frequency:    9.2252701020
  - # 9
    frequency:   13.4684980016
  - # 10
    frequency:   16.4512291445
  - # 11
    frequency:   17.1827259259
  - # 12
    frequency:   17.2108166303
  - # 13
    frequency:   26.7634838636
  - # 14
    frequency:   26.8351582698
  - # 15
    frequency:   29.0019932627

- q-position: [    0.0606061,    0.0000000,    0.0000000 ]
  distance:    0.0219563
  band:
  - # 1
    frequency:    0.4905238768
  - # 2
    frequency:    1.1104215630
  - # 3
    frequency:    1.7078959091
  - # 4
    frequency:    5.7518954498
  - # 5
    frequency:    5.8266027161
  - # 6
    frequency:    7.5051918861
  - # 7
    frequency:    7.6203561621
  - # 8
    frequency:    9.2220038177
  - # 9
    frequency:   13.4420357212
  - # 10
    frequency:   16.4418404955
  - # 11
    frequency:   17.1791477735
  - # 12
    frequency:   17.2122654318
  - # 13
    frequency:   26.7582048057
  - # 14
    frequency:   26.8432327864
  - # 15
    frequency:   28.9914860827

- q-position: [    0.0656566,    0.0000000,    0.0000000 ]
  distance:    0.0237860
  band:
  - # 1
    frequency:    0.5386857808
  - # 2
    frequency:    1.1995391182
  - # 3
    frequency:    1.8440698672
  - # 4
    frequency:    5.7514758516
  - # 5
    frequency:    5.8393931938
  - # 6
    frequency:    7.5029874976
  - # 7
    frequency:    7.6366980309
  - # 8
    frequency:    9.2186438821
  - # 9
    frequency:   13.4135743500
  - # 10
    frequency:   16.4317311469
  - # 11
    frequency:   17.1753265608
  - # 12
    frequency:   17.2137962538
  - # 13
    frequency:   26.7525079233
  - # 14
    frequency:   26.8519534123
  - # 15
    frequency:   28.9802524464

- q-position: [    0.0707071,    0.0000000,    0.0000000 ]
  distance:    0.0256157
  band:
  - # 1
    frequency:    0.5881532987
  - # 2
    frequency:    1.2878610849
  - # 3
    frequency:    1.9788897500
  - # 4
    frequency:    5.7510001194
  - # 5
    frequency:    5.8532466945
  - # 6
    frequency:    7.5005636395
  - # 7
    frequency:    7.6538323758
  - # 8
    frequency:    9.2152359226
  - # 9
    frequency:   13.3831880352
  - # 10
    frequency:   16.4209258632
  - # 11
    frequency:   17.1712765413
  - # 12
    frequency:   17.2153966203
  - # 13
    frequency:   26.7464032408
  - # 14
    frequency:   26.8613062540
  - # 15
    frequency:   28.9683351095

- q-position: [    0.0757576,    0.0000000,    0.0000000 ]
  distance:    0.0274454
  band:
  - # 1
    frequency:    0.6389817227
  - # 2
    frequency:    1.3753356534
  - # 3
    frequency:    2.1122668952
  - # 4
    frequency:    5.7504658623
  - # 5
    frequency:    5.8681675874
  - # 6
    frequency:    7.4979127825
  - # 7
    frequency:    7.6716477603
  - # 8
    frequency:    9.2118281840
  - # 9
    frequency:   13.3509561980
  - # 10
    frequency:   16.4094513771
  - # 11
    frequency:   17.1670120659
  - # 12
    frequency:   17.2170528478
  - # 13
    frequency:   26.7399014723
  - # 14
    frequency:   26.8712763540
  - # 15
    frequency:   28.9557787294

- q-position: [    0.0808081,    0.0000000,    0.0000000 ]
  distance:    0.0292751
  band:
  - # 1
    frequency:    0.6912140317
  - # 2
    frequency:    1.4619130589
  - # 3
    frequency:    2.2441168977
  - # 4
    frequency:    5.7498715298
  - # 5
    frequency:    5.8841591425
  - # 6
    frequency:    7.4950276269
  - # 7
    frequency:    7.6900274595
  - # 8
    frequency:    9.2084711503
  - # 9
    frequency:   13.3169633296
  - # 10
    frequency:   16.3973362628
  - # 11
    frequency:   17.1625473754
  - # 12
    frequency:   17.2187501343
  - # 13
    frequency:   26.7330139968
  - # 14
    frequency:   26.8818477037
  - # 15
    frequency:   28.9426295665

- q-position: [    0.0858586,    0.0000000,    0.0000000 ]
  distance:    0.0311048
  band:
  - # 1
    frequency:    0.7448821586
  - # 2
    frequency:    1.5475457137
  - # 3
    frequency:    2.3743593973
  - # 4
    frequency:    5.7492166124
  - # 5
    frequency:    5.9012233728
  - # 6
    frequency:    7.4919012216
  - # 7
    frequency:    7.7088502260
  - # 8
    frequency:    9.2052170831
  - # 9
    frequency:   13.2812987577
  - # 10
    frequency:   16.3846107854
  - # 11
    frequency:   17.1578963913
  - # 12
    frequency:   17.2204726725
  - # 13
    frequency:   26.7257528306
  - # 14
    frequency:   26.8930032580
  - # 15
    frequency:   28.9289351798

- q-position: [    0.0909091,    0.0000000,    0.0000000 ]
  distance:    0.0329345
  band:
  - # 1
    frequency:    0.8000080222
  - # 2
    frequency:    1.6321883371
  - # 3
    frequency:    2.5029179039
  - # 4
    frequency:    5.7485018476
  - # 5
    frequency:    5.9193608971
  - # 6
    frequency:    7.4885270746
  - # 7
    frequency:    7.7279911590
  - # 8
    frequency:    9.2021194666
  - # 9
    frequency:   13.2440563838
  - # 10
    frequency:   16.3713067292
  - # 11
    frequency:   17.1530725055
  - # 12
    frequency:   17.2222037815
  - # 13
    frequency:   26.7181305986
  - # 14
    frequency:   26.9047249525
  - # 15
    frequency:   28.9147441226

- q-position: [    0.0959596,    0.0000000,    0.0000000 ]
  distance:    0.0347641
  band:
  - # 1
    frequency:    0.8566044203
  - # 2
    frequency:    1.7157980824
  - # 3
    frequency:    2.6297196385
  - # 4
    frequency:    5.7477294293
  - # 5
    frequency:    5.9385708264
  - # 6
    frequency:    7.4848992568
  - # 7
    frequency:    7.7473226843
  - # 8
    frequency:    9.1992323475
  - # 9
    frequency:   13.2053343915
  - # 10
    frequency:   16.3574572137
  - # 11
    frequency:   17.1480883719
  - # 12
    frequency:   17.2239260508
  - # 13
    frequency:   26.7101605037
  - # 14
    frequency:   26.9169937218
  - # 15
    frequency:   28.9001056374

- q-position: [    0.1010101,    0.0000000,    0.0000000 ]
  distance:    0.0365938
  band:
  - # 1
    frequency:    0.9146758340
  - # 2
    frequency:    1.7983346614
  - # 3
    frequency:    2.7546953802
  - # 4
    frequency:    5.7469032165
  - # 5
    frequency:    5.9588506694
  - # 6
    frequency:    7.4810124933
  - # 7
    frequency:    7.7667156537
  - # 8
    frequency:    9.1966095627
  - # 9
    frequency:   13.1652349248
  - # 10
    frequency:   16.3430965000
  - # 11
    frequency:   17.1429557035
  - # 12
    frequency:   17.2256214902
  - # 13
    frequency:   26.7018562941
  - # 14
    frequency:   26.9297895218
  - # 15
    frequency:   28.8850693570

- q-position: [    0.1060606,    0.0000000,    0.0000000 ]
  distance:    0.0384235
  band:
  - # 1
    frequency:    0.9742191706
  - # 2
    frequency:    1.8797604666
  - # 3
    frequency:    2.8777793148
  - # 4
    frequency:    5.7460289392
  - # 5
    frequency:    5.9801962566
  - # 6
    frequency:    7.4768622446
  - # 7
    frequency:    7.7860405666
  - # 8
    frequency:    9.1943038487
  - # 9
    frequency:   13.1238637373
  - # 10
    frequency:   16.3282597967
  - # 11
    frequency:   17.1376850753
  - # 12
    frequency:   17.2272716796
  - # 13
    frequency:   26.6932322295
  - # 14
    frequency:   26.9430913530
  - # 15
    frequency:   28.8696850112

- q-position: [    0.1111111,    0.0000000,    0.0000000 ]
  distance:    0.0402532
  band:
  - # 1
    frequency:    1.0352244599
  - # 2
    frequency:    1.9600406899
  - # 3
    frequency:    2.9989088849
  - # 4
    frequency:    5.7451143972
  - # 5
    frequency:    6.0026016791
  - # 6
    frequency:    7.4724447728
  - # 7
    frequency:    7.8051689130
  - # 8
    frequency:    9.1923658334
  - # 9
    frequency:   13.0813298133
  - # 10
    frequency:   16.3129830671
  - # 11
    frequency:   17.1322857388
  - # 12
    frequency:   17.2288579120
  - # 13
    frequency:   26.6843030452
  - # 14
    frequency:   26.9568772880
  - # 15
    frequency:   28.8540021438

- q-position: [    0.1161616,    0.0000000,    0.0000000 ]
  distance:    0.0420829
  band:
  - # 1
    frequency:    1.0976755098
  - # 2
    frequency:    2.0391434387
  - # 3
    frequency:    3.1180246471
  - # 4
    frequency:    5.7441696476
  - # 5
    frequency:    6.0260592356
  - # 6
    frequency:    7.4677571950
  - # 7
    frequency:    7.8239746297
  - # 8
    frequency:    9.1908429183
  - # 9
    frequency:   13.0377449608
  - # 10
    frequency:   16.2973028453
  - # 11
    frequency:   17.1267654478
  - # 12
    frequency:   17.2303613265
  - # 13
    frequency:   26.6750839147
  - # 14
    frequency:   26.9711245004
  - # 15
    frequency:   28.8380698424

- q-position: [    0.1212121,    0.0000000,    0.0000000 ]
  distance:    0.0439126
  band:
  - # 1
    frequency:    1.1615505267
  - # 2
    frequency:    2.1170398490
  - # 3
    frequency:    3.2350701399
  - # 4
    frequency:    5.7432071783
  - # 5
    frequency:    6.0505593832
  - # 6
    frequency:    7.4627975205
  - # 7
    frequency:    7.8423356532
  - # 8
    frequency:    9.1897780654
  - # 9
    frequency:   12.9932233790
  - # 10
    frequency:   16.2812560638
  - # 11
    frequency:   17.1211302993
  - # 12
    frequency:   17.2317630249
  - # 13
    frequency:   26.6655904108
  - # 14
    frequency:   26.9858092971
  - # 15
    frequency:   28.8219364819

- q-position: [    0.1262626,    0.0000000,    0.0000000 ]
  distance:    0.0457423
  band:
  - # 1
    frequency:    1.2268226991
  - # 2
    frequency:    2.1937041952
  - # 3
    frequency:    3.3499917688
  - # 4
    frequency:    5.7422420606
  - # 5
    frequency:    6.0760906842
  - # 6
    frequency:    7.4575646734
  - # 7
    frequency:    7.8601355425
  - # 8
    frequency:    9.1892085184
  - # 9
    frequency:   12.9478812000
  - # 10
    frequency:   16.2648798953
  - # 11
    frequency:   17.1153845922
  - # 12
    frequency:   17.2330441704
  - # 13
    frequency:   26.6558384648
  - # 14
    frequency:   27.0009071532
  - # 15
    frequency:   28.8056494862

- q-position: [    0.1313131,    0.0000000,    0.0000000 ]
  distance:    0.0475720
  band:
  - # 1
    frequency:    1.2934607474
  - # 2
    frequency:    2.2691139961
  - # 3
    frequency:    3.4627387186
  - # 4
    frequency:    5.7412920794
  - # 5
    frequency:    6.1026397417
  - # 6
    frequency:    7.4520584991
  - # 7
    frequency:    7.8772651329
  - # 8
    frequency:    9.1891644933
  - # 9
    frequency:   12.9018360070
  - # 10
    frequency:   16.2482116124
  - # 11
    frequency:   17.1095307049
  - # 12
    frequency:   17.2341860663
  - # 13
    frequency:   26.6458443249
  - # 14
    frequency:   27.0163927489
  - # 15
    frequency:   28.7892551077

- q-position: [    0.1363636,    0.0000000,    0.0000000 ]
  distance:    0.0494017
  band:
  - # 1
    frequency:    1.3614294391
  - # 2
    frequency:    2.3432501172
  - # 3
    frequency:    3.5732628980
  - # 4
    frequency:    5.7403778340
  - # 5
    frequency:    6.1301911156
  - # 6
    frequency:    7.4462797559
  - # 7
    frequency:    7.8936241734
  - # 8
    frequency:    9.1896678909
  - # 9
    frequency:   12.8552063312
  - # 10
    frequency:   16.2312884638
  - # 11
    frequency:   17.1035689946
  - # 12
    frequency:   17.2351702128
  - # 13
    frequency:   26.6356245125
  - # 14
    frequency:   27.0322400082
  - # 15
    frequency:   28.7727982284

- q-position: [    0.1414141,    0.0000000,    0.0000000 ]
  distance:    0.0512314
  band:
  - # 1
    frequency:    1.4306900682
  - # 2
    frequency:    2.4160968690
  - # 3
    frequency:    3.6815189262
  - # 4
    frequency:    5.7395228066
  - # 5
    frequency:    6.1587272121
  - # 6
    frequency:    7.4402300919
  - # 7
    frequency:    7.9091228869
  - # 8
    frequency:    9.1907310872
  - # 9
    frequency:   12.8081111282
  - # 10
    frequency:   16.2141475703
  - # 11
    frequency:   17.0974977200
  - # 12
    frequency:   17.2359783439
  - # 13
    frequency:   26.6251957778
  - # 14
    frequency:   27.0484221394
  - # 15
    frequency:   28.7563221829

- q-position: [    0.1464646,    0.0000000,    0.0000000 ]
  distance:    0.0530611
  band:
  - # 1
    frequency:    1.5012009010
  - # 2
    frequency:    2.4876421003
  - # 3
    frequency:    3.7874641678
  - # 4
    frequency:    5.7387533927
  - # 5
    frequency:    6.1882281369
  - # 6
    frequency:    7.4339120070
  - # 7
    frequency:    7.9236833922
  - # 8
    frequency:    9.1923558713
  - # 9
    frequency:   12.7606692365
  - # 10
    frequency:   16.1968258375
  - # 11
    frequency:   17.0913129885
  - # 12
    frequency:   17.2365924438
  - # 13
    frequency:   26.6145750537
  - # 14
    frequency:   27.0649116770
  - # 15
    frequency:   28.7398686048

- q-position: [    0.1515152,    0.0000000,    0.0000000 ]
  distance:    0.0548908
  band:
  - # 1
    frequency:    1.5729175876
  - # 2
    frequency:    2.5578772861
  - # 3
    frequency:    3.8910588239
  - # 4
    frequency:    5.7380988914
  - # 5
    frequency:    6.2186715075
  - # 6
    frequency:    7.4273288033
  - # 7
    frequency:    7.9372409173
  - # 8
    frequency:    9.1945325947
  - # 9
    frequency:   12.7129988201
  - # 10
    frequency:   16.1793598850
  - # 11
    frequency:   17.0850087292
  - # 12
    frequency:   17.2369947460
  - # 13
    frequency:   26.6037794094
  - # 14
    frequency:   27.0816805231
  - # 15
    frequency:   28.7234772978

- q-position: [    0.1565657,    0.0000000,    0.0000000 ]
  distance:    0.0567204
  band:
  - # 1
    frequency:    1.6457935401
  - # 2
    frequency:    2.6267976099
  - # 3
    frequency:    3.9922660818
  - # 4
    frequency:    5.7375914497
  - # 5
    frequency:    6.2500322171
  - # 6
    frequency:    7.4204845225
  - # 7
    frequency:    7.9497447473
  - # 8
    frequency:    9.1972395978
  - # 9
    frequency:   12.6652167974
  - # 10
    frequency:   16.1617859908
  - # 11
    frequency:   17.0785766937
  - # 12
    frequency:   17.2371677179
  - # 13
    frequency:   26.5928260026
  - # 14
    frequency:   27.0986999889
  - # 15
    frequency:   28.7071861322

- q-position: [    0.1616162,    0.0000000,    0.0000000 ]
  distance:    0.0585501
  band:
  - # 1
    frequency:    1.7197802777
  - # 2
    frequency:    2.6944020385
  - # 3
    frequency:    4.0910523283
  - # 4
    frequency:    5.7372659595
  - # 5
    frequency:    6.2822821476
  - # 6
    frequency:    7.4133838743
  - # 7
    frequency:    7.9611588528
  - # 8
    frequency:    9.2004429642
  - # 9
    frequency:   12.6174382600
  - # 10
    frequency:   16.1441400460
  - # 11
    frequency:   17.0720064826
  - # 12
    frequency:   17.2370940339
  - # 13
    frequency:   26.5817320314
  - # 14
    frequency:   27.1159408358
  - # 15
    frequency:   28.6910309668

- q-position: [    0.1666667,    0.0000000,    0.0000000 ]
  distance:    0.0603798
  band:
  - # 1
    frequency:    1.7948277412
  - # 2
    frequency:    2.7606933891
  - # 3
    frequency:    4.1873874259
  - # 4
    frequency:    5.7371599035
  - # 5
    frequency:    6.3153898285
  - # 6
    frequency:    7.4060321548
  - # 7
    frequency:    7.9714621674
  - # 8
    frequency:    9.2040966401
  - # 9
    frequency:   12.5697758823
  - # 10
    frequency:   16.1264575203
  - # 11
    frequency:   17.0652856015
  - # 12
    frequency:   17.2367565413
  - # 13
    frequency:   26.5705146856
  - # 14
    frequency:   27.1333733139
  - # 15
    frequency:   28.6750455967

- q-position: [    0.1717172,    0.0000000,    0.0000000 ]
  distance:    0.0622095
  band:
  - # 1
    frequency:    1.8708845767
  - # 2
    frequency:    2.8256783869
  - # 3
    frequency:    4.2812450487
  - # 4
    frequency:    5.7373131494
  - # 5
    frequency:    6.3493200448
  - # 6
    frequency:    7.3984351589
  - # 7
    frequency:    7.9806485009
  - # 8
    frequency:    9.2081429311
  - # 9
    frequency:   12.5223393280
  - # 10
    frequency:   16.1087734310
  - # 11
    frequency:   17.0583995434
  - # 12
    frequency:   17.2361382236
  - # 13
    frequency:   26.5591910985
  - # 14
    frequency:   27.1509671988
  - # 15
    frequency:   28.6592617271

- q-position: [    0.1767677,    0.0000000,    0.0000000 ]
  distance:    0.0640392
  band:
  - # 1
    frequency:    1.9478983912
  - # 2
    frequency:    2.8893677118
  - # 3
    frequency:    4.3726030715
  - # 4
    frequency:    5.7377676911
  - # 5
    frequency:    6.3840333975
  - # 6
    frequency:    7.3905990867
  - # 7
    frequency:    7.9887261014
  - # 8
    frequency:    9.2125133679
  - # 9
    frequency:   12.4752346554
  - # 10
    frequency:   16.0911223156
  - # 11
    frequency:   17.0513318984
  - # 12
    frequency:   17.2352221654
  - # 13
    frequency:   26.5477782974
  - # 14
    frequency:   27.1686918253
  - # 15
    frequency:   28.6437089716

- q-position: [    0.1818182,    0.0000000,    0.0000000 ]
  distance:    0.0658689
  band:
  - # 1
    frequency:    2.0258159805
  - # 2
    frequency:    2.9517760324
  - # 3
    frequency:    4.4614440018
  - # 4
    frequency:    5.7385673371
  - # 5
    frequency:    6.4194858264
  - # 6
    frequency:    7.3825304468
  - # 7
    frequency:    7.9957168978
  - # 8
    frequency:    9.2171299067
  - # 9
    frequency:   12.4285637264
  - # 10
    frequency:   16.0735382014
  - # 11
    frequency:   17.0440644897
  - # 12
    frequency:   17.2339915228
  - # 13
    frequency:   26.5362931565
  - # 14
    frequency:   27.1865161171
  - # 15
    frequency:   28.6284148762

- q-position: [    0.1868687,    0.0000000,    0.0000000 ]
  distance:    0.0676986
  band:
  - # 1
    frequency:    2.1045835316
  - # 2
    frequency:    3.0129220254
  - # 3
    frequency:    4.5477554411
  - # 4
    frequency:    5.7397573482
  - # 5
    frequency:    6.4556281062
  - # 6
    frequency:    7.3742359570
  - # 7
    frequency:    8.0016554793
  - # 8
    frequency:    9.2219064124
  - # 9
    frequency:   12.3824236247
  - # 10
    frequency:   16.0560545700
  - # 11
    frequency:   17.0365775352
  - # 12
    frequency:   17.2324295056
  - # 13
    frequency:   26.5247523488
  - # 14
    frequency:   27.2044086135
  - # 15
    frequency:   28.6134049651

- q-position: [    0.1919192,    0.0000000,    0.0000000 ]
  distance:    0.0695283
  band:
  - # 1
    frequency:    2.1841468015
  - # 2
    frequency:    3.0728283775
  - # 3
    frequency:    4.6315305550
  - # 4
    frequency:    5.7413840264
  - # 5
    frequency:    6.4924053340
  - # 6
    frequency:    7.3657224451
  - # 7
    frequency:    8.0065878763
  - # 8
    frequency:    9.2267503556
  - # 9
    frequency:   12.3369060892
  - # 10
    frequency:   16.0387043124
  - # 11
    frequency:   17.0288498319
  - # 12
    frequency:   17.2305193735
  - # 13
    frequency:   26.5131722998
  - # 14
    frequency:   27.2223374915
  - # 15
    frequency:   28.5987028101

- q-position: [    0.1969697,    0.0000000,    0.0000000 ]
  distance:    0.0713580
  band:
  - # 1
    frequency:    2.2644512727
  - # 2
    frequency:    3.1315217677
  - # 3
    frequency:    4.7127685337
  - # 4
    frequency:    5.7434942595
  - # 5
    frequency:    6.5297564267
  - # 6
    frequency:    7.3569967503
  - # 7
    frequency:    8.0105702179
  - # 8
    frequency:    9.2315646479
  - # 9
    frequency:   12.2920969683
  - # 10
    frequency:   16.0215196718
  - # 11
    frequency:   17.0208589634
  - # 12
    frequency:   17.2282444523
  - # 13
    frequency:   26.5015691429
  - # 14
    frequency:   27.2402705838
  - # 15
    frequency:   28.5843301189

- q-position: [    0.2020202,    0.0000000,    0.0000000 ]
  distance:    0.0731877
  band:
  - # 1
    frequency:    2.3454422893
  - # 2
    frequency:    3.1890328270
  - # 3
    frequency:    4.7914750176
  - # 4
    frequency:    5.7461350259
  - # 5
    frequency:    6.5676136511
  - # 6
    frequency:    7.3480656273
  - # 7
    frequency:    8.0136673393
  - # 8
    frequency:    9.2362495388
  - # 9
    frequency:   12.2480757046
  - # 10
    frequency:   16.0045321705
  - # 11
    frequency:   17.0125815266
  - # 12
    frequency:   17.2255881714
  - # 13
    frequency:   26.4899586757
  - # 14
    frequency:   27.2581753935
  - # 15
    frequency:   28.5703068424

- q-position: [    0.2070707,    0.0000000,    0.0000000 ]
  distance:    0.0750174
  band:
  - # 1
    frequency:    2.4270651724
  - # 2
    frequency:    3.2453960721
  - # 3
    frequency:    4.8676624644
  - # 4
    frequency:    5.7493528669
  - # 5
    frequency:    6.6059022102
  - # 6
    frequency:    7.3389356536
  - # 7
    frequency:    8.0159514056
  - # 8
    frequency:    9.2407045006
  - # 9
    frequency:   12.2049148559
  - # 10
    frequency:   15.9877725177
  - # 11
    frequency:   17.0039933770
  - # 12
    frequency:   17.2225341278
  - # 13
    frequency:   26.4783563190
  - # 14
    frequency:   27.2760191056
  - # 15
    frequency:   28.5566512975

- q-position: [    0.2121212,    0.0000000,    0.0000000 ]
  distance:    0.0768471
  band:
  - # 1
    frequency:    2.5092653184
  - # 2