nqpoint: 300    
npath: 3      
segment_nqpoint:
- 100
- 100
- 100
labels:
- [ 'G', 'M' ]
- [ 'M', 'K' ]
- [ 'K', 'G' ]
reciprocal_lattice:
- [   0.25318277,   0.14617514,  -0.00000000 ] # a*
- [   0.00000000,   0.29235028,  -0.00000000 ] # b*
- [  -0.00000000,  -0.00000000,   0.04475516 ] # c*
natom: 5      
lattice:
- [     3.949715918368061,    -0.000000000000000,     0.000000000000000 ] # a
- [    -1.974857959184031,     3.420554323036479,     0.000000000000000 ] # b
- [     0.000000000000003,     0.000000000000006,    22.343793436645328 ] # c
points:
- symbol: C # 1
  coordinates: [  0.000000000000000,  0.000000000000000,  0.514992581937122 ]
  mass: 12.010700
- symbol: Br # 2
  coordinates: [  0.666666984744048,  0.333332985985145,  0.357694373602568 ]
  mass: 79.904000
- symbol: F # 3
  coordinates: [  0.333332985432215,  0.666666983183674,  0.630488784317988 ]
  mass: 18.998403
- symbol: La # 4
  coordinates: [  0.333332985432215,  0.666666983183674,  0.449712980845488 ]
  mass: 138.905470
- symbol: La # 5
  coordinates: [  0.666666984744048,  0.333332985985145,  0.582167165195087 ]
  mass: 138.905470

phonon:
- q-position: [    0.0000000,    0.0000000,    0.0000000 ]
  distance:    0.0000000
  band:
  - # 1
    frequency:   -0.0000052417
  - # 2
    frequency:    0.0000000470
  - # 3
    frequency:    0.0000030876
  - # 4
    frequency:    2.0177600156
  - # 5
    frequency:    2.0177600156
  - # 6
    frequency:    2.7256502634
  - # 7
    frequency:    2.7256502634
  - # 8
    frequency:    3.5579907064
  - # 9
    frequency:    4.3597098535
  - # 10
    frequency:    4.3597098535
  - # 11
    frequency:    5.6568498280
  - # 12
    frequency:    6.5747947472
  - # 13
    frequency:    6.5747947472
  - # 14
    frequency:    7.7630341466
  - # 15
    frequency:   14.1400526921

- q-position: [    0.0050505,    0.0000000,    0.0000000 ]
  distance:    0.0014765
  band:
  - # 1
    frequency:    0.0022015067
  - # 2
    frequency:    0.0368602186
  - # 3
    frequency:    0.0723064578
  - # 4
    frequency:    2.0176121782
  - # 5
    frequency:    2.0185975685
  - # 6
    frequency:    2.7257599157
  - # 7
    frequency:    2.7269212401
  - # 8
    frequency:    3.5580850646
  - # 9
    frequency:    4.3590242673
  - # 10
    frequency:    4.3701801173
  - # 11
    frequency:    5.6566485605
  - # 12
    frequency:    6.5745317660
  - # 13
    frequency:    6.5751084853
  - # 14
    frequency:    7.7630088161
  - # 15
    frequency:   14.1388353996

- q-position: [    0.0101010,    0.0000000,    0.0000000 ]
  distance:    0.0029530
  band:
  - # 1
    frequency:    0.0054151818
  - # 2
    frequency:    0.0736583840
  - # 3
    frequency:    0.1445782667
  - # 4
    frequency:    2.0171696899
  - # 5
    frequency:    2.0210883136
  - # 6
    frequency:    2.7260885387
  - # 7
    frequency:    2.7306179628
  - # 8
    frequency:    3.5583826450
  - # 9
    frequency:    4.3569691648
  - # 10
    frequency:    4.4013813990
  - # 11
    frequency:    5.6560576683
  - # 12
    frequency:    6.5737443566
  - # 13
    frequency:    6.5760812689
  - # 14
    frequency:    7.7629452043
  - # 15
    frequency:   14.1351851403

- q-position: [    0.0151515,    0.0000000,    0.0000000 ]
  distance:    0.0044295
  band:
  - # 1
    frequency:    0.0101450271
  - # 2
    frequency:    0.1103322992
  - # 3
    frequency:    0.2167799839
  - # 4
    frequency:    2.0164356178
  - # 5
    frequency:    2.0251710814
  - # 6
    frequency:    2.7266351192
  - # 7
    frequency:    2.7364173800
  - # 8
    frequency:    3.5589219297
  - # 9
    frequency:    4.3535495443
  - # 10
    frequency:    4.4526780113
  - # 11
    frequency:    5.6551182986
  - # 12
    frequency:    6.5724371046
  - # 13
    frequency:    6.5778109353
  - # 14
    frequency:    7.7628813364
  - # 15
    frequency:   14.1291067740

- q-position: [    0.0202020,    0.0000000,    0.0000000 ]
  distance:    0.0059061
  band:
  - # 1
    frequency:    0.0165683572
  - # 2
    frequency:    0.1468194799
  - # 3
    frequency:    0.2888733100
  - # 4
    frequency:    2.0154150593
  - # 5
    frequency:    2.0307573156
  - # 6
    frequency:    2.7273979256
  - # 7
    frequency:    2.7438567987
  - # 8
    frequency:    3.5597534656
  - # 9
    frequency:    4.3487738370
  - # 10
    frequency:    4.5229883124
  - # 11
    frequency:    5.6539079589
  - # 12
    frequency:    6.5706175966
  - # 13
    frequency:    6.5804714387
  - # 14
    frequency:    7.7628836685
  - # 15
    frequency:   14.1206084155

- q-position: [    0.0252525,    0.0000000,    0.0000000 ]
  distance:    0.0073826
  band:
  - # 1
    frequency:    0.0247330560
  - # 2
    frequency:    0.1830570124
  - # 3
    frequency:    0.3608166287
  - # 4
    frequency:    2.0141151189
  - # 5
    frequency:    2.0377458308
  - # 6
    frequency:    2.7283744454
  - # 7
    frequency:    2.7524192317
  - # 8
    frequency:    3.5609276795
  - # 9
    frequency:    4.3426540576
  - # 10
    frequency:    4.6107553935
  - # 11
    frequency:    5.6525574875
  - # 12
    frequency:    6.5682963372
  - # 13
    frequency:    6.5843308376
  - # 14
    frequency:    7.7630521684
  - # 15
    frequency:   14.1097014596

- q-position: [    0.0303030,    0.0000000,    0.0000000 ]
  distance:    0.0088591
  band:
  - # 1
    frequency:    0.0346403346
  - # 2
    frequency:    0.2189814126
  - # 3
    frequency:    0.4325644625
  - # 4
    frequency:    2.0125448763
  - # 5
    frequency:    2.0460359327
  - # 6
    frequency:    2.7295612943
  - # 7
    frequency:    2.7616111353
  - # 8
    frequency:    3.5624871834
  - # 9
    frequency:    4.3352060134
  - # 10
    frequency:    4.7139060110
  - # 11
    frequency:    5.6512842538
  - # 12
    frequency:    6.5654866343
  - # 13
    frequency:    6.5897799605
  - # 14
    frequency:    7.7635284494
  - # 15
    frequency:   14.0964006158

- q-position: [    0.0353535,    0.0000000,    0.0000000 ]
  distance:    0.0103356
  band:
  - # 1
    frequency:    0.0462697369
  - # 2
    frequency:    0.2545284886
  - # 3
    frequency:    0.5040672038
  - # 4
    frequency:    2.0107153430
  - # 5
    frequency:    2.0555362078
  - # 6
    frequency:    2.7309541002
  - # 7
    frequency:    2.7710153472
  - # 8
    frequency:    3.5644643582
  - # 9
    frequency:    4.3264495727
  - # 10
    frequency:    4.8297789351
  - # 11
    frequency:    5.6504584838
  - # 12
    frequency:    6.5622044550
  - # 13
    frequency:    6.5973754882
  - # 14
    frequency:    7.7645082292
  - # 15
    frequency:   14.0807239569

- q-position: [    0.0404040,    0.0000000,    0.0000000 ]
  distance:    0.0118121
  band:
  - # 1
    frequency:    0.0595873251
  - # 2
    frequency:    0.2896332054
  - # 3
    frequency:    0.5752709853
  - # 4
    frequency:    2.0086394077
  - # 5
    frequency:    2.0661685463
  - # 6
    frequency:    2.7325473590
  - # 7
    frequency:    2.7803147559
  - # 8
    frequency:    3.5668824770
  - # 9
    frequency:    4.3164089884
  - # 10
    frequency:    4.9549708945
  - # 11
    frequency:    5.6507429784
  - # 12
    frequency:    6.5584682529
  - # 13
    frequency:    6.6079019878
  - # 14
    frequency:    7.7662601843
  - # 15
    frequency:   14.0626929819

- q-position: [    0.0454545,    0.0000000,    0.0000000 ]
  distance:    0.0132886
  band:
  - # 1
    frequency:    0.0745491573
  - # 2
    frequency:    0.3242295554
  - # 3
    frequency:    0.6461175782
  - # 4
    frequency:    2.0063317677
  - # 5
    frequency:    2.0778684800
  - # 6
    frequency:    2.7343342615
  - # 7
    frequency:    2.7892921699
  - # 8
    frequency:    3.5697582550
  - # 9
    frequency:    4.3051132775
  - # 10
    frequency:    5.0849829211
  - # 11
    frequency:    5.6534065665
  - # 12
    frequency:    6.5542987718
  - # 13
    frequency:    6.6224559431
  - # 14
    frequency:    7.7691545266
  - # 15
    frequency:   14.0423326979

- q-position: [    0.0505051,    0.0000000,    0.0000000 ]
  distance:    0.0147652
  band:
  - # 1
    frequency:    0.0911034141
  - # 2
    frequency:    0.3582504346
  - # 3
    frequency:    0.7165442496
  - # 4
    frequency:    2.0038088460
  - # 5
    frequency:    2.0905833912
  - # 6
    frequency:    2.7363064929
  - # 7
    frequency:    2.7978159551
  - # 8
    frequency:    3.5731044325
  - # 9
    frequency:    4.2925966516
  - # 10
    frequency:    5.2134128035
  - # 11
    frequency:    5.6610554712
  - # 12
    frequency:    6.5497188259
  - # 13
    frequency:    6.6425456504
  - # 14
    frequency:    7.7737066054
  - # 15
    frequency:   14.0196717226

- q-position: [    0.0555556,    0.0000000,    0.0000000 ]
  distance:    0.0162417
  band:
  - # 1
    frequency:    0.1091920916
  - # 2
    frequency:    0.3916275264
  - # 3
    frequency:    0.7864835450
  - # 4
    frequency:    2.0010886901
  - # 5
    frequency:    2.1042699218
  - # 6
    frequency:    2.7384540031
  - # 7
    frequency:    2.8058202769
  - # 8
    frequency:    3.5769317996
  - # 9
    frequency:    4.2788989970
  - # 10
    frequency:    5.3303299051
  - # 11
    frequency:    5.6791663419
  - # 12
    frequency:    6.5447530620
  - # 13
    frequency:    6.6701711560
  - # 14
    frequency:    7.7806438208
  - # 15
    frequency:   13.9947424141

- q-position: [    0.0606061,    0.0000000,    0.0000000 ]
  distance:    0.0177182
  band:
  - # 1
    frequency:    0.1287524886
  - # 2
    frequency:    0.4242911962
  - # 3
    frequency:    0.8558629979
  - # 4
    frequency:    1.9981908509
  - # 5
    frequency:    2.1188914291
  - # 6
    frequency:    2.7407647491
  - # 7
    frequency:    2.8132858457
  - # 8
    frequency:    3.5812505670
  - # 9
    frequency:    4.2640663992
  - # 10
    frequency:    5.4212625427
  - # 11
    frequency:    5.7170827952
  - # 12
    frequency:    6.5394277067
  - # 13
    frequency:    6.7077769447
  - # 14
    frequency:    7.7910081016
  - # 15
    frequency:   13.9675810332

- q-position: [    0.0656566,    0.0000000,    0.0000000 ]
  distance:    0.0191947
  band:
  - # 1
    frequency:    0.1497185236
  - # 2
    frequency:    0.4561703976
  - # 3
    frequency:    0.9246047865
  - # 4
    frequency:    1.9951362378
  - # 5
    frequency:    2.1344158872
  - # 6
    frequency:    2.7432244115
  - # 7
    frequency:    2.8202240512
  - # 8
    frequency:    3.5860711991
  - # 9
    frequency:    4.2481517068
  - # 10
    frequency:    5.4757147598
  - # 11
    frequency:    5.7797668286
  - # 12
    frequency:    6.5337703022
  - # 13
    frequency:    6.7578542524
  - # 14
    frequency:    7.8063094862
  - # 15
    frequency:   13.9382279468

- q-position: [    0.0707071,    0.0000000,    0.0000000 ]
  distance:    0.0206712
  band:
  - # 1
    frequency:    0.1720218825
  - # 2
    frequency:    0.4871925948
  - # 3
    frequency:    0.9926253697
  - # 4
    frequency:    1.9919469472
  - # 5
    frequency:    2.1508143332
  - # 6
    frequency:    2.7458160875
  - # 7
    frequency:    2.8266652605
  - # 8
    frequency:    3.5914048777
  - # 9
    frequency:    4.2312151277
  - # 10
    frequency:    5.5004795656
  - # 11
    frequency:    5.8552943241
  - # 12
    frequency:    6.5278094347
  - # 13
    frequency:    6.8219287297
  - # 14
    frequency:    7.8287413933
  - # 15
    frequency:   13.9067278810

- q-position: [    0.0757576,    0.0000000,    0.0000000 ]
  distance:    0.0221477
  band:
  - # 1
    frequency:    0.1955929960
  - # 2
    frequency:    0.5172837022
  - # 3
    frequency:    1.0598351354
  - # 4
    frequency:    1.9886460591
  - # 5
    frequency:    2.1680597965
  - # 6
    frequency:    2.7485199672
  - # 7
    frequency:    2.8326509102
  - # 8
    frequency:    3.5972637389
  - # 9
    frequency:    4.2133248481
  - # 10
    frequency:    5.5088746909
  - # 11
    frequency:    5.9269084283
  - # 12
    frequency:    6.5215744603
  - # 13
    frequency:    6.8990232312
  - # 14
    frequency:    7.8614311918
  - # 15
    frequency:   13.8731302387

- q-position: [    0.0808081,    0.0000000,    0.0000000 ]
  distance:    0.0236243
  band:
  - # 1
    frequency:    0.2203618543
  - # 2
    frequency:    0.5463680471
  - # 3
    frequency:    1.1261381026
  - # 4
    frequency:    1.9852573989
  - # 5
    frequency:    2.1861265809
  - # 6
    frequency:    2.7513129993
  - # 7
    frequency:    2.8382285971
  - # 8
    frequency:    3.6036609877
  - # 9
    frequency:    4.1945576633
  - # 10
    frequency:    5.5089802271
  - # 11
    frequency:    5.9857917459
  - # 12
    frequency:    6.5150952316
  - # 13
    frequency:    6.9845049669
  - # 14
    frequency:    7.9085795237
  - # 15
    frequency:   13.8374894964

- q-position: [    0.0858586,    0.0000000,    0.0000000 ]
  distance:    0.0251008
  band:
  - # 1
    frequency:    0.2462586742
  - # 2
    frequency:    0.5743683551
  - # 3
    frequency:    1.1914317185
  - # 4
    frequency:    1.9818052595
  - # 5
    frequency:    2.2049897624
  - # 6
    frequency:    2.7541685590
  - # 7
    frequency:    2.8434493239
  - # 8
    frequency:    3.6106109617
  - # 9
    frequency:    4.1749996035
  - # 10
    frequency:    5.5045280971
  - # 11
    frequency:    6.0300196549
  - # 12
    frequency:    6.5084018295
  - # 13
    frequency:    7.0705851573
  - # 14
    frequency:    7.9751103947
  - # 15
    frequency:   13.7998657024

- q-position: [    0.0909091,    0.0000000,    0.0000000 ]
  distance:    0.0265773
  band:
  - # 1
    frequency:    0.2732144335
  - # 2
    frequency:    0.6012057656
  - # 3
    frequency:    1.2556068004
  - # 4
    frequency:    1.9783140808
  - # 5
    frequency:    2.2246247702
  - # 6
    frequency:    2.7570561336
  - # 7
    frequency:    2.8483661864
  - # 8
    frequency:    3.6181291819
  - # 9
    frequency:    4.1547465360
  - # 10
    frequency:    5.4972598448
  - # 11
    frequency:    6.0610340681
  - # 12
    frequency:    6.5015243033
  - # 13
    frequency:    7.1487804958
  - # 14
    frequency:    8.0653686639
  - # 15
    frequency:   13.7603251036

- q-position: [    0.0959596,    0.0000000,    0.0000000 ]
  distance:    0.0280538
  band:
  - # 1
    frequency:    0.3011612904
  - # 2
    frequency:    0.6267998759
  - # 3
    frequency:    1.3185476795
  - # 4
    frequency:    1.9748080831
  - # 5
    frequency:    2.2450069391
  - # 6
    frequency:    2.7599410472
  - # 7
    frequency:    2.8530339571
  - # 8
    frequency:    3.6262324127
  - # 9
    frequency:    4.1339047151
  - # 10
    frequency:    5.4880568115
  - # 11
    frequency:    6.0813066185
  - # 12
    frequency:    6.4944924241
  - # 13
    frequency:    7.2130720864
  - # 14
    frequency:    8.1811573958
  - # 15
    frequency:   13.7189409378

- q-position: [    0.1010101,    0.0000000,    0.0000000 ]
  distance:    0.0295303
  band:
  - # 1
    frequency:    0.3300329048
  - # 2
    frequency:    0.6510688179
  - # 3
    frequency:    1.3801326142
  - # 4
    frequency:    1.9713108547
  - # 5
    frequency:    2.2661109375
  - # 6
    frequency:    2.7627842547
  - # 7
    frequency:    2.8575091718
  - # 8
    frequency:    3.6349387363
  - # 9
    frequency:    4.1125912489
  - # 10
    frequency:    5.4774051888
  - # 11
    frequency:    6.0932190394
  - # 12
    frequency:    6.4873354522
  - # 13
    frequency:    7.2615823342
  - # 14
    frequency:    8.3207050515
  - # 15
    frequency:   13.6757944384

- q-position: [    0.1060606,    0.0000000,    0.0000000 ]
  distance:    0.0310068
  band:
  - # 1
    frequency:    0.3597646740
  - # 2
    frequency:    0.6739293669
  - # 3
    frequency:    1.4402345475
  - # 4
    frequency:    1.9678448932
  - # 5
    frequency:    2.2879099878
  - # 6
    frequency:    2.7655422384
  - # 7
    frequency:    2.8618504487
  - # 8
    frequency:    3.6442676376
  - # 9
    frequency:    4.0909344380
  - # 10
    frequency:    5.4655948159
  - # 11
    frequency:    6.0987020785
  - # 12
    frequency:    6.4800819240
  - # 13
    frequency:    7.2957616123
  - # 14
    frequency:    8.4796308717
  - # 15
    frequency:   13.6309761150

- q-position: [    0.1111111,    0.0000000,    0.0000000 ]
  distance:    0.0324834
  band:
  - # 1
    frequency:    0.3902938977
  - # 2
    frequency:    0.6952970792
  - # 3
    frequency:    1.4987222913
  - # 4
    frequency:    1.9644311080
  - # 5
    frequency:    2.3103748169
  - # 6
    frequency:    2.7681670565
  - # 7
    frequency:    2.8661188512
  - # 8
    frequency:    3.6542400856
  - # 9
    frequency:    4.0690739358
  - # 10
    frequency:    5.4528106687
  - # 11
    frequency:    6.0992169244
  - # 12
    frequency:    6.4727594576
  - # 13
    frequency:    7.3184427155
  - # 14
    frequency:    8.6528076635
  - # 15
    frequency:   13.5845873946

- q-position: [    0.1161616,    0.0000000,    0.0000000 ]
  distance:    0.0339599
  band:
  - # 1
    frequency:    0.4215598825
  - # 2
    frequency:    0.7150864568
  - # 3
    frequency:    1.5554622129
  - # 4
    frequency:    1.9610882908
  - # 5
    frequency:    2.3334722947
  - # 6
    frequency:    2.7706065941
  - # 7
    frequency:    2.8703781625
  - # 8
    frequency:    3.6648785927
  - # 9
    frequency:    4.0471606653
  - # 10
    frequency:    5.4391781746
  - # 11
    frequency:    6.0958436877
  - # 12
    frequency:    6.4653945812
  - # 13
    frequency:    7.3324327850
  - # 14
    frequency:    8.8356266035
  - # 15
    frequency:   13.5367427377

- q-position: [    0.1212121,    0.0000000,    0.0000000 ]
  distance:    0.0354364
  band:
  - # 1
    frequency:    0.4535039960
  - # 2
    frequency:    0.7332111283
  - # 3
    frequency:    1.6103204861
  - # 4
    frequency:    1.9578325704
  - # 5
    frequency:    2.3571637581
  - # 6
    frequency:    2.7728050810
  - # 7
    frequency:    2.8746949716
  - # 8
    frequency:    3.6762072251
  - # 9
    frequency:    4.0253564206
  - # 10
    frequency:    5.4247871695
  - # 11
    frequency:    6.0893803747
  - # 12
    frequency:    6.4580125838
  - # 13
    frequency:    7.3399822068
  - # 14
    frequency:    9.0243961554
  - # 15
    frequency:   13.4875723833

- q-position: [    0.1262626,    0.0000000,    0.0000000 ]
  distance:    0.0369129
  band:
  - # 1
    frequency:    0.4860696800
  - # 2
    frequency:    0.7495840374
  - # 3
    frequency:    1.6631659291
  - # 4
    frequency:    1.9546768718
  - # 5
    frequency:    2.3814030688
  - # 6
    frequency:    2.7747039429
  - # 7
    frequency:    2.8791384853
  - # 8
    frequency:    3.6882515364
  - # 9
    frequency:    4.0038330705
  - # 10
    frequency:    5.4097052957
  - # 11
    frequency:    6.0804237537
  - # 12
    frequency:    6.4506373897
  - # 13
    frequency:    7.3427473541
  - # 14
    frequency:    9.2162757765
  - # 15
    frequency:   13.4372259330

- q-position: [    0.1313131,    0.0000000,    0.0000000 ]
  distance:    0.0383894
  band:
  - # 1
    frequency:    0.5192024291
  - # 2
    frequency:    0.7641176235
  - # 3
    frequency:    1.7138733948
  - # 4
    frequency:    1.9516304080
  - # 5
    frequency:    2.4061345357
  - # 6
    frequency:    2.7762430521
  - # 7
    frequency:    2.8837799873
  - # 8
    frequency:    3.7010383888
  - # 9
    frequency:    3.9827712804
  - # 10
    frequency:    5.3939858661
  - # 11
    frequency:    6.0694288745
  - # 12
    frequency:    6.4432914556
  - # 13
    frequency:    7.3419112480
  - # 14
    frequency:    9.4090781973
  - # 15
    frequency:   13.3858770630

- q-position: [    0.1363636,    0.0000000,    0.0000000 ]
  distance:    0.0398659
  band:
  - # 1
    frequency:    0.5528497421
  - # 2
    frequency:    0.7767239762
  - # 3
    frequency:    1.7623275974
  - # 4
    frequency:    1.9486982385
  - # 5
    frequency:    2.4312909211
  - # 6
    frequency:    2.7773624344
  - # 7
    frequency:    2.8886918623
  - # 8
    frequency:    3.7145956290
  - # 9
    frequency:    3.9623586726
  - # 10
    frequency:    5.3776726824
  - # 11
    frequency:    6.0567511271
  - # 12
    frequency:    6.4359956916
  - # 13
    frequency:    7.3383158806
  - # 14
    frequency:    9.6010796848
  - # 15
    frequency:   13.3337297601

- q-position: [    0.1414141,    0.0000000,    0.0000000 ]
  distance:    0.0413425
  band:
  - # 1
    frequency:    0.5869610522
  - # 2
    frequency:    0.7873149450
  - # 3
    frequency:    1.8084271667
  - # 4
    frequency:    1.9458809347
  - # 5
    frequency:    2.4567918545
  - # 6
    frequency:    2.7780044666
  - # 7
    frequency:    2.8939461047
  - # 8
    frequency:    3.7289515818
  - # 9
    frequency:    3.9427873638
  - # 10
    frequency:    5.3608031024
  - # 11
    frequency:    6.0426755508
  - # 12
    frequency:    6.4287694031
  - # 13
    frequency:    7.3325661465
  - # 14
    frequency:    9.7908717103
  - # 15
    frequency:   13.2810266233

- q-position: [    0.1464646,    0.0000000,    0.0000000 ]
  distance:    0.0428190
  band:
  - # 1
    frequency:    0.6214876403
  - # 2
    frequency:    0.7958021807
  - # 3
    frequency:    1.8520886326
  - # 4
    frequency:    1.9431743973
  - # 5
    frequency:    2.4825430549
  - # 6
    frequency:    2.7781165585
  - # 7
    frequency:    2.8996122361
  - # 8
    frequency:    3.7441343320
  - # 9
    frequency:    3.9242508528
  - # 10
    frequency:    5.3434100707
  - # 11
    frequency:    6.0274372310
  - # 12
    frequency:    6.4216302544
  - # 13
    frequency:    7.3251032977
  - # 14
    frequency:    9.9772507475
  - # 15
    frequency:   13.2280599711

- q-position: [    0.1515152,    0.0000000,    0.0000000 ]
  distance:    0.0442955
  band:
  - # 1
    frequency:    0.6563825357
  - # 2
    frequency:    0.8020970887
  - # 3
    frequency:    1.8932499916
  - # 4
    frequency:    1.9405698716
  - # 5
    frequency:    2.5084367907
  - # 6
    frequency:    2.7776542576
  - # 7
    frequency:    2.9057545817
  - # 8
    frequency:    3.7601707695
  - # 9
    frequency:    3.9069402843
  - # 10
    frequency:    5.3255235161
  - # 11
    frequency:    6.0112355510
  - # 12
    frequency:    6.4145942508
  - # 13
    frequency:    7.3162549702
  - # 14
    frequency:   10.1591349198
  - # 15
    frequency:   13.1751867419

- q-position: [    0.1565657,    0.0000000,    0.0000000 ]
  distance:    0.0457720
  band:
  - # 1
    frequency:    0.6916004091
  - # 2
    frequency:    0.8061106738
  - # 3
    frequency:    1.9318735016
  - # 4
    frequency:    1.9380542027
  - # 5
    frequency:    2.5343539401
  - # 6
    frequency:    2.7765846388
  - # 7
    frequency:    2.9124289039
  - # 8
    frequency:    3.7770853868
  - # 9
    frequency:    3.8910401851
  - # 10
    frequency:    5.3071713620
  - # 11
    frequency:    5.9942442124
  - # 12
    frequency:    6.4076757385
  - # 13
    frequency:    7.3062689593
  - # 14
    frequency:   10.3354968278
  - # 15
    frequency:   13.1228484604

- q-position: [    0.1616162,    0.0000000,    0.0000000 ]
  distance:    0.0472485
  band:
  - # 1
    frequency:    0.7270974601
  - # 2
    frequency:    0.8077532567
  - # 3
    frequency:    1.9356103686
  - # 4
    frequency:    1.9679474291
  - # 5
    frequency:    2.5601678400
  - # 6
    frequency:    2.7748897596
  - # 7
    frequency:    2.9196784818
  - # 8
    frequency:    3.7948988328
  - # 9
    frequency:    3.8767238535
  - # 10
    frequency:    5.2883802992
  - # 11
    frequency:    5.9766183160
  - # 12
    frequency:    6.4008874200
  - # 13
    frequency:    7.2953361300
  - # 14
    frequency:   10.5053041601
  - # 15
    frequency:   13.0715977895

- q-position: [    0.1666667,    0.0000000,    0.0000000 ]
  distance:    0.0487250
  band:
  - # 1
    frequency:    0.7628313025
  - # 2
    frequency:    0.8069340462
  - # 3
    frequency:    1.9332183113
  - # 4
    frequency:    2.0014865983
  - # 5
    frequency:    2.5857498238
  - # 6
    frequency:    2.7725698824
  - # 7
    frequency:    2.9275298563
  - # 8
    frequency:    3.8136262523
  - # 9
    frequency:    3.8641486635
  - # 10
    frequency:    5.2691764203
  - # 11
    frequency:    5.9584993777
  - # 12
    frequency:    6.3942403831
  - # 13
    frequency:    7.2836061286
  - # 14
    frequency:   10.6674618993
  - # 15
    frequency:   13.0221331667

- q-position: [    0.1717172,    0.0000000,    0.0000000 ]
  distance:    0.0502016
  band:
  - # 1
    frequency:    0.7987608504
  - # 2
    frequency:    0.8035605454
  - # 3
    frequency:    1.9308560704
  - # 4
    frequency:    2.0325317625
  - # 5
    frequency:    2.6109759918
  - # 6
    frequency:    2.7696461059
  - # 7
    frequency:    2.9359886265
  - # 8
    frequency:    3.8332754617
  - # 9
    frequency:    3.8534516149
  - # 10
    frequency:    5.2495857824
  - # 11
    frequency:    5.9400188715
  - # 12
    frequency:    6.3877441411
  - # 13
    frequency:    7.2711983113
  - # 14
    frequency:   10.8207523433
  - # 15
    frequency:   12.9753421964

- q-position: [    0.1767677,    0.0000000,    0.0000000 ]
  distance:    0.0516781
  band:
  - # 1
    frequency:    0.7975377605
  - # 2
    frequency:    0.8348462066
  - # 3
    frequency:    1.9285011970
  - # 4
    frequency:    2.0611479626
  - # 5
    frequency:    2.6357344106
  - # 6
    frequency:    2.7661620368
  - # 7
    frequency:    2.9450358499
  - # 8
    frequency:    3.8447454876
  - # 9
    frequency:    3.8538450390
  - # 10
    frequency:    5.2296349467
  - # 11
    frequency:    5.9213007034
  - # 12
    frequency:    6.3814066838
  - # 13
    frequency:    7.2582094634
  - # 14
    frequency:   10.9637730473
  - # 15
    frequency:   12.9323516352

- q-position: [    0.1818182,    0.0000000,    0.0000000 ]
  distance:    0.0531546
  band:
  - # 1
    frequency:    0.7887671599
  - # 2
    frequency:    0.8710485562
  - # 3
    frequency:    1.9261323969
  - # 4
    frequency:    2.0874221403
  - # 5
    frequency:    2.6599317024
  - # 6
    frequency:    2.7621841766
  - # 7
    frequency:    2.9546257188
  - # 8
    frequency:    3.8381159414
  - # 9
    frequency:    3.8753224288
  - # 10
    frequency:    5.2093515321
  - # 11
    frequency:    5.9024628965
  - # 12
    frequency:    6.3752345348
  - # 13
    frequency:    7.2447193385
  - # 14
    frequency:   11.0948805444
  - # 15
    frequency:   12.8945747462

- q-position: [    0.1868687,    0.0000000,    0.0000000 ]
  distance:    0.0546311
  band:
  - # 1
    frequency:    0.7771452853
  - # 2
    frequency:    0.9073300669
  - # 3
    frequency:    1.9237313218
  - # 4
    frequency:    2.1114602991
  - # 5
    frequency:    2.6834979449
  - # 6
    frequency:    2.7578008054
  - # 7
    frequency:    2.9646851698
  - # 8
    frequency:    3.8336198239
  - # 9
    frequency:    3.8976821740
  - # 10
    frequency:    5.1887648121
  - # 11
    frequency:    5.8836186827
  - # 12
    frequency:    6.3692328166
  - # 13
    frequency:    7.2307946947
  - # 14
    frequency:   11.2121625068
  - # 15
    frequency:   12.8637324392

- q-position: [    0.1919192,    0.0000000,    0.0000000 ]
  distance:    0.0561076
  band:
  - # 1
    frequency:    0.7625618480
  - # 2
    frequency:    0.9436537982
  - # 3
    frequency:    1.9212843961
  - # 4
    frequency:    2.1333844728
  - # 5
    frequency:    2.7063890269
  - # 6
    frequency:    2.7531193077
  - # 7
    frequency:    2.9751159020
  - # 8
    frequency:    3.8312848272
  - # 9
    frequency:    3.9208843887
  - # 10
    frequency:    5.1679063821
  - # 11
    frequency:    5.8648771422
  - # 12
    frequency:    6.3634053190
  - # 13
    frequency:    7.2164922800
  - # 14
    frequency:   11.3134839317
  - # 15
    frequency:   12.8418019877

- q-position: [    0.1969697,    0.0000000,    0.0000000 ]
  distance:    0.0575841
  band:
  - # 1
    frequency:    0.7448970222
  - # 2
    frequency:    0.9799836199
  - # 3
    frequency:    1.9187845451
  - # 4
    frequency:    2.1533296865
  - # 5
    frequency:    2.7285860517
  - # 6
    frequency:    2.7482620750
  - # 7
    frequency:    2.9857989078
  - # 8
    frequency:    3.8311104844
  - # 9
    frequency:    3.9448735681
  - # 10
    frequency:    5.1468109209
  - # 11
    frequency:    5.8463434924
  - # 12
    frequency:    6.3577545716
  - # 13
    frequency:    7.2018610729
  - # 14
    frequency:   11.3966732499
  - # 15
    frequency:   12.8308269917

- q-position: [    0.2020202,    0.0000000,    0.0000000 ]
  distance:    0.0590607
  band:
  - # 1
    frequency:    0.7240174617
  - # 2
    frequency:    1.0162841441
  - # 3
    frequency:    1.9162326751
  - # 4
    frequency:    2.1714410193
  - # 5
    frequency:    2.7433612977
  - # 6
    frequency:    2.7500919494
  - # 7
    frequency:    2.9966011606
  - # 8
    frequency:    3.8330703507
  - # 9
    frequency:    3.9695777999
  - # 10
    frequency:    5.1255170724
  - # 11
    frequency:    5.8281191059
  - # 12
    frequency:    6.3522819179
  - # 13
    frequency:    7.1869439855
  - # 14
    frequency:   11.4598956036
  - # 15
    frequency:   12.8325410363

- q-position: [    0.2070707,    0.0000000,    0.0000000 ]
  distance:    0.0605372
  band:
  - # 1
    frequency:    0.6997702536
  - # 2
    frequency:    1.0525206697
  - # 3
    frequency:    1.9136387621
  - # 4
    frequency:    2.1878708192
  - # 5
    frequency:    2.7385530995
  - # 6
    frequency:    2.7709259690
  - # 7
    frequency:    3.0073836936
  - # 8
    frequency:    3.8371151037
  - # 9
    frequency:    3.9949083930
  - # 10
    frequency:    5.1040684731
  - # 11
    frequency:    5.8103013182
  - # 12
    frequency:    6.3469875904
  - # 13
    frequency:    7.1717791737
  - # 14
    frequency:   11.5021542969
  - # 15
    frequency:   12.8478638264

- q-position: [    0.2121212,    0.0000000,    0.0000000 ]
  distance:    0.0620137
  band:
  - # 1
    frequency:    0.6719735003