nqpoint: 300    
npath: 3      
segment_nqpoint:
- 100
- 100
- 100
labels:
- [ 'G', 'M' ]
- [ 'M', 'K' ]
- [ 'K', 'G' ]
reciprocal_lattice:
- [   0.26829449,   0.15489989,   0.00000000 ] # a*
- [   0.00000000,   0.30979979,   0.00000000 ] # b*
- [   0.00000000,   0.00000000,   0.03967860 ] # c*
natom: 6      
lattice:
- [     3.727247666063437,     0.000000000000000,     0.000000000000000 ] # a
- [    -1.863623833031718,     3.227891165048063,     0.000000000000000 ] # b
- [     0.000000000000000,     0.000000000000000,    25.202503527287128 ] # c
points:
- symbol: Br # 1
  coordinates: [  0.666666984744047,  0.333332985985145,  0.357107379838498 ]
  mass: 79.904000
- symbol: C # 2
  coordinates: [  0.000000000000000,  0.000000000000000,  0.487288988528764 ]
  mass: 12.010700
- symbol: N # 3
  coordinates: [  0.333332985432214,  0.666666983183674,  0.591404357025319 ]
  mass: 14.006700
- symbol: O # 4
  coordinates: [  0.333332985432214,  0.666666983183674,  0.642892620161502 ]
  mass: 15.999400
- symbol: Y # 5
  coordinates: [  0.333332985432214,  0.666666983183674,  0.434662090904511 ]
  mass: 88.905850
- symbol: Y # 6
  coordinates: [  0.666666984744047,  0.333332985985145,  0.542676930195506 ]
  mass: 88.905850

phonon:
- q-position: [    0.0000000,    0.0000000,    0.0000000 ]
  distance:    0.0000000
  band:
  - # 1
    frequency:   -0.0000223001
  - # 2
    frequency:    0.0000001684
  - # 3
    frequency:    0.0000270007
  - # 4
    frequency:    2.2891782900
  - # 5
    frequency:    2.2891782901
  - # 6
    frequency:    3.4991833508
  - # 7
    frequency:    3.4991833508
  - # 8
    frequency:    3.9870566531
  - # 9
    frequency:    4.0065892388
  - # 10
    frequency:    4.0065892388
  - # 11
    frequency:    6.1598656675
  - # 12
    frequency:    7.0250617298
  - # 13
    frequency:    7.0250617298
  - # 14
    frequency:    7.1113372381
  - # 15
    frequency:    9.8112976485
  - # 16
    frequency:    9.8112976487
  - # 17
    frequency:   14.4583767401
  - # 18
    frequency:   43.0611012886

- q-position: [    0.0050505,    0.0000000,    0.0000000 ]
  distance:    0.0015646
  band:
  - # 1
    frequency:    0.0010136528
  - # 2
    frequency:    0.0414345964
  - # 3
    frequency:    0.0756494013
  - # 4
    frequency:    2.2892383957
  - # 5
    frequency:    2.2900882983
  - # 6
    frequency:    3.4987474574
  - # 7
    frequency:    3.4991125765
  - # 8
    frequency:    3.9849093081
  - # 9
    frequency:    4.0065106694
  - # 10
    frequency:    4.0093214188
  - # 11
    frequency:    6.1594937764
  - # 12
    frequency:    7.0243719498
  - # 13
    frequency:    7.0251748813
  - # 14
    frequency:    7.1109234489
  - # 15
    frequency:    9.8111430674
  - # 16
    frequency:    9.8127614458
  - # 17
    frequency:   14.4574458541
  - # 18
    frequency:   43.0603741458

- q-position: [    0.0101010,    0.0000000,    0.0000000 ]
  distance:    0.0031293
  band:
  - # 1
    frequency:    0.0040505417
  - # 2
    frequency:    0.0828851665
  - # 3
    frequency:    0.1512799851
  - # 4
    frequency:    2.2894188958
  - # 5
    frequency:    2.2928132605
  - # 6
    frequency:    3.4974468057
  - # 7
    frequency:    3.4988994796
  - # 8
    frequency:    3.9803155538
  - # 9
    frequency:    4.0062760324
  - # 10
    frequency:    4.0156640365
  - # 11
    frequency:    6.1583809434
  - # 12
    frequency:    7.0223032363
  - # 13
    frequency:    7.0255111566
  - # 14
    frequency:    7.1096853717
  - # 15
    frequency:    9.8106800216
  - # 16
    frequency:    9.8171475541
  - # 17
    frequency:   14.4546556829
  - # 18
    frequency:   43.0581938132

- q-position: [    0.0151515,    0.0000000,    0.0000000 ]
  distance:    0.0046939
  band:
  - # 1
    frequency:    0.0090998615
  - # 2
    frequency:    0.1243675392
  - # 3
    frequency:    0.2268728661
  - # 4
    frequency:    2.2897203345
  - # 5
    frequency:    2.2973380814
  - # 6
    frequency:    3.4953020585
  - # 7
    frequency:    3.4985417431
  - # 8
    frequency:    3.9750832433
  - # 9
    frequency:    4.0058885327
  - # 10
    frequency:    4.0237927462
  - # 11
    frequency:    6.1565356280
  - # 12
    frequency:    7.0188574703
  - # 13
    frequency:    7.0260605882
  - # 14
    frequency:    7.1076333300
  - # 15
    frequency:    9.8099106025
  - # 16
    frequency:    9.8244401780
  - # 17
    frequency:   14.4500136818
  - # 18
    frequency:   43.0545635754

- q-position: [    0.0202020,    0.0000000,    0.0000000 ]
  distance:    0.0062586
  band:
  - # 1
    frequency:    0.0161436929
  - # 2
    frequency:    0.1658972734
  - # 3
    frequency:    0.3024089980
  - # 4
    frequency:    2.2901436039
  - # 5
    frequency:    2.3036379072
  - # 6
    frequency:    3.4923463059
  - # 7
    frequency:    3.4980355232
  - # 8
    frequency:    3.9697667083
  - # 9
    frequency:    4.0053534852
  - # 10
    frequency:    4.0331271104
  - # 11
    frequency:    6.1539717273
  - # 12
    frequency:    7.0140377882
  - # 13
    frequency:    7.0268049722
  - # 14
    frequency:    7.1047861950
  - # 15
    frequency:    9.8088382916
  - # 16
    frequency:    9.8346131726
  - # 17
    frequency:   14.4435322627
  - # 18
    frequency:   43.0494888986

- q-position: [    0.0252525,    0.0000000,    0.0000000 ]
  distance:    0.0078232
  band:
  - # 1
    frequency:    0.0251575756
  - # 2
    frequency:    0.2074895165
  - # 3
    frequency:    0.3778690981
  - # 4
    frequency:    2.2906899212
  - # 5
    frequency:    2.3116785609
  - # 6
    frequency:    3.4886232500
  - # 7
    frequency:    3.4973754771
  - # 8
    frequency:    3.9644979118
  - # 9
    frequency:    4.0046782735
  - # 10
    frequency:    4.0435013130
  - # 11
    frequency:    6.1507082825
  - # 12
    frequency:    7.0078485857
  - # 13
    frequency:    7.0277148540
  - # 14
    frequency:    7.1011745060
  - # 15
    frequency:    9.8074679535
  - # 16
    frequency:    9.8476303070
  - # 17
    frequency:   14.4352287722
  - # 18
    frequency:   43.0429774182

- q-position: [    0.0303030,    0.0000000,    0.0000000 ]
  distance:    0.0093879
  band:
  - # 1
    frequency:    0.0361110903
  - # 2
    frequency:    0.2491588687
  - # 3
    frequency:    0.4532335596
  - # 4
    frequency:    2.2913607975
  - # 5
    frequency:    2.3214171130
  - # 6
    frequency:    3.4841850262
  - # 7
    frequency:    3.4965548021
  - # 8
    frequency:    3.9592894761
  - # 9
    frequency:    4.0038722913
  - # 10
    frequency:    4.0548633841
  - # 11
    frequency:    6.1467690890
  - # 12
    frequency:    7.0002955229
  - # 13
    frequency:    7.0287437283
  - # 14
    frequency:    7.0968464105
  - # 15
    frequency:    9.8058058273
  - # 16
    frequency:    9.8634456222
  - # 17
    frequency:   14.4251254628
  - # 18
    frequency:   43.0350389215

- q-position: [    0.0353535,    0.0000000,    0.0000000 ]
  distance:    0.0109525
  band:
  - # 1
    frequency:    0.0489685490
  - # 2
    frequency:    0.2909192483
  - # 3
    frequency:    0.5284823592
  - # 4
    frequency:    2.2921579963
  - # 5
    frequency:    2.3328025514
  - # 6
    frequency:    3.4790899231
  - # 7
    frequency:    3.4955652892
  - # 8
    frequency:    3.9541194937
  - # 9
    frequency:    4.0029468663
  - # 10
    frequency:    4.0671927705
  - # 11
    frequency:    6.1421822273
  - # 12
    frequency:    6.9913855304
  - # 13
    frequency:    7.0298169220
  - # 14
    frequency:    7.0918789463
  - # 15
    frequency:    9.8038595135
  - # 16
    frequency:    9.8820038696
  - # 17
    frequency:   14.4132494555
  - # 18
    frequency:   43.0256853256

- q-position: [    0.0404040,    0.0000000,    0.0000000 ]
  distance:    0.0125172
  band:
  - # 1
    frequency:    0.0636897556
  - # 2
    frequency:    0.3327837581
  - # 3
    frequency:    0.6035949554
  - # 4
    frequency:    2.2930834844
  - # 5
    frequency:    2.3457765099
  - # 6
    frequency:    3.4734002364
  - # 7
    frequency:    3.4943973911
  - # 8
    frequency:    3.9489589982
  - # 9
    frequency:    4.0019151642
  - # 10
    frequency:    4.0804751404
  - # 11
    frequency:    6.1369795341
  - # 12
    frequency:    6.9811268192
  - # 13
    frequency:    7.0308100449
  - # 14
    frequency:    7.0863997740
  - # 15
    frequency:    9.8016379586
  - # 16
    frequency:    9.9032410185
  - # 17
    frequency:   14.3996326940
  - # 18
    frequency:   43.0149306509

- q-position: [    0.0454545,    0.0000000,    0.0000000 ]
  distance:    0.0140818
  band:
  - # 1
    frequency:    0.0802308023
  - # 2
    frequency:    0.3747645534
  - # 3
    frequency:    0.6785501780
  - # 4
    frequency:    2.2941393720
  - # 5
    frequency:    2.3602740135
  - # 6
    frequency:    3.4671804291
  - # 7
    frequency:    3.4930403062
  - # 8
    frequency:    3.9437820695
  - # 9
    frequency:    4.0007920726
  - # 10
    frequency:    4.0946942839
  - # 11
    frequency:    6.1311960372
  - # 12
    frequency:    6.9695288928
  - # 13
    frequency:    7.0315076136
  - # 14
    frequency:    7.0806287431
  - # 15
    frequency:    9.7991514357
  - # 16
    frequency:    9.9270848167
  - # 17
    frequency:   14.3843118929
  - # 18
    frequency:   43.0027909889

- q-position: [    0.0505051,    0.0000000,    0.0000000 ]
  distance:    0.0156465
  band:
  - # 1
    frequency:    0.0985448631
  - # 2
    frequency:    0.4168727117
  - # 3
    frequency:    0.7533261070
  - # 4
    frequency:    2.2953278445
  - # 5
    frequency:    2.3762241971
  - # 6
    frequency:    3.4604957073
  - # 7
    frequency:    3.4914820816
  - # 8
    frequency:    3.9385696562
  - # 9
    frequency:    3.9995940637
  - # 10
    frequency:    4.1098299220
  - # 11
    frequency:    6.1248693729
  - # 12
    frequency:    6.9566025623
  - # 13
    frequency:    7.0315312906
  - # 14
    frequency:    7.0749498446
  - # 15
    frequency:    9.7964115215
  - # 16
    frequency:    9.9534553893
  - # 17
    frequency:   14.3673284772
  - # 18
    frequency:   42.9892844668

- q-position: [    0.0555556,    0.0000000,    0.0000000 ]
  distance:    0.0172111
  band:
  - # 1
    frequency:    0.1185829568
  - # 2
    frequency:    0.4591181039
  - # 3
    frequency:    0.8278999385
  - # 4
    frequency:    2.2966510850
  - # 5
    frequency:    2.3935509581
  - # 6
    frequency:    3.4534110496
  - # 7
    frequency:    3.4897097347
  - # 8
    frequency:    3.9333107965
  - # 9
    frequency:    3.9983390347
  - # 10
    frequency:    4.1258577142
  - # 11
    frequency:    6.1180392076
  - # 12
    frequency:    6.9423599658
  - # 13
    frequency:    7.0302620896
  - # 14
    frequency:    7.0699891883
  - # 15
    frequency:    9.7934310687
  - # 16
    frequency:    9.9822658609
  - # 17
    frequency:   14.3487285165
  - # 18
    frequency:   42.9744312065

- q-position: [    0.0606061,    0.0000000,    0.0000000 ]
  distance:    0.0187757
  band:
  - # 1
    frequency:    0.1402946503
  - # 2
    frequency:    0.5015092688
  - # 3
    frequency:    0.9022478380
  - # 4
    frequency:    2.2981111865
  - # 5
    frequency:    2.4121735061
  - # 6
    frequency:    3.4459906881
  - # 7
    frequency:    3.4877093964
  - # 8
    frequency:    3.9280026770
  - # 9
    frequency:    3.9970461252
  - # 10
    frequency:    4.1427500387
  - # 11
    frequency:    6.1107466778
  - # 12
    frequency:    6.9268145924
  - # 13
    frequency:    7.0269251999
  - # 14
    frequency:    7.0665303493
  - # 15
    frequency:    9.7902241740
  - # 16
    frequency:   10.0134229872
  - # 17
    frequency:   14.3285626520
  - # 18
    frequency:   42.9582532801

- q-position: [    0.0656566,    0.0000000,    0.0000000 ]
  distance:    0.0203404
  band:
  - # 1
    frequency:    0.1636286854
  - # 2
    frequency:    0.5440532888
  - # 3
    frequency:    0.9763447779
  - # 4
    frequency:    2.2997100559
  - # 5
    frequency:    2.4320067768
  - # 6
    frequency:    3.4382980033
  - # 7
    frequency:    3.4854664759
  - # 8
    frequency:    3.9226501719
  - # 9
    frequency:    3.9957355125
  - # 10
    frequency:    4.1604769534
  - # 11
    frequency:    6.1030338644
  - # 12
    frequency:    6.9099813109
  - # 13
    frequency:    7.0210432972
  - # 14
    frequency:    7.0650612097
  - # 15
    frequency:    9.7868061415
  - # 16
    frequency:   10.0468277835
  - # 17
    frequency:   14.3068860188
  - # 18
    frequency:   42.9407746602

- q-position: [    0.0707071,    0.0000000,    0.0000000 ]
  distance:    0.0219050
  band:
  - # 1
    frequency:    0.1885335150
  - # 2
    frequency:    0.5867556688
  - # 3
    frequency:    1.0501643606
  - # 4
    frequency:    2.3014493076
  - # 5
    frequency:    2.4529616793
  - # 6
    frequency:    3.4303957865
  - # 7
    frequency:    3.4829658478
  - # 8
    frequency:    3.9172651786
  - # 9
    frequency:    3.9944281835
  - # 10
    frequency:    4.1790070855
  - # 11
    frequency:    6.0949433109
  - # 12
    frequency:    6.8918764040
  - # 13
    frequency:    7.0127833597
  - # 14
    frequency:    7.0654272746
  - # 15
    frequency:    9.7831934408
  - # 16
    frequency:   10.0823761379
  - # 17
    frequency:   14.2837581629
  - # 18
    frequency:   42.9220211674

- q-position: [    0.0757576,    0.0000000,    0.0000000 ]
  distance:    0.0234697
  band:
  - # 1
    frequency:    0.2149577414
  - # 2
    frequency:    0.6296202180
  - # 3
    frequency:    1.1236786235
  - # 4
    frequency:    2.3033301483
  - # 5
    frequency:    2.4749451505
  - # 6
    frequency:    3.4223468217
  - # 7
    frequency:    3.4801920607
  - # 8
    frequency:    3.9118659091
  - # 9
    frequency:    3.9931456869
  - # 10
    frequency:    4.1983083592
  - # 11
    frequency:    6.0865175917
  - # 12
    frequency:    6.8725176086
  - # 13
    frequency:    7.0026430061
  - # 14
    frequency:    7.0671454446
  - # 15
    frequency:    9.7794036596
  - # 16
    frequency:   10.1199594020
  - # 17
    frequency:   14.2592429544
  - # 18
    frequency:   42.9020204128

- q-position: [    0.0808081,    0.0000000,    0.0000000 ]
  distance:    0.0250343
  band:
  - # 1
    frequency:    0.2428504560
  - # 2
    frequency:    0.6726489338
  - # 3
    frequency:    1.1968578268
  - # 4
    frequency:    2.3053532521
  - # 5
    frequency:    2.4978599893
  - # 6
    frequency:    3.4142147482
  - # 7
    frequency:    3.4771295674
  - # 8
    frequency:    3.9064762193
  - # 9
    frequency:    3.9919098659
  - # 10
    frequency:    4.2183485437
  - # 11
    frequency:    6.0777989361
  - # 12
    frequency:    6.8519241628
  - # 13
    frequency:    6.9910572061
  - # 14
    frequency:    7.0697973923
  - # 15
    frequency:    9.7754554510
  - # 16
    frequency:   10.1594649493
  - # 17
    frequency:   14.2334084967
  - # 18
    frequency:   42.8808017377

- q-position: [    0.0858586,    0.0000000,    0.0000000 ]
  distance:    0.0265990
  band:
  - # 1
    frequency:    0.2721614832
  - # 2
    frequency:    0.7158418898
  - # 3
    frequency:    1.2696702229
  - # 4
    frequency:    2.3075186264
  - # 5
    frequency:    2.5216044448
  - # 6
    frequency:    3.4060651770
  - # 7
    frequency:    3.4737629723
  - # 8
    frequency:    3.9011250187
  - # 9
    frequency:    3.9907425763
  - # 10
    frequency:    4.2390956356
  - # 11
    frequency:    6.0688289085
  - # 12
    frequency:    6.8301168592
  - # 13
    frequency:    6.9783092192
  - # 14
    frequency:    7.0731186889
  - # 15
    frequency:    9.7713684753
  - # 16
    frequency:   10.2007766978
  - # 17
    frequency:   14.2063270344
  - # 18
    frequency:   42.8583961487

- q-position: [    0.0909091,    0.0000000,    0.0000000 ]
  distance:    0.0281636
  band:
  - # 1
    frequency:    0.3028415340
  - # 2
    frequency:    0.7591971257
  - # 3
    frequency:    1.3420818059
  - # 4
    frequency:    2.3098254683
  - # 5
    frequency:    2.5460715307
  - # 6
    frequency:    3.3979670488
  - # 7
    frequency:    3.4700772955
  - # 8
    frequency:    3.8958457776
  - # 9
    frequency:    3.9896653938
  - # 10
    frequency:    4.2605181042
  - # 11
    frequency:    6.0596481427
  - # 12
    frequency:    6.8071181062
  - # 13
    frequency:    6.9645725117
  - # 14
    frequency:    7.0769569315
  - # 15
    frequency:    9.7671633356
  - # 16
    frequency:   10.2437755907
  - # 17
    frequency:   14.1780748594
  - # 18
    frequency:   42.8348362509

- q-position: [    0.0959596,    0.0000000,    0.0000000 ]
  distance:    0.0297283
  band:
  - # 1
    frequency:    0.3348422784
  - # 2
    frequency:    0.8027105411
  - # 3
    frequency:    1.4140560407
  - # 4
    frequency:    2.3122720125
  - # 5
    frequency:    2.5711480381
  - # 6
    frequency:    3.3899942332
  - # 7
    frequency:    3.4660582473
  - # 8
    frequency:    3.8906761423
  - # 9
    frequency:    3.9886993157
  - # 10
    frequency:    4.2825850299
  - # 11
    frequency:    6.0502961301
  - # 12
    frequency:    6.7829519953
  - # 13
    frequency:    6.9499566134
  - # 14
    frequency:    7.0812259099
  - # 15
    frequency:    9.7628615085
  - # 16
    frequency:   10.2883400337
  - # 17
    frequency:   14.1487322163
  - # 18
    frequency:   42.8101561765

- q-position: [    0.1010101,    0.0000000,    0.0000000 ]
  distance:    0.0312929
  band:
  - # 1
    frequency:    0.3681163457
  - # 2
    frequency:    0.8463757920
  - # 3
    frequency:    1.4855535716
  - # 4
    frequency:    2.3148553687
  - # 5
    frequency:    2.5967132179
  - # 6
    frequency:    3.3822273778
  - # 7
    frequency:    3.4616925095
  - # 8
    frequency:    3.8856576578
  - # 9
    frequency:    3.9878644646
  - # 10
    frequency:    4.3052661624
  - # 11
    frequency:    6.0408110558
  - # 12
    frequency:    6.7576443773
  - # 13
    frequency:    6.9345353953
  - # 14
    frequency:    7.0858773341
  - # 15
    frequency:    9.7584852683
  - # 16
    frequency:   10.3343462871
  - # 17
    frequency:   14.1183832093
  - # 18
    frequency:   42.7843915114

- q-position: [    0.1060606,    0.0000000,    0.0000000 ]
  distance:    0.0328576
  band:
  - # 1
    frequency:    0.4026172652
  - # 2
    frequency:    0.8901841896
  - # 3
    frequency:    1.5565319081
  - # 4
    frequency:    2.3175713516
  - # 5
    frequency:    2.6226371152
  - # 6
    frequency:    3.3747560148
  - # 7
    frequency:    3.4569680176
  - # 8
    frequency:    3.8808356031
  - # 9
    frequency:    3.9871797996
  - # 10
    frequency:    4.3285319224
  - # 11
    frequency:    6.0312296787
  - # 12
    frequency:    6.7312229444
  - # 13
    frequency:    6.9183626635
  - # 14
    frequency:    7.0908852298
  - # 15
    frequency:    9.7540576069
  - # 16
    frequency:   10.3816688113
  - # 17
    frequency:   14.0871157116
  - # 18
    frequency:   42.7575792190

- q-position: [    0.1111111,    0.0000000,    0.0000000 ]
  distance:    0.0344222
  band:
  - # 1
    frequency:    0.4382993550
  - # 2
    frequency:    0.9341246026
  - # 3
    frequency:    1.6269450875
  - # 4
    frequency:    2.3204143009
  - # 5
    frequency:    2.6487785502
  - # 6
    frequency:    3.3676809217
  - # 7
    frequency:    3.4518742390
  - # 8
    frequency:    3.8762589377
  - # 9
    frequency:    3.9866628434
  - # 10
    frequency:    4.3523533635
  - # 11
    frequency:    6.0215872506
  - # 12
    frequency:    6.7037173207
  - # 13
    frequency:    6.9014806965
  - # 14
    frequency:    7.0962373736
  - # 15
    frequency:    9.7496021479
  - # 16
    frequency:   10.4301805656
  - # 17
    frequency:   14.0550212777
  - # 18
    frequency:   42.7297575614

- q-position: [    0.1161616,    0.0000000,    0.0000000 ]
  distance:    0.0359868
  band:
  - # 1
    frequency:    0.4751175715
  - # 2
    frequency:    0.9781833606
  - # 3
    frequency:    1.6967433120
  - # 4
    frequency:    2.3233768933
  - # 5
    frequency:    2.6749827850
  - # 6
    frequency:    3.3611166955
  - # 7
    frequency:    3.4464024407
  - # 8
    frequency:    3.8719803620
  - # 9
    frequency:    3.9863294325
  - # 10
    frequency:    4.3767021096
  - # 11
    frequency:    6.0119174680
  - # 12
    frequency:    6.6751591583
  - # 13
    frequency:    6.8839250478
  - # 14
    frequency:    7.1019304499
  - # 15
    frequency:    9.7451430565
  - # 16
    frequency:   10.4797532614
  - # 17
    frequency:   14.0221950613
  - # 18
    frequency:   42.7009660180

- q-position: [    0.1212121,    0.0000000,    0.0000000 ]
  distance:    0.0375515
  band:
  - # 1
    frequency:    0.5130273279
  - # 2
    frequency:    1.0223441592
  - # 3
    frequency:    1.7658725565
  - # 4
    frequency:    2.3264499462
  - # 5
    frequency:    2.7010789871
  - # 6
    frequency:    3.3551944286
  - # 7
    frequency:    3.4405459431
  - # 8
    frequency:    3.8680564973
  - # 9
    frequency:    3.9861934964
  - # 10
    frequency:    4.4015502765
  - # 11
    frequency:    6.0022524532
  - # 12
    frequency:    6.6455822407
  - # 13
    frequency:    6.8657273517
  - # 14
    frequency:    7.1079671925
  - # 15
    frequency:    9.7407049442
  - # 16
    frequency:   10.5302575688
  - # 17
    frequency:   13.9887357397
  - # 18
    frequency:   42.6712452030

- q-position: [    0.1262626,    0.0000000,    0.0000000 ]
  distance:    0.0391161
  band:
  - # 1
    frequency:    0.5519842903
  - # 2
    frequency:    1.0665879654
  - # 3
    frequency:    1.8342741413
  - # 4
    frequency:    2.3296222141
  - # 5
    frequency:    2.7268777311
  - # 6
    frequency:    3.3500642498
  - # 7
    frequency:    3.4343003551
  - # 8
    frequency:    3.8645481872
  - # 9
    frequency:    3.9862668727
  - # 10
    frequency:    4.4268703858
  - # 11
    frequency:    5.9926227568
  - # 12
    frequency:    6.6150225917
  - # 13
    frequency:    6.8469170327
  - # 14
    frequency:    7.1143546108
  - # 15
    frequency:    9.7363127713
  - # 16
    frequency:   10.5815632789
  - # 17
    frequency:   13.9547454456
  - # 18
    frequency:   42.6406367800

- q-position: [    0.1313131,    0.0000000,    0.0000000 ]
  distance:    0.0406808
  band:
  - # 1
    frequency:    0.5919441582
  - # 2
    frequency:    1.1108929223
  - # 3
    frequency:    1.9018842610
  - # 4
    frequency:    2.3328801776
  - # 5
    frequency:    2.7521689915
  - # 6
    frequency:    3.3458972860
  - # 7
    frequency:    3.4276637898
  - # 8
    frequency:    3.8615209272
  - # 9
    frequency:    3.9865591613
  - # 10
    frequency:    4.4526352746
  - # 11
    frequency:    5.9830573806
  - # 12
    frequency:    6.5835185882
  - # 13
    frequency:    6.8275223927
  - # 14
    frequency:    7.1211028288
  - # 15
    frequency:    9.7319917444
  - # 16
    frequency:   10.6335394219
  - # 17
    frequency:   13.9203297091
  - # 18
    frequency:   42.6091833760

- q-position: [    0.1363636,    0.0000000,    0.0000000 ]
  distance:    0.0422454
  band:
  - # 1
    frequency:    0.6328624371
  - # 2
    frequency:    1.1552342503
  - # 3
    frequency:    1.9686334508
  - # 4
    frequency:    2.3362078282
  - # 5
    frequency:    2.7767213800
  - # 6
    frequency:    3.3428863090
  - # 7
    frequency:    3.4206370582
  - # 8
    frequency:    3.8590454237
  - # 9
    frequency:    3.9870776217
  - # 10
    frequency:    4.4788180063
  - # 11
    frequency:    5.9735838127
  - # 12
    frequency:    6.5511110783
  - # 13
    frequency:    6.8075713319
  - # 14
    frequency:    7.1282242828
  - # 15
    frequency:    9.7277672124
  - # 16
    frequency:   10.6860543410
  - # 17
    frequency:   13.8855974093
  - # 18
    frequency:   42.5769284939

- q-position: [    0.1414141,    0.0000000,    0.0000000 ]
  distance:    0.0438101
  band:
  - # 1
    frequency:    0.6746942060
  - # 2
    frequency:    1.1995841436
  - # 3
    frequency:    2.0344459643
  - # 4
    frequency:    2.3395864496
  - # 5
    frequency:    2.8002837691
  - # 6
    frequency:    3.3412439606
  - # 7
    frequency:    3.4132238445
  - # 8
    frequency:    3.8571982825
  - # 9
    frequency:    3.9878271138
  - # 10
    frequency:    4.5053917826
  - # 11
    frequency:    5.9642280742
  - # 12
    frequency:    6.5178435006
  - # 13
    frequency:    6.7870918482
  - # 14
    frequency:    7.1357331328
  - # 15
    frequency:    9.7236645597
  - # 16
    frequency:   10.7389757261
  - # 17
    frequency:   13.8506607379
  - # 18
    frequency:   42.5439164234

- q-position: [    0.1464646,    0.0000000,    0.0000000 ]
  distance:    0.0453747
  band:
  - # 1
    frequency:    0.7173938857
  - # 2
    frequency:    1.2439116575
  - # 3
    frequency:    2.0992390145
  - # 4
    frequency:    2.3429943988
  - # 5
    frequency:    2.8225908132
  - # 6
    frequency:    3.3411971045
  - # 7
    frequency:    3.4054308632
  - # 8
    frequency:    3.8560628176
  - # 9
    frequency:    3.9888100811
  - # 10
    frequency:    4.5323298583
  - # 11
    frequency:    5.9550147725
  - # 12
    frequency:    6.4837620052
  - # 13
    frequency:    6.7661123975
  - # 14
    frequency:    7.1436448086
  - # 15
    frequency:    9.7197090990
  - # 16
    frequency:   10.7921706050
  - # 17
    frequency:   13.8156351742
  - # 18
    frequency:   42.5101921520

- q-position: [    0.1515152,    0.0000000,    0.0000000 ]
  distance:    0.0469394
  band:
  - # 1
    frequency:    0.7609150097
  - # 2
    frequency:    1.2881825818
  - # 3
    frequency:    2.1629217988
  - # 4
    frequency:    2.3464068938
  - # 5
    frequency:    2.8433740226
  - # 6
    frequency:    3.3429757580
  - # 7
    frequency:    3.3972680039
  - # 8
    frequency:    3.8557299552
  - # 9
    frequency:    3.9900265752
  - # 10
    frequency:    4.5596054608
  - # 11
    frequency:    5.9459671576
  - # 12
    frequency:    6.4489155736
  - # 13
    frequency:    6.7446621653
  - # 14
    frequency:    7.1519756414
  - # 15
    frequency:    9.7159259621
  - # 16
    frequency:   10.8455052981
  - # 17
    frequency:   13.7806394712
  - # 18
    frequency:   42.4758012749

- q-position: [    0.1565657,    0.0000000,    0.0000000 ]
  distance:    0.0485040
  band:
  - # 1
    frequency:    0.8052100000
  - # 2
    frequency:    1.3323592944
  - # 3
    frequency:    2.2253941779
  - # 4
    frequency:    2.3497958129
  - # 5
    frequency:    2.8623795887
  - # 6
    frequency:    3.3467955855
  - # 7
    frequency:    3.3887484682
  - # 8
    frequency:    3.8562991871
  - # 9
    frequency:    3.9914743178
  - # 10
    frequency:    4.5871917112
  - # 11
    frequency:    5.9371071805
  - # 12
    frequency:    6.4133561362
  - # 13
    frequency:    6.7227712796
  - # 14
    frequency:    7.1607425526
  - # 15
    frequency:    9.7123399912
  - # 16
    frequency:   10.8988453372
  - # 17
    frequency:   13.7457956518
  - # 18
    frequency:   42.4407899043

- q-position: [    0.1616162,    0.0000000,    0.0000000 ]
  distance:    0.0500687
  band:
  - # 1
    frequency:    0.8502299487
  - # 2
    frequency:    1.3764005858
  - # 3
    frequency:    2.2865447871
  - # 4
    frequency:    2.3531295184
  - # 5
    frequency:    2.8793927575
  - # 6
    frequency:    3.3528344679
  - # 7
    frequency:    3.3798889027
  - # 8
    frequency:    3.8578794886
  - # 9
    frequency:    3.9931487955
  - # 10
    frequency:    4.6150615506
  - # 11
    frequency:    5.9284555495
  - # 12
    frequency:    6.3771386837
  - # 13
    frequency:    6.7004709862
  - # 14
    frequency:    7.1699627819
  - # 15
    frequency:    9.7089756311
  - # 16
    frequency:   10.9520553544
  - # 17
    frequency:   13.7112290108
  - # 18
    frequency:   42.4052045798

- q-position: [    0.1666667,    0.0000000,    0.0000000 ]
  distance:    0.0516333
  band:
  - # 1
    frequency:    0.8959244056
  - # 2
    frequency:    1.4202614413
  - # 3
    frequency:    2.3462482114
  - # 4
    frequency:    2.3563727191
  - # 5
    frequency:    2.8942662395
  - # 6
    frequency:    3.3612061661
  - # 7
    frequency:    3.3707095326
  - # 8
    frequency:    3.8605900637
  - # 9
    frequency:    3.9950433822
  - # 10
    frequency:    4.6431876672
  - # 11
    frequency:    5.9200317821
  - # 12
    frequency:    6.3403213713
  - # 13
    frequency:    6.6777937988
  - # 14
    frequency:    7.1796536446
  - # 15
    frequency:    9.7058568214
  - # 16
    frequency:   11.0049989472
  - # 17
    frequency:   13.6770681184
  - # 18
    frequency:   42.3690921777

- q-position: [    0.1717172,    0.0000000,    0.0000000 ]
  distance:    0.0531979
  band:
  - # 1
    frequency:    0.9422411716
  - # 2
    frequency:    1.4638927649
  - # 3
    frequency:    2.3594863952
  - # 4
    frequency:    2.4043605999
  - # 5
    frequency:    2.9069478586
  - # 6
    frequency:    3.3612342992
  - # 7
    frequency:    3.3719367179
  - # 8
    frequency:    3.8645607059
  - # 9
    frequency:    3.9971494861
  - # 10
    frequency:    4.6715424259
  - # 11
    frequency:    5.9118542512
  - # 12
    frequency:    6.3029656103
  - # 13
    frequency:    6.6547736346
  - # 14
    frequency:    7.1898323115
  - # 15
    frequency:    9.7030068919
  - # 16
    frequency:   11.0575385308
  - # 17
    frequency:   13.6434448159
  - # 18
    frequency:   42.3324998217

- q-position: [    0.1767677,    0.0000000,    0.0000000 ]
  distance:    0.0547626
  band:
  - # 1
    frequency:    0.9891260966
  - # 2
    frequency:    1.5072410194
  - # 3
    frequency:    2.3624278173
  - # 4
    frequency:    2.4607126576
  - # 5
    frequency:    2.9175021067
  - # 6
    frequency:    3.3514909996
  - # 7
    frequency:    3.3849502676
  - # 8
    frequency:    3.8699314723
  - # 9
    frequency:    3.9994567144
  - # 10
    frequency:    4.7000977981
  - # 11
    frequency:    5.9039402214
  - # 12
    frequency:    6.2651361456
  - # 13
    frequency:    6.6314459423
  - # 14