nqpoint: 300    
npath: 3      
segment_nqpoint:
- 100
- 100
- 100
labels:
- [ 'G', 'M' ]
- [ 'M', 'K' ]
- [ 'K', 'G' ]
reciprocal_lattice:
- [   0.31231550,   0.18031544,   0.00000000 ] # a*
- [   0.00000000,   0.36063088,   0.00000000 ] # b*
- [   0.00000000,   0.00000000,   0.03713377 ] # c*
natom: 8      
lattice:
- [     3.201890369263984,     0.000000000000000,     0.000000000000000 ] # a
- [    -1.600945184631992,     2.772918399883455,     0.000000000000000 ] # b
- [     0.000000000000000,     0.000000000000000,    26.929664569761563 ] # c
points:
- symbol: C # 1
  coordinates: [  0.000000000000000,  0.000000000000000,  0.527831168156114 ]
  mass: 12.010700
- symbol: C # 2
  coordinates: [  0.333332985432215,  0.666666983183674,  0.621123281232282 ]
  mass: 12.010700
- symbol: C # 3
  coordinates: [  0.666666984744047,  0.333332985985145,  0.391762367665946 ]
  mass: 12.010700
- symbol: N # 4
  coordinates: [  0.333332985432215,  0.666666983183674,  0.665796060077711 ]
  mass: 14.006700
- symbol: N # 5
  coordinates: [  0.666666984744047,  0.333332985985145,  0.438289495602719 ]
  mass: 14.006700
- symbol: S # 6
  coordinates: [  0.666666984744047,  0.333332985985145,  0.334203939922289 ]
  mass: 32.065000
- symbol: Ti # 7
  coordinates: [  0.333332985432215,  0.666666983183674,  0.485565157629178 ]
  mass: 47.867000
- symbol: Ti # 8
  coordinates: [  0.666666984744047,  0.333332985985145,  0.569292006879809 ]
  mass: 47.867000

phonon:
- q-position: [    0.0000000,    0.0000000,    0.0000000 ]
  distance:    0.0000000
  band:
  - # 1
    frequency:   -1.6856614894
  - # 2
    frequency:   -1.6856614894
  - # 3
    frequency:   -0.0000047095
  - # 4
    frequency:   -0.0000013861
  - # 5
    frequency:    0.0000049457
  - # 6
    frequency:    0.9558971579
  - # 7
    frequency:    0.9558971579
  - # 8
    frequency:    5.6545764112
  - # 9
    frequency:    5.6545764112
  - # 10
    frequency:    5.8716545892
  - # 11
    frequency:    7.2399643870
  - # 12
    frequency:    7.2399643870
  - # 13
    frequency:    7.9576278016
  - # 14
    frequency:    7.9576278016
  - # 15
    frequency:    9.0387892464
  - # 16
    frequency:   10.2764689778
  - # 17
    frequency:   13.6623647814
  - # 18
    frequency:   13.6623647814
  - # 19
    frequency:   16.9116765342
  - # 20
    frequency:   16.9116765342
  - # 21
    frequency:   17.7143101979
  - # 22
    frequency:   27.2115064414
  - # 23
    frequency:   57.3824014283
  - # 24
    frequency:   61.0105527852

- q-position: [    0.0050505,    0.0000000,    0.0000000 ]
  distance:    0.0018214
  band:
  - # 1
    frequency:   -1.6839138634
  - # 2
    frequency:   -1.6827897650
  - # 3
    frequency:   -0.2096383573
  - # 4
    frequency:    0.0907723891
  - # 5
    frequency:    0.2515926674
  - # 6
    frequency:    0.9587273753
  - # 7
    frequency:    0.9627170034
  - # 8
    frequency:    5.6551942054
  - # 9
    frequency:    5.6552301254
  - # 10
    frequency:    5.8716451928
  - # 11
    frequency:    7.2414839439
  - # 12
    frequency:    7.2421637728
  - # 13
    frequency:    7.9579750262
  - # 14
    frequency:    7.9586624657
  - # 15
    frequency:    9.0387623134
  - # 16
    frequency:   10.2774399958
  - # 17
    frequency:   13.6626182508
  - # 18
    frequency:   13.6628980885
  - # 19
    frequency:   16.9126186710
  - # 20
    frequency:   16.9127131236
  - # 21
    frequency:   17.7142018262
  - # 22
    frequency:   27.2114666945
  - # 23
    frequency:   57.3814383854
  - # 24
    frequency:   61.0105142740

- q-position: [    0.0101010,    0.0000000,    0.0000000 ]
  distance:    0.0036427
  band:
  - # 1
    frequency:   -1.6786799876
  - # 2
    frequency:   -1.6741895593
  - # 3
    frequency:   -0.2704130689
  - # 4
    frequency:    0.1812177652
  - # 5
    frequency:    0.3878530462
  - # 6
    frequency:    0.9672228269
  - # 7
    frequency:    0.9829824532
  - # 8
    frequency:    5.6570248885
  - # 9
    frequency:    5.6571853157
  - # 10
    frequency:    5.8716347510
  - # 11
    frequency:    7.2460319261
  - # 12
    frequency:    7.2487497693
  - # 13
    frequency:    7.9590171694
  - # 14
    frequency:    7.9617610113
  - # 15
    frequency:    9.0386825576
  - # 16
    frequency:   10.2803442516
  - # 17
    frequency:   13.6633774288
  - # 18
    frequency:   13.6644965837
  - # 19
    frequency:   16.9154367562
  - # 20
    frequency:   16.9158140839
  - # 21
    frequency:   17.7138759391
  - # 22
    frequency:   27.2113472427
  - # 23
    frequency:   57.3785512167
  - # 24
    frequency:   61.0103986552

- q-position: [    0.0151515,    0.0000000,    0.0000000 ]
  distance:    0.0054641
  band:
  - # 1
    frequency:   -1.6699866064
  - # 2
    frequency:   -1.6599034046
  - # 3
    frequency:   -0.3024241489
  - # 4
    frequency:    0.2709866179
  - # 5
    frequency:    0.5147696707
  - # 6
    frequency:    0.9814027806
  - # 7
    frequency:    1.0161709374
  - # 8
    frequency:    5.6599999790
  - # 9
    frequency:    5.6604242296
  - # 10
    frequency:    5.8716772391
  - # 11
    frequency:    7.2535762755
  - # 12
    frequency:    7.2596857472
  - # 13
    frequency:    7.9607556909
  - # 14
    frequency:    7.9669071775
  - # 15
    frequency:    9.0385531870
  - # 16
    frequency:   10.2851554246
  - # 17
    frequency:   13.6646386361
  - # 18
    frequency:   13.6671559981
  - # 19
    frequency:   16.9201059048
  - # 20
    frequency:   16.9209530742
  - # 21
    frequency:   17.7133302288
  - # 22
    frequency:   27.2111474546
  - # 23
    frequency:   57.3737457938
  - # 24
    frequency:   61.0102056746

- q-position: [    0.0202020,    0.0000000,    0.0000000 ]
  distance:    0.0072855
  band:
  - # 1
    frequency:   -1.6578774257
  - # 2
    frequency:   -1.6399945502
  - # 3
    frequency:   -0.3191629237
  - # 4
    frequency:    0.3596846546
  - # 5
    frequency:    0.6396240847
  - # 6
    frequency:    1.0013145375
  - # 7
    frequency:    1.0615938995
  - # 8
    frequency:    5.6640041323
  - # 9
    frequency:    5.6649176242
  - # 10
    frequency:    5.8718649553
  - # 11
    frequency:    7.2640635824
  - # 12
    frequency:    7.2749101914
  - # 13
    frequency:    7.9631931968
  - # 14
    frequency:    7.9740741241
  - # 15
    frequency:    9.0383798076
  - # 16
    frequency:   10.2918298960
  - # 17
    frequency:   13.6663957752
  - # 18
    frequency:   13.6708692458
  - # 19
    frequency:   16.9265849394
  - # 20
    frequency:   16.9280864667
  - # 21
    frequency:   17.7125608758
  - # 22
    frequency:   27.2108662809
  - # 23
    frequency:   57.3670318739
  - # 24
    frequency:   61.0099349140

- q-position: [    0.0252525,    0.0000000,    0.0000000 ]
  distance:    0.0091068
  band:
  - # 1
    frequency:   -1.6424118222
  - # 2
    frequency:   -1.6145363906
  - # 3
    frequency:   -0.3258838757
  - # 4
    frequency:    0.4468524184
  - # 5
    frequency:    0.7636679336
  - # 6
    frequency:    1.0270521353
  - # 7
    frequency:    1.1186219029
  - # 8
    frequency:    5.6688736588
  - # 9
    frequency:    5.6706252743
  - # 10
    frequency:    5.8723315977
  - # 11
    frequency:    7.2774191132
  - # 12
    frequency:    7.2943360721
  - # 13
    frequency:    7.9663337055
  - # 14
    frequency:    7.9832248098
  - # 15
    frequency:    9.0381708073
  - # 16
    frequency:   10.3003071255
  - # 17
    frequency:   13.6686403821
  - # 18
    frequency:   13.6756264676
  - # 19
    frequency:   16.9348168323
  - # 20
    frequency:   16.9371537551
  - # 21
    frequency:   17.7115625889
  - # 22
    frequency:   27.2105022596
  - # 23
    frequency:   57.3584230562
  - # 24
    frequency:   61.0095858002

- q-position: [    0.0303030,    0.0000000,    0.0000000 ]
  distance:    0.0109282
  band:
  - # 1
    frequency:   -1.6236630692
  - # 2
    frequency:   -1.5835993136
  - # 3
    frequency:   -0.3247735333
  - # 4
    frequency:    0.5319519613
  - # 5
    frequency:    0.8862776830
  - # 6
    frequency:    1.0587728072
  - # 7
    frequency:    1.1869179053
  - # 8
    frequency:    5.6743954140
  - # 9
    frequency:    5.6774966636
  - # 10
    frequency:    5.8732554095
  - # 11
    frequency:    7.2935468399
  - # 12
    frequency:    7.3178500962
  - # 13
    frequency:    7.9701830322
  - # 14
    frequency:    7.9943124980
  - # 15
    frequency:    9.0379378811
  - # 16
    frequency:   10.3105101839
  - # 17
    frequency:   13.6713616973
  - # 18
    frequency:   13.6814150903
  - # 19
    frequency:   16.9447293165
  - # 20
    frequency:   16.9480781180
  - # 21
    frequency:   17.7103286605
  - # 22
    frequency:   27.2100535236
  - # 23
    frequency:   57.3479367228
  - # 24
    frequency:   61.0091576159

- q-position: [    0.0353535,    0.0000000,    0.0000000 ]
  distance:    0.0127496
  band:
  - # 1
    frequency:   -1.6017161162
  - # 2
    frequency:   -1.5472363093
  - # 3
    frequency:   -0.3163592896
  - # 4
    frequency:    0.6143715040
  - # 5
    frequency:    1.0059665958
  - # 6
    frequency:    1.0966981337
  - # 7
    frequency:    1.2665753317
  - # 8
    frequency:    5.6803077187
  - # 9
    frequency:    5.6854718433
  - # 10
    frequency:    5.8748605719
  - # 11
    frequency:    7.3123294628
  - # 12
    frequency:    7.3453119475
  - # 13
    frequency:    7.9747493034
  - # 14
    frequency:    8.0072813659
  - # 15
    frequency:    9.0376966918
  - # 16
    frequency:   10.3223464460
  - # 17
    frequency:   13.6745467557
  - # 18
    frequency:   13.6882199022
  - # 19
    frequency:   16.9562356565
  - # 20
    frequency:   16.9607671339
  - # 21
    frequency:   17.7088510366
  - # 22
    frequency:   27.2095178104
  - # 23
    frequency:   57.3355939617
  - # 24
    frequency:   61.0086495152

- q-position: [    0.0404040,    0.0000000,    0.0000000 ]
  distance:    0.0145709
  band:
  - # 1
    frequency:   -1.5766649842
  - # 2
    frequency:   -1.5054686078
  - # 3
    frequency:   -0.2999324031
  - # 4
    frequency:    0.6934650925
  - # 5
    frequency:    1.1209703368
  - # 6
    frequency:    1.1410811519
  - # 7
    frequency:    1.3579307345
  - # 8
    frequency:    5.6863062163
  - # 9
    frequency:    5.6944824342
  - # 10
    frequency:    5.8774137589
  - # 11
    frequency:    7.3336284136
  - # 12
    frequency:    7.3765536273
  - # 13
    frequency:    7.9800436170
  - # 14
    frequency:    8.0220671884
  - # 15
    frequency:    9.0374676580
  - # 16
    frequency:   10.3357084444
  - # 17
    frequency:   13.6781804922
  - # 18
    frequency:   13.6960231421
  - # 19
    frequency:   16.9692355685
  - # 20
    frequency:   16.9751136363
  - # 21
    frequency:   17.7071204014
  - # 22
    frequency:   27.2088924744
  - # 23
    frequency:   57.3214194747
  - # 24
    frequency:   61.0080605409

- q-position: [    0.0454545,    0.0000000,    0.0000000 ]
  distance:    0.0163923
  band:
  - # 1
    frequency:   -1.5486098557
  - # 2
    frequency:   -1.4582722598
  - # 3
    frequency:   -0.2733739757
  - # 4
    frequency:    0.7686425225
  - # 5
    frequency:    1.1921229535
  - # 6
    frequency:    1.2301132343
  - # 7
    frequency:    1.4608402831
  - # 8
    frequency:    5.6920586083
  - # 9
    frequency:    5.7044527478
  - # 10
    frequency:    5.8812117421
  - # 11
    frequency:    7.3572838239
  - # 12
    frequency:    7.4113789971
  - # 13
    frequency:    7.9860808649
  - # 14
    frequency:    8.0385980660
  - # 15
    frequency:    9.0372768681
  - # 16
    frequency:   10.3504748835
  - # 17
    frequency:   13.6822458640
  - # 18
    frequency:   13.7048046026
  - # 19
    frequency:   16.9836162789
  - # 20
    frequency:   16.9909967026
  - # 21
    frequency:   17.7051262735
  - # 22
    frequency:   27.2081745028
  - # 23
    frequency:   57.3054414699
  - # 24
    frequency:   61.0073896454

- q-position: [    0.0505051,    0.0000000,    0.0000000 ]
  distance:    0.0182137
  band:
  - # 1
    frequency:   -1.5176539540
  - # 2
    frequency:   -1.4055660198
  - # 3
    frequency:   -0.2319332378
  - # 4
    frequency:    0.8395018993
  - # 5
    frequency:    1.2498457288
  - # 6
    frequency:    1.3336223150
  - # 7
    frequency:    1.5739083030
  - # 8
    frequency:    5.6972315528
  - # 9
    frequency:    5.7153009999
  - # 10
    frequency:    5.8865566181
  - # 11
    frequency:    7.3831144432
  - # 12
    frequency:    7.4495636006
  - # 13
    frequency:    7.9928807340
  - # 14
    frequency:    8.0567951582
  - # 15
    frequency:    9.0371571197
  - # 16
    frequency:   10.3665118095
  - # 17
    frequency:   13.6867239858
  - # 18
    frequency:   13.7145417435
  - # 19
    frequency:   16.9992537065
  - # 20
    frequency:   17.0082827620
  - # 21
    frequency:   17.7028571160
  - # 22
    frequency:   27.2073605339
  - # 23
    frequency:   57.2876915396
  - # 24
    frequency:   61.0066357138

- q-position: [    0.0555556,    0.0000000,    0.0000000 ]
  distance:    0.0200350
  band:
  - # 1
    frequency:   -1.4839003095
  - # 2
    frequency:   -1.3472002478
  - # 3
    frequency:   -0.1622634967
  - # 4
    frequency:    0.9059534576
  - # 5
    frequency:    1.3139733647
  - # 6
    frequency:    1.4329269997
  - # 7
    frequency:    1.6946897195
  - # 8
    frequency:    5.7015287601
  - # 9
    frequency:    5.7269405863
  - # 10
    frequency:    5.8937195153
  - # 11
    frequency:    7.4109174926
  - # 12
    frequency:    7.4908548137
  - # 13
    frequency:    8.0004688981
  - # 14
    frequency:    8.0765733836
  - # 15
    frequency:    9.0371490928
  - # 16
    frequency:   10.3836739244
  - # 17
    frequency:   13.6915942771
  - # 18
    frequency:   13.7252098169
  - # 19
    frequency:   17.0160137530
  - # 20
    frequency:   17.0268268133
  - # 21
    frequency:   17.7003004561
  - # 22
    frequency:   27.2064468797
  - # 23
    frequency:   57.2682045240
  - # 24
    frequency:   61.0057975896

- q-position: [    0.0606061,    0.0000000,    0.0000000 ]
  distance:    0.0218564
  band:
  - # 1
    frequency:   -1.4474484983
  - # 2
    frequency:   -1.2829458666
  - # 3
    frequency:    0.0930073671
  - # 4
    frequency:    0.9682587518
  - # 5
    frequency:    1.3838954907
  - # 6
    frequency:    1.5296902933
  - # 7
    frequency:    1.8206455748
  - # 8
    frequency:    5.7047317114
  - # 9
    frequency:    5.7392813932
  - # 10
    frequency:    5.9029012914
  - # 11
    frequency:    7.4404684532
  - # 12
    frequency:    7.5349723403
  - # 13
    frequency:    8.0088783983
  - # 14
    frequency:    8.0978420398
  - # 15
    frequency:    9.0373026678
  - # 16
    frequency:   10.4018060326
  - # 17
    frequency:   13.6968346195
  - # 18
    frequency:   13.7367820000
  - # 19
    frequency:   17.0337536870
  - # 20
    frequency:   17.0464737368
  - # 21
    frequency:   17.6974430156
  - # 22
    frequency:   27.2054295518
  - # 23
    frequency:   57.2470183628
  - # 24
    frequency:   61.0048741023

- q-position: [    0.0656566,    0.0000000,    0.0000000 ]
  distance:    0.0236778
  band:
  - # 1
    frequency:   -1.4083914093
  - # 2
    frequency:   -1.2124814705
  - # 3
    frequency:    0.2287630249
  - # 4
    frequency:    1.0269521375
  - # 5
    frequency:    1.4587481995
  - # 6
    frequency:    1.6251665477
  - # 7
    frequency:    1.9497672063
  - # 8
    frequency:    5.7067285217
  - # 9
    frequency:    5.7522311139
  - # 10
    frequency:    5.9142046832
  - # 11
    frequency:    7.4715208117
  - # 12
    frequency:    7.5816090481
  - # 13
    frequency:    8.0181511802
  - # 14
    frequency:    8.1205052896
  - # 15
    frequency:    9.0376784005
  - # 16
    frequency:   10.4207446016
  - # 17
    frequency:   13.7024215226
  - # 18
    frequency:   13.7492295356
  - # 19
    frequency:   17.0523236033
  - # 20
    frequency:   17.0670596869
  - # 21
    frequency:   17.6942708502
  - # 22
    frequency:   27.2043042919
  - # 23
    frequency:   57.2241739346
  - # 24
    frequency:   61.0038640970

- q-position: [    0.0707071,    0.0000000,    0.0000000 ]
  distance:    0.0254992
  band:
  - # 1
    frequency:   -1.3668120452
  - # 2
    frequency:   -1.1353745750
  - # 3
    frequency:    0.3257668237
  - # 4
    frequency:    1.0826923354
  - # 5
    frequency:    1.5375638411
  - # 6
    frequency:    1.7201155378
  - # 7
    frequency:    2.0806437812
  - # 8
    frequency:    5.7075193092
  - # 9
    frequency:    5.7656965451
  - # 10
    frequency:    5.9276295677
  - # 11
    frequency:    7.5038058377
  - # 12
    frequency:    7.6304321278
  - # 13
    frequency:    8.0283397076
  - # 14
    frequency:    8.1444624515
  - # 15
    frequency:    9.0383491651
  - # 16
    frequency:   10.4403194142
  - # 17
    frequency:   13.7083302966
  - # 18
    frequency:   13.7625218779
  - # 19
    frequency:   17.0715679412
  - # 20
    frequency:   17.0884135505
  - # 21
    frequency:   17.6907694958
  - # 22
    frequency:   27.2030666059
  - # 23
    frequency:   57.1997148851
  - # 24
    frequency:   61.0027664655

- q-position: [    0.0757576,    0.0000000,    0.0000000 ]
  distance:    0.0273205
  band:
  - # 1
    frequency:   -1.3227802982
  - # 2
    frequency:   -1.0510471080
  - # 3
    frequency:    0.4143554914
  - # 4
    frequency:    1.1361246311
  - # 5
    frequency:    1.6194095219
  - # 6
    frequency:    1.8149371304
  - # 7
    frequency:    2.2123106192
  - # 8
    frequency:    5.7071980247
  - # 9
    frequency:    5.7795848381
  - # 10
    frequency:    5.9430914360
  - # 11
    frequency:    7.5370325527
  - # 12
    frequency:    7.6810845641
  - # 13
    frequency:    8.0395084765
  - # 14
    frequency:    8.1696080206
  - # 15
    frequency:    9.0394019638
  - # 16
    frequency:   10.4603552917
  - # 17
    frequency:   13.7145352291
  - # 18
    frequency:   13.7766268433
  - # 19
    frequency:   17.0913270435
  - # 20
    frequency:   17.1103584555
  - # 21
    frequency:   17.6869241229
  - # 22
    frequency:   27.2017118035
  - # 23
    frequency:   57.1736874462
  - # 24
    frequency:   61.0015801783

- q-position: [    0.0808081,    0.0000000,    0.0000000 ]
  distance:    0.0291419
  band:
  - # 1
    frequency:   -1.2763495593
  - # 2
    frequency:   -0.9586984395
  - # 3
    frequency:    0.5009807756
  - # 4
    frequency:    1.1877994482
  - # 5
    frequency:    1.7034687271
  - # 6
    frequency:    1.9098110330
  - # 7
    frequency:    2.3440943487
  - # 8
    frequency:    5.7059216203
  - # 9
    frequency:    5.7938046857
  - # 10
    frequency:    5.9604522830
  - # 11
    frequency:    7.5708881887
  - # 12
    frequency:    7.7331869388
  - # 13
    frequency:    8.0517351189
  - # 14
    frequency:    8.1958313358
  - # 15
    frequency:    9.0409398734
  - # 16
    frequency:   10.4806738633
  - # 17
    frequency:   13.7210097667
  - # 18
    frequency:   13.7915107631
  - # 19
    frequency:   17.1114387395
  - # 20
    frequency:   17.1327133149
  - # 21
    frequency:   17.6827196960
  - # 22
    frequency:   27.2002350417
  - # 23
    frequency:   57.1461402466
  - # 24
    frequency:   61.0003043180

- q-position: [    0.0858586,    0.0000000,    0.0000000 ]
  distance:    0.0309633
  band:
  - # 1
    frequency:   -1.2275529188
  - # 2
    frequency:   -0.8571125764
  - # 3
    frequency:    0.5883850556
  - # 4
    frequency:    1.2381459837
  - # 5
    frequency:    1.7890674912
  - # 6
    frequency:    2.0047914932
  - # 7
    frequency:    2.4755050599
  - # 8
    frequency:    5.7038795439
  - # 9
    frequency:    5.8082674252
  - # 10
    frequency:    5.9795510150
  - # 11
    frequency:    7.6050396347
  - # 12
    frequency:    7.7863396353
  - # 13
    frequency:    8.0651105795
  - # 14
    frequency:    8.2230158070
  - # 15
    frequency:    9.0430840539
  - # 16
    frequency:   10.5010953573
  - # 17
    frequency:   13.7277266976
  - # 18
    frequency:   13.8071386392
  - # 19
    frequency:   17.1317399332
  - # 20
    frequency:   17.1552943896
  - # 21
    frequency:   17.6781411393
  - # 22
    frequency:   27.1986313731
  - # 23
    frequency:   57.1171241144
  - # 24
    frequency:   60.9989381127

- q-position: [    0.0909091,    0.0000000,    0.0000000 ]
  distance:    0.0327846
  band:
  - # 1
    frequency:   -1.1763985800
  - # 2
    frequency:   -0.7441458663
  - # 3
    frequency:    0.6779441095
  - # 4
    frequency:    1.2874791262
  - # 5
    frequency:    1.8756669885
  - # 6
    frequency:    2.0998637013
  - # 7
    frequency:    2.6061685456
  - # 8
    frequency:    5.7012713067
  - # 9
    frequency:    5.8228880435
  - # 10
    frequency:    6.0002257290
  - # 11
    frequency:    7.6391366122
  - # 12
    frequency:    7.8401255864
  - # 13
    frequency:    8.0797376059
  - # 14
    frequency:    8.2510376326
  - # 15
    frequency:    9.0459756602
  - # 16
    frequency:   10.5214403926
  - # 17
    frequency:   13.7346583355
  - # 18
    frequency:   13.8234742991
  - # 19
    frequency:   17.1520681819
  - # 20
    frequency:   17.1779168566
  - # 21
    frequency:   17.6731735074
  - # 22
    frequency:   27.1968957986
  - # 23
    frequency:   57.0866918749
  - # 24
    frequency:   60.9974809698

- q-position: [    0.0959596,    0.0000000,    0.0000000 ]
  distance:    0.0346060
  band:
  - # 1
    frequency:   -1.1228639207
  - # 2
    frequency:   -0.6152770035
  - # 3
    frequency:    0.7701748051
  - # 4
    frequency:    1.3360197521
  - # 5
    frequency:    1.9628425186
  - # 6
    frequency:    2.1949759345
  - # 7
    frequency:    2.7357843553
  - # 8
    frequency:    5.6982936263
  - # 9
    frequency:    5.8375860750
  - # 10
    frequency:    6.0223264587
  - # 11
    frequency:    7.6728175557
  - # 12
    frequency:    7.8941137836
  - # 13
    frequency:    8.0957265563
  - # 14
    frequency:    8.2797640020
  - # 15
    frequency:    9.0497773734
  - # 16
    frequency:   10.5415317495
  - # 17
    frequency:   13.7417767033
  - # 18
    frequency:   13.8404805516
  - # 19
    frequency:   17.1722632463
  - # 20
    frequency:   17.2003963669
  - # 21
    frequency:   17.6678021609
  - # 22
    frequency:   27.1950233250
  - # 23
    frequency:   57.0548981429
  - # 24
    frequency:   60.9959325092

- q-position: [    0.1010101,    0.0000000,    0.0000000 ]
  distance:    0.0364274
  band:
  - # 1
    frequency:   -1.0668873365
  - # 2
    frequency:   -0.4586474833
  - # 3
    frequency:    0.8648481009
  - # 4
    frequency:    1.3839168986
  - # 5
    frequency:    2.0502604456
  - # 6
    frequency:    2.2900576440
  - # 7
    frequency:    2.8640992129
  - # 8
    frequency:    5.6951351684
  - # 9
    frequency:    5.8522863838
  - # 10
    frequency:    6.0457204538
  - # 11
    frequency:    7.7057192304
  - # 12
    frequency:    7.9478638181
  - # 13
    frequency:    8.1131874738
  - # 14
    frequency:    8.3090509173
  - # 15
    frequency:    9.0546740851
  - # 16
    frequency:   10.5611961007
  - # 17
    frequency:   13.7490537148
  - # 18
    frequency:   13.8581193405
  - # 19
    frequency:   17.1921685974
  - # 20
    frequency:   17.2225505797
  - # 21
    frequency:   17.6620129481
  - # 22
    frequency:   27.1930090260
  - # 23
    frequency:   57.0217991118
  - # 24
    frequency:   60.9942925961

- q-position: [    0.1060606,    0.0000000,    0.0000000 ]
  distance:    0.0382487
  band:
  - # 1
    frequency:   -1.0083564876
  - # 2
    frequency:   -0.2216285042
  - # 3
    frequency:    0.9611241615
  - # 4
    frequency:    1.4312669931
  - # 5
    frequency:    2.1376579636
  - # 6
    frequency:    2.3850296124
  - # 7
    frequency:    2.9908894231
  - # 8
    frequency:    5.6919761479
  - # 9
    frequency:    5.8669198273
  - # 10
    frequency:    6.0702928173
  - # 11
    frequency:    7.7374907675
  - # 12
    frequency:    8.0009317054
  - # 13
    frequency:    8.1322177244
  - # 14
    frequency:    8.3387410472
  - # 15
    frequency:    9.0608720315
  - # 16
    frequency:   10.5802656875
  - # 17
    frequency:   13.7564613548
  - # 18
    frequency:   13.8763518971
  - # 19
    frequency:   17.2116328640
  - # 20
    frequency:   17.2442006599
  - # 21
    frequency:   17.6557923939
  - # 22
    frequency:   27.1908481072
  - # 23
    frequency:   56.9874523412
  - # 24
    frequency:   60.9925613731

- q-position: [    0.1111111,    0.0000000,    0.0000000 ]
  distance:    0.0400701
  band:
  - # 1
    frequency:   -0.9470906500
  - # 2
    frequency:    0.3262376973
  - # 3
    frequency:    1.0578445353
  - # 4
    frequency:    1.4781289350
  - # 5
    frequency:    2.2248269381
  - # 6
    frequency:    2.4798096566
  - # 7
    frequency:    3.1159485638
  - # 8
    frequency:    5.6889906012
  - # 9
    frequency:    5.8814237991
  - # 10
    frequency:    6.0959447617
  - # 11
    frequency:    7.7678117680
  - # 12
    frequency:    8.0528770869
  - # 13
    frequency:    8.1528855324
  - # 14
    frequency:    8.3686624582
  - # 15
    frequency:    9.0685954069
  - # 16
    frequency:   10.5985799263
  - # 17
    frequency:   13.7639718551
  - # 18
    frequency:   13.8951388887
  - # 19
    frequency:   17.2305112054
  - # 20
    frequency:   17.2651727268
  - # 21
    frequency:   17.6491278972
  - # 22
    frequency:   27.1885359742
  - # 23
    frequency:   56.9519165434
  - # 24
    frequency:   60.9907392897

- q-position: [    0.1161616,    0.0000000,    0.0000000 ]
  distance:    0.0418915
  band:
  - # 1
    frequency:   -0.8828130893
  - # 2
    frequency:    0.5082948531
  - # 3
    frequency:    1.1538829809
  - # 4
    frequency:    1.5245353351
  - # 5
    frequency:    2.3116015583
  - # 6
    frequency:    2.5743158173
  - # 7
    frequency:    3.2390783163
  - # 8
    frequency:    5.6863499532
  - # 9
    frequency:    5.8957426539
  - # 10
    frequency:    6.1225909242
  - # 11
    frequency:    7.7964124028
  - # 12
    frequency:    8.1032715525
  - # 13
    frequency:    8.1752114669
  - # 14
    frequency:    8.3986296443
  - # 15
    frequency:    9.0780792772
  - # 16
    frequency:   10.6159869362
  - # 17
    frequency:   13.7715578667
  - # 18
    frequency:   13.9144405657
  - # 19
    frequency:   17.2486665933
  - # 20
    frequency:   17.2852992425
  - # 21
    frequency:   17.6420079401
  - # 22
    frequency:   27.1860683026
  - # 23
    frequency:   56.9152513709
  - # 24
    frequency:   60.9888271317

- q-position: [    0.1212121,    0.0000000,    0.0000000 ]
  distance:    0.0437128
  band:
  - # 1
    frequency:   -0.8151057342
  - # 2
    frequency:    0.6394624912
  - # 3
    frequency:    1.2483823490
  - # 4
    frequency:    1.5705006717
  - # 5
    frequency:    2.3978490770
  - # 6
    frequency:    2.6684681230
  - # 7
    frequency:    3.3600811692
  - # 8
    frequency:    5.6842271435
  - # 9
    frequency:    5.9098280173
  - # 10
    frequency:    6.1501565246
  - # 11
    frequency:    7.8230915762
  - # 12
    frequency:    8.1517073066
  - # 13
    frequency:    8.1991517968
  - # 14
    frequency:    8.4284488052
  - # 15
    frequency:    9.0895576203
  - # 16
    frequency:   10.6323449773
  - # 17
    frequency:   13.7791926272
  - # 18
    frequency:   13.9342169031
  - # 19
    frequency:   17.2659709885
  - # 20
    frequency:   17.3044203308
  - # 21
    frequency:   17.6344223143
  - # 22
    frequency:   27.1834411104
  - # 23
    frequency:   56.8775172057
  - # 24
    frequency:   60.9868260466

- q-position: [    0.1262626,    0.0000000,    0.0000000 ]
  distance:    0.0455342
  band:
  - # 1
    frequency:   -0.7433303553
  - # 2
    frequency:    0.7483480145
  - # 3
    frequency:    1.3408193219
  - # 4
    frequency:    1.6160271281
  - # 5
    frequency:    2.4834628996
  - # 6
    frequency:    2.7621895415
  - # 7
    frequency:    3.4787542378
  - # 8
    frequency:    5.6828009665
  - # 9
    frequency:    5.9236389859
  - # 10
    frequency:    6.1785747397
  - # 11
    frequency:    7.8477283572
  - # 12
    frequency:    8.1978048881
  - # 13
    frequency:    8.2245884970
  - # 14
    frequency:    8.4579293704
  - # 15
    frequency:    9.1032457845
  - # 16
    frequency:   10.6475237939
  - # 17
    frequency:   13.7868501217
  - # 18
    frequency:   13.9544277393
  - # 19
    frequency:   17.2823063942
  - # 20
    frequency:   17.3223850162
  - # 21
    frequency:   17.6263623693
  - # 22
    frequency:   27.1806508306
  - # 23
    frequency:   56.8387749528
  - # 24
    frequency:   60.9847375682

- q-position: [    0.1313131,    0.0000000,    0.0000000 ]
  distance:    0.0473556
  band:
  - # 1
    frequency:   -0.6664807156
  - # 2
    frequency:    0.8444933301
  - # 3
    frequency:    1.4309561523
  - # 4
    frequency:    1.6611087471
  - # 5
    frequency:    2.5683574097
  - # 6
    frequency:    2.8554064689
  - # 7
    frequency:    3.5948837558
  - # 8
    frequency:    5.6822604846
  - # 9
    frequency:    5.9371422247
  - # 10
    frequency:    6.2077844356
  - # 11
    frequency:    7.8702830646
  - # 12
    frequency:    8.2412185701
  - # 13
    frequency:    8.2513295093
  - # 14
    frequency:    8.4869027197
  - # 15
    frequency:    9.1193178047
  - # 16
    frequency:   10.6614058560
  - # 17
    frequency:   13.7945052379
  - # 18
    frequency:   13.9750329097
  - # 19
    frequency:   17.2975657687
  - # 20
    frequency:   17.3390523772
  - # 21
    frequency:   17.6178212934
  - # 22
    frequency:   27.1776943834
  - # 23
    frequency:   56.7990858366
  - # 24
    frequency:   60.9825636368

- q-position: [    0.1363636,    0.0000000,    0.0000000 ]
  distance:    0.0491769
  band:
  - # 1
    frequency:   -0.5828750419
  - # 2
    frequency:    0.9323700615
  - # 3
    frequency:    1.5187569694
  - # 4
    frequency:    1.7057343832
  - # 5
    frequency:    2.6524640632
  - # 6
    frequency:    2.9480489557
  - # 7