nqpoint: 300    
npath: 3      
segment_nqpoint:
- 100
- 100
- 100
labels:
- [ 'G', 'M' ]
- [ 'M', 'K' ]
- [ 'K', 'G' ]
reciprocal_lattice:
- [   0.31487541,   0.18179341,   0.00000000 ] # a*
- [   0.00000000,   0.36358681,   0.00000000 ] # b*
- [   0.00000000,   0.00000000,   0.04477663 ] # c*
natom: 5      
lattice:
- [     3.175859253846734,     0.000000000000000,     0.000000000000000 ] # a
- [    -1.587929626923367,     2.750374792675560,     0.000000000000000 ] # b
- [     0.000000000000000,     0.000000000000000,    22.333076280674149 ] # c
points:
- symbol: C # 1
  coordinates: [  0.000000000000000,  0.000000000000000,  0.494764638847874 ]
  mass: 12.010700
- symbol: F # 2
  coordinates: [  0.333332985432215,  0.666666983183674,  0.597010287033850 ]
  mass: 18.998403
- symbol: H # 3
  coordinates: [  0.666666984744047,  0.333332985985145,  0.402989712966150 ]
  mass: 1.007940
- symbol: Ti # 4
  coordinates: [  0.333332985432215,  0.666666983183674,  0.444158527549316 ]
  mass: 47.867000
- symbol: Ti # 5
  coordinates: [  0.666666984744047,  0.333332985985145,  0.543782313349672 ]
  mass: 47.867000

phonon:
- q-position: [    0.0000000,    0.0000000,    0.0000000 ]
  distance:    0.0000000
  band:
  - # 1
    frequency:   -0.0000007495
  - # 2
    frequency:    0.0000001371
  - # 3
    frequency:    0.0000009315
  - # 4
    frequency:    6.1861688910
  - # 5
    frequency:    6.1861688910
  - # 6
    frequency:    7.4846875000
  - # 7
    frequency:    7.4846875000
  - # 8
    frequency:    9.3947435099
  - # 9
    frequency:   13.7874559556
  - # 10
    frequency:   18.0976742889
  - # 11
    frequency:   18.0976742889
  - # 12
    frequency:   18.7667798756
  - # 13
    frequency:   27.4691777219
  - # 14
    frequency:   27.4691777219
  - # 15
    frequency:   28.4682215561

- q-position: [    0.0050505,    0.0000000,    0.0000000 ]
  distance:    0.0018363
  band:
  - # 1
    frequency:   -0.1036502344
  - # 2
    frequency:    0.0994002114
  - # 3
    frequency:    0.1780301768
  - # 4
    frequency:    6.1863591338
  - # 5
    frequency:    6.1871090560
  - # 6
    frequency:    7.4849807893
  - # 7
    frequency:    7.4855460442
  - # 8
    frequency:    9.3946764232
  - # 9
    frequency:   13.7866040505
  - # 10
    frequency:   18.0977982772
  - # 11
    frequency:   18.0979677508
  - # 12
    frequency:   18.7662412699
  - # 13
    frequency:   27.4693165950
  - # 14
    frequency:   27.4697140263
  - # 15
    frequency:   28.4680700138

- q-position: [    0.0101010,    0.0000000,    0.0000000 ]
  distance:    0.0036726
  band:
  - # 1
    frequency:   -0.1067018209
  - # 2
    frequency:    0.1987579284
  - # 3
    frequency:    0.3085674292
  - # 4
    frequency:    6.1869286992
  - # 5
    frequency:    6.1899262158
  - # 6
    frequency:    7.4858581929
  - # 7
    frequency:    7.4881165278
  - # 8
    frequency:    9.3944759202
  - # 9
    frequency:   13.7840498221
  - # 10
    frequency:   18.0981685940
  - # 11
    frequency:   18.0988454973
  - # 12
    frequency:   18.7646263958
  - # 13
    frequency:   27.4697312222
  - # 14
    frequency:   27.4713199262
  - # 15
    frequency:   28.4676156818

- q-position: [    0.0151515,    0.0000000,    0.0000000 ]
  distance:    0.0055089
  band:
  - # 1
    frequency:   -0.0838417284
  - # 2
    frequency:    0.2980306988
  - # 3
    frequency:    0.4424135613
  - # 4
    frequency:    6.1878741153
  - # 5
    frequency:    6.1946104003
  - # 6
    frequency:    7.4873123403
  - # 7
    frequency:    7.4923835645
  - # 8
    frequency:    9.3941442722
  - # 9
    frequency:   13.7797977226
  - # 10
    frequency:   18.0987803103
  - # 11
    frequency:   18.1002996364
  - # 12
    frequency:   18.7619380787
  - # 13
    frequency:   27.4704156445
  - # 14
    frequency:   27.4739863884
  - # 15
    frequency:   28.4668594602

- q-position: [    0.0202020,    0.0000000,    0.0000000 ]
  distance:    0.0073452
  band:
  - # 1
    frequency:    0.0287614003
  - # 2
    frequency:    0.3971761569
  - # 3
    frequency:    0.5786640000
  - # 4
    frequency:    6.1891896499
  - # 5
    frequency:    6.2011451093
  - # 6
    frequency:    7.4893310187
  - # 7
    frequency:    7.4983217123
  - # 8
    frequency:    9.3936852657
  - # 9
    frequency:   13.7738551452
  - # 10
    frequency:   18.0996252631
  - # 11
    frequency:   18.1023170972
  - # 12
    frequency:   18.7581810129
  - # 13
    frequency:   27.4713599856
  - # 14
    frequency:   27.4776983806
  - # 15
    frequency:   28.4658029003

- q-position: [    0.0252525,    0.0000000,    0.0000000 ]
  distance:    0.0091815
  band:
  - # 1
    frequency:    0.1091017308
  - # 2
    frequency:    0.4961520714
  - # 3
    frequency:    0.7162513266
  - # 4
    frequency:    6.1908673911
  - # 5
    frequency:    6.2095074847
  - # 6
    frequency:    7.4918972806
  - # 7
    frequency:    7.5058957700
  - # 8
    frequency:    9.3931042032
  - # 9
    frequency:   13.7662323828
  - # 10
    frequency:   18.1006921325
  - # 11
    frequency:   18.1048797529
  - # 12
    frequency:   18.7533617408
  - # 13
    frequency:   27.4725505351
  - # 14
    frequency:   27.4824349049
  - # 15
    frequency:   28.4644482813

- q-position: [    0.0303030,    0.0000000,    0.0000000 ]
  distance:    0.0110178
  band:
  - # 1
    frequency:    0.1622313688
  - # 2
    frequency:    0.5949163984
  - # 3
    frequency:    0.8545713716
  - # 4
    frequency:    6.1928973577
  - # 5
    frequency:    6.2196685482
  - # 6
    frequency:    7.4949895921
  - # 7
    frequency:    7.5150611816
  - # 8
    frequency:    9.3924079038
  - # 9
    frequency:   13.7569425728
  - # 10
    frequency:   18.1019665487
  - # 11
    frequency:   18.1079645911
  - # 12
    frequency:   18.7474886238
  - # 13
    frequency:   27.4739698633
  - # 14
    frequency:   27.4881690420
  - # 15
    frequency:   28.4627987192

- q-position: [    0.0353535,    0.0000000,    0.0000000 ]
  distance:    0.0128541
  band:
  - # 1
    frequency:    0.2106328066
  - # 2
    frequency:    0.6934273415
  - # 3
    frequency:    0.9932840444
  - # 4
    frequency:    6.1952676361
  - # 5
    frequency:    6.2315934963
  - # 6
    frequency:    7.4985820207
  - # 7
    frequency:    7.5257645392
  - # 8
    frequency:    9.3916047029
  - # 9
    frequency:   13.7460016279
  - # 10
    frequency:   18.1034312281
  - # 11
    frequency:   18.1115439285
  - # 12
    frequency:   18.7405718074
  - # 13
    frequency:   27.4755969669
  - # 14
    frequency:   27.4948680043
  - # 15
    frequency:   28.4608583075

- q-position: [    0.0404040,    0.0000000,    0.0000000 ]
  distance:    0.0146904
  band:
  - # 1
    frequency:    0.2577469171
  - # 2
    frequency:    0.7916434196
  - # 3
    frequency:    1.1321841382
  - # 4
    frequency:    6.1979645422
  - # 5
    frequency:    6.2452420515
  - # 6
    frequency:    7.5026444621
  - # 7
    frequency:    7.5379441706
  - # 8
    frequency:    9.3907044497
  - # 9
    frequency:   13.7334281548
  - # 10
    frequency:   18.1050661376
  - # 11
    frequency:   18.1155856692
  - # 12
    frequency:   18.7326231798
  - # 13
    frequency:   27.4774074445
  - # 14
    frequency:   27.5024931945
  - # 15
    frequency:   28.4586322916

- q-position: [    0.0454545,    0.0000000,    0.0000000 ]
  distance:    0.0165267
  band:
  - # 1
    frequency:    0.3049230103
  - # 2
    frequency:    0.8895235433
  - # 3
    frequency:    1.2711371982
  - # 4
    frequency:    6.2009728035
  - # 5
    frequency:    6.2605688596
  - # 6
    frequency:    7.5071429009
  - # 7
    frequency:    7.5515307991
  - # 8
    frequency:    9.3897185015
  - # 9
    frequency:   13.7192433629
  - # 10
    frequency:   18.1068486851
  - # 11
    frequency:   18.1200536020
  - # 12
    frequency:   18.7236563265
  - # 13
    frequency:   27.4793736990
  - # 14
    frequency:   27.5110002663
  - # 15
    frequency:   28.4561272780

- q-position: [    0.0505051,    0.0000000,    0.0000000 ]
  distance:    0.0183630
  band:
  - # 1
    frequency:    0.3528605298
  - # 2
    frequency:    0.9870271006
  - # 3
    frequency:    1.4100475692
  - # 4
    frequency:    6.2042757586
  - # 5
    frequency:    6.2775239280
  - # 6
    frequency:    7.5120397061
  - # 7
    frequency:    7.5664482614
  - # 8
    frequency:    9.3886597143
  - # 9
    frequency:   13.7034709642
  - # 10
    frequency:   18.1087539346
  - # 11
    frequency:   18.1249077336
  - # 12
    frequency:   18.7136864829
  - # 13
    frequency:   27.4814651665
  - # 14
    frequency:   27.5203391836
  - # 15
    frequency:   28.4533514786

- q-position: [    0.0555556,    0.0000000,    0.0000000 ]
  distance:    0.0201993
  band:
  - # 1
    frequency:    0.4019768620
  - # 2
    frequency:    1.0841140514
  - # 3
    frequency:    1.5488417007
  - # 4
    frequency:    6.2078555696
  - # 5
    frequency:    6.2960530971
  - # 6
    frequency:    7.5172939548
  - # 7
    frequency:    7.5826142681
  - # 8
    frequency:    9.3875424263
  - # 9
    frequency:   13.6861370678
  - # 10
    frequency:   18.1107548444
  - # 11
    frequency:   18.1301046545
  - # 12
    frequency:   18.7027304849
  - # 13
    frequency:   27.4836485685
  - # 14
    frequency:   27.5304542730
  - # 15
    frequency:   28.4503149934

- q-position: [    0.0606061,    0.0000000,    0.0000000 ]
  distance:    0.0220356
  band:
  - # 1
    frequency:    0.4525404543
  - # 2
    frequency:    1.1807450314
  - # 3
    frequency:    1.6874589276
  - # 4
    frequency:    6.2116934440
  - # 5
    frequency:    6.3160985380
  - # 6
    frequency:    7.5228617841
  - # 7
    frequency:    7.5999411932
  - # 8
    frequency:    9.3863824354
  - # 9
    frequency:   13.6672700697
  - # 10
    frequency:   18.1128225270
  - # 11
    frequency:   18.1355979317
  - # 12
    frequency:   18.6908067218
  - # 13
    frequency:   27.4858881848
  - # 14
    frequency:   27.5412842664
  - # 15
    frequency:   28.4470301304

- q-position: [    0.0656566,    0.0000000,    0.0000000 ]
  distance:    0.0238719
  band:
  - # 1
    frequency:    0.5047298252
  - # 2
    frequency:    1.2768814631
  - # 3
    frequency:    1.8258460915
  - # 4
    frequency:    6.2157698620
  - # 5
    frequency:    6.3375992675
  - # 6
    frequency:    7.5286967647
  - # 7
    frequency:    7.6183368793
  - # 8
    frequency:    9.3851969660
  - # 9
    frequency:   13.6469005404
  - # 10
    frequency:   18.1149265262
  - # 11
    frequency:   18.1413385235
  - # 12
    frequency:   18.6779350925
  - # 13
    frequency:   27.4881461457
  - # 14
    frequency:   27.5527623278
  - # 15
    frequency:   28.4435117663

- q-position: [    0.0707071,    0.0000000,    0.0000000 ]
  distance:    0.0257082
  band:
  - # 1
    frequency:    0.5586637229
  - # 2
    frequency:    1.3724856745
  - # 3
    frequency:    1.9639542308
  - # 4
    frequency:    6.2200648050
  - # 5
    frequency:    6.3604916758
  - # 6
    frequency:    7.5347502952
  - # 7
    frequency:    7.6377054468
  - # 8
    frequency:    9.3840046258
  - # 9
    frequency:   13.6250611124
  - # 10
    frequency:   18.1170351115
  - # 11
    frequency:   18.1472752115
  - # 12
    frequency:   18.6641369690
  - # 13
    frequency:   27.4903827394
  - # 14
    frequency:   27.5648160624
  - # 15
    frequency:   28.4397777456

- q-position: [    0.0757576,    0.0000000,    0.0000000 ]
  distance:    0.0275445
  band:
  - # 1
    frequency:    0.6144183478
  - # 2
    frequency:    1.4675210230
  - # 3
    frequency:    2.1017364331
  - # 4
    frequency:    6.2245579823
  - # 5
    frequency:    6.3847100578
  - # 6
    frequency:    7.5409720107
  - # 7
    frequency:    7.6579480966
  - # 8
    frequency:    9.3828253480
  - # 9
    frequency:   13.6017863698
  - # 10
    frequency:   18.1191155863
  - # 11
    frequency:   18.1533550414
  - # 12
    frequency:   18.6494351698
  - # 13
    frequency:   27.4925567329
  - # 14
    frequency:   27.5773675031
  - # 15
    frequency:   28.4358493188

- q-position: [    0.0808081,    0.0000000,    0.0000000 ]
  distance:    0.0293808
  band:
  - # 1
    frequency:    0.6720381236
  - # 2
    frequency:    1.5619520224
  - # 3
    frequency:    2.2391463693
  - # 4
    frequency:    6.2292290531
  - # 5
    frequency:    6.4101871427
  - # 6
    frequency:    7.5473102038
  - # 7
    frequency:    7.6789638976
  - # 8
    frequency:    9.3816803193
  - # 9
    frequency:   13.5771127403
  - # 10
    frequency:   18.1211346060
  - # 11
    frequency:   18.1595237660
  - # 12
    frequency:   18.6338539486
  - # 13
    frequency:   27.4946257026
  - # 14
    frequency:   27.5903330750
  - # 15
    frequency:   28.4317516168

- q-position: [    0.0858586,    0.0000000,    0.0000000 ]
  distance:    0.0312170
  band:
  - # 1
    frequency:    0.7315429575
  - # 2
    frequency:    1.6557444728
  - # 3
    frequency:    2.3761372390
  - # 4
    frequency:    6.2340578398
  - # 5
    frequency:    6.4368546167
  - # 6
    frequency:    7.5537122533
  - # 7
    frequency:    7.7006505533
  - # 8
    frequency:    9.3805918889
  - # 9
    frequency:   13.5510783921
  - # 10
    frequency:   18.1230585062
  - # 11
    frequency:   18.1657262803
  - # 12
    frequency:   18.6174190049
  - # 13
    frequency:   27.4965463726
  - # 14
    frequency:   27.6036235397
  - # 15
    frequency:   28.4275141542

- q-position: [    0.0909091,    0.0000000,    0.0000000 ]
  distance:    0.0330533
  band:
  - # 1
    frequency:    0.7929334334
  - # 2
    frequency:    1.7488655891
  - # 3
    frequency:    2.5126609755
  - # 4
    frequency:    6.2390245308
  - # 5
    frequency:    6.4646436329
  - # 6
    frequency:    7.5601250553
  - # 7
    frequency:    7.7229051428
  - # 8
    frequency:    9.3795834580
  - # 9
    frequency:   13.5237231364
  - # 10
    frequency:   18.1248536341
  - # 11
    frequency:   18.1719070366
  - # 12
    frequency:   18.6001575234
  - # 13
    frequency:   27.4982749569
  - # 14
    frequency:   27.6171439245
  - # 15
    frequency:   28.4231713535

- q-position: [    0.0959596,    0.0000000,    0.0000000 ]
  distance:    0.0348896
  band:
  - # 1
    frequency:    0.8561947029
  - # 2
    frequency:    1.8412841270
  - # 3
    frequency:    2.6486676185
  - # 4
    frequency:    6.2441098713
  - # 5
    frequency:    6.4934853037
  - # 6
    frequency:    7.5664954553
  - # 7
    frequency:    7.7456248331
  - # 8
    frequency:    9.3786793473
  - # 9
    frequency:   13.4950883362
  - # 10
    frequency:   18.1264866845
  - # 11
    frequency:   18.1780104236
  - # 12
    frequency:   18.5820982570
  - # 13
    frequency:   27.4997675036
  - # 14
    frequency:   27.6307934508
  - # 15
    frequency:   28.4187630717

- q-position: [    0.1010101,    0.0000000,    0.0000000 ]
  distance:    0.0367259
  band:
  - # 1
    frequency:    0.9212994994
  - # 2
    frequency:    1.9329705046
  - # 3
    frequency:    2.7841048016
  - # 4
    frequency:    6.2492953384
  - # 5
    frequency:    6.5233111724
  - # 6
    frequency:    7.5727706755
  - # 7
    frequency:    7.7687075623
  - # 8
    frequency:    9.3779046397
  - # 9
    frequency:   13.4652168226
  - # 10
    frequency:   18.1279250335
  - # 11
    frequency:   18.1839810857
  - # 12
    frequency:   18.5632716703
  - # 13
    frequency:   27.5009802370
  - # 14
    frequency:   27.6444654808
  - # 15
    frequency:   28.4143351066

- q-position: [    0.1060606,    0.0000000,    0.0000000 ]
  distance:    0.0385622
  band:
  - # 1
    frequency:    0.9882105303
  - # 2
    frequency:    2.0238969161
  - # 3
    frequency:    2.9189173187
  - # 4
    frequency:    6.2545633009
  - # 5
    frequency:    6.5540536598
  - # 6
    frequency:    7.5788987345
  - # 7
    frequency:    7.7920526943
  - # 8
    frequency:    9.3772849966
  - # 9
    frequency:   13.4341528180
  - # 10
    frequency:   18.1291370707
  - # 11
    frequency:   18.1897641509
  - # 12
    frequency:   18.5437101742
  - # 13
    frequency:   27.5018698962
  - # 14
    frequency:   27.6580475149
  - # 15
    frequency:   28.4099396458

- q-position: [    0.1111111,    0.0000000,    0.0000000 ]
  distance:    0.0403985
  band:
  - # 1
    frequency:    1.0568824066
  - # 2
    frequency:    2.1140374364
  - # 3
    frequency:    3.0530467526
  - # 4
    frequency:    6.2598971622
  - # 5
    frequency:    6.5856464830
  - # 6
    frequency:    7.5848288560
  - # 7
    frequency:    7.8155616454
  - # 8
    frequency:    9.3768464469
  - # 9
    frequency:   13.4019418668
  - # 10
    frequency:   18.1300925235
  - # 11
    frequency:   18.1953053130
  - # 12
    frequency:   18.5234484993
  - # 13
    frequency:   27.5023940662
  - # 14
    frequency:   27.6714212864
  - # 15
    frequency:   28.4056356105

- q-position: [    0.1161616,    0.0000000,    0.0000000 ]
  distance:    0.0422348
  band:
  - # 1
    frequency:    1.1272632171
  - # 2
    frequency:    2.2033681139
  - # 3
    frequency:    3.1864311503
  - # 4
    frequency:    6.2652814842
  - # 5
    frequency:    6.6180250424
  - # 6
    frequency:    7.5905118626
  - # 7
    frequency:    7.8391384870
  - # 8
    frequency:    9.3766151475
  - # 9
    frequency:   13.3686307737
  - # 10
    frequency:   18.1307627733
  - # 11
    frequency:   18.2005506830
  - # 12
    frequency:   18.5025242902
  - # 13
    frequency:   27.5025114998
  - # 14
    frequency:   27.6844630132
  - # 15
    frequency:   28.4014888277

- q-position: [    0.1212121,    0.0000000,    0.0000000 ]
  distance:    0.0440711
  band:
  - # 1
    frequency:    1.1992958207
  - # 2
    frequency:    2.2918670501
  - # 3
    frequency:    3.3190047407
  - # 4
    frequency:    6.2707020935
  - # 5
    frequency:    6.6511267760
  - # 6
    frequency:    7.5959005524
  - # 7
    frequency:    7.8626905248
  - # 8
    frequency:    9.3766171146
  - # 9
    frequency:   13.3342675490
  - # 10
    frequency:   18.1311211601
  - # 11
    frequency:   18.2054462641
  - # 12
    frequency:   18.4809790627
  - # 13
    frequency:   27.5021824285
  - # 14
    frequency:   27.6970438883
  - # 15
    frequency:   28.3975719490

- q-position: [    0.1262626,    0.0000000,    0.0000000 ]
  distance:    0.0459074
  band:
  - # 1
    frequency:    1.2729189136
  - # 2
    frequency:    2.3795144640
  - # 3
    frequency:    3.4506976902
  - # 4
    frequency:    6.2761461686
  - # 5
    frequency:    6.6848914758
  - # 6
    frequency:    7.6009500559
  - # 7
    frequency:    7.8861288590
  - # 8
    frequency:    9.3768779275
  - # 9
    frequency:   13.2989013597
  - # 10
    frequency:   18.1311432713
  - # 11
    frequency:   18.2099367809
  - # 12
    frequency:   18.4588597865
  - # 13
    frequency:   27.5013688577
  - # 14
    frequency:   27.7090309003
  - # 15
    frequency:   28.3939640193

- q-position: [    0.1313131,    0.0000000,    0.0000000 ]
  distance:    0.0477437
  band:
  - # 1
    frequency:    1.3480679132
  - # 2
    frequency:    2.4662927402
  - # 3
    frequency:    3.5814358955
  - # 4
    frequency:    6.2816023068
  - # 5
    frequency:    6.7192615654
  - # 6
    frequency:    7.6056181691
  - # 7
    frequency:    7.9093689266
  - # 8
    frequency:    9.3774224059
  - # 9
    frequency:   13.2625824872
  - # 10
    frequency:   18.1308072152
  - # 11
    frequency:   18.2139633601
  - # 12
    frequency:   18.4362215945
  - # 13
    frequency:   27.5000348479
  - # 14
    frequency:   27.7202880915
  - # 15
    frequency:   28.3907495868

- q-position: [    0.1363636,    0.0000000,    0.0000000 ]
  distance:    0.0495800
  band:
  - # 1
    frequency:    1.4246756926
  - # 2
    frequency:    2.5521864587
  - # 3
    frequency:    3.7111408149
  - # 4
    frequency:    6.2870605732
  - # 5
    frequency:    6.7541823338
  - # 6
    frequency:    7.6098656626
  - # 7
    frequency:    7.9323310268
  - # 8
    frequency:    9.3782742652
  - # 9
    frequency:   13.2253622892
  - # 10
    frequency:   18.1300938738
  - # 11
    frequency:   18.2174590430
  - # 12
    frequency:   18.4131326323
  - # 13
    frequency:   27.4981467760
  - # 14
    frequency:   27.7306783507
  - # 15
    frequency:   28.3880172526

- q-position: [    0.1414141,    0.0000000,    0.0000000 ]
  distance:    0.0514163
  band:
  - # 1
    frequency:    1.5026731917
  - # 2
    frequency:    2.6371824073
  - # 3
    frequency:    3.8397293406
  - # 4
    frequency:    6.2925125295
  - # 5
    frequency:    6.7896021225
  - # 6
    frequency:    7.6136565630
  - # 7
    frequency:    7.9549408314
  - # 8
    frequency:    9.3794557535
  - # 9
    frequency:   13.1872931664
  - # 10
    frequency:   18.1289871343
  - # 11
    frequency:   18.2203399553
  - # 12
    frequency:   18.3896832186
  - # 13
    frequency:   27.4956735783
  - # 14
    frequency:   27.7400658184
  - # 15
    frequency:   28.3858575818

- q-position: [    0.1464646,    0.0000000,    0.0000000 ]
  distance:    0.0532526
  band:
  - # 1
    frequency:    1.5819899295
  - # 2
    frequency:    2.7212695744
  - # 3
    frequency:    3.9671137156
  - # 4
    frequency:    6.2979512441
  - # 5
    frequency:    6.8254724605
  - # 6
    frequency:    7.6169584057
  - # 7
    frequency:    7.9771298770
  - # 8
    frequency:    9.3809872774
  - # 9
    frequency:   13.1484285314
  - # 10
    frequency:   18.1274740971
  - # 11
    frequency:   18.2224871786
  - # 12
    frequency:   18.3660042679
  - # 13
    frequency:   27.4925869720
  - # 14
    frequency:   27.7483189268
  - # 15
    frequency:   28.3843603508

- q-position: [    0.1515152,    0.0000000,    0.0000000 ]
  distance:    0.0550889
  band:
  - # 1
    frequency:    1.6625544340
  - # 2
    frequency:    2.8044391226
  - # 3
    frequency:    4.0932015005
  - # 4
    frequency:    6.3033712835
  - # 5
    frequency:    6.8617481424
  - # 6
    frequency:    7.6197424566
  - # 7
    frequency:    7.9988360374
  - # 8
    frequency:    9.3828870247
  - # 9
    frequency:   13.1088227804
  - # 10
    frequency:   18.1255452580
  - # 11
    frequency:   18.2237072942
  - # 12
    frequency:   18.3423070011
  - # 13
    frequency:   27.4888616536
  - # 14
    frequency:   27.7553140103
  - # 15
    frequency:   28.3836111919

- q-position: [    0.1565657,    0.0000000,    0.0000000 ]
  distance:    0.0569252
  band:
  - # 1
    frequency:    1.7442946057
  - # 2
    frequency:    2.8866843443
  - # 3
    frequency:    4.2178955971
  - # 4
    frequency:    6.3087686850
  - # 5
    frequency:    6.8983872421
  - # 6
    frequency:    7.6219839032
  - # 7
    frequency:    8.0200039736
  - # 8
    frequency:    9.3851705935
  - # 9
    frequency:   13.0685312657
  - # 10
    frequency:   18.1231946623
  - # 11
    frequency:   18.2236413105
  - # 12
    frequency:   18.3189742276
  - # 13
    frequency:   27.4844754754
  - # 14
    frequency:   27.7609393132
  - # 15
    frequency:   28.3836878102

- q-position: [    0.1616162,    0.0000000,    0.0000000 ]
  distance:    0.0587615
  band:
  - # 1
    frequency:    1.8271380278
  - # 2
    frequency:    2.9680005976
  - # 3
    frequency:    4.3410943361
  - # 4
    frequency:    6.3141409116
  - # 5
    frequency:    6.9353510540
  - # 6
    frequency:    7.6236620111
  - # 7
    frequency:    8.0405855529
  - # 8
    frequency:    9.3878506390
  - # 9
    frequency:   13.0276102680
  - # 10
    frequency:   18.1204200313
  - # 11
    frequency:   18.2215522667
  - # 12
    frequency:   18.2967729052
  - # 13
    frequency:   27.4794095959
  - # 14
    frequency:   27.7650990950
  - # 15
    frequency:   28.3846560669

- q-position: [    0.1666667,    0.0000000,    0.0000000 ]
  distance:    0.0605978
  band:
  - # 1
    frequency:    1.9110122320
  - # 2
    frequency:    3.0483852257
  - # 3
    frequency:    4.4626916386
  - # 4
    frequency:    6.3194867895
  - # 5
    frequency:    6.9726039526
  - # 6
    frequency:    7.6247602478
  - # 7
    frequency:    8.0605402351
  - # 8
    frequency:    9.3909365488
  - # 9
    frequency:   12.9861169676
  - # 10
    frequency:   18.1172228575
  - # 11
    frequency:   18.2159357805
  - # 12
    frequency:   18.2772437025
  - # 13
    frequency:   27.4736486063
  - # 14
    frequency:   27.7677174379
  - # 15
    frequency:   28.3865663270

- q-position: [    0.1717172,    0.0000000,    0.0000000 ]
  distance:    0.0624341
  band:
  - # 1
    frequency:    1.9958449288
  - # 2
    frequency:    3.1278374589
  - # 3
    frequency:    4.5825772615
  - # 4
    frequency:    6.3248064288
  - # 5
    frequency:    7.0101131589
  - # 6
    frequency:    7.6252663707
  - # 7
    frequency:    8.0798354155
  - # 8
    frequency:    9.3944341600
  - # 9
    frequency:   12.9441094143
  - # 10
    frequency:   18.1136084685
  - # 11
    frequency:   18.2046079848
  - # 12
    frequency:   18.2626131207
  - # 13
    frequency:   27.4671806319
  - # 14
    frequency:   27.7687413150
  - # 15
    frequency:   28.3894505097

- q-position: [    0.1767677,    0.0000000,    0.0000000 ]
  distance:    0.0642704
  band:
  - # 1
    frequency:    2.0815642099
  - # 2
    frequency:    3.2063583009
  - # 3
    frequency:    4.7006371414
  - # 4
    frequency:    6.3301011282
  - # 5
    frequency:    7.0478484003
  - # 6
    frequency:    7.6251724810
  - # 7
    frequency:    8.0984467226
  - # 8
    frequency:    9.3983455288
  - # 9
    frequency:   12.9016464931
  - # 10
    frequency:   18.1095860592
  - # 11
    frequency:   18.1869205200
  - # 12
    frequency:   18.2535785005
  - # 13
    frequency:   27.4599974064
  - # 14
    frequency:   27.7681425247
  - # 15
    frequency:   28.3933202371

- q-position: [    0.1818182,    0.0000000,    0.0000000 ]
  distance:    0.0661067
  band:
  - # 1
    frequency:    2.1680987252
  - # 2
    frequency:    3.2839504018
  - # 3
    frequency:    4.8167538476
  - # 4
    frequency:    6.3353732645
  - # 5
    frequency:    7.0857814505
  - # 6
    frequency:    7.6244750404
  - # 7
    frequency:    8.1163582615
  - # 8
    frequency:    9.4026687621
  - # 9
    frequency:   12.8587878875
  - # 10
    frequency:   18.1051686907
  - # 11
    frequency:   18.1648325065
  - # 12
    frequency:   18.2482359916
  - # 13
    frequency:   27.4520943217
  - # 14
    frequency:   27.7659182305
  - # 15
    frequency:   28.3981663410

- q-position: [    0.1868687,    0.0000000,    0.0000000 ]
  distance:    0.0679430
  band:
  - # 1
    frequency:    2.2553778403
  - # 2
    frequency:    3.3606179180
  - # 3
    frequency:    4.9308071626
  - # 4
    frequency:    6.3406261690
  - # 5
    frequency:    7.1238855333
  - # 6
    frequency:    7.6231748538
  - # 7
    frequency:    8.1335628035
  - # 8
    frequency:    9.4073979207
  - # 9
    frequency:   12.8155940366
  - # 10
    frequency:   18.1003732551
  - # 11
    frequency:   18.1403897687
  - # 12
    frequency:   18.2446012085
  - # 13
    frequency:   27.4434704521
  - # 14
    frequency:   27.7620900450
  - # 15
    frequency:   28.4039597889

- q-position: [    0.1919192,    0.0000000,    0.0000000 ]
  distance:    0.0697793
  band:
  - # 1
    frequency:    2.3433317765
  - # 2
    frequency:    3.4363663608
  - # 3
    frequency:    5.0426748025
  - # 4
    frequency:    6.3458639901
  - # 5
    frequency:    7.1621345744
  - # 6
    frequency:    7.6212770150
  - # 7
    frequency:    8.1500619184
  - # 8
    frequency:    9.4125229974
  - # 9
    frequency:   12.7721260883
  - # 10
    frequency:   18.0952204079
  - # 11
    frequency:   18.1147071371
  - # 12
    frequency:   18.2416267460
  - # 13
    frequency:   27.4341285522
  - # 14
    frequency:   27.7567018140
  - # 15
    frequency:   28.4106538746

- q-position: [    0.1969697,    0.0000000,    0.0000000 ]
  distance:    0.0716156
  band:
  - # 1
    frequency:    2.4318917349
  - # 2
    frequency:    3.5112024366
  - # 3
    frequency:    5.1522332949
  - # 4
    frequency:    6.3510915462
  - # 5
    frequency:    7.2005022879
  - # 6
    frequency:    7.6187908177
  - # 7
    frequency:    8.1658660529
  - # 8
    frequency:    9.4180299728
  - # 9
    frequency:   12.7284458452
  - # 10
    frequency:   18.0883297404
  - # 11
    frequency:   18.0897344653
  - # 12
    frequency:   18.2388406416
  - # 13
    frequency:   27.4240750310
  - # 14
    frequency:   27.7498164272
  - # 15
    frequency:   28.4181873473

- q-position: [    0.2020202,    0.0000000,    0.0000000 ]
  distance:    0.0734519
  band:
  - # 1
    frequency:    2.5209900058
  - # 2
    frequency:    3.5851338785
  - # 3
    frequency:    5.2593590247
  - # 4
    frequency:    6.3563141685
  - # 5
    frequency:    7.2389610833
  - # 6
    frequency:    7.6157296317
  - # 7
    frequency:    8.1809945598
  - # 8
    frequency:    9.4239009435
  - # 9
    frequency:   12.6846157053
  - # 10
    frequency:   18.0615459487
  - # 11
    frequency:   18.0839432689
  - # 12
    frequency:   18.2360331240
  - # 13
    frequency:   27.4133199015
  - # 14
    frequency:   27.7415120722
  - # 15
    frequency:   28.4264880618

- q-position: [    0.2070707,    0.0000000,    0.0000000 ]
  distance:    0.0752882
  band:
  - # 1
    frequency:    2.6105600639
  - # 2
    frequency:    3.6581692723
  - # 3
    frequency:    5.3639294593
  - # 4
    frequency:    6.3615375371
  - # 5
    frequency:    7.2774807882
  - # 6
    frequency:    7.6121107451
  - # 7
    frequency:    8.1954756845
  - # 8
    frequency:    9.4301143191
  - # 9
    frequency:   12.6406985943
  - # 10
    frequency:   18.0345286704
  - # 11
    frequency:   18.0778780167
  - # 12
    frequency:   18.2331149430
  - # 13
    frequency:   27.4018767068
  - # 14
    frequency:   27.7318783517
  - # 15
    frequency:   28.4354767347

- q-position: [    0.2121212,    0.0000000,    0.0000000 ]
  distance:    0.0771245
  band:
  - # 1
    frequency:    2.7005366502
  - # 2