nqpoint: 300    
npath: 3      
segment_nqpoint:
- 100
- 100
- 100
labels:
- [ 'G', 'M' ]
- [ 'M', 'K' ]
- [ 'K', 'G' ]
reciprocal_lattice:
- [   0.31487541,   0.18179341,   0.00000000 ] # a*
- [   0.00000000,   0.36358681,   0.00000000 ] # b*
- [   0.00000000,   0.00000000,   0.04477663 ] # c*
natom: 5      
lattice:
- [     3.175859253846734,     0.000000000000000,     0.000000000000000 ] # a
- [    -1.587929626923367,     2.750374792675560,     0.000000000000000 ] # b
- [     0.000000000000000,     0.000000000000000,    22.333076280674149 ] # c
points:
- symbol: C # 1
  coordinates: [  0.000000000000000,  0.000000000000000,  0.494764638847874 ]
  mass: 12.010700
- symbol: F # 2
  coordinates: [  0.333332985432215,  0.666666983183674,  0.597010287033850 ]
  mass: 18.998403
- symbol: H # 3
  coordinates: [  0.666666984744047,  0.333332985985145,  0.402989712966150 ]
  mass: 1.007940
- symbol: Ti # 4
  coordinates: [  0.333332985432215,  0.666666983183674,  0.444158527549316 ]
  mass: 47.867000
- symbol: Ti # 5
  coordinates: [  0.666666984744047,  0.333332985985145,  0.543782313349672 ]
  mass: 47.867000

phonon:
- q-position: [    0.0000000,    0.0000000,    0.0000000 ]
  distance:    0.0000000
  band:
  - # 1
    frequency:   -0.0000046334
  - # 2
    frequency:    0.0000002176
  - # 3
    frequency:    0.0000055651
  - # 4
    frequency:    6.5731614436
  - # 5
    frequency:    6.5731614436
  - # 6
    frequency:    7.5463165404
  - # 7
    frequency:    7.5463165404
  - # 8
    frequency:    9.4132951929
  - # 9
    frequency:   13.7680513006
  - # 10
    frequency:   18.2875573385
  - # 11
    frequency:   18.2875573385
  - # 12
    frequency:   18.8427516658
  - # 13
    frequency:   28.0840335606
  - # 14
    frequency:   28.0840335606
  - # 15
    frequency:   28.5502673888

- q-position: [    0.0050505,    0.0000000,    0.0000000 ]
  distance:    0.0018363
  band:
  - # 1
    frequency:    0.0018455370
  - # 2
    frequency:    0.0898711572
  - # 3
    frequency:    0.1387924465
  - # 4
    frequency:    6.5728066493
  - # 5
    frequency:    6.5738247476
  - # 6
    frequency:    7.5463808759
  - # 7
    frequency:    7.5471275717
  - # 8
    frequency:    9.4131912320
  - # 9
    frequency:   13.7672442653
  - # 10
    frequency:   18.2873286317
  - # 11
    frequency:   18.2874924189
  - # 12
    frequency:   18.8420292889
  - # 13
    frequency:   28.0834730070
  - # 14
    frequency:   28.0836137410
  - # 15
    frequency:   28.5504448783

- q-position: [    0.0101010,    0.0000000,    0.0000000 ]
  distance:    0.0036726
  band:
  - # 1
    frequency:    0.0073787469
  - # 2
    frequency:    0.1797376752
  - # 3
    frequency:    0.2775774541
  - # 4
    frequency:    6.5717446498
  - # 5
    frequency:    6.5758118012
  - # 6
    frequency:    7.5465729800
  - # 7
    frequency:    7.5495565182
  - # 8
    frequency:    9.4128803632
  - # 9
    frequency:   13.7648243609
  - # 10
    frequency:   18.2866433181
  - # 11
    frequency:   18.2872975876
  - # 12
    frequency:   18.8398642092
  - # 13
    frequency:   28.0817925923
  - # 14
    frequency:   28.0823576708
  - # 15
    frequency:   28.5509740480

- q-position: [    0.0151515,    0.0000000,    0.0000000 ]
  distance:    0.0055089
  band:
  - # 1
    frequency:    0.0165893856
  - # 2
    frequency:    0.2695948296
  - # 3
    frequency:    0.4163471884
  - # 4
    frequency:    6.5699825673
  - # 5
    frequency:    6.5791140744
  - # 6
    frequency:    7.5468901667
  - # 7
    frequency:    7.5535909635
  - # 8
    frequency:    9.4123656293
  - # 9
    frequency:   13.7607951871
  - # 10
    frequency:   18.2855038153
  - # 11
    frequency:   18.2869726305
  - # 12
    frequency:   18.8362625691
  - # 13
    frequency:   28.0789960518
  - # 14
    frequency:   28.0802753894
  - # 15
    frequency:   28.5518451305

- q-position: [    0.0202020,    0.0000000,    0.0000000 ]
  distance:    0.0073452
  band:
  - # 1
    frequency:    0.0294604715
  - # 2
    frequency:    0.3594377270
  - # 3
    frequency:    0.5550930267
  - # 4
    frequency:    6.5675321767
  - # 5
    frequency:    6.5837174987
  - # 6
    frequency:    7.5473280289
  - # 7
    frequency:    7.5592103004
  - # 8
    frequency:    9.4116521049
  - # 9
    frequency:   13.7551627279
  - # 10
    frequency:   18.2839141425
  - # 11
    frequency:   18.2865172021
  - # 12
    frequency:   18.8312345723
  - # 13
    frequency:   28.0750896023
  - # 14
    frequency:   28.0773832228
  - # 15
    frequency:   28.5530422640

- q-position: [    0.0252525,    0.0000000,    0.0000000 ]
  distance:    0.0091815
  band:
  - # 1
    frequency:    0.0459683975
  - # 2
    frequency:    0.4492612217
  - # 3
    frequency:    0.6938051737
  - # 4
    frequency:    6.5644097662
  - # 5
    frequency:    6.5896026857
  - # 6
    frequency:    7.5478805398
  - # 7
    frequency:    7.5663858610
  - # 8
    frequency:    9.4107469015
  - # 9
    frequency:   13.7479353275
  - # 10
    frequency:   18.2818799060
  - # 11
    frequency:   18.2859308437
  - # 12
    frequency:   18.8247944324
  - # 13
    frequency:   28.0700819289
  - # 14
    frequency:   28.0737032119
  - # 15
    frequency:   28.5545440805

- q-position: [    0.0303030,    0.0000000,    0.0000000 ]
  distance:    0.0110178
  band:
  - # 1
    frequency:    0.0660830941
  - # 2
    frequency:    0.5390598346
  - # 3
    frequency:    0.8324722862
  - # 4
    frequency:    6.5606359486
  - # 5
    frequency:    6.5967452250
  - # 6
    frequency:    7.5485401887
  - # 7
    frequency:    7.5750810964
  - # 8
    frequency:    9.4096591727
  - # 9
    frequency:   13.7391236586
  - # 10
    frequency:   18.2794082787
  - # 11
    frequency:   18.2852130061
  - # 12
    frequency:   18.8169603033
  - # 13
    frequency:   28.0639841664
  - # 14
    frequency:   28.0692623854
  - # 15
    frequency:   28.5563244550

- q-position: [    0.0353535,    0.0000000,    0.0000000 ]
  distance:    0.0128541
  band:
  - # 1
    frequency:    0.0897682317
  - # 2
    frequency:    0.6288276737
  - # 3
    frequency:    0.9710811128
  - # 4
    frequency:    6.5562354290
  - # 5
    frequency:    6.6051160541
  - # 6
    frequency:    7.5492981456
  - # 7
    frequency:    7.5852518062
  - # 8
    frequency:    9.4084001200
  - # 9
    frequency:   13.7287406817
  - # 10
    frequency:   18.2765079733
  - # 11
    frequency:   18.2843630804
  - # 12
    frequency:   18.8077541902
  - # 13
    frequency:   28.0568098757
  - # 14
    frequency:   28.0640919325
  - # 15
    frequency:   28.5583533606

- q-position: [    0.0404040,    0.0000000,    0.0000000 ]
  distance:    0.0146904
  band:
  - # 1
    frequency:    0.1169814587
  - # 2
    frequency:    0.7185583590
  - # 3
    frequency:    1.1096161496
  - # 4
    frequency:    6.5512367354
  - # 5
    frequency:    6.6146818918
  - # 6
    frequency:    7.5501444484
  - # 7
    frequency:    7.5968464138
  - # 8
    frequency:    9.4069829969
  - # 9
    frequency:   13.7168015971
  - # 10
    frequency:   18.2731892102
  - # 11
    frequency:   18.2833804321
  - # 12
    frequency:   18.7972018420
  - # 13
    frequency:   28.0485750146
  - # 14
    frequency:   28.0582263368
  - # 15
    frequency:   28.5605977682

- q-position: [    0.0454545,    0.0000000,    0.0000000 ]
  distance:    0.0165267
  band:
  - # 1
    frequency:    0.1476746696
  - # 2
    frequency:    0.8082449491
  - # 3
    frequency:    1.2480593151
  - # 4
    frequency:    6.5456719201
  - # 5
    frequency:    6.6254057236
  - # 6
    frequency:    7.5510682057
  - # 7
    frequency:    7.6098062888
  - # 8
    frequency:    9.4054231096
  - # 9
    frequency:   13.7033237899
  - # 10
    frequency:   18.2694636794
  - # 11
    frequency:   18.2822644418
  - # 12
    frequency:   18.7853326283
  - # 13
    frequency:   28.0392979031
  - # 14
    frequency:   28.0517025214
  - # 15
    frequency:   28.5630225390

- q-position: [    0.0505051,    0.0000000,    0.0000000 ]
  distance:    0.0183630
  band:
  - # 1
    frequency:    0.1817942978
  - # 2
    frequency:    0.8978798733
  - # 3
    frequency:    1.3863896468
  - # 4
    frequency:    6.5395762395
  - # 5
    frequency:    6.6372473288
  - # 6
    frequency:    7.5520578076
  - # 7
    frequency:    7.6240661107
  - # 8
    frequency:    9.4037378139
  - # 9
    frequency:   13.6883267700
  - # 10
    frequency:   18.2653444963
  - # 11
    frequency:   18.2810145481
  - # 12
    frequency:   18.7721794002
  - # 13
    frequency:   28.0289991838
  - # 14
    frequency:   28.0445590480
  - # 15
    frequency:   28.5655912668

- q-position: [    0.0555556,    0.0000000,    0.0000000 ]
  distance:    0.0201993
  band:
  - # 1
    frequency:    0.2192816275
  - # 2
    frequency:    0.9874548672
  - # 3
    frequency:    1.5245830206
  - # 4
    frequency:    6.5329878189
  - # 5
    frequency:    6.6501638374
  - # 6
    frequency:    7.5531011393
  - # 7
    frequency:    7.6395542751
  - # 8
    frequency:    9.4019465036
  - # 9
    frequency:   13.6718321063
  - # 10
    frequency:   18.2608461528
  - # 11
    frequency:   18.2796302937
  - # 12
    frequency:   18.7577783371
  - # 13
    frequency:   28.0177017766
  - # 14
    frequency:   28.0368353999
  - # 15
    frequency:   28.5682670405

- q-position: [    0.0606061,    0.0000000,    0.0000000 ]
  distance:    0.0220356
  band:
  - # 1
    frequency:    0.2600731191
  - # 2
    frequency:    1.0769609142
  - # 3
    frequency:    1.6626118955
  - # 4
    frequency:    6.5259473095
  - # 5
    frequency:    6.6641103044
  - # 6
    frequency:    7.5541857894
  - # 7
    frequency:    7.6561933376
  - # 8
    frequency:    9.4000705898
  - # 9
    frequency:   13.6538633579
  - # 10
    frequency:   18.2559844616
  - # 11
    frequency:   18.2781113728
  - # 12
    frequency:   18.7421687823
  - # 13
    frequency:   28.0054308277
  - # 14
    frequency:   28.0285713633
  - # 15
    frequency:   28.5710131101

- q-position: [    0.0656566,    0.0000000,    0.0000000 ]
  distance:    0.0238719
  band:
  - # 1
    frequency:    0.3041007427
  - # 2
    frequency:    1.1663881914
  - # 3
    frequency:    1.8004450841
  - # 4
    frequency:    6.5184975441
  - # 5
    frequency:    6.6790402913
  - # 6
    frequency:    7.5552992493
  - # 7
    frequency:    7.6739004953
  - # 8
    frequency:    9.3981334672
  - # 9
    frequency:   13.6344460017
  - # 10
    frequency:   18.2507764959
  - # 11
    frequency:   18.2764576785
  - # 12
    frequency:   18.7253930684
  - # 13
    frequency:   27.9922136535
  - # 14
    frequency:   28.0198065136
  - # 15
    frequency:   28.5737934491

- q-position: [    0.0707071,    0.0000000,    0.0000000 ]
  distance:    0.0257082
  band:
  - # 1
    frequency:    0.3512923135
  - # 2
    frequency:    1.2557260222
  - # 3
    frequency:    1.9380475491
  - # 4
    frequency:    6.5106831952
  - # 5
    frequency:    6.6949064421
  - # 6
    frequency:    7.5564290984
  - # 7
    frequency:    7.6925881034
  - # 8
    frequency:    9.3961604641
  - # 9
    frequency:   13.6136073597
  - # 10
    frequency:   18.2452405230
  - # 11
    frequency:   18.2746693476
  - # 12
    frequency:   18.7074963356
  - # 13
    frequency:   27.9780796790
  - # 14
    frequency:   28.0105798028
  - # 15
    frequency:   28.5765732170

- q-position: [    0.0757576,    0.0000000,    0.0000000 ]
  distance:    0.0275445
  band:
  - # 1
    frequency:    0.4015718274
  - # 2
    frequency:    1.3449628347
  - # 3
    frequency:    2.0753802276
  - # 4
    frequency:    6.5025504406
  - # 5
    frequency:    6.7116610451
  - # 6
    frequency:    7.5575631723
  - # 7
    frequency:    7.7121642246
  - # 8
    frequency:    9.3941787728
  - # 9
    frequency:   13.5913765242
  - # 10
    frequency:   18.2393959339
  - # 11
    frequency:   18.2727468008
  - # 12
    frequency:   18.6885263463
  - # 13
    frequency:   27.9630603703
  - # 14
    frequency:   28.0009292396
  - # 15
    frequency:   28.5793191301

- q-position: [    0.0808081,    0.0000000,    0.0000000 ]
  distance:    0.0293808
  band:
  - # 1
    frequency:    0.4548597889
  - # 2
    frequency:    1.4340861269
  - # 3
    frequency:    2.2123998817
  - # 4
    frequency:    6.4941466396
  - # 5
    frequency:    6.7292565721
  - # 6
    frequency:    7.5586897119
  - # 7
    frequency:    7.7325332112
  - # 8
    frequency:    9.3922173561
  - # 9
    frequency:   13.5677842840
  - # 10
    frequency:   18.2332631660
  - # 11
    frequency:   18.2706907762
  - # 12
    frequency:   18.6685332996
  - # 13
    frequency:   27.9471891621
  - # 14
    frequency:   27.9908916481
  - # 15
    frequency:   28.5819997500

- q-position: [    0.0858586,    0.0000000,    0.0000000 ]
  distance:    0.0312170
  band:
  - # 1
    frequency:    0.5110735319
  - # 2
    frequency:    1.5230824382
  - # 3
    frequency:    2.3490589766
  - # 4
    frequency:    6.4855200217
  - # 5
    frequency:    6.7476461853
  - # 6
    frequency:    7.5597974907
  - # 7
    frequency:    7.7535963181
  - # 8
    frequency:    9.3903068250
  - # 9
    frequency:   13.5428630522
  - # 10
    frequency:   18.2268636227
  - # 11
    frequency:   18.2685023489
  - # 12
    frequency:   18.6475696509
  - # 13
    frequency:   27.9305013792
  - # 14
    frequency:   27.9805024939
  - # 15
    frequency:   28.5845857069

- q-position: [    0.0909091,    0.0000000,    0.0000000 ]
  distance:    0.0330533
  band:
  - # 1
    frequency:    0.5701275274
  - # 2
    frequency:    1.6119373290
  - # 3
    frequency:    2.4853055846
  - # 4
    frequency:    6.4767193886
  - # 5
    frequency:    6.7667842091
  - # 6
    frequency:    7.5608759221
  - # 7
    frequency:    7.7752523452
  - # 8
    frequency:    9.3884792848
  - # 9
    frequency:   13.5166467954
  - # 10
    frequency:   18.2202195875
  - # 11
    frequency:   18.2661829336
  - # 12
    frequency:   18.6256899444
  - # 13
    frequency:   27.9130341528
  - # 14
    frequency:   27.9697957611
  - # 15
    frequency:   28.5870498658

- q-position: [    0.0959596,    0.0000000,    0.0000000 ]
  distance:    0.0348896
  band:
  - # 1
    frequency:    0.6319336787
  - # 2
    frequency:    1.7006353662
  - # 3
    frequency:    2.6210833158
  - # 4
    frequency:    6.4677938318
  - # 5
    frequency:    6.7866265579
  - # 6
    frequency:    7.5619151450
  - # 7
    frequency:    7.7973983106
  - # 8
    frequency:    9.3867681431
  - # 9
    frequency:   13.4891709661
  - # 10
    frequency:   18.2133541337
  - # 11
    frequency:   18.2637342592
  - # 12
    frequency:   18.6029506668
  - # 13
    frequency:   27.8948263315
  - # 14
    frequency:   27.9588038704
  - # 15
    frequency:   28.5893674516

- q-position: [    0.1010101,    0.0000000,    0.0000000 ]
  distance:    0.0367259
  band:
  - # 1
    frequency:    0.6964016013
  - # 2
    frequency:    1.7891601173
  - # 3
    frequency:    2.7563312729
  - # 4
    frequency:    6.4587924645
  - # 5
    frequency:    6.8071311208
  - # 6
    frequency:    7.5629060889
  - # 7
    frequency:    7.8199301517
  - # 8
    frequency:    9.3852078770
  - # 9
    frequency:   13.4604724384
  - # 10
    frequency:   18.2062910308
  - # 11
    frequency:   18.2611583005
  - # 12
    frequency:   18.5794101406
  - # 13
    frequency:   27.8759183861
  - # 14
    frequency:   27.9475576255
  - # 15
    frequency:   28.5915161397

- q-position: [    0.1060606,    0.0000000,    0.0000000 ]
  distance:    0.0385622
  band:
  - # 1
    frequency:    0.7634388869
  - # 2
    frequency:    1.8774941514
  - # 3
    frequency:    2.8909840322
  - # 4
    frequency:    6.4497641676
  - # 5
    frequency:    6.8282580968
  - # 6
    frequency:    7.5638405211
  - # 7
    frequency:    7.8427434556
  - # 8
    frequency:    9.3838337540
  - # 9
    frequency:   13.4305894479
  - # 10
    frequency:   18.1990546459
  - # 11
    frequency:   18.2584571458
  - # 12
    frequency:   18.5551284769
  - # 13
    frequency:   27.8563523102
  - # 14
    frequency:   27.9360861801
  - # 15
    frequency:   28.5934761234

- q-position: [    0.1111111,    0.0000000,    0.0000000 ]
  distance:    0.0403985
  band:
  - # 1
    frequency:    0.8329513523
  - # 2
    frequency:    1.9656190478
  - # 3
    frequency:    3.0249716477
  - # 4
    frequency:    6.4407573504
  - # 5
    frequency:    6.8499702824
  - # 6
    frequency:    7.5647110744
  - # 7
    frequency:    7.8657342166
  - # 8
    frequency:    9.3826815042
  - # 9
    frequency:   13.3995615358
  - # 10
    frequency:   18.1916698435
  - # 11
    frequency:   18.2556327595
  - # 12
    frequency:   18.5301676314
  - # 13
    frequency:   27.8361715143
  - # 14
    frequency:   27.9244170174
  - # 15
    frequency:   28.5952301619

- q-position: [    0.1161616,    0.0000000,    0.0000000 ]
  distance:    0.0422348
  band:
  - # 1
    frequency:    0.9048432719
  - # 2
    frequency:    2.0535154119
  - # 3
    frequency:    3.1582196797
  - # 4
    frequency:    6.4318197250
  - # 5
    frequency:    6.8722333088
  - # 6
    frequency:    7.5655112611
  - # 7
    frequency:    7.8887996209
  - # 8
    frequency:    9.3817869416
  - # 9
    frequency:   13.3674294978
  - # 10
    frequency:   18.1841618809
  - # 11
    frequency:   18.2526865726
  - # 12
    frequency:   18.5045916291
  - # 13
    frequency:   27.8154207158
  - # 14
    frequency:   27.9125759381
  - # 15
    frequency:   28.5967636162

- q-position: [    0.1212121,    0.0000000,    0.0000000 ]
  distance:    0.0440711
  band:
  - # 1
    frequency:    0.9790175959
  - # 2
    frequency:    2.1411628991
  - # 3
    frequency:    3.2906492460
  - # 4
    frequency:    6.4229980919
  - # 5
    frequency:    6.8950158307
  - # 6
    frequency:    7.5662354706
  - # 7
    frequency:    7.9118388545
  - # 8
    frequency:    9.3811855324
  - # 9
    frequency:   13.3342353374
  - # 10
    frequency:   18.1765563020
  - # 11
    frequency:   18.2496187761
  - # 12
    frequency:   18.4784670858
  - # 13
    frequency:   27.7941458233
  - # 14
    frequency:   27.9005870517
  - # 15
    frequency:   28.5980644744

- q-position: [    0.1262626,    0.0000000,    0.0000000 ]
  distance:    0.0459074
  band:
  - # 1
    frequency:    1.0553761534
  - # 2
    frequency:    2.2285402446
  - # 3
    frequency:    3.4221770987
  - # 4
    frequency:    6.4143381391
  - # 5
    frequency:    6.9182896648
  - # 6
    frequency:    7.5668789566
  - # 7
    frequency:    7.9347539321
  - # 8
    frequency:    9.3809119130
  - # 9
    frequency:   13.3000222249
  - # 10
    frequency:   18.1688788287
  - # 11
    frequency:   18.2464270754
  - # 12
    frequency:   18.4518642669
  - # 13
    frequency:   27.7723938161
  - # 14
    frequency:   27.8884727697
  - # 15
    frequency:   28.5991233689

- q-position: [    0.1313131,    0.0000000,    0.0000000 ]
  distance:    0.0477437
  band:
  - # 1
    frequency:    1.1338198442
  - # 2
    frequency:    2.3156253020
  - # 3
    frequency:    3.5527157233
  - # 4
    frequency:    6.4058842519
  - # 5
    frequency:    6.9420298809
  - # 6
    frequency:    7.5674378118
  - # 7
    frequency:    7.9574505415
  - # 8
    frequency:    9.3809993604
  - # 9
    frequency:   13.2648344606
  - # 10
    frequency:   18.1611552516
  - # 11
    frequency:   18.2431044101
  - # 12
    frequency:   18.4248591806
  - # 13
    frequency:   27.7502126197
  - # 14
    frequency:   27.8762537994
  - # 15
    frequency:   28.5999335875

- q-position: [    0.1363636,    0.0000000,    0.0000000 ]
  distance:    0.0495800
  band:
  - # 1
    frequency:    1.2142488167
  - # 2
    frequency:    2.4023950866
  - # 3
    frequency:    3.6821734658
  - # 4
    frequency:    6.3976793331
  - # 5
    frequency:    6.9662148437
  - # 6
    frequency:    7.5679089343
  - # 7
    frequency:    7.9798388943
  - # 8
    frequency:    9.3814792218
  - # 9
    frequency:   13.2287174435
  - # 10
    frequency:   18.1534113185
  - # 11
    frequency:   18.2396345499
  - # 12
    frequency:   18.3975377948
  - # 13
    frequency:   27.7276509756
  - # 14
    frequency:   27.8639491368
  - # 15
    frequency:   28.6004910770

- q-position: [    0.1414141,    0.0000000,    0.0000000 ]
  distance:    0.0514163
  band:
  - # 1
    frequency:    1.2965626376
  - # 2
    frequency:    2.4888258265
  - # 3
    frequency:    3.8104546851
  - # 4
    frequency:    6.3897646344
  - # 5
    frequency:    6.9908262056
  - # 6
    frequency:    7.5682899860
  - # 7
    frequency:    8.0018345750
  - # 8
    frequency:    9.3823803128
  - # 9
    frequency:   13.1917176434
  - # 10
    frequency:   18.1456726243
  - # 11
    frequency:   18.2359829563
  - # 12
    frequency:   18.3700049889
  - # 13
    frequency:   27.7047583079
  - # 14
    frequency:   27.8515760600
  - # 15
    frequency:   28.6007944404

- q-position: [    0.1464646,    0.0000000,    0.0000000 ]
  distance:    0.0532526
  band:
  - # 1
    frequency:    1.3806604512
  - # 2
    frequency:    2.5748930184
  - # 3
    frequency:    3.9374599375
  - # 4
    frequency:    6.3821795974
  - # 5
    frequency:    7.0158488506
  - # 6
    frequency:    7.5685793441
  - # 7
    frequency:    8.0233593733
  - # 8
    frequency:    9.3837282995
  - # 9
    frequency:   13.1538825788
  - # 10
    frequency:   18.1379644995
  - # 11
    frequency:   18.2320760228
  - # 12
    frequency:   18.3424051265
  - # 13
    frequency:   27.6815845857
  - # 14
    frequency:   27.8391501236
  - # 15
    frequency:   28.6008449261

- q-position: [    0.1515152,    0.0000000,    0.0000000 ]
  distance:    0.0550889
  band:
  - # 1
    frequency:    1.4664411310
  - # 2
    frequency:    2.6605714897
  - # 3
    frequency:    4.0630861944
  - # 4
    frequency:    6.3749617054
  - # 5
    frequency:    7.0412707853
  - # 6
    frequency:    7.5687760479
  - # 7
    frequency:    8.0443420854
  - # 8
    frequency:    9.3855450780
  - # 9
    frequency:   13.1152607980
  - # 10
    frequency:   18.1303119013
  - # 11
    frequency:   18.2277482720
  - # 12
    frequency:   18.3149746734
  - # 13
    frequency:   27.6581801817
  - # 14
    frequency:   27.8266851549
  - # 15
    frequency:   28.6006464074

- q-position: [    0.1565657,    0.0000000,    0.0000000 ]
  distance:    0.0569252
  band:
  - # 1
    frequency:    1.5538034261
  - # 2
    frequency:    2.7458354647
  - # 3
    frequency:    4.1872270984
  - # 4
    frequency:    6.3681463447
  - # 5
    frequency:    7.0670829746
  - # 6
    frequency:    7.5688797405
  - # 7
    frequency:    8.0647192646
  - # 8
    frequency:    9.3878481755
  - # 9
    frequency:   13.0759018633
  - # 10
    frequency:   18.1227393049
  - # 11
    frequency:   18.2225895987
  - # 12
    frequency:   18.2881947673
  - # 13
    frequency:   27.6345957274
  - # 14
    frequency:   27.8141932544
  - # 15
    frequency:   28.6002053513

- q-position: [    0.1616162,    0.0000000,    0.0000000 ]
  distance:    0.0587615
  band:
  - # 1
    frequency:    1.6426461005
  - # 2
    frequency:    2.8306586348
  - # 3
    frequency:    4.3097732649
  - # 4
    frequency:    6.3617666775
  - # 5
    frequency:    7.0932791180
  - # 6
    frequency:    7.5688906073
  - # 7
    frequency:    8.0844359031
  - # 8
    frequency:    9.3906501918
  - # 9
    frequency:   13.0358563401
  - # 10
    frequency:   18.1152705976
  - # 11
    frequency:   18.2154667453
  - # 12
    frequency:   18.2632695586
  - # 13
    frequency:   27.6108819658
  - # 14
    frequency:   27.8016848011
  - # 15
    frequency:   28.5995307761

- q-position: [    0.1666667,    0.0000000,    0.0000000 ]
  distance:    0.0605978
  band:
  - # 1
    frequency:    1.7328680695
  - # 2
    frequency:    2.9150142327
  - # 3
    frequency:    4.4306126351
  - # 4
    frequency:    6.3558535256
  - # 5
    frequency:    7.1198553591
  - # 6
    frequency:    7.5688093113
  - # 7
    frequency:    8.1034460223
  - # 8
    frequency:    9.3939583066
  - # 9
    frequency:   12.9951757868
  - # 10
    frequency:   18.1079289762
  - # 11
    frequency:   18.2035168248
  - # 12
    frequency:   18.2431325012
  - # 13
    frequency:   27.5870896013
  - # 14
    frequency:   27.7891684659
  - # 15
    frequency:   28.5986341929

- q-position: [    0.1717172,    0.0000000,    0.0000000 ]
  distance:    0.0624341
  band:
  - # 1
    frequency:    1.8243685321
  - # 2
    frequency:    2.9988751084
  - # 3
    frequency:    4.5496308899
  - # 4
    frequency:    6.3504352648
  - # 5
    frequency:    7.1468099209
  - # 6
    frequency:    7.5686369265
  - # 7
    frequency:    8.1217131535
  - # 8
    frequency:    9.3977738757
  - # 9
    frequency:   12.9539127487
  - # 10
    frequency:   18.1007368470
  - # 11
    frequency:   18.1840206823
  - # 12
    frequency:   18.2305728058
  - # 13
    frequency:   27.5632691475
  - # 14
    frequency:   27.7766512334
  - # 15
    frequency:   28.5975295331

- q-position: [    0.1767677,    0.0000000,    0.0000000 ]
  distance:    0.0642704
  band:
  - # 1
    frequency:    1.9170471002
  - # 2
    frequency:    3.0822138077
  - # 3
    frequency:    4.6667119350
  - # 4
    frequency:    6.3455377331
  - # 5
    frequency:    7.1741426568
  - # 6
    frequency:    7.5683748696
  - # 7
    frequency:    8.1392106923
  - # 8
    frequency:    9.4020921366
  - # 9
    frequency:   12.9121207532
  - # 10
    frequency:   18.0937157311
  - # 11
    frequency:   18.1593761452
  - # 12
    frequency:   18.2232620036
  - # 13
    frequency:   27.5394707734
  - # 14
    frequency:   27.7641384358
  - # 15
    frequency:   28.5962330576

- q-position: [    0.1818182,    0.0000000,    0.0000000 ]
  distance:    0.0661067
  band:
  - # 1
    frequency:    2.0108039262
  - # 2
    frequency:    3.1650026512
  - # 3
    frequency:    4.7817384675
  - # 4
    frequency:    6.3411841507
  - # 5
    frequency:    7.2018545075
  - # 6
    frequency:    7.5680248300
  - # 7
    frequency:    8.1559221115
  - # 8
    frequency:    9.4069020413
  - # 9
    frequency:   12.8698543061
  - # 10
    frequency:   18.0868861731
  - # 11
    frequency:   18.1326791108
  - # 12
    frequency:   18.2181726717
  - # 13
    frequency:   27.5157441487
  - # 14
    frequency:   27.7516337997
  - # 15
    frequency:   28.5947632464

- q-position: [    0.1868687,    0.0000000,    0.0000000 ]
  distance:    0.0679430
  band:
  - # 1
    frequency:    2.1055398278
  - # 2
    frequency:    3.2472138134
  - # 3
    frequency:    4.8945926377
  - # 4
    frequency:    6.3373950544
  - # 5
    frequency:    7.2299468495
  - # 6
    frequency:    7.5675886991
  - # 7
    frequency:    8.1718410280
  - # 8
    frequency:    9.4121862277
  - # 9
    frequency:   12.8271688896
  - # 10
    frequency:   18.0802676566
  - # 11
    frequency:   18.1052416174
  - # 12
    frequency:   18.2140601734
  - # 13
    frequency:   27.4921382884
  - # 14
    frequency:   27.7391395071
  - # 15
    frequency:   28.5931406695

- q-position: [    0.1919192,    0.0000000,    0.0000000 ]
  distance:    0.0697793
  band:
  - # 1
    frequency:    2.2011564113
  - # 2
    frequency:    3.3288194007
  - # 3
    frequency:    5.0051568167
  - # 4
    frequency:    6.3341882459
  - # 5
    frequency:    7.2584207244
  - # 6
    frequency:    7.5670684996
  - # 7
    frequency:    8.1869711232
  - # 8
    frequency:    9.4179211337
  - # 9
    frequency:   12.7841209599
  - # 10
    frequency:   18.0738785245
  - # 11
    frequency:   18.0775731998
  - # 12
    frequency:   18.2104811130
  - # 13
    frequency:   27.4687013972
  - # 14
    frequency:   27.7266562736
  - # 15
    frequency:   28.5913878345

- q-position: [    0.1969697,    0.0000000,    0.0000000 ]
  distance:    0.0716156
  band:
  - # 1
    frequency:    2.2975561929
  - # 2
    frequency:    3.4097915279
  - # 3
    frequency:    5.1133144836
  - # 4
    frequency:    6.3315787561
  - # 5
    frequency:    7.2872759358
  - # 6
    frequency:    7.5664663143
  - # 7
    frequency:    8.2013259232
  - # 8
    frequency:    9.4240772521
  - # 9
    frequency:   12.7407679462
  - # 10
    frequency:   18.0499103802
  - # 11
    frequency:   18.0677359067
  - # 12
    frequency:   18.2072636533
  - # 13
    frequency:   27.4454807150
  - # 14
    frequency:   27.7141834428
  - # 15
    frequency:   28.5895290139

- q-position: [    0.2020202,    0.0000000,    0.0000000 ]
  distance:    0.0734519
  band:
  - # 1
    frequency:    2.3946427171
  - # 2
    frequency:    3.4901023909
  - # 3
    frequency:    5.2189512414
  - # 4
    frequency:    6.3295788250
  - # 5
    frequency:    7.3165100038
  - # 6
    frequency:    7.5657842148
  - # 7
    frequency:    8.2149284567
  - # 8
    frequency:    9.4306195136
  - # 9
    frequency:   12.6971682470
  - # 10
    frequency:   18.0223863704
  - # 11
    frequency:   18.0618556539
  - # 12
    frequency:   18.2043376188
  - # 13
    frequency:   27.4225223630
  - # 14
    frequency:   27.7017191003
  - # 15
    frequency:   28.5875900483

- q-position: [    0.2070707,    0.0000000,    0.0000000 ]
  distance:    0.0752882
  band:
  - # 1
    frequency:    2.4923206727
  - # 2
    frequency:    3.5697243369
  - # 3
    frequency:    5.3219559671
  - # 4
    frequency:    6.3281978978
  - # 5
    frequency:    7.3461169721
  - # 6
    frequency:    7.5650241917
  - # 7
    frequency:    8.2278108100
  - # 8
    frequency:    9.4375077813
  - # 9
    frequency:   12.6533812275
  - # 10
    frequency:   17.9950890218
  - # 11
    frequency:   18.0562522792
  - # 12
    frequency:   18.2016763504
  - # 13
    frequency:   27.3998711923
  - # 14
    frequency:   27.6892602047
  - # 15
    frequency:   28.5855981286

- q-position: [    0.2121212,    0.0000000,    0.0000000 ]
  distance:    0.0771245
  band:
  - # 1
    frequency:    2.5904960056
  - # 2