nqpoint: 300    
npath: 3      
segment_nqpoint:
- 100
- 100
- 100
labels:
- [ 'G', 'M' ]
- [ 'M', 'K' ]
- [ 'K', 'G' ]
reciprocal_lattice:
- [   0.29890049,   0.17257028,   0.00000000 ] # a*
- [   0.00000000,   0.34514055,   0.00000000 ] # b*
- [   0.00000000,   0.00000000,   0.03908710 ] # c*
natom: 7      
lattice:
- [     3.345595090079680,     0.000000000000000,     0.000000000000000 ] # a
- [    -1.672797545039839,     2.897370338782384,     0.000000000000000 ] # b
- [     0.000000000000000,     0.000000000000000,    25.583885387331065 ] # c
points:
- symbol: C # 1
  coordinates: [  0.000000000000000,  0.000000000000000,  0.448649102032409 ]
  mass: 12.010700
- symbol: C # 2
  coordinates: [  0.333332985432215,  0.666666983183674,  0.601103346552910 ]
  mass: 12.010700
- symbol: F # 3
  coordinates: [  0.666666984744047,  0.333332985985144,  0.351783939919334 ]
  mass: 18.998403
- symbol: Hf # 4
  coordinates: [  0.333332985432215,  0.666666983183674,  0.403326326960053 ]
  mass: 178.490000
- symbol: Hf # 5
  coordinates: [  0.666666984744047,  0.333332985985144,  0.496352836607201 ]
  mass: 178.490000
- symbol: N # 6
  coordinates: [  0.333332985432215,  0.666666983183674,  0.552258078133982 ]
  mass: 14.006700
- symbol: O # 7
  coordinates: [  0.333332985432215,  0.666666983183674,  0.648216060080666 ]
  mass: 15.999400

phonon:
- q-position: [    0.0000000,    0.0000000,    0.0000000 ]
  distance:    0.0000000
  band:
  - # 1
    frequency:   -0.0000083276
  - # 2
    frequency:   -0.0000004380
  - # 3
    frequency:    0.0000071445
  - # 4
    frequency:    1.5874168343
  - # 5
    frequency:    1.5874168343
  - # 6
    frequency:    3.7784114094
  - # 7
    frequency:    3.7784114094
  - # 8
    frequency:    4.8408353855
  - # 9
    frequency:    4.8408353855
  - # 10
    frequency:    5.4538413228
  - # 11
    frequency:    6.1562498588
  - # 12
    frequency:    6.1562498588
  - # 13
    frequency:    8.1169994828
  - # 14
    frequency:   11.1068705195
  - # 15
    frequency:   16.9896272597
  - # 16
    frequency:   17.1377782699
  - # 17
    frequency:   17.1377782699
  - # 18
    frequency:   18.9245037705
  - # 19
    frequency:   18.9245037705
  - # 20
    frequency:   37.8732512703
  - # 21
    frequency:   68.6354280448

- q-position: [    0.0050505,    0.0000000,    0.0000000 ]
  distance:    0.0017431
  band:
  - # 1
    frequency:    0.0010905966
  - # 2
    frequency:    0.0436566385
  - # 3
    frequency:    0.0899993443
  - # 4
    frequency:    1.5869032471
  - # 5
    frequency:    1.5880858424
  - # 6
    frequency:    3.7781986123
  - # 7
    frequency:    3.7788129118
  - # 8
    frequency:    4.8413768326
  - # 9
    frequency:    4.8417591672
  - # 10
    frequency:    5.4535027656
  - # 11
    frequency:    6.1562494737
  - # 12
    frequency:    6.1566115655
  - # 13
    frequency:    8.1165037109
  - # 14
    frequency:   11.1063883294
  - # 15
    frequency:   16.9894351379
  - # 16
    frequency:   17.1378011689
  - # 17
    frequency:   17.1379516919
  - # 18
    frequency:   18.9243037030
  - # 19
    frequency:   18.9248258126
  - # 20
    frequency:   37.8732700971
  - # 21
    frequency:   68.6342913424

- q-position: [    0.0101010,    0.0000000,    0.0000000 ]
  distance:    0.0034863
  band:
  - # 1
    frequency:    0.0043616948
  - # 2
    frequency:    0.0873088164
  - # 3
    frequency:    0.1799340658
  - # 4
    frequency:    1.5853661230
  - # 5
    frequency:    1.5900938395
  - # 6
    frequency:    3.7775606072
  - # 7
    frequency:    3.7800166201
  - # 8
    frequency:    4.8429990732
  - # 9
    frequency:    4.8445250273
  - # 10
    frequency:    5.4524896421
  - # 11
    frequency:    6.1562486662
  - # 12
    frequency:    6.1576949571
  - # 13
    frequency:    8.1150174115
  - # 14
    frequency:   11.1049422694
  - # 15
    frequency:   16.9888597665
  - # 16
    frequency:   17.1378698301
  - # 17
    frequency:   17.1384711121
  - # 18
    frequency:   18.9237045804
  - # 19
    frequency:   18.9257894380
  - # 20
    frequency:   37.8733265699
  - # 21
    frequency:   68.6308835159

- q-position: [    0.0151515,    0.0000000,    0.0000000 ]
  distance:    0.0052294
  band:
  - # 1
    frequency:    0.0098107191
  - # 2
    frequency:    0.1309507328
  - # 3
    frequency:    0.2697377258
  - # 4
    frequency:    1.5828164731
  - # 5
    frequency:    1.5934439946
  - # 6
    frequency:    3.7764985693
  - # 7
    frequency:    3.7820201019
  - # 8
    frequency:    4.8456958146
  - # 9
    frequency:    4.8491165574
  - # 10
    frequency:    5.4508095731
  - # 11
    frequency:    6.1562484750
  - # 12
    frequency:    6.1594948840
  - # 13
    frequency:    8.1125436337
  - # 14
    frequency:   11.1025338745
  - # 15
    frequency:   16.9879040882
  - # 16
    frequency:   17.1379841461
  - # 17
    frequency:   17.1393340314
  - # 18
    frequency:   18.9227096384
  - # 19
    frequency:   18.9273871624
  - # 20
    frequency:   37.8734206650
  - # 21
    frequency:   68.6252114009

- q-position: [    0.0202020,    0.0000000,    0.0000000 ]
  distance:    0.0069725
  band:
  - # 1
    frequency:    0.0174333309
  - # 2
    frequency:    0.1745738674
  - # 3
    frequency:    0.3593401227
  - # 4
    frequency:    1.5792729838
  - # 5
    frequency:    1.5981424475
  - # 6
    frequency:    3.7750145099
  - # 7
    frequency:    3.7848191862
  - # 8
    frequency:    4.8494566027
  - # 9
    frequency:    4.8555065605
  - # 10
    frequency:    5.4484751878
  - # 11
    frequency:    6.1562506162
  - # 12
    frequency:    6.1620028806
  - # 13
    frequency:    8.1090874592
  - # 14
    frequency:   11.0991657142
  - # 15
    frequency:   16.9865728821
  - # 16
    frequency:   17.1381439383
  - # 17
    frequency:   17.1405364044
  - # 18
    frequency:   18.9213242573
  - # 19
    frequency:   18.9296065711
  - # 20
    frequency:   37.8735523429
  - # 21
    frequency:   68.6172863689

- q-position: [    0.0252525,    0.0000000,    0.0000000 ]
  distance:    0.0087157
  band:
  - # 1
    frequency:    0.0272232075
  - # 2
    frequency:    0.2181655243
  - # 3
    frequency:    0.4486650599
  - # 4
    frequency:    1.5747625389
  - # 5
    frequency:    1.6041996783
  - # 6
    frequency:    3.7731113543
  - # 7
    frequency:    3.7884077989
  - # 8
    frequency:    4.8542668726
  - # 9
    frequency:    4.8636572645
  - # 10
    frequency:    5.4455040263
  - # 11
    frequency:    6.1562574611
  - # 12
    frequency:    6.1652073340
  - # 13
    frequency:    8.1046560037
  - # 14
    frequency:   11.0948414100
  - # 15
    frequency:   16.9848725926
  - # 16
    frequency:   17.1383489580
  - # 17
    frequency:   17.1420728023
  - # 18
    frequency:   18.9195559423
  - # 19
    frequency:   18.9324304077
  - # 20
    frequency:   37.8737215480
  - # 21
    frequency:   68.6071242961

- q-position: [    0.0303030,    0.0000000,    0.0000000 ]
  distance:    0.0104588
  band:
  - # 1
    frequency:    0.0391718185
  - # 2
    frequency:    0.2617072504
  - # 3
    frequency:    0.5376276387
  - # 4
    frequency:    1.5693209957
  - # 5
    frequency:    1.6116326047
  - # 6
    frequency:    3.7707930430
  - # 7
    frequency:    3.7927777506
  - # 8
    frequency:    4.8601080199
  - # 9
    frequency:    4.8735205951
  - # 10
    frequency:    5.4419184263
  - # 11
    frequency:    6.1562720063
  - # 12
    frequency:    6.1690937072
  - # 13
    frequency:    8.0992584174
  - # 14
    frequency:   11.0895656575
  - # 15
    frequency:   16.9828111206
  - # 16
    frequency:   17.1385988875
  - # 17
    frequency:   17.1439366112
  - # 18
    frequency:   18.9174142967
  - # 19
    frequency:   18.9358366964
  - # 20
    frequency:   37.8739282076
  - # 21
    frequency:   68.5947455192

- q-position: [    0.0353535,    0.0000000,    0.0000000 ]
  distance:    0.0122019
  band:
  - # 1
    frequency:    0.0532681706
  - # 2
    frequency:    0.3051730665
  - # 3
    frequency:    0.6261308136
  - # 4
    frequency:    1.5629942622
  - # 5
    frequency:    1.6204676197
  - # 6
    frequency:    3.7680646558
  - # 7
    frequency:    3.7979184960
  - # 8
    frequency:    4.8669574959
  - # 9
    frequency:    4.8850384856
  - # 10
    frequency:    5.4377454159
  - # 11
    frequency:    6.1562978357
  - # 12
    frequency:    6.1736448031
  - # 13
    frequency:    8.0929058871
  - # 14
    frequency:   11.0833442553
  - # 15
    frequency:   16.9803975981
  - # 16
    frequency:   17.1388933412
  - # 17
    frequency:   17.1461202424
  - # 18
    frequency:   18.9149109878
  - # 19
    frequency:   18.9397988967
  - # 20
    frequency:   37.8741722316
  - # 21
    frequency:   68.5801747795

- q-position: [    0.0404040,    0.0000000,    0.0000000 ]
  distance:    0.0139451
  band:
  - # 1
    frequency:    0.0694985395
  - # 2
    frequency:    0.3485274380
  - # 3
    frequency:    0.7140608417
  - # 4
    frequency:    1.5558397432
  - # 5
    frequency:    1.6307449026
  - # 6
    frequency:    3.7649325486
  - # 7
    frequency:    3.8038168830
  - # 8
    frequency:    4.8747889230
  - # 9
    frequency:    4.8981431892
  - # 10
    frequency:    5.4330166405
  - # 11
    frequency:    6.1563390766
  - # 12
    frequency:    6.1788410605
  - # 13
    frequency:    8.0856116394
  - # 14
    frequency:   11.0761841367
  - # 15
    frequency:   16.9776421677
  - # 16
    frequency:   17.1392318677
  - # 17
    frequency:   17.1486153364
  - # 18
    frequency:   18.9120597044
  - # 19
    frequency:   18.9442860886
  - # 20
    frequency:   37.8744535118
  - # 21
    frequency:   68.5634411542

- q-position: [    0.0454545,    0.0000000,    0.0000000 ]
  distance:    0.0156882
  band:
  - # 1
    frequency:    0.0878462090
  - # 2
    frequency:    0.3917228841
  - # 3
    frequency:    0.8012810857
  - # 4
    frequency:    1.5479282473
  - # 5
    frequency:    1.6425245083
  - # 6
    frequency:    3.7614045003
  - # 7
    frequency:    3.8104569138
  - # 8
    frequency:    4.8835722357
  - # 9
    frequency:    4.9127575561
  - # 10
    frequency:    5.4277683590
  - # 11
    frequency:    6.1564003499
  - # 12
    frequency:    6.1846608659
  - # 13
    frequency:    8.0773909451
  - # 14
    frequency:   11.0680934055
  - # 15
    frequency:   16.9745557802
  - # 16
    frequency:   17.1396139516
  - # 17
    frequency:   17.1514129446
  - # 18
    frequency:   18.9088761084
  - # 19
    frequency:   18.9492631866
  - # 20
    frequency:   37.8747719209
  - # 21
    frequency:   68.5445779756

- q-position: [    0.0505051,    0.0000000,    0.0000000 ]
  distance:    0.0174313
  band:
  - # 1
    frequency:    0.1082912324
  - # 2
    frequency:    0.4346971013
  - # 3
    frequency:    0.8876233923
  - # 4
    frequency:    1.5393464773
  - # 5
    frequency:    1.6558949831
  - # 6
    frequency:    3.7574898611
  - # 7
    frequency:    3.8178195372
  - # 8
    frequency:    4.8932738428
  - # 9
    frequency:    4.9287952227
  - # 10
    frequency:    5.4220415541
  - # 11
    frequency:    6.1564867165
  - # 12
    frequency:    6.1910808731
  - # 13
    frequency:    8.0682611259
  - # 14
    frequency:   11.0590813735
  - # 15
    frequency:   16.9711500207
  - # 16
    frequency:   17.1400390162
  - # 17
    frequency:   17.1545036803
  - # 18
    frequency:   18.9053777776
  - # 19
    frequency:   18.9546911791
  - # 20
    frequency:   37.8751273112
  - # 21
    frequency:   68.5236227397

- q-position: [    0.0555556,    0.0000000,    0.0000000 ]
  distance:    0.0191745
  band:
  - # 1
    frequency:    0.1308102323
  - # 2
    frequency:    0.4773694415
  - # 3
    frequency:    0.9728759346
  - # 4
    frequency:    1.5302002569
  - # 5
    frequency:    1.6709855912
  - # 6
    frequency:    3.7531996965
  - # 7
    frequency:    3.8258824912
  - # 8
    frequency:    4.9038568124
  - # 9
    frequency:    4.9461606475
  - # 10
    frequency:    5.4158822172
  - # 11
    frequency:    6.1566036206
  - # 12
    frequency:    6.1980763211
  - # 13
    frequency:    8.0582415637
  - # 14
    frequency:   11.0491585982
  - # 15
    frequency:   16.9674369660
  - # 16
    frequency:   17.1405064257
  - # 17
    frequency:   17.1578778374
  - # 18
    frequency:   18.9015841432
  - # 19
    frequency:   18.9605273915
  - # 20
    frequency:   37.8755195142
  - # 21
    frequency:   68.5006170014

- q-position: [    0.0606061,    0.0000000,    0.0000000 ]
  distance:    0.0209176
  band:
  - # 1
    frequency:    0.1553762462
  - # 2
    frequency:    0.5196365476
  - # 3
    frequency:    1.0567660339
  - # 4
    frequency:    1.5206186893
  - # 5
    frequency:    1.6879836080
  - # 6
    frequency:    3.7485469211
  - # 7
    frequency:    3.8346202132
  - # 8
    frequency:    4.9152810788
  - # 9
    frequency:    4.9647489012
  - # 10
    frequency:    5.4093418912
  - # 11
    frequency:    6.1567568312
  - # 12
    frequency:    6.2056213425
  - # 13
    frequency:    8.0473537121
  - # 14
    frequency:   11.0383369202
  - # 15
    frequency:   16.9634290712
  - # 16
    frequency:   17.1410154879
  - # 17
    frequency:   17.1615254752
  - # 18
    frequency:   18.8975164189
  - # 19
    frequency:   18.9667257693
  - # 20
    frequency:   37.8759483387
  - # 21
    frequency:   68.4756062600

- q-position: [    0.0656566,    0.0000000,    0.0000000 ]
  distance:    0.0226607
  band:
  - # 1
    frequency:    0.1819586263
  - # 2
    frequency:    0.5613669219
  - # 3
    frequency:    1.1389362794
  - # 4
    frequency:    1.5107594687
  - # 5
    frequency:    1.7071583410
  - # 6
    frequency:    3.7435464167
  - # 7
    frequency:    3.8440038278
  - # 8
    frequency:    4.9275036677
  - # 9
    frequency:    4.9844450770
  - # 10
    frequency:    5.4024785985
  - # 11
    frequency:    6.1569523836
  - # 12
    frequency:    6.2136892613
  - # 13
    frequency:    8.0356211127
  - # 14
    frequency:   11.0266294981
  - # 15
    frequency:   16.9591390827
  - # 16
    frequency:   17.1415654578
  - # 17
    frequency:   17.1654364775
  - # 18
    frequency:   18.8931975244
  - # 19
    frequency:   18.9732371783
  - # 20
    frequency:   37.8764135701
  - # 21
    frequency:   68.4486398333

- q-position: [    0.0707071,    0.0000000,    0.0000000 ]
  distance:    0.0244039
  band:
  - # 1
    frequency:    0.2105229940
  - # 2
    frequency:    0.6023941976
  - # 3
    frequency:    1.2189129655
  - # 4
    frequency:    1.5008155712
  - # 5
    frequency:    1.7288928328
  - # 6
    frequency:    3.7382151300
  - # 7
    frequency:    3.8540012242
  - # 8
    frequency:    4.9404789388
  - # 9
    frequency:    5.0051231185
  - # 10
    frequency:    5.3953583489
  - # 11
    frequency:    6.1571965224
  - # 12
    frequency:    6.2222528748
  - # 13
    frequency:    8.0230694142
  - # 14
    frequency:   11.0140508395
  - # 15
    frequency:   16.9545799710
  - # 16
    frequency:   17.1421555405
  - # 17
    frequency:   17.1696005892
  - # 18
    frequency:   18.8886520018
  - # 19
    frequency:   18.9800097192
  - # 20
    frequency:   37.8769149688
  - # 21
    frequency:   68.4197707204

- q-position: [    0.0757576,    0.0000000,    0.0000000 ]
  distance:    0.0261470
  band:
  - # 1
    frequency:    0.2410312490
  - # 2
    frequency:    0.6425089482
  - # 3
    frequency:    1.2960694315
  - # 4
    frequency:    1.4910234889
  - # 5
    frequency:    1.7537206460
  - # 6
    frequency:    3.7325721448
  - # 7
    frequency:    3.8645772270
  - # 8
    frequency:    4.9541588420
  - # 9
    frequency:    5.0266437376
  - # 10
    frequency:    5.3880575487
  - # 11
    frequency:    6.1574956465
  - # 12
    frequency:    6.2312847227
  - # 13
    frequency:    8.0097263966
  - # 14
    frequency:   11.0006168277
  - # 15
    frequency:   16.9497648782
  - # 16
    frequency:   17.1427848945
  - # 17
    frequency:   17.1740074372
  - # 18
    frequency:   18.8839059265
  - # 19
    frequency:   18.9869890521
  - # 20
    frequency:   37.8774522688
  - # 21
    frequency:   68.3890554553

- q-position: [    0.0808081,    0.0000000,    0.0000000 ]
  distance:    0.0278901
  band:
  - # 1
    frequency:    0.2734416287
  - # 2
    frequency:    0.6814490891
  - # 3
    frequency:    1.3695973856
  - # 4
    frequency:    1.4816729492
  - # 5
    frequency:    1.7823546304
  - # 6
    frequency:    3.7266387278
  - # 7
    frequency:    3.8756938619
  - # 8
    frequency:    4.9684931847
  - # 9
    frequency:    5.0488508830
  - # 10
    frequency:    5.3806668432
  - # 11
    frequency:    6.1578562586
  - # 12
    frequency:    6.2407573419
  - # 13
    frequency:    7.9956220010
  - # 14
    frequency:   10.9863447408
  - # 15
    frequency:   16.9447070757
  - # 16
    frequency:   17.1434526358
  - # 17
    frequency:   17.1786465417
  - # 18
    frequency:   18.8789868107
  - # 19
    frequency:   18.9941187290
  - # 20
    frequency:   37.8780251768
  - # 21
    frequency:   68.3565539501

- q-position: [    0.0858586,    0.0000000,    0.0000000 ]
  distance:    0.0296333
  band:
  - # 1
    frequency:    0.3077088125
  - # 2
    frequency:    0.7188894447
  - # 3
    frequency:    1.4385215543
  - # 4
    frequency:    1.4731175454
  - # 5
    frequency:    1.8156723219
  - # 6
    frequency:    3.7204383419
  - # 7
    frequency:    3.8873107156
  - # 8
    frequency:    4.9834299067
  - # 9
    frequency:    5.0715658411
  - # 10
    frequency:    5.3732973078
  - # 11
    frequency:    6.1582849189
  - # 12
    frequency:    6.2506435096
  - # 13
    frequency:    7.9807883638
  - # 14
    frequency:   10.9712532643
  - # 15
    frequency:   16.9394199264
  - # 16
    frequency:   17.1441578409
  - # 17
    frequency:   17.1835073217
  - # 18
    frequency:   18.8739235025
  - # 19
    frequency:   19.0013405307
  - # 20
    frequency:   37.8786333701
  - # 21
    frequency:   68.3223293294

- q-position: [    0.0909091,    0.0000000,    0.0000000 ]
  distance:    0.0313764
  band:
  - # 1
    frequency:    0.3437840652
  - # 2
    frequency:    0.7544320958
  - # 3
    frequency:    1.4657846619
  - # 4
    frequency:    1.5018198928
  - # 5
    frequency:    1.8545957288
  - # 6
    frequency:    3.7139966288
  - # 7
    frequency:    3.8993853853
  - # 8
    frequency:    4.9989153588
  - # 9
    frequency:    5.0945773820
  - # 10
    frequency:    5.3660905713
  - # 11
    frequency:    6.1587882056
  - # 12
    frequency:    6.2609164753
  - # 13
    frequency:    7.9652598574
  - # 14
    frequency:   10.9553624948
  - # 15
    frequency:   16.9339168503
  - # 16
    frequency:   17.1448995515
  - # 17
    frequency:   17.1885790980
  - # 18
    frequency:   18.8687460787
  - # 19
    frequency:   19.0085948043
  - # 20
    frequency:   37.8792764958
  - # 21
    frequency:   68.2864477546

- q-position: [    0.0959596,    0.0000000,    0.0000000 ]
  distance:    0.0331195
  band:
  - # 1
    frequency:    0.3816154110
  - # 2
    frequency:    0.7876009276
  - # 3
    frequency:    1.4601812724
  - # 4
    frequency:    1.5586951653
  - # 5
    frequency:    1.8998196941
  - # 6
    frequency:    3.7073413565
  - # 7
    frequency:    3.9118740105
  - # 8
    frequency:    5.0148945826
  - # 9
    frequency:    5.1176252084
  - # 10
    frequency:    5.3592356109
  - # 11
    frequency:    6.1593726807
  - # 12
    frequency:    6.2715501820
  - # 13
    frequency:    7.9490731376
  - # 14
    frequency:   10.9386939334
  - # 15
    frequency:   16.9282112904
  - # 16
    frequency:   17.1456767777
  - # 17
    frequency:   17.1938510968
  - # 18
    frequency:   18.8634857315
  - # 19
    frequency:   19.0158207998
  - # 20
    frequency:   37.8799541695
  - # 21
    frequency:   68.2489782418

- q-position: [    0.1010101,    0.0000000,    0.0000000 ]
  distance:    0.0348627
  band:
  - # 1
    frequency:    0.4211478322
  - # 2
    frequency:    0.8178463692
  - # 3
    frequency:    1.4568896208
  - # 4
    frequency:    1.6089128615
  - # 5
    frequency:    1.9514738686
  - # 6
    frequency:    3.7005023333
  - # 7
    frequency:    3.9247318791
  - # 8
    frequency:    5.0313115892
  - # 9
    frequency:    5.1403721776
  - # 10
    frequency:    5.3529967519
  - # 11
    frequency:    6.1600448641
  - # 12
    frequency:    6.2825194749
  - # 13
    frequency:    7.9322671961
  - # 14
    frequency:   10.9212704699
  - # 15
    frequency:   16.9223166782
  - # 16
    frequency:   17.1464885025
  - # 17
    frequency:   17.1993124542
  - # 18
    frequency:   18.8581746516
  - # 19
    frequency:   19.0229570015
  - # 20
    frequency:   37.8806659732
  - # 21
    frequency:   68.2099924697

- q-position: [    0.1060606,    0.0000000,    0.0000000 ]
  distance:    0.0366058
  band:
  - # 1
    frequency:    0.4623234855
  - # 2
    frequency:    0.8445687836
  - # 3
    frequency:    1.4565443255
  - # 4
    frequency:    1.6529582656
  - # 5
    frequency:    2.0089654819
  - # 6
    frequency:    3.6935112868
  - # 7
    frequency:    3.9379140981
  - # 8
    frequency:    5.0481096326
  - # 9
    frequency:    5.1623589270
  - # 10
    frequency:    5.3477592404
  - # 11
    frequency:    6.1608112137
  - # 12
    frequency:    6.2938002949
  - # 13
    frequency:    7.9148834205
  - # 14
    frequency:   10.9031163558
  - # 15
    frequency:   16.9162463983
  - # 16
    frequency:   17.1473336855
  - # 17
    frequency:   17.2049522238
  - # 18
    frequency:   18.8528459045
  - # 19
    frequency:   19.0299414536
  - # 20
    frequency:   37.8814114552
  - # 21
    frequency:   68.1695645823

- q-position: [    0.1111111,    0.0000000,    0.0000000 ]
  distance:    0.0383490
  band:
  - # 1
    frequency:    0.5050819296
  - # 2
    frequency:    0.8671687720
  - # 3
    frequency:    1.4597826444
  - # 4
    frequency:    1.6918560788
  - # 5
    frequency:    2.0711595195
  - # 6
    frequency:    3.6864017092
  - # 7
    frequency:    3.9513763162
  - # 8
    frequency:    5.0652314777
  - # 9
    frequency:    5.1829371130
  - # 10
    frequency:    5.3440961872
  - # 11
    frequency:    6.1616781127
  - # 12
    frequency:    6.3053698507
  - # 13
    frequency:    7.8969656609
  - # 14
    frequency:   10.8842571657
  - # 15
    frequency:   16.9100137512
  - # 16
    frequency:   17.1482112669
  - # 17
    frequency:   17.2107593865
  - # 18
    frequency:   18.8475333033
  - # 19
    frequency:   19.0367120757
  - # 20
    frequency:   37.8821901278
  - # 21
    frequency:   68.1277709831

- q-position: [    0.1161616,    0.0000000,    0.0000000 ]
  distance:    0.0400921
  band:
  - # 1
    frequency:    0.5493603583
  - # 2
    frequency:    0.8851257228
  - # 3
    frequency:    1.4671665716
  - # 4
    frequency:    1.7268088377
  - # 5
    frequency:    2.1367400757
  - # 6
    frequency:    3.6792086691
  - # 7
    frequency:    3.9650754864
  - # 8
    frequency:    5.0826196603
  - # 9
    frequency:    5.2012022039
  - # 10
    frequency:    5.3428359469
  - # 11
    frequency:    6.1626518635
  - # 12
    frequency:    6.3172067614
  - # 13
    frequency:    7.8785603020
  - # 14
    frequency:   10.8647197490
  - # 15
    frequency:   16.9036319163
  - # 16
    frequency:   17.1491201718
  - # 17
    frequency:   17.2167228631
  - # 18
    frequency:   18.8422712769
  - # 19
    frequency:   19.0432069692
  - # 20
    frequency:   37.8830014668
  - # 21
    frequency:   68.0846901247

- q-position: [    0.1212121,    0.0000000,    0.0000000 ]
  distance:    0.0418352
  band:
  - # 1
    frequency:    0.5950938351
  - # 2
    frequency:    0.8980904360
  - # 3
    frequency:    1.4790909362
  - # 4
    frequency:    1.7589128969
  - # 5
    frequency:    2.2044941278
  - # 6
    frequency:    3.6719685917
  - # 7
    frequency:    3.9789706539
  - # 8
    frequency:    5.1002167390
  - # 9
    frequency:    5.2160311381
  - # 10
    frequency:    5.3450246300
  - # 11
    frequency:    6.1637386862
  - # 12
    frequency:    6.3292911587
  - # 13
    frequency:    7.8597163417
  - # 14
    frequency:   10.8445321687
  - # 15
    frequency:   16.8971139129
  - # 16
    frequency:   17.1500593137
  - # 17
    frequency:   17.2228315294
  - # 18
    frequency:   18.8370947330
  - # 19
    frequency:   19.0493647097
  - # 20
    frequency:   37.8838449104
  - # 21
    frequency:   68.0404022926

- q-position: [    0.1262626,    0.0000000,    0.0000000 ]
  distance:    0.0435784
  band:
  - # 1
    frequency:    0.6422155244
  - # 2
    frequency:    0.9059607897
  - # 3
    frequency:    1.4957085374
  - # 4
    frequency:    1.7890421294
  - # 5
    frequency:    2.2734275979
  - # 6
    frequency:    3.6647190090
  - # 7
    frequency:    3.9930237543
  - # 8
    frequency:    5.1179655376
  - # 9
    frequency:    5.2264332842
  - # 10
    frequency:    5.3515753239
  - # 11
    frequency:    6.1649447222
  - # 12
    frequency:    6.3416047342
  - # 13
    frequency:    7.8404854754
  - # 14
    frequency:   10.8237236317
  - # 15
    frequency:   16.8904725616
  - # 16
    frequency:   17.1510275985
  - # 17
    frequency:   17.2290742331
  - # 18
    frequency:   18.8320389185
  - # 19
    frequency:   19.0551246271
  - # 20
    frequency:   37.8847198581
  - # 21
    frequency:   67.9949893834

- q-position: [    0.1313131,    0.0000000,    0.0000000 ]
  distance:    0.0453215
  band:
  - # 1
    frequency:    0.6906569162
  - # 2
    frequency:    0.9089073958
  - # 3
    frequency:    1.5169053666
  - # 4
    frequency:    1.8178463005
  - # 5
    frequency:    2.3427667693
  - # 6
    frequency:    3.6574982832
  - # 7
    frequency:    4.0072004004
  - # 8
    frequency:    5.1358093789
  - # 9
    frequency:    5.2321725028
  - # 10
    frequency:    5.3626462336
  - # 11
    frequency:    6.1662760393
  - # 12
    frequency:    6.3541307161
  - # 13
    frequency:    7.8209221842
  - # 14
    frequency:   10.8023244076
  - # 15
    frequency:   16.8837204452
  - # 16
    frequency:   17.1520239281
  - # 17
    frequency:   17.2354398123
  - # 18
    frequency:   18.8271392752
  - # 19
    frequency:   19.0604270711
  - # 20
    frequency:   37.8856256698
  - # 21
    frequency:   67.9485346809

- q-position: [    0.1363636,    0.0000000,    0.0000000 ]
  distance:    0.0470646
  band:
  - # 1
    frequency:    0.7403480409
  - # 2
    frequency:    0.9073378237
  - # 3
    frequency:    1.5423373374
  - # 4
    frequency:    1.8457935136
  - # 5
    frequency:    2.4119156874
  - # 6
    frequency:    3.6503453048
  - # 7
    frequency:    4.0214706380
  - # 8
    frequency:    5.1536923099
  - # 9
    frequency:    5.2339783676
  - # 10
    frequency:    5.3774297027
  - # 11
    frequency:    6.1677386384
  - # 12
    frequency:    6.3668537563
  - # 13
    frequency:    7.8010838279
  - # 14
    frequency:   10.7803657390
  - # 15
    frequency:   16.8768698696
  - # 16
    frequency:   17.1530472037
  - # 17
    frequency:   17.2419171156
  - # 18
    frequency:   18.8224312927
  - # 19
    frequency:   19.0652136616
  - # 20
    frequency:   37.8865616656
  - # 21
    frequency:   67.9011226268

- q-position: [    0.1414141,    0.0000000,    0.0000000 ]
  distance:    0.0488078
  band:
  - # 1
    frequency:    0.7912176720
  - # 2
    frequency:    0.9018186260
  - # 3
    frequency:    1.5715092779
  - # 4
    frequency:    1.8732176111
  - # 5
    frequency:    2.4804086925
  - # 6
    frequency:    3.6432991699
  - # 7
    frequency:    4.0358096424
  - # 8
    frequency:    5.1715593188
  - # 9
    frequency:    5.2330268517
  - # 10
    frequency:    5.3946718209
  - # 11
    frequency:    6.1693384587
  - # 12
    frequency:    6.3797597084
  - # 13
    frequency:    7.7810307398
  - # 14
    frequency:   10.7578797434
  - # 15
    frequency:   16.8699328240
  - # 16
    frequency:   17.1540963292
  - # 17
    frequency:   17.2484950229
  - # 18
    frequency:   18.8179503583
  - # 19
    frequency:   19.0694275241
  - # 20
    frequency:   37.8875271244
  - # 21
    frequency:   67.8528385908

- q-position: [    0.1464646,    0.0000000,    0.0000000 ]
  distance:    0.0505509
  band:
  - # 1
    frequency:    0.8431935136
  - # 2
    frequency:    0.8929893203
  - # 3
    frequency:    1.6038620186
  - # 4
    frequency:    1.9003570159
  - # 5
    frequency:    2.5478716419
  - # 6
    frequency:    3.6363988413
  - # 7
    frequency:    4.0501983212
  - # 8
    frequency:    5.1893565455
  - # 9
    frequency:    5.2303774278
  - # 10
    frequency:    5.4132356849
  - # 11
    frequency:    6.1710813792
  - # 12
    frequency:    6.3928352792
  - # 13
    frequency:    7.7608263229
  - # 14
    frequency:   10.7348993087
  - # 15
    frequency:   16.8629209421
  - # 16
    frequency:   17.1551702143
  - # 17
    frequency:   17.2551624662
  - # 18
    frequency:   18.8137316042
  - # 19
    frequency:   19.0730135097
  - # 20
    frequency:   37.8885212842
  - # 21
    frequency:   67.8037686372

- q-position: [    0.1515152,    0.0000000,    0.0000000 ]
  distance:    0.0522940
  band:
  - # 1
    frequency:    0.8814946526
  - # 2
    frequency:    0.8962023724
  - # 3
    frequency:    1.6388412249
  - # 4
    frequency:    1.9273831857
  - # 5
    frequency:    2.6139936913
  - # 6
    frequency:    3.6296827953
  - # 7
    frequency:    4.0646237860
  - # 8
    frequency:    5.2070314856
  - # 9
    frequency:    5.2267923807
  - # 10
    frequency:    5.4322825276
  - # 11
    frequency:    6.1729732149
  - # 12
    frequency:    6.4060675363
  - # 13
    frequency:    7.7405371454
  - # 14
    frequency:   10.7114579814
  - # 15
    frequency:   16.8558454618
  - # 16
    frequency:   17.1562677766
  - # 17
    frequency:   17.2619084520
  - # 18
    frequency:   18.8098097526
  - # 19
    frequency:   19.0759184010
  - # 20
    frequency:   37.8895433415
  - # 21