nqpoint: 300    
npath: 3      
segment_nqpoint:
- 100
- 100
- 100
labels:
- [ 'G', 'M' ]
- [ 'M', 'K' ]
- [ 'K', 'G' ]
reciprocal_lattice:
- [   0.28520904,   0.16466552,   0.00000000 ] # a*
- [   0.00000000,   0.32933104,   0.00000000 ] # b*
- [   0.00000000,   0.00000000,   0.04131619 ] # c*
natom: 6      
lattice:
- [     3.506200169962156,     0.000000000000000,     0.000000000000000 ] # a
- [    -1.753100084981078,     3.036458417940321,     0.000000000000000 ] # b
- [     0.000000000000000,     0.000000000000000,    24.203586233499536 ] # c
points:
- symbol: F # 1
  coordinates: [  0.333332985432215,  0.666666983183674,  0.628154277916743 ]
  mass: 18.998403
- symbol: H # 2
  coordinates: [  0.666666984744048,  0.333332985985145,  0.371845722083256 ]
  mass: 1.007940
- symbol: N # 3
  coordinates: [  0.000000000000000,  0.000000000000000,  0.522720485767666 ]
  mass: 14.006700
- symbol: O # 4
  coordinates: [  0.666666984744048,  0.333332985985145,  0.412685542878996 ]
  mass: 15.999400
- symbol: Y # 5
  coordinates: [  0.333332985432215,  0.666666983183674,  0.466115812762938 ]
  mass: 88.905850
- symbol: Y # 6
  coordinates: [  0.666666984744048,  0.333332985985145,  0.576649885043097 ]
  mass: 88.905850

phonon:
- q-position: [    0.0000000,    0.0000000,    0.0000000 ]
  distance:    0.0000000
  band:
  - # 1
    frequency:   -0.0000022645
  - # 2
    frequency:   -0.0000001034
  - # 3
    frequency:    0.0000020546
  - # 4
    frequency:    4.2693400852
  - # 5
    frequency:    4.2693400852
  - # 6
    frequency:    5.7987762006
  - # 7
    frequency:    7.0115989678
  - # 8
    frequency:    7.0115989678
  - # 9
    frequency:    7.8601616598
  - # 10
    frequency:    7.8601616598
  - # 11
    frequency:   10.0454623077
  - # 12
    frequency:   11.1482550690
  - # 13
    frequency:   11.5891069692
  - # 14
    frequency:   12.7997781036
  - # 15
    frequency:   12.7997781036
  - # 16
    frequency:   13.7397906175
  - # 17
    frequency:   13.7397906175
  - # 18
    frequency:  111.1617507902

- q-position: [    0.0050505,    0.0000000,    0.0000000 ]
  distance:    0.0016633
  band:
  - # 1
    frequency:   -0.0958264163
  - # 2
    frequency:   -0.0469428107
  - # 3
    frequency:    0.0058558308
  - # 4
    frequency:    4.2684035451
  - # 5
    frequency:    4.2694823651
  - # 6
    frequency:    5.7982208229
  - # 7
    frequency:    7.0088473736
  - # 8
    frequency:    7.0089867254
  - # 9
    frequency:    7.8610148731
  - # 10
    frequency:    7.8613527560
  - # 11
    frequency:   10.0445569960
  - # 12
    frequency:   11.1472197331
  - # 13
    frequency:   11.5889064511
  - # 14
    frequency:   12.7984256703
  - # 15
    frequency:   12.7998491873
  - # 16
    frequency:   13.7384942704
  - # 17
    frequency:   13.7404548403
  - # 18
    frequency:  111.1605552120

- q-position: [    0.0101010,    0.0000000,    0.0000000 ]
  distance:    0.0033266
  band:
  - # 1
    frequency:   -0.1913093023
  - # 2
    frequency:   -0.0940883727
  - # 3
    frequency:    0.0109849877
  - # 4
    frequency:    4.2656063653
  - # 5
    frequency:    4.2699021976
  - # 6
    frequency:    5.7965547957
  - # 7
    frequency:    7.0006584925
  - # 8
    frequency:    7.0012004198
  - # 9
    frequency:    7.8635118560
  - # 10
    frequency:    7.8648814587
  - # 11
    frequency:   10.0418422262
  - # 12
    frequency:   11.1441143605
  - # 13
    frequency:   11.5883055805
  - # 14
    frequency:   12.7943587192
  - # 15
    frequency:   12.8000519593
  - # 16
    frequency:   13.7346278062
  - # 17
    frequency:   13.7424503503
  - # 18
    frequency:  111.1569724884

- q-position: [    0.0151515,    0.0000000,    0.0000000 ]
  distance:    0.0049899
  band:
  - # 1
    frequency:   -0.2861913767
  - # 2
    frequency:   -0.1416365125
  - # 3
    frequency:    0.0160611511
  - # 4
    frequency:    4.2609858100
  - # 5
    frequency:    4.2705786866
  - # 6
    frequency:    5.7937784040
  - # 7
    frequency:    6.9872213093
  - # 8
    frequency:    6.9883853166
  - # 9
    frequency:    7.8674736237
  - # 10
    frequency:    7.8706199504
  - # 11
    frequency:   10.0373214030
  - # 12
    frequency:   11.1389410518
  - # 13
    frequency:   11.5873059413
  - # 14
    frequency:   12.7875485638
  - # 15
    frequency:   12.8003552415
  - # 16
    frequency:   13.7282588155
  - # 17
    frequency:   13.7457855051
  - # 18
    frequency:  111.1510146376

- q-position: [    0.0202020,    0.0000000,    0.0000000 ]
  distance:    0.0066532
  band:
  - # 1
    frequency:   -0.3801677387
  - # 2
    frequency:   -0.1897811726
  - # 3
    frequency:    0.0208910560
  - # 4
    frequency:    4.2546037893
  - # 5
    frequency:    4.2714774130
  - # 6
    frequency:    5.7898920134
  - # 7
    frequency:    6.9688242687
  - # 8
    frequency:    6.9707652104
  - # 9
    frequency:    7.8726292745
  - # 10
    frequency:    7.8783733220
  - # 11
    frequency:   10.0309999061
  - # 12
    frequency:   11.1317039242
  - # 13
    frequency:   11.5859086461
  - # 14
    frequency:   12.7779483434
  - # 15
    frequency:   12.8007079289
  - # 16
    frequency:   13.7194994298
  - # 17
    frequency:   13.7504736787
  - # 18
    frequency:  111.1427016415

- q-position: [    0.0252525,    0.0000000,    0.0000000 ]
  distance:    0.0083164
  band:
  - # 1
    frequency:   -0.4729455643
  - # 2
    frequency:   -0.2387073860
  - # 3
    frequency:    0.0253592752
  - # 4
    frequency:    4.2465465393
  - # 5
    frequency:    4.2725510169
  - # 6
    frequency:    5.7848959060
  - # 7
    frequency:    6.9458231017
  - # 8
    frequency:    6.9486200364
  - # 9
    frequency:    7.8786494314
  - # 10
    frequency:    7.8879016747
  - # 11
    frequency:   10.0228846806
  - # 12
    frequency:   11.1224099223
  - # 13
    frequency:   11.5841121501
  - # 14
    frequency:   12.7654946431
  - # 15
    frequency:   12.8010402627
  - # 16
    frequency:   13.7085053736
  - # 17
    frequency:   13.7565324364
  - # 18
    frequency:  111.1320613730

- q-position: [    0.0303030,    0.0000000,    0.0000000 ]
  distance:    0.0099797
  band:
  - # 1
    frequency:   -0.5642420897
  - # 2
    frequency:   -0.2885881603
  - # 3
    frequency:    0.0293664807
  - # 4
    frequency:    4.2369241252
  - # 5
    frequency:    4.2737399522
  - # 6
    frequency:    5.7787900489
  - # 7
    frequency:    6.9186074238
  - # 8
    frequency:    6.9222623817
  - # 9
    frequency:    7.8851813261
  - # 10
    frequency:    7.8989432193
  - # 11
    frequency:   10.0129837266
  - # 12
    frequency:   11.1110697473
  - # 13
    frequency:   11.5819093751
  - # 14
    frequency:   12.7501101439
  - # 15
    frequency:   12.8012655803
  - # 16
    frequency:   13.6954743147
  - # 17
    frequency:   13.7639823962
  - # 18
    frequency:  111.1191294951

- q-position: [    0.0353535,    0.0000000,    0.0000000 ]
  distance:    0.0116430
  band:
  - # 1
    frequency:   -0.6537860567
  - # 2
    frequency:   -0.3395812589
  - # 3
    frequency:    0.0328235036
  - # 4
    frequency:    4.2258697191
  - # 5
    frequency:    4.2749733640
  - # 6
    frequency:    5.7715737956
  - # 7
    frequency:    6.8875718017
  - # 8
    frequency:    6.8920168583
  - # 9
    frequency:    7.8918797421
  - # 10
    frequency:    7.9112344192
  - # 11
    frequency:   10.0013055449
  - # 12
    frequency:   11.0976987367
  - # 13
    frequency:   11.5792842843
  - # 14
    frequency:   12.7317076510
  - # 15
    frequency:   12.8012825027
  - # 16
    frequency:   13.6806432248
  - # 17
    frequency:   13.7728458040
  - # 18
    frequency:  111.1039493307

- q-position: [    0.0404040,    0.0000000,    0.0000000 ]
  distance:    0.0133063
  band:
  - # 1
    frequency:   -0.7413194860
  - # 2
    frequency:   -0.3918258792
  - # 3
    frequency:    0.0356562808
  - # 4
    frequency:    4.2135385953
  - # 5
    frequency:    4.2761700323
  - # 6
    frequency:    5.7632455191
  - # 7
    frequency:    6.8530942328
  - # 8
    frequency:    6.8582044681
  - # 9
    frequency:    7.8984307697
  - # 10
    frequency:    7.9245250599
  - # 11
    frequency:    9.9878586020
  - # 12
    frequency:   11.0823175352
  - # 13
    frequency:   11.5762080267
  - # 14
    frequency:   12.7101958950
  - # 15
    frequency:   12.8009775019
  - # 16
    frequency:   13.6642844457
  - # 17
    frequency:   13.7831448611
  - # 18
    frequency:  111.0865717053

- q-position: [    0.0454545,    0.0000000,    0.0000000 ]
  distance:    0.0149696
  band:
  - # 1
    frequency:   -0.8265994517
  - # 2
    frequency:   -0.4454392517
  - # 3
    frequency:    0.0378184661
  - # 4
    frequency:    4.2001067749
  - # 5
    frequency:    4.2772393239
  - # 6
    frequency:    5.7538021775
  - # 7
    frequency:    6.8155225150
  - # 8
    frequency:    6.8211323627
  - # 9
    frequency:    7.9045677773
  - # 10
    frequency:    7.9385878555
  - # 11
    frequency:    9.9726508801
  - # 12
    frequency:   11.0649524176
  - # 13
    frequency:   11.5726347251
  - # 14
    frequency:   12.6854874864
  - # 15
    frequency:   12.8002277696
  - # 16
    frequency:   13.6467001993
  - # 17
    frequency:   13.7948998655
  - # 18
    frequency:  111.0670547620

- q-position: [    0.0505051,    0.0000000,    0.0000000 ]
  distance:    0.0166329
  band:
  - # 1
    frequency:   -0.9093998257
  - # 2
    frequency:   -0.5005132022
  - # 3
    frequency:    0.0393147546
  - # 4
    frequency:    4.1857692510
  - # 5
    frequency:    4.2780821018
  - # 6
    frequency:    5.7432388134
  - # 7
    frequency:    6.7751674832
  - # 8
    frequency:    6.7810882879
  - # 9
    frequency:    7.9100805053
  - # 10
    frequency:    7.9532233159
  - # 11
    frequency:    9.9556895747
  - # 12
    frequency:   11.0456351719
  - # 13
    frequency:   11.5684969100
  - # 14
    frequency:   12.6575093125
  - # 15
    frequency:   12.7989042869
  - # 16
    frequency:   13.6282154063
  - # 17
    frequency:   13.8081272454
  - # 18
    frequency:  111.0454637492

- q-position: [    0.0555556,    0.0000000,    0.0000000 ]
  distance:    0.0182962
  band:
  - # 1
    frequency:   -0.9895130324
  - # 2
    frequency:   -0.5571107510
  - # 3
    frequency:    0.0402413198
  - # 4
    frequency:    4.1707377255
  - # 5
    frequency:    4.2785915440
  - # 6
    frequency:    5.7315479899
  - # 7
    frequency:    6.7323015130
  - # 8
    frequency:    6.7383385387
  - # 9
    frequency:    7.9148187601
  - # 10
    frequency:    7.9682610614
  - # 11
    frequency:    9.9369809861
  - # 12
    frequency:   11.0244024962
  - # 13
    frequency:   11.5637005218
  - # 14
    frequency:   12.6262154931
  - # 15
    frequency:   12.7968749759
  - # 16
    frequency:   13.6091688897
  - # 17
    frequency:   13.8228375829
  - # 18
    frequency:  111.0218707827

- q-position: [    0.0606061,    0.0000000,    0.0000000 ]
  distance:    0.0199595
  band:
  - # 1
    frequency:   -1.0667518788
  - # 2
    frequency:   -0.6152628489
  - # 3
    frequency:    0.0408515811
  - # 4
    frequency:    4.1552378021
  - # 5
    frequency:    4.2786538396
  - # 6
    frequency:    5.7187191718
  - # 7
    frequency:    6.6871607239
  - # 8
    frequency:    6.6931282378
  - # 9
    frequency:    7.9186921695
  - # 10
    frequency:    7.9835587870
  - # 11
    frequency:    9.9165306411
  - # 12
    frequency:   11.0012949089
  - # 13
    frequency:   11.5581193277
  - # 14
    frequency:   12.5916027634
  - # 15
    frequency:   12.7940078041
  - # 16
    frequency:   13.5899033200
  - # 17
    frequency:   13.8390337364
  - # 18
    frequency:  110.9963545821

- q-position: [    0.0656566,    0.0000000,    0.0000000 ]
  distance:    0.0216227
  band:
  - # 1
    frequency:   -1.1409515460
  - # 2
    frequency:   -0.6749653814
  - # 3
    frequency:    0.0416481804
  - # 4
    frequency:    4.1395055992
  - # 5
    frequency:    4.2781487351
  - # 6
    frequency:    5.7047380629
  - # 7
    frequency:    6.6399496060
  - # 8
    frequency:    6.6456829608
  - # 9
    frequency:    7.9216671756
  - # 10
    frequency:    7.9989998619
  - # 11
    frequency:    9.8943436582
  - # 12
    frequency:   10.9763552045
  - # 13
    frequency:   11.5515885523
  - # 14
    frequency:   12.5537278687
  - # 15
    frequency:   12.7901737078
  - # 16
    frequency:   13.5707545547
  - # 17
    frequency:   13.8567091728
  - # 18
    frequency:  110.9690001829

- q-position: [    0.0707071,    0.0000000,    0.0000000 ]
  distance:    0.0232860
  band:
  - # 1
    frequency:   -1.2119718387
  - # 2
    frequency:   -0.7361765951
  - # 3
    frequency:    0.0434645625
  - # 4
    frequency:    4.1237837806
  - # 5
    frequency:    4.2769499173
  - # 6
    frequency:    5.6895859211
  - # 7
    frequency:    6.5908471266
  - # 8
    frequency:    6.5962110031
  - # 9
    frequency:    7.9237621269
  - # 10
    frequency:    8.0144902831
  - # 11
    frequency:    9.8704253469
  - # 12
    frequency:   10.9496265078
  - # 13
    frequency:   11.5438975361
  - # 14
    frequency:   12.5127262862
  - # 15
    frequency:   12.7852492152
  - # 16
    frequency:   13.5520412577
  - # 17
    frequency:   13.8758466110
  - # 18
    frequency:  110.9398986244

- q-position: [    0.0757576,    0.0000000,    0.0000000 ]
  distance:    0.0249493
  band:
  - # 1
    frequency:   -1.2796997983
  - # 2
    frequency:   -0.7988151169
  - # 3
    frequency:    0.0474233160
  - # 4
    frequency:    4.1083170452
  - # 5
    frequency:    4.2749252320
  - # 6
    frequency:    5.6732388806
  - # 7
    frequency:    6.5400136476
  - # 8
    frequency:    6.5449058252
  - # 9
    frequency:    7.9250410708
  - # 10
    frequency:    8.0299554502
  - # 11
    frequency:    9.8447820162
  - # 12
    frequency:   10.9211499786
  - # 13
    frequency:   11.5347813826
  - # 14
    frequency:   12.4688313405
  - # 15
    frequency:   12.7791186695
  - # 16
    frequency:   13.5340557702
  - # 17
    frequency:   13.8964170576
  - # 18
    frequency:  110.9091466157

- q-position: [    0.0808081,    0.0000000,    0.0000000 ]
  distance:    0.0266126
  band:
  - # 1
    frequency:   -1.3440527887
  - # 2
    frequency:   -0.8627587416
  - # 3
    frequency:    0.0546637087
  - # 4
    frequency:    4.0933471673
  - # 5
    frequency:    4.2719367406
  - # 6
    frequency:    5.6556673336
  - # 7
    frequency:    6.4875981602
  - # 8
    frequency:    6.4919484026
  - # 9
    frequency:    7.9256066717
  - # 10
    frequency:    8.0453370462
  - # 11
    frequency:    9.8174219481
  - # 12
    frequency:   10.8909622159
  - # 13
    frequency:   11.5239119277
  - # 14
    frequency:   12.4223925134
  - # 15
    frequency:   12.7716759852
  - # 16
    frequency:   13.5170570962
  - # 17
    frequency:   13.9183792840
  - # 18
    frequency:  110.8768461801

- q-position: [    0.0858586,    0.0000000,    0.0000000 ]
  distance:    0.0282759
  band:
  - # 1
    frequency:   -1.4049821527
  - # 2
    frequency:   -0.9278441456
  - # 3
    frequency:    0.0659976290
  - # 4
    frequency:    4.0791077405
  - # 5
    frequency:    4.2678406343
  - # 6
    frequency:    5.6368354408
  - # 7
    frequency:    6.4337454404
  - # 8
    frequency:    6.4375093327
  - # 9
    frequency:    7.9255925869
  - # 10
    frequency:    8.0605901716
  - # 11
    frequency:    9.7883564798
  - # 12
    frequency:   10.8590923922
  - # 13
    frequency:   11.5108891513
  - # 14
    frequency:   12.3738912529
  - # 15
    frequency:   12.7628259094
  - # 16
    frequency:   13.5012665709
  - # 17
    frequency:   13.9416797614
  - # 18
    frequency:  110.8431042792

- q-position: [    0.0909091,    0.0000000,    0.0000000 ]
  distance:    0.0299392
  band:
  - # 1
    frequency:   -1.4624775135
  - # 2
    frequency:   -0.9938676496
  - # 3
    frequency:    0.0818291571
  - # 4
    frequency:    4.0658188289
  - # 5
    frequency:    4.2624870249
  - # 6
    frequency:    5.6167008785
  - # 7
    frequency:    6.3786027506
  - # 8
    frequency:    6.3817506379
  - # 9
    frequency:    7.9251555794
  - # 10
    frequency:    8.0756807987
  - # 11
    frequency:    9.7576011378
  - # 12
    frequency:   10.8255591382
  - # 13
    frequency:   11.4952355494
  - # 14
    frequency:   12.3239515927
  - # 15
    frequency:   12.7524847956
  - # 16
    frequency:   13.4868663765
  - # 17
    frequency:   13.9662530303
  - # 18
    frequency:  110.8080324180

- q-position: [    0.0959596,    0.0000000,    0.0000000 ]
  distance:    0.0316025
  band:
  - # 1
    frequency:   -1.5165717436
  - # 2
    frequency:   -1.0605870968
  - # 3
    frequency:    0.1023346123
  - # 4
    frequency:    4.0536817775
  - # 5
    frequency:    4.2557196484
  - # 6
    frequency:    5.5952149727
  - # 7
    frequency:    6.3223256976
  - # 8
    frequency:    6.3248272491
  - # 9
    frequency:    7.9244676287
  - # 10
    frequency:    8.0905835606
  - # 11
    frequency:    9.7251767662
  - # 12
    frequency:   10.7903671981
  - # 13
    frequency:   11.4763981511
  - # 14
    frequency:   12.2733411074
  - # 15
    frequency:   12.7405809321
  - # 16
    frequency:   13.4740006618
  - # 17
    frequency:   13.9920224562
  - # 18
    frequency:  110.7717462327

- q-position: [    0.1010101,    0.0000000,    0.0000000 ]
  distance:    0.0332658
  band:
  - # 1
    frequency:   -1.5673465277
  - # 2
    frequency:   -1.1277248387
  - # 3
    frequency:    0.1276468817
  - # 4
    frequency:    4.0428744562
  - # 5
    frequency:    4.2473755175
  - # 6
    frequency:    5.5723234253
  - # 7
    frequency:    6.2650828068
  - # 8
    frequency:    6.2668881826
  - # 9
    frequency:    7.9237082854
  - # 10
    frequency:    8.1052798608
  - # 11
    frequency:    9.6911105985
  - # 12
    frequency:   10.7535038956
  - # 13
    frequency:   11.4537655283
  - # 14
    frequency:   12.2229553397
  - # 15
    frequency:   12.7270544898
  - # 16
    frequency:   13.4627787221
  - # 17
    frequency:   14.0189012944
  - # 18
    frequency:  110.7343650622

- q-position: [    0.1060606,    0.0000000,    0.0000000 ]
  distance:    0.0349290
  band:
  - # 1
    frequency:   -1.6149382982
  - # 2
    frequency:   -1.1949717351
  - # 3
    frequency:    0.1579357998
  - # 4
    frequency:    4.0335472128
  - # 5
    frequency:    4.2372845769
  - # 6
    frequency:    5.5479679006
  - # 7
    frequency:    6.2070583148
  - # 8
    frequency:    6.2080774383
  - # 9
    frequency:    7.9230574999
  - # 10
    frequency:    8.1197562765
  - # 11
    frequency:    9.6554372382
  - # 12
    frequency:   10.7149355127
  - # 13
    frequency:   11.4267089423
  - # 14
    frequency:   12.1737771004
  - # 15
    frequency:   12.7118571700
  - # 16
    frequency:   13.4532795459
  - # 17
    frequency:   14.0467939809
  - # 18
    frequency:  110.6960115053

- q-position: [    0.1111111,    0.0000000,    0.0000000 ]
  distance:    0.0365923
  band:
  - # 1
    frequency:   -1.6595440980
  - # 2
    frequency:   -1.2619919937
  - # 3
    frequency:    0.1934176089
  - # 4
    frequency:    4.0258197795
  - # 5
    frequency:    4.2252694206
  - # 6
    frequency:    5.5220888011
  - # 7
    frequency:    6.1484526367
  - # 8
    frequency:    6.1485346468
  - # 9
    frequency:    7.9226891254
  - # 10
    frequency:    8.1340032224
  - # 11
    frequency:    9.6181995233
  - # 12
    frequency:   10.6746038064
  - # 13
    frequency:   11.3946547325
  - # 14
    frequency:   12.1268039456
  - # 15
    frequency:   12.6949516335
  - # 16
    frequency:   13.4455570413
  - # 17
    frequency:   14.0755975604
  - # 18
    frequency:  110.6568109642

- q-position: [    0.1161616,    0.0000000,    0.0000000 ]
  distance:    0.0382556
  band:
  - # 1
    frequency:   -1.7014266229
  - # 2
    frequency:   -1.3284286032
  - # 3
    frequency:    0.2343367529
  - # 4
    frequency:    4.0197793175
  - # 5
    frequency:    4.2111451438
  - # 6
    frequency:    5.4946295846
  - # 7
    frequency:    6.0883955007
  - # 8
    frequency:    6.0894799551
  - # 9
    frequency:    7.9227652577
  - # 10
    frequency:    8.1480138427
  - # 11
    frequency:    9.5794492699
  - # 12
    frequency:   10.6324230975
  - # 13
    frequency:   11.3571854884
  - # 14
    frequency:   12.0829463533
  - # 15
    frequency:   12.6763107908
  - # 16
    frequency:   13.4396453686
  - # 17
    frequency:   14.1052031697
  - # 18
    frequency:  110.6168911777

- q-position: [    0.1212121,    0.0000000,    0.0000000 ]
  distance:    0.0399189
  band:
  - # 1
    frequency:   -1.7409173383
  - # 2
    frequency:   -1.3939090647
  - # 3
    frequency:    0.2809397574
  - # 4
    frequency:    4.0154797047
  - # 5
    frequency:    4.1947194133
  - # 6
    frequency:    5.4655429358
  - # 7
    frequency:    6.0277919979
  - # 8
    frequency:    6.0303624595
  - # 9
    frequency:    7.9234315230
  - # 10
    frequency:    8.1617830975
  - # 11
    frequency:    9.5392479016
  - # 12
    frequency:   10.5882786896
  - # 13
    frequency:   11.3141504413
  - # 14
    frequency:   12.0429157295
  - # 15
    frequency:   12.6559170198
  - # 16
    frequency:   13.4355639704
  - # 17
    frequency:   14.1354975083
  - # 18
    frequency:  110.5763817441

- q-position: [    0.1262626,    0.0000000,    0.0000000 ]
  distance:    0.0415822
  band:
  - # 1
    frequency:   -1.7784162060
  - # 2
    frequency:   -1.4580511089
  - # 3
    frequency:    0.3334470964
  - # 4
    frequency:    4.0129420762
  - # 5
    frequency:    4.1757928458
  - # 6
    frequency:    5.4347989181
  - # 7
    frequency:    5.9668525270
  - # 8
    frequency:    5.9713209999
  - # 9
    frequency:    7.9248133739
  - # 10
    frequency:    8.1753070190
  - # 11
    frequency:    9.4976669895
  - # 12
    frequency:   10.5420278274
  - # 13
    frequency:   11.2657497976
  - # 14
    frequency:   12.0071364493
  - # 15
    frequency:   12.6337613652
  - # 16
    frequency:   13.4333220548
  - # 17
    frequency:   14.1663642419
  - # 18
    frequency:  110.5354136364

- q-position: [    0.1313131,    0.0000000,    0.0000000 ]
  distance:    0.0432455
  band:
  - # 1
    frequency:   -1.8143863322
  - # 2
    frequency:   -1.5204680996
  - # 3
    frequency:    0.3920244879
  - # 4
    frequency:    4.0121565379
  - # 5
    frequency:    4.1541597897
  - # 6
    frequency:    5.4023948489
  - # 7
    frequency:    5.9057018238
  - # 8
    frequency:    5.9125623709
  - # 9
    frequency:    7.9270134020
  - # 10
    frequency:    8.1885821089
  - # 11
    frequency:    9.4547887363
  - # 12
    frequency:   10.4935049228
  - # 13
    frequency:   11.2125585088
  - # 14
    frequency:   11.9757146954
  - # 15
    frequency:   12.6098427571
  - # 16
    frequency:   13.4329224204
  - # 17
    frequency:   14.1976852997
  - # 18
    frequency:  110.4941187118

- q-position: [    0.1363636,    0.0000000,    0.0000000 ]
  distance:    0.0449088
  band:
  - # 1
    frequency:   -1.8493419384
  - # 2
    frequency:   -1.5807738618
  - # 3
    frequency:    0.4567546510
  - # 4
    frequency:    4.0130848905
  - # 5
    frequency:    4.1296095920
  - # 6
    frequency:    5.3683660296
  - # 7
    frequency:    5.8444608252
  - # 8
    frequency:    5.8542641517
  - # 9
    frequency:    7.9301096338
  - # 10
    frequency:    8.2016048594
  - # 11
    frequency:    9.4107064534
  - # 12
    frequency:   10.4425332076
  - # 13
    frequency:   11.1554776259
  - # 14
    frequency:   11.9484736492
  - # 15
    frequency:   12.5841672741
  - # 16
    frequency:   13.4343646045
  - # 17
    frequency:   14.2293420438
  - # 18
    frequency:  110.4526292164

- q-position: [    0.1414141,    0.0000000,    0.0000000 ]
  distance:    0.0465721
  band:
  - # 1
    frequency:   -1.8838286764
  - # 2
    frequency:   -1.6385867339
  - # 3
    frequency:    0.5276113933
  - # 4
    frequency:    4.0156641429
  - # 5
    frequency:    4.1019284199
  - # 6
    frequency:    5.3327956857
  - # 7
    frequency:    5.7832464529
  - # 8
    frequency:    5.7965589193
  - # 9
    frequency:    7.9341547451
  - # 10
    frequency:    8.2143713778
  - # 11
    frequency:    9.3655250854
  - # 12
    frequency:   10.3889449446
  - # 13
    frequency:   11.0956308956
  - # 14
    frequency:   11.9250350205
  - # 15
    frequency:   12.5567474648
  - # 16
    frequency:   13.4376473885
  - # 17
    frequency:   14.2612162968
  - # 18
    frequency:  110.4110772888

- q-position: [    0.1464646,    0.0000000,    0.0000000 ]
  distance:    0.0482354
  band:
  - # 1
    frequency:   -1.9183965487
  - # 2
    frequency:   -1.6935327118
  - # 3
    frequency:    0.6044387503
  - # 4
    frequency:    4.0198105575
  - # 5
    frequency:    4.0709016745
  - # 6
    frequency:    5.2958217843
  - # 7
    frequency:    5.7221713580
  - # 8
    frequency:    5.7395204945
  - # 9
    frequency:    7.9391761169
  - # 10
    frequency:    8.2268770992
  - # 11
    frequency:    9.3193618457
  - # 12
    frequency:   10.3326113157
  - # 13
    frequency:   11.0342393345
  - # 14
    frequency:   11.9049127690
  - # 15
    frequency:   12.5276017305
  - # 16
    frequency:   13.4427707189
  - # 17
    frequency:   14.2931912290
  - # 18
    frequency:  110.3695944624

- q-position: [    0.1515152,    0.0000000,    0.0000000 ]
  distance:    0.0498986
  band:
  - # 1
    frequency:   -1.9535674371
  - # 2
    frequency:   -1.7452476153
  - # 3
    frequency:    0.6869380557
  - # 4
    frequency:    4.0254239582
  - # 5
    frequency:    4.0363170163
  - # 6
    frequency:    5.2576381306
  - # 7
    frequency:    5.6613436659
  - # 8
    frequency:    5.6831553152
  - # 9
    frequency:    7.9451766548
  - # 10
    frequency:    8.2391165773
  - # 11
    frequency:    9.2723470230
  - # 12
    frequency:   10.2734806425
  - # 13
    frequency:   10.9725021263
  - # 14
    frequency:   11.8875916808
  - # 15
    frequency:   12.4967537676
  - # 16
    frequency:   13.4497371091
  - # 17
    frequency:   14.3251521085
  - # 18
    frequency:  110.3283111699

- q-position: [    0.1565657,    0.0000000,    0.0000000 ]
  distance:    0.0515619
  band:
  - # 1
    frequency:   -1.9898010071
  - # 2
    frequency:   -1.7933782703
  - # 3
    frequency:    0.7746648956
  - # 4
    frequency:    3.9979680326
  - # 5
    frequency:    4.0323920396
  - # 6
    frequency:    5.2184876451
  - # 7
    frequency:    5.6008667689
  - # 8
    frequency:    5.6274017114
  - # 9
    frequency:    7.9521363112
  - # 10
    frequency:    8.2510833394
  - # 11
    frequency:    9.2246250092
  - # 12
    frequency:   10.2116198134
  - # 13
    frequency:   10.9114997851
  - # 14
    frequency:   11.8725796032
  - # 15
    frequency:   12.4642320637
  - # 16
    frequency:   13.4585525804
  - # 17
    frequency:   14.3569869250
  - # 18
    frequency:  110.2873562516

- q-position: [    0.1616162,    0.0000000,    0.0000000 ]
  distance:    0.0532252
  band:
  - # 1
    frequency:   -2.0274638677
  - # 2
    frequency:   -1.8375827355
  - # 3
    frequency:    0.8670358930
  - # 4
    frequency:    3.9556586770
  - # 5
    frequency:    4.0405944348
  - # 6
    frequency:    5.1786469918
  - # 7
    frequency:    5.5408392215
  - # 8
    frequency:    5.5721387397
  - # 9
    frequency:    7.9600142821
  - # 10
    frequency:    8.2627697989
  - # 11
    frequency:    9.1763555638
  - # 12
    frequency:   10.1472500582
  - # 13
    frequency:   10.8521263996
  - # 14
    frequency:   11.8594349944
  - # 15
    frequency:   12.4300694388
  - # 16
    frequency:   13.4692271981
  - # 17
    frequency:   14.3885868997
  - # 18
    frequency:  110.2468564693

- q-position: [    0.1666667,    0.0000000,    0.0000000 ]
  distance:    0.0548885
  band:
  - # 1
    frequency:   -2.0668067377
  - # 2
    frequency:   -1.8775296301
  - # 3
    frequency:    0.9633426793
  - # 4
    frequency:    3.9092088656
  - # 5
    frequency:    4.0499063267
  - # 6
    frequency:    5.1384033264
  - # 7
    frequency:    5.4813548102
  - # 8
    frequency:    5.5172047062
  - # 9
    frequency:    7.9687518848
  - # 10
    frequency:    8.2741672179
  - # 11
    frequency:    9.1277152690
  - # 12
    frequency:   10.0807668585
  - # 13
    frequency:   10.7950536643
  - # 14
    frequency:   11.8477769243
  - # 15
    frequency:   12.3943026238
  - # 16
    frequency:   13.4817752481
  - # 17
    frequency:   14.4198468946
  - # 18
    frequency:  110.2069360278

- q-position: [    0.1717172,    0.0000000,    0.0000000 ]
  distance:    0.0565518
  band:
  - # 1
    frequency:   -2.1079529156
  - # 2
    frequency:   -1.9128966209
  - # 3
    frequency:    1.0627680299
  - # 4
    frequency:    3.8584621302
  - # 5
    frequency:    4.0602014085
  - # 6
    frequency:    5.0980251264
  - # 7
    frequency:    5.4225028868
  - # 8
    frequency:    5.4624242719
  - # 9
    frequency:    7.9782761713
  - # 10
    frequency:    8.2852657116
  - # 11
    frequency:    9.0788990175
  - # 12
    frequency:   10.0127366538
  - # 13
    frequency:   10.7407264353
  - # 14
    frequency:   11.8372848319
  - # 15
    frequency:   12.3569718675
  - # 16
    frequency:   13.4962151010
  - # 17
    frequency:   14.4506657356
  - # 18
    frequency:  110.1677161064

- q-position: [    0.1767677,    0.0000000,    0.0000000 ]
  distance:    0.0582151
  band:
  - # 1
    frequency:   -2.1508990552
  - # 2
    frequency:   -1.9433681188
  - # 3
    frequency:    1.1643975835
  - # 4
    frequency:    3.8032971194
  - # 5
    frequency:    4.0713540190
  - # 6
    frequency:    5.0577292194
  - # 7
    frequency:    5.3643690763
  - # 8
    frequency:    5.4076426652
  - # 9
    frequency:    7.9885043683
  - # 10
    frequency:    8.2960542912
  - # 11
    frequency:    9.0301212289
  - # 12
    frequency:    9.9438694772
  - # 13
    frequency:   10.6893851704
  - # 14