nqpoint: 300    
npath: 3      
segment_nqpoint:
- 100
- 100
- 100
labels:
- [ 'G', 'M' ]
- [ 'M', 'K' ]
- [ 'K', 'G' ]
reciprocal_lattice:
- [   0.29548109,   0.17059609,   0.00000000 ] # a*
- [   0.00000000,   0.34119217,   0.00000000 ] # b*
- [   0.00000000,   0.00000000,   0.03880531 ] # c*
natom: 7      
lattice:
- [     3.384311331918572,     0.000000000000000,     0.000000000000000 ] # a
- [    -1.692155665959286,     2.930899587753404,     0.000000000000000 ] # b
- [     0.000000000000000,     0.000000000000000,    25.769669079077190 ] # c
points:
- symbol: C # 1
  coordinates: [  0.333332985432215,  0.666666983183674,  0.604560809090706 ]
  mass: 12.010700
- symbol: N # 2
  coordinates: [  0.000000000000000,  0.000000000000000,  0.435877252061395 ]
  mass: 14.006700
- symbol: N # 3
  coordinates: [  0.333332985432215,  0.666666983183674,  0.650752209025950 ]
  mass: 14.006700
- symbol: O # 4
  coordinates: [  0.666666984744047,  0.333332985985145,  0.349247790974050 ]
  mass: 15.999400
- symbol: S # 5
  coordinates: [  0.333332985432215,  0.666666983183674,  0.539880044608068 ]
  mass: 32.065000
- symbol: Sc # 6
  coordinates: [  0.333332985432215,  0.666666983183674,  0.373916466472426 ]
  mass: 44.955912
- symbol: Sc # 7
  coordinates: [  0.666666984744047,  0.333332985985145,  0.473643729960495 ]
  mass: 44.955912

phonon:
- q-position: [    0.0000000,    0.0000000,    0.0000000 ]
  distance:    0.0000000
  band:
  - # 1
    frequency:   -0.6346116380
  - # 2
    frequency:   -0.6346116380
  - # 3
    frequency:   -0.0000016020
  - # 4
    frequency:   -0.0000006818
  - # 5
    frequency:    0.0000018195
  - # 6
    frequency:    2.9780901346
  - # 7
    frequency:    2.9780901346
  - # 8
    frequency:    5.2439957038
  - # 9
    frequency:    5.8052261545
  - # 10
    frequency:    5.8052261545
  - # 11
    frequency:    9.7451291924
  - # 12
    frequency:   10.1813455292
  - # 13
    frequency:   10.1813455292
  - # 14
    frequency:   11.6177648296
  - # 15
    frequency:   11.6177648296
  - # 16
    frequency:   13.4718957957
  - # 17
    frequency:   13.4718957957
  - # 18
    frequency:   14.1976999615
  - # 19
    frequency:   16.8170583733
  - # 20
    frequency:   21.5790171363
  - # 21
    frequency:   65.2398800214

- q-position: [    0.0050505,    0.0000000,    0.0000000 ]
  distance:    0.0017232
  band:
  - # 1
    frequency:   -0.6346820281
  - # 2
    frequency:   -0.6303170616
  - # 3
    frequency:   -0.0445404380
  - # 4
    frequency:    0.0684776048
  - # 5
    frequency:    0.1304928072
  - # 6
    frequency:    2.9791128371
  - # 7
    frequency:    2.9816479470
  - # 8
    frequency:    5.2424544901
  - # 9
    frequency:    5.8057975076
  - # 10
    frequency:    5.8083077950
  - # 11
    frequency:    9.7441246976
  - # 12
    frequency:   10.1815503285
  - # 13
    frequency:   10.1840024480
  - # 14
    frequency:   11.6179856269
  - # 15
    frequency:   11.6237664126
  - # 16
    frequency:   13.4682314255
  - # 17
    frequency:   13.4717894234
  - # 18
    frequency:   14.1993761084
  - # 19
    frequency:   16.8169413675
  - # 20
    frequency:   21.5789143776
  - # 21
    frequency:   65.2397680219

- q-position: [    0.0101010,    0.0000000,    0.0000000 ]
  distance:    0.0034464
  band:
  - # 1
    frequency:   -0.6347836681
  - # 2
    frequency:   -0.6172958059
  - # 3
    frequency:   -0.0551421449
  - # 4
    frequency:    0.1364918854
  - # 5
    frequency:    0.2516853597
  - # 6
    frequency:    2.9821756366
  - # 7
    frequency:    2.9922748516
  - # 8
    frequency:    5.2379381029
  - # 9
    frequency:    5.8075096770
  - # 10
    frequency:    5.8174414579
  - # 11
    frequency:    9.7411498682
  - # 12
    frequency:   10.1821631590
  - # 13
    frequency:   10.1918168499
  - # 14
    frequency:   11.6186446813
  - # 15
    frequency:   11.6418012172
  - # 16
    frequency:   13.4573507464
  - # 17
    frequency:   13.4714697449
  - # 18
    frequency:   14.2042945414
  - # 19
    frequency:   16.8166037704
  - # 20
    frequency:   21.5786063695
  - # 21
    frequency:   65.2394322246

- q-position: [    0.0151515,    0.0000000,    0.0000000 ]
  distance:    0.0051696
  band:
  - # 1
    frequency:   -0.6346220968
  - # 2
    frequency:   -0.5951008161
  - # 3
    frequency:   -0.0655457657
  - # 4
    frequency:    0.2036790631
  - # 5
    frequency:    0.3747611444
  - # 6
    frequency:    2.9872627163
  - # 7
    frequency:    3.0098338812
  - # 8
    frequency:    5.2307439759
  - # 9
    frequency:    5.8103570134
  - # 10
    frequency:    5.8323178151
  - # 11
    frequency:    9.7363096959
  - # 12
    frequency:   10.1831793488
  - # 13
    frequency:   10.2043436876
  - # 14
    frequency:   11.6197320115
  - # 15
    frequency:   11.6719479322
  - # 16
    frequency:   13.4395691916
  - # 17
    frequency:   13.4709350794
  - # 18
    frequency:   14.2121474991
  - # 19
    frequency:   16.8160858777
  - # 20
    frequency:   21.5780939133
  - # 21
    frequency:   65.2388732321

- q-position: [    0.0202020,    0.0000000,    0.0000000 ]
  distance:    0.0068928
  band:
  - # 1
    frequency:   -0.6337980723
  - # 2
    frequency:   -0.5628668411
  - # 3
    frequency:   -0.0729680003
  - # 4
    frequency:    0.2698287106
  - # 5
    frequency:    0.4984916661
  - # 6
    frequency:    2.9943480653
  - # 7
    frequency:    3.0341051897
  - # 8
    frequency:    5.2212984795
  - # 9
    frequency:    5.8143301699
  - # 10
    frequency:    5.8524910638
  - # 11
    frequency:    9.7297486436
  - # 12
    frequency:   10.1845912143
  - # 13
    frequency:   10.2209135178
  - # 14
    frequency:   11.6212310865
  - # 15
    frequency:   11.7143009472
  - # 16
    frequency:   13.4153493712
  - # 17
    frequency:   13.4701826372
  - # 18
    frequency:   14.2224865674
  - # 19
    frequency:   16.8154549670
  - # 20
    frequency:   21.5773783380
  - # 21
    frequency:   65.2380920464

- q-position: [    0.0252525,    0.0000000,    0.0000000 ]
  distance:    0.0086160
  band:
  - # 1
    frequency:   -0.6318894122
  - # 2
    frequency:   -0.5190982094
  - # 3
    frequency:   -0.0733831252
  - # 4
    frequency:    0.3348815776
  - # 5
    frequency:    0.6225553608
  - # 6
    frequency:    3.0033959880
  - # 7
    frequency:    3.0647975949
  - # 8
    frequency:    5.2100848230
  - # 9
    frequency:    5.8194162040
  - # 10
    frequency:    5.8774515875
  - # 11
    frequency:    9.7216209765
  - # 12
    frequency:   10.1863882095
  - # 13
    frequency:   10.2407188695
  - # 14
    frequency:   11.6231189819
  - # 15
    frequency:   11.7689204757
  - # 16
    frequency:   13.3852336644
  - # 17
    frequency:   13.4692085379
  - # 18
    frequency:   14.2347924980
  - # 19
    frequency:   16.8148054770
  - # 20
    frequency:   21.5764614915
  - # 21
    frequency:   65.2370900659

- q-position: [    0.0303030,    0.0000000,    0.0000000 ]
  distance:    0.0103392
  band:
  - # 1
    frequency:   -0.6285047757
  - # 2
    frequency:   -0.4612786898
  - # 3
    frequency:   -0.0576499047
  - # 4
    frequency:    0.3988928647
  - # 5
    frequency:    0.7468152397
  - # 6
    frequency:    3.0143617841
  - # 7
    frequency:    3.1015627723
  - # 8
    frequency:    5.1975829784
  - # 9
    frequency:    5.8255987159
  - # 10
    frequency:    5.9066867713
  - # 11
    frequency:    9.7120689549
  - # 12
    frequency:   10.1885571294
  - # 13
    frequency:   10.2629037236
  - # 14
    frequency:   11.6253665998
  - # 15
    frequency:   11.8357729291
  - # 16
    frequency:   13.3497865816
  - # 17
    frequency:   13.4680078356
  - # 18
    frequency:   14.2485369499
  - # 19
    frequency:   16.8142592619
  - # 20
    frequency:   21.5753457271
  - # 21
    frequency:   65.2358690802

- q-position: [    0.0353535,    0.0000000,    0.0000000 ]
  distance:    0.0120623
  band:
  - # 1
    frequency:   -0.6233052113
  - # 2
    frequency:   -0.3853036421
  - # 3
    frequency:    0.0554742138
  - # 4
    frequency:    0.4619875562
  - # 5
    frequency:    0.8711825968
  - # 6
    frequency:    3.0271925714
  - # 7
    frequency:    3.1440106249
  - # 8
    frequency:    5.1842315962
  - # 9
    frequency:    5.8328580213
  - # 10
    frequency:    5.9397199657
  - # 11
    frequency:    9.7012123331
  - # 12
    frequency:   10.1910823575
  - # 13
    frequency:   10.2866422374
  - # 14
    frequency:   11.6279389508
  - # 15
    frequency:   11.9146701263
  - # 16
    frequency:   13.3095587216
  - # 17
    frequency:   13.4665745509
  - # 18
    frequency:   14.2632254876
  - # 19
    frequency:   16.8139659228
  - # 20
    frequency:   21.5740338875
  - # 21
    frequency:   65.2344312646

- q-position: [    0.0404040,    0.0000000,    0.0000000 ]
  distance:    0.0137855
  band:
  - # 1
    frequency:   -0.6160032331
  - # 2
    frequency:   -0.2868925732
  - # 3
    frequency:    0.1420667679
  - # 4
    frequency:    0.5243233137
  - # 5
    frequency:    0.9955800851
  - # 6
    frequency:    3.0418282171
  - # 7
    frequency:    3.1917244542
  - # 8
    frequency:    5.1704106299
  - # 9
    frequency:    5.8411713539
  - # 10
    frequency:    5.9761288421
  - # 11
    frequency:    9.6891469709
  - # 12
    frequency:   10.1939461533
  - # 13
    frequency:   10.3111985032
  - # 14
    frequency:   11.6307954992
  - # 15
    frequency:   12.0052145046
  - # 16
    frequency:   13.2650754032
  - # 17
    frequency:   13.4649017101
  - # 18
    frequency:   14.2784212507
  - # 19
    frequency:   16.8141032150
  - # 20
    frequency:   21.5725292856
  - # 21
    frequency:   65.2327791729

- q-position: [    0.0454545,    0.0000000,    0.0000000 ]
  distance:    0.0155087
  band:
  - # 1
    frequency:   -0.6063503660
  - # 2
    frequency:   -0.1795658784
  - # 3
    frequency:    0.2578638441
  - # 4
    frequency:    0.5860650969
  - # 5
    frequency:    1.1199288087
  - # 6
    frequency:    3.0582023431
  - # 7
    frequency:    3.2442748448
  - # 8
    frequency:    5.1564384072
  - # 9
    frequency:    5.8505130942
  - # 10
    frequency:    6.0155493690
  - # 11
    frequency:    9.6759485005
  - # 12
    frequency:   10.1971289664
  - # 13
    frequency:   10.3359636458
  - # 14
    frequency:   11.6338905698
  - # 15
    frequency:   12.1067515335
  - # 16
    frequency:   13.2168509031
  - # 17
    frequency:   13.4629813911
  - # 18
    frequency:   14.2937541702
  - # 19
    frequency:   16.8148775251
  - # 20
    frequency:   21.5708356818
  - # 21
    frequency:   65.2309157285

- q-position: [    0.0505051,    0.0000000,    0.0000000 ]
  distance:    0.0172319
  band:
  - # 1
    frequency:   -0.5941200725
  - # 2
    frequency:   -0.0677004345
  - # 3
    frequency:    0.3858756664
  - # 4
    frequency:    0.6473699068
  - # 5
    frequency:    1.2441432048
  - # 6
    frequency:    3.0762433688
  - # 7
    frequency:    3.3012315339
  - # 8
    frequency:    5.1425767361
  - # 9
    frequency:    5.8608550177
  - # 10
    frequency:    6.0576717947
  - # 11
    frequency:    9.6616776717
  - # 12
    frequency:   10.2006097719
  - # 13
    frequency:   10.3604704752
  - # 14
    frequency:   11.6371738145
  - # 15
    frequency:   12.2183167439
  - # 16
    frequency:   13.1654373273
  - # 17
    frequency:   13.4608047759
  - # 18
    frequency:   14.3089217687
  - # 19
    frequency:   16.8165244001
  - # 20
    frequency:   21.5689572598
  - # 21
    frequency:   65.2288442152

- q-position: [    0.0555556,    0.0000000,    0.0000000 ]
  distance:    0.0189551
  band:
  - # 1
    frequency:   -0.5790888511
  - # 2
    frequency:    0.1335336472
  - # 3
    frequency:    0.5007978047
  - # 4
    frequency:    0.7083785732
  - # 5
    frequency:    1.3681291387
  - # 6
    frequency:    3.0958755608
  - # 7
    frequency:    3.3621728995
  - # 8
    frequency:    5.1290394308
  - # 9
    frequency:    5.8721665605
  - # 10
    frequency:    6.1022332342
  - # 11
    frequency:    9.6463854161
  - # 12
    frequency:   10.2043664144
  - # 13
    frequency:   10.3843893376
  - # 14
    frequency:   11.6405907379
  - # 15
    frequency:   12.3385301711
  - # 16
    frequency:   13.1115480307
  - # 17
    frequency:   13.4583622103
  - # 18
    frequency:   14.3236865763
  - # 19
    frequency:   16.8193090947
  - # 20
    frequency:   21.5668985995
  - # 21
    frequency:   65.2265682667

- q-position: [    0.0606061,    0.0000000,    0.0000000 ]
  distance:    0.0206783
  band:
  - # 1
    frequency:   -0.5610154136
  - # 2
    frequency:    0.2070675934
  - # 3
    frequency:    0.6040113270
  - # 4
    frequency:    0.7692119193
  - # 5
    frequency:    1.4917835194
  - # 6
    frequency:    3.1170200583
  - # 7
    frequency:    3.4266930071
  - # 8
    frequency:    5.1160015576
  - # 9
    frequency:    5.8844150945
  - # 10
    frequency:    6.1490095519
  - # 11
    frequency:    9.6301168401
  - # 12
    frequency:   10.2083759531
  - # 13
    frequency:   10.4075110380
  - # 14
    frequency:   11.6440832769
  - # 15
    frequency:   12.4652710229
  - # 16
    frequency:   13.0564136704
  - # 17
    frequency:   13.4556432694
  - # 18
    frequency:   14.3378737573
  - # 19
    frequency:   16.8235270735
  - # 20
    frequency:   21.5646646478
  - # 21
    frequency:   65.2240918542

- q-position: [    0.0656566,    0.0000000,    0.0000000 ]
  distance:    0.0224015
  band:
  - # 1
    frequency:   -0.5396157622
  - # 2
    frequency:    0.2704626787
  - # 3
    frequency:    0.6991916489
  - # 4
    frequency:    0.8299694692
  - # 5
    frequency:    1.6149946341
  - # 6
    frequency:    3.1395958520
  - # 7
    frequency:    3.4944063727
  - # 8
    frequency:    5.1036080852
  - # 9
    frequency:    5.8975662091
  - # 10
    frequency:    6.1978078590
  - # 11
    frequency:    9.6129140354
  - # 12
    frequency:   10.2126150004
  - # 13
    frequency:   10.4297231952
  - # 14
    frequency:   11.6475904314
  - # 15
    frequency:   12.5943759020
  - # 16
    frequency:   13.0031185000
  - # 17
    frequency:   13.4526368298
  - # 18
    frequency:   14.3513715173
  - # 19
    frequency:   16.8295043623
  - # 20
    frequency:   21.5622606889
  - # 21
    frequency:   65.2214192739

- q-position: [    0.0707071,    0.0000000,    0.0000000 ]
  distance:    0.0241247
  band:
  - # 1
    frequency:   -0.5145296936
  - # 2
    frequency:    0.3315569010
  - # 3
    frequency:    0.7887038344
  - # 4
    frequency:    0.8907295761
  - # 5
    frequency:    1.7376427598
  - # 6
    frequency:    3.1635206961
  - # 7
    frequency:    3.5649507282
  - # 8
    frequency:    5.0919814476
  - # 9
    frequency:    5.9115839946
  - # 10
    frequency:    6.2484601232
  - # 11
    frequency:    9.5948178951
  - # 12
    frequency:   10.2170600442
  - # 13
    frequency:   10.4509853556
  - # 14
    frequency:   11.6510489395
  - # 15
    frequency:   12.7126770710
  - # 16
    frequency:   12.9635926153
  - # 17
    frequency:   13.4493311477
  - # 18
    frequency:   14.3641365141
  - # 19
    frequency:   16.8375975788
  - # 20
    frequency:   21.5596923120
  - # 21
    frequency:   65.2185551336

- q-position: [    0.0757576,    0.0000000,    0.0000000 ]
  distance:    0.0258479
  band:
  - # 1
    frequency:   -0.4852702127
  - # 2
    frequency:    0.3925181971
  - # 3
    frequency:    0.8740065288
  - # 4
    frequency:    0.9515503362
  - # 5
    frequency:    1.8596007919
  - # 6
    frequency:    3.1887119399
  - # 7
    frequency:    3.6379881382
  - # 8
    frequency:    5.0812279582
  - # 9
    frequency:    5.9264313219
  - # 10
    frequency:    6.3008179691
  - # 11
    frequency:    9.5758691983
  - # 12
    frequency:   10.2216877516
  - # 13
    frequency:   10.4713063991
  - # 14
    frequency:   11.6543939922
  - # 15
    frequency:   12.7695867126
  - # 16
    frequency:   12.9870478849
  - # 17
    frequency:   13.4457139427
  - # 18
    frequency:   14.3762069460
  - # 19
    frequency:   16.8481933783
  - # 20
    frequency:   21.5569653790
  - # 21
    frequency:   65.2155043376

- q-position: [    0.0808081,    0.0000000,    0.0000000 ]
  distance:    0.0275711
  band:
  - # 1
    frequency:   -0.4511383131
  - # 2
    frequency:    0.4541262120
  - # 3
    frequency:    0.9560361767
  - # 4
    frequency:    1.0124709364
  - # 5
    frequency:    1.9807347401
  - # 6
    frequency:    3.2150872711
  - # 7
    frequency:    3.7132048131
  - # 8
    frequency:    5.0714432066
  - # 9
    frequency:    5.9420701162
  - # 10
    frequency:    6.3547485574
  - # 11
    frequency:    9.5561092054
  - # 12
    frequency:   10.2264752451
  - # 13
    frequency:   10.4907259748
  - # 14
    frequency:   11.6575599788
  - # 15
    frequency:   12.7400991032
  - # 16
    frequency:   13.0969799298
  - # 17
    frequency:   13.4417724880
  - # 18
    frequency:   14.3877274235
  - # 19
    frequency:   16.8617069292
  - # 20
    frequency:   21.5540859913
  - # 21
    frequency:   65.2122720715

- q-position: [    0.0858586,    0.0000000,    0.0000000 ]
  distance:    0.0292943
  band:
  - # 1
    frequency:   -0.4110623870
  - # 2
    frequency:    0.5166714433
  - # 3
    frequency:    1.0354212838
  - # 4
    frequency:    1.0735132499
  - # 5
    frequency:    2.1009040076
  - # 6
    frequency:    3.2425653644
  - # 7
    frequency:    3.7903099311
  - # 8
    frequency:    5.0627166408
  - # 9
    frequency:    5.9584616210
  - # 10
    frequency:    6.4101313694
  - # 11
    frequency:    9.5355799481
  - # 12
    frequency:   10.2314003527
  - # 13
    frequency:   10.5093003532
  - # 14
    frequency:   11.6604812557
  - # 15
    frequency:   12.6808854046
  - # 16
    frequency:   13.2350545275
  - # 17
    frequency:   13.4374937048
  - # 18
    frequency:   14.3989925771
  - # 19
    frequency:   16.8785788676
  - # 20
    frequency:   21.5510604563
  - # 21
    frequency:   65.2088637861

- q-position: [    0.0909091,    0.0000000,    0.0000000 ]
  distance:    0.0310175
  band:
  - # 1
    frequency:   -0.3632520784
  - # 2
    frequency:    0.5802380102
  - # 3
    frequency:    1.1126000172
  - # 4
    frequency:    1.1346835726
  - # 5
    frequency:    2.2199614218
  - # 6
    frequency:    3.2710664372
  - # 7
    frequency:    3.8690337242
  - # 8
    frequency:    5.0551355517
  - # 9
    frequency:    5.9755666489
  - # 10
    frequency:    6.4668557158
  - # 11
    frequency:    9.5143243452
  - # 12
    frequency:   10.2364418263
  - # 13
    frequency:   10.5270922875
  - # 14
    frequency:   11.6630929290
  - # 15
    frequency:   12.6127640168
  - # 16
    frequency:   13.3785847449
  - # 17
    frequency:   13.4328642633
  - # 18
    frequency:   14.4105212757
  - # 19
    frequency:   16.8992700002
  - # 20
    frequency:   21.5478952530
  - # 21
    frequency:   65.2052851809

- q-position: [    0.0959596,    0.0000000,    0.0000000 ]
  distance:    0.0327407
  band:
  - # 1
    frequency:   -0.3042965453
  - # 2
    frequency:    0.6448137918
  - # 3
    frequency:    1.1878874295
  - # 4
    frequency:    1.1959744339
  - # 5
    frequency:    2.3377530048
  - # 6
    frequency:    3.3005127111
  - # 7
    frequency:    3.9491250137
  - # 8
    frequency:    5.0487886721
  - # 9
    frequency:    5.9933458179
  - # 10
    frequency:    6.5248188074
  - # 11
    frequency:    9.4923862289
  - # 12
    frequency:   10.2415795304
  - # 13
    frequency:   10.5441641194
  - # 14
    frequency:   11.6653316417
  - # 15
    frequency:   12.5404665837
  - # 16
    frequency:   13.4278706867
  - # 17
    frequency:   13.5206614625
  - # 18
    frequency:   14.4231804347
  - # 19
    frequency:   16.9242528391
  - # 20
    frequency:   21.5445969988
  - # 21
    frequency:   65.2015421862

- q-position: [    0.1010101,    0.0000000,    0.0000000 ]
  distance:    0.0344639
  band:
  - # 1
    frequency:   -0.2259186394
  - # 2
    frequency:    0.7103396145
  - # 3
    frequency:    1.2573664324
  - # 4
    frequency:    1.2615157329
  - # 5
    frequency:    2.4541175005
  - # 6
    frequency:    3.3308287861
  - # 7
    frequency:    4.0303483031
  - # 8
    frequency:    5.0437695986
  - # 9
    frequency:    6.0117597706
  - # 10
    frequency:    6.5839242531
  - # 11
    frequency:    9.4698103342
  - # 12
    frequency:   10.2467946005
  - # 13
    frequency:   10.5605733108
  - # 14
    frequency:   11.6671363561
  - # 15
    frequency:   12.4655897811
  - # 16
    frequency:   13.4224994611
  - # 17
    frequency:   13.6570254831
  - # 18
    frequency:   14.4383820476
  - # 19
    frequency:   16.9539989407
  - # 20
    frequency:   21.5411724156
  - # 21
    frequency:   65.1976409460

- q-position: [    0.1060606,    0.0000000,    0.0000000 ]
  distance:    0.0361870
  band:
  - # 1
    frequency:   -0.0861094787
  - # 2
    frequency:    0.7767333643
  - # 3
    frequency:    1.3188300575
  - # 4
    frequency:    1.3336595007
  - # 5
    frequency:    2.5688856834
  - # 6
    frequency:    3.3619419300
  - # 7
    frequency:    4.1124804429
  - # 8
    frequency:    5.0401802585
  - # 9
    frequency:    6.0307693760
  - # 10
    frequency:    6.6440808725
  - # 11
    frequency:    9.4466422807
  - # 12
    frequency:   10.2520695735
  - # 13
    frequency:   10.5763696624
  - # 14
    frequency:   11.6684491212
  - # 15
    frequency:   12.3889113203
  - # 16
    frequency:   13.4167371484
  - # 17
    frequency:   13.7835048017
  - # 18
    frequency:   14.4583532760
  - # 19
    frequency:   16.9889610752
  - # 20
    frequency:   21.5376282966
  - # 21
    frequency:   65.1935877996

- q-position: [    0.1111111,    0.0000000,    0.0000000 ]
  distance:    0.0379102
  band:
  - # 1
    frequency:    0.1953055451
  - # 2
    frequency:    0.8439025809
  - # 3
    frequency:    1.3803274606
  - # 4
    frequency:    1.4044520533
  - # 5
    frequency:    2.6818794909
  - # 6
    frequency:    3.3937822922
  - # 7
    frequency:    4.1953067697
  - # 8
    frequency:    5.0381346885
  - # 9
    frequency:    6.0503359116
  - # 10
    frequency:    6.7052017326
  - # 11
    frequency:    9.4229285646
  - # 12
    frequency:   10.2573884922
  - # 13
    frequency:   10.5915936236
  - # 14
    frequency:   11.6692158147
  - # 15
    frequency:   12.3109341746
  - # 16
    frequency:   13.4105705028
  - # 17
    frequency:   13.8952965538
  - # 18
    frequency:   14.4863374189
  - # 19
    frequency:   17.0295496170
  - # 20
    frequency:   21.5339714733
  - # 21
    frequency:   65.1893892632

- q-position: [    0.1161616,    0.0000000,    0.0000000 ]
  distance:    0.0396334
  band:
  - # 1
    frequency:    0.2924187045
  - # 2
    frequency:    0.9117513042
  - # 3
    frequency:    1.4418141462
  - # 4
    frequency:    1.4739964748
  - # 5
    frequency:    2.7929110385
  - # 6
    frequency:    3.4262830449
  - # 7
    frequency:    4.2786164442
  - # 8
    frequency:    5.0377634978
  - # 9
    frequency:    6.0704212267
  - # 10
    frequency:    6.7672033370
  - # 11
    frequency:    9.3987165662
  - # 12
    frequency:   10.2627369871
  - # 13
    frequency:   10.6062752344
  - # 14
    frequency:   11.6693868525
  - # 15
    frequency:   12.2320558210
  - # 16
    frequency:   13.4039865907
  - # 17
    frequency:   13.9872365227
  - # 18
    frequency:   14.5261864832
  - # 19
    frequency:   17.0761033618
  - # 20
    frequency:   21.5302087836
  - # 21
    frequency:   65.1850520110

- q-position: [    0.1212121,    0.0000000,    0.0000000 ]
  distance:    0.0413566
  band:
  - # 1
    frequency:    0.3668150702
  - # 2
    frequency:    0.9801838649
  - # 3
    frequency:    1.5032405612
  - # 4
    frequency:    1.5423732402
  - # 5
    frequency:    2.9017816004
  - # 6
    frequency:    3.4593804613
  - # 7
    frequency:    4.3621964286
  - # 8
    frequency:    5.0392196142
  - # 9
    frequency:    6.0909878854
  - # 10
    frequency:    6.8300049075
  - # 11
    frequency:    9.3740545781
  - # 12
    frequency:   10.2681023380
  - # 13
    frequency:   10.6204333541
  - # 14
    frequency:   11.6689178539
  - # 15
    frequency:   12.1526326416
  - # 16
    frequency:   13.3969729117
  - # 17
    frequency:   14.0555730463
  - # 18
    frequency:   14.5805573233
  - # 19
    frequency:   17.1288562914
  - # 20
    frequency:   21.5263470399
  - # 21
    frequency:   65.1805828572

- q-position: [    0.1262626,    0.0000000,    0.0000000 ]
  distance:    0.0430798
  band:
  - # 1
    frequency:    0.4302995272
  - # 2
    frequency:    1.0491069701
  - # 3
    frequency:    1.5645535617
  - # 4
    frequency:    1.6096456299
  - # 5
    frequency:    3.0082806782
  - # 6
    frequency:    3.4930139351
  - # 7
    frequency:    4.4458230133
  - # 8
    frequency:    5.0426863713
  - # 9
    frequency:    6.1119992898
  - # 10
    frequency:    6.8935277116
  - # 11
    frequency:    9.3489918509
  - # 12
    frequency:   10.2734735205
  - # 13
    frequency:   10.6340749153
  - # 14
    frequency:   11.6677702569
  - # 15
    frequency:   12.0730085370
  - # 16
    frequency:   13.3895175222
  - # 17
    frequency:   14.1003749268
  - # 18
    frequency:   14.6485098831
  - # 19
    frequency:   17.1879034737
  - # 20
    frequency:   21.5223929981
  - # 21
    frequency:   65.1759887363

- q-position: [    0.1313131,    0.0000000,    0.0000000 ]
  distance:    0.0448030
  band:
  - # 1
    frequency:    0.4870386895
  - # 2
    frequency:    1.1184308049
  - # 3
    frequency:    1.6256977499
  - # 4
    frequency:    1.6758636621
  - # 5
    frequency:    3.1121853289
  - # 6
    frequency:    3.5271259490
  - # 7
    frequency:    4.5292487559
  - # 8
    frequency:    5.0483899671
  - # 9
    frequency:    6.1334197840
  - # 10
    frequency:    6.9576943960
  - # 11
    frequency:    9.3235786571
  - # 12
    frequency:   10.2788412388
  - # 13
    frequency:   10.6471939979
  - # 14
    frequency:   11.6659118739
  - # 15
    frequency:   11.9935294807
  - # 16
    frequency:   13.3816091589
  - # 17
    frequency:   14.1255280641
  - # 18
    frequency:   14.7255266293
  - # 19
    frequency:   17.2531708633
  - # 20
    frequency:   21.5183533285
  - # 21
    frequency:   65.1712766854

- q-position: [    0.1363636,    0.0000000,    0.0000000 ]
  distance:    0.0465262
  band:
  - # 1
    frequency:    0.5390644202
  - # 2
    frequency:    1.1880695503
  - # 3
    frequency:    1.6866166745
  - # 4
    frequency:    1.7410670046
  - # 5
    frequency:    3.2132599991
  - # 6
    frequency:    3.5616619970
  - # 7
    frequency:    4.6121805212
  - # 8
    frequency:    5.0566204115
  - # 9
    frequency:    6.1552147384
  - # 10
    frequency:    7.0224282931
  - # 11
    frequency:    9.2978663725
  - # 12
    frequency:   10.2841979490
  - # 13
    frequency:   10.6597705426
  - # 14
    frequency:   11.6633173832
  - # 15
    frequency:   11.9145520318
  - # 16
    frequency:   13.3732373626
  - # 17
    frequency:   14.1361181868
  - # 18
    frequency:   14.8061424878
  - # 19
    frequency:   17.3243945596
  - # 20
    frequency:   21.5142345860
  - # 21
    frequency:   65.1664538247

- q-position: [    0.1414141,    0.0000000,    0.0000000 ]
  distance:    0.0482494
  band:
  - # 1
    frequency:    0.5875409901
  - # 2
    frequency:    1.2579415529
  - # 3
    frequency:    1.7472538947
  - # 4
    frequency:    1.8052871681
  - # 5
    frequency:    3.3112571960
  - # 6
    frequency:    3.5965704664
  - # 7
    frequency:    4.6942396288
  - # 8
    frequency:    5.0677696631
  - # 9
    frequency:    6.1773506153
  - # 10
    frequency:    7.0876526753
  - # 11
    frequency:    9.2719075722
  - # 12
    frequency:   10.2895378767
  - # 13
    frequency:   10.6717685435
  - # 14
    frequency:   11.6599687483
  - # 15
    frequency:   11.8364491784
  - # 16
    frequency:   13.3643926008
  - # 17
    frequency:   14.1363615938
  - # 18
    frequency:   14.8860153076
  - # 19
    frequency:   17.4011144432
  - # 20
    frequency:   21.5100431832
  - # 21
    frequency:   65.1615273398

- q-position: [    0.1464646,    0.0000000,    0.0000000 ]
  distance:    0.0499726
  band:
  - # 1
    frequency:    0.6332054700
  - # 2
    frequency:    1.3279692862
  - # 3
    frequency:    1.8075539125
  - # 4
    frequency:    1.8685491857
  - # 5
    frequency:    3.4059194254
  - # 6
    frequency:    3.6318024866
  - # 7
    frequency:    4.7748849996
  - # 8
    frequency:    5.0824056635
  - # 9
    frequency:    6.1997950166
  - # 10
    frequency:    7.1532899345
  - # 11
    frequency:    9.2457561451
  - # 12
    frequency:   10.2948570298
  - # 13
    frequency:   10.6831335556
  - # 14
    frequency:   11.6558555617
  - # 15
    frequency:   11.7596151117
  - # 16
    frequency:   13.3550663875
  - # 17
    frequency:   14.1291625594
  - # 18
    frequency:   14.9623541535
  - # 19
    frequency:   17.4826848418
  - # 20
    frequency:   21.5057853644
  - # 21
    frequency:   65.1565044634

- q-position: [    0.1515152,    0.0000000,    0.0000000 ]
  distance:    0.0516958
  band:
  - # 1
    frequency:    0.6765576184
  - # 2
    frequency:    1.3980791896
  - # 3
    frequency:    1.8674629797
  - # 4
    frequency:    1.9308729156
  - # 5
    frequency:    3.4969829058
  - # 6
    frequency:    3.6673117475
  - # 7
    frequency:    4.8532605879
  - # 8
    frequency:    5.1014204975
  - # 9
    frequency:    6.2225167137
  - # 10
    frequency:    7.2192606703
  - # 11
    frequency:    9.2194674279
  - # 12
    frequency:   10.3001532091
  - # 13
    frequency:   10.6937893752
  - # 14
    frequency:   11.6509753083
  - # 15
    frequency:   11.6844697751
  - # 16
    frequency:   13.3452514012
  - # 17
    frequency:   14.1164071228
  - # 18
    frequency:   15.0335957468
  - # 19
    frequency:   17.5683015257
  - # 20
    frequency:   21.5014671811
  - # 21
    frequency:   65.1513924577