nqpoint: 300    
npath: 3      
segment_nqpoint:
- 100
- 100
- 100
labels:
- [ 'G', 'M' ]
- [ 'M', 'K' ]
- [ 'K', 'G' ]
reciprocal_lattice:
- [   0.29747374,   0.17174655,   0.00000000 ] # a*
- [   0.00000000,   0.34349309,   0.00000000 ] # b*
- [   0.00000000,   0.00000000,   0.03571068 ] # c*
natom: 9      
lattice:
- [     3.361641237184834,     0.000000000000000,     0.000000000000000 ] # a
- [    -1.680820618592416,     2.911266709777943,     0.000000000000000 ] # b
- [     0.000000000000000,     0.000000000000000,    28.002825655882472 ] # c
points:
- symbol: C # 1
  coordinates: [  0.000000000000000,  0.000000000000000,  0.500000029520168 ]
  mass: 12.010700
- symbol: C # 2
  coordinates: [  0.333332985432215,  0.666666983183674,  0.636166776991946 ]
  mass: 12.010700
- symbol: C # 3
  coordinates: [  0.666666984744047,  0.333332985985145,  0.363833222567447 ]
  mass: 12.010700
- symbol: N # 4
  coordinates: [  0.333332985432215,  0.666666983183674,  0.678603862674501 ]
  mass: 14.006700
- symbol: N # 5
  coordinates: [  0.666666984744047,  0.333332985985145,  0.321396137325499 ]
  mass: 14.006700
- symbol: O # 6
  coordinates: [  0.333332985432215,  0.666666983183674,  0.588392763603770 ]
  mass: 15.999400
- symbol: O # 7
  coordinates: [  0.666666984744047,  0.333332985985145,  0.411607236396230 ]
  mass: 15.999400
- symbol: Sc # 8
  coordinates: [  0.333332985432215,  0.666666983183674,  0.455261952442650 ]
  mass: 44.955912
- symbol: Sc # 9
  coordinates: [  0.666666984744047,  0.333332985985145,  0.544738047116743 ]
  mass: 44.955912

phonon:
- q-position: [    0.0000000,    0.0000000,    0.0000000 ]
  distance:    0.0000000
  band:
  - # 1
    frequency:   -1.2017706496
  - # 2
    frequency:   -1.2017706492
  - # 3
    frequency:   -1.1077322757
  - # 4
    frequency:   -1.1077322755
  - # 5
    frequency:   -0.0000365812
  - # 6
    frequency:   -0.0000003946
  - # 7
    frequency:    0.0000336954
  - # 8
    frequency:    4.5126429778
  - # 9
    frequency:    4.5126429779
  - # 10
    frequency:    5.5093505115
  - # 11
    frequency:    6.2600939155
  - # 12
    frequency:    6.2600939156
  - # 13
    frequency:    6.7705911224
  - # 14
    frequency:    6.7705911225
  - # 15
    frequency:    8.8382591009
  - # 16
    frequency:   12.0530146407
  - # 17
    frequency:   12.0530146409
  - # 18
    frequency:   12.0878483232
  - # 19
    frequency:   13.6321269292
  - # 20
    frequency:   13.6321269293
  - # 21
    frequency:   13.6927711035
  - # 22
    frequency:   13.6927711036
  - # 23
    frequency:   19.1974049175
  - # 24
    frequency:   31.8877901074
  - # 25
    frequency:   32.0029555007
  - # 26
    frequency:   67.8341340521
  - # 27
    frequency:   67.8468121282

- q-position: [    0.0050505,    0.0000000,    0.0000000 ]
  distance:    0.0017348
  band:
  - # 1
    frequency:   -1.2008889645
  - # 2
    frequency:   -1.1977168842
  - # 3
    frequency:   -1.1073386555
  - # 4
    frequency:   -1.1054729395
  - # 5
    frequency:    0.0023431875
  - # 6
    frequency:    0.0726468789
  - # 7
    frequency:    0.1322262295
  - # 8
    frequency:    4.5127547404
  - # 9
    frequency:    4.5137417220
  - # 10
    frequency:    5.5089535288
  - # 11
    frequency:    6.2598279961
  - # 12
    frequency:    6.2638863222
  - # 13
    frequency:    6.7706202077
  - # 14
    frequency:    6.7706326969
  - # 15
    frequency:    8.8383173098
  - # 16
    frequency:   12.0486564807
  - # 17
    frequency:   12.0527732186
  - # 18
    frequency:   12.0968349526
  - # 19
    frequency:   13.6322002598
  - # 20
    frequency:   13.6323829976
  - # 21
    frequency:   13.6927982872
  - # 22
    frequency:   13.6929819390
  - # 23
    frequency:   19.1959881146
  - # 24
    frequency:   31.8873721935
  - # 25
    frequency:   32.0024896867
  - # 26
    frequency:   67.8338997033
  - # 27
    frequency:   67.8465750573

- q-position: [    0.0101010,    0.0000000,    0.0000000 ]
  distance:    0.0034696
  band:
  - # 1
    frequency:   -1.1982665397
  - # 2
    frequency:   -1.1856788105
  - # 3
    frequency:   -1.1061557893
  - # 4
    frequency:   -1.0986697381
  - # 5
    frequency:    0.0093831700
  - # 6
    frequency:    0.1454681684
  - # 7
    frequency:    0.2652272651
  - # 8
    frequency:    4.5130904227
  - # 9
    frequency:    4.5170309026
  - # 10
    frequency:    5.5077820200
  - # 11
    frequency:    6.2590327680
  - # 12
    frequency:    6.2751591259
  - # 13
    frequency:    6.7707055401
  - # 14
    frequency:    6.7707694122
  - # 15
    frequency:    8.8384917129
  - # 16
    frequency:   12.0402609400
  - # 17
    frequency:   12.0520493879
  - # 18
    frequency:   12.1191085173
  - # 19
    frequency:   13.6324202237
  - # 20
    frequency:   13.6331513367
  - # 21
    frequency:   13.6928799395
  - # 22
    frequency:   13.6936135986
  - # 23
    frequency:   19.1917401531
  - # 24
    frequency:   31.8861195086
  - # 25
    frequency:   32.0010933441
  - # 26
    frequency:   67.8331971280
  - # 27
    frequency:   67.8458643149

- q-position: [    0.0151515,    0.0000000,    0.0000000 ]
  distance:    0.0052044
  band:
  - # 1
    frequency:   -1.1939699221
  - # 2
    frequency:   -1.1660106050
  - # 3
    frequency:   -1.1041776495
  - # 4
    frequency:   -1.0872413416
  - # 5
    frequency:    0.0211446639
  - # 6
    frequency:    0.2186276541
  - # 7
    frequency:    0.3996744826
  - # 8
    frequency:    4.5136512064
  - # 9
    frequency:    4.5224895228
  - # 10
    frequency:    5.5058905184
  - # 11
    frequency:    6.2577157659
  - # 12
    frequency:    6.2936048814
  - # 13
    frequency:    6.7708413999
  - # 14
    frequency:    6.7710388445
  - # 15
    frequency:    8.8387816677
  - # 16
    frequency:   12.0307951924
  - # 17
    frequency:   12.0508444566
  - # 18
    frequency:   12.1516786283
  - # 19
    frequency:   13.6327867368
  - # 20
    frequency:   13.6344323924
  - # 21
    frequency:   13.6930163631
  - # 22
    frequency:   13.6946635666
  - # 23
    frequency:   19.1846683711
  - # 24
    frequency:   31.8840352185
  - # 25
    frequency:   31.9987697673
  - # 26
    frequency:   67.8320277383
  - # 27
    frequency:   67.8446813103

- q-position: [    0.0202020,    0.0000000,    0.0000000 ]
  distance:    0.0069393
  band:
  - # 1
    frequency:   -1.1881055544
  - # 2
    frequency:   -1.1392552186
  - # 3
    frequency:   -1.1013941691
  - # 4
    frequency:   -1.0710277164
  - # 5
    frequency:    0.0376743619
  - # 6
    frequency:    0.2922685623
  - # 7
    frequency:    0.5360440517
  - # 8
    frequency:    4.5144390539
  - # 9
    frequency:    4.5300831051
  - # 10
    frequency:    5.5033587137
  - # 11
    frequency:    6.2558893617
  - # 12
    frequency:    6.3187283378
  - # 13
    frequency:    6.7710184160
  - # 14
    frequency:    6.7715094458
  - # 15
    frequency:    8.8391861908
  - # 16
    frequency:   12.0202833500
  - # 17
    frequency:   12.0491606092
  - # 18
    frequency:   12.1944790042
  - # 19
    frequency:   13.6332996563
  - # 20
    frequency:   13.6362270611
  - # 21
    frequency:   13.6932080604
  - # 22
    frequency:   13.6961277351
  - # 23
    frequency:   19.1747849912
  - # 24
    frequency:   31.8811245836
  - # 25
    frequency:   31.9955244335
  - # 26
    frequency:   67.8303938823
  - # 27
    frequency:   67.8430283873

- q-position: [    0.0252525,    0.0000000,    0.0000000 ]
  distance:    0.0086741
  band:
  - # 1
    frequency:   -1.1808131558
  - # 2
    frequency:   -1.1061012216
  - # 3
    frequency:   -1.0977912579
  - # 4
    frequency:   -1.0497269497
  - # 5
    frequency:    0.0590466721
  - # 6
    frequency:    0.3665048436
  - # 7
    frequency:    0.6745544710
  - # 8
    frequency:    4.5154566978
  - # 9
    frequency:    4.5397644429
  - # 10
    frequency:    5.5002787879
  - # 11
    frequency:    6.2535704969
  - # 12
    frequency:    6.3498651609
  - # 13
    frequency:    6.7712237990
  - # 14
    frequency:    6.7722912093
  - # 15
    frequency:    8.8397040862
  - # 16
    frequency:   12.0083557697
  - # 17
    frequency:   12.0470009118
  - # 18
    frequency:   12.2478132003
  - # 19
    frequency:   13.6339587759
  - # 20
    frequency:   13.6385369575
  - # 21
    frequency:   13.6934557296
  - # 22
    frequency:   13.6980005259
  - # 23
    frequency:   19.1621071072
  - # 24
    frequency:   31.8773949348
  - # 25
    frequency:   31.9913649827
  - # 26
    frequency:   67.8282988371
  - # 27
    frequency:   67.8409088174

- q-position: [    0.0303030,    0.0000000,    0.0000000 ]
  distance:    0.0104089
  band:
  - # 1
    frequency:   -1.1722567445
  - # 2
    frequency:   -1.0933509311
  - # 3
    frequency:   -1.0674302689
  - # 4
    frequency:   -1.0227140235
  - # 5
    frequency:    0.0853731805
  - # 6
    frequency:    0.4414145118
  - # 7
    frequency:    0.8151526079
  - # 8
    frequency:    4.5167076265
  - # 9
    frequency:    4.5514746037
  - # 10
    frequency:    5.4967436734
  - # 11
    frequency:    6.2507803277
  - # 12
    frequency:    6.3861956266
  - # 13
    frequency:    6.7714416494
  - # 14
    frequency:    6.7735553346
  - # 15
    frequency:    8.8403341131
  - # 16
    frequency:   11.9947297264
  - # 17
    frequency:   12.0443693196
  - # 18
    frequency:   12.3118674545
  - # 19
    frequency:   13.6347638195
  - # 20
    frequency:   13.6413648756
  - # 21
    frequency:   13.6937602601
  - # 22
    frequency:   13.7002750509
  - # 23
    frequency:   19.1466566680
  - # 24
    frequency:   31.8728556402
  - # 25
    frequency:   31.9863011892
  - # 26
    frequency:   67.8257467980
  - # 27
    frequency:   67.8383267891

- q-position: [    0.0353535,    0.0000000,    0.0000000 ]
  distance:    0.0121437
  band:
  - # 1
    frequency:   -1.1626138061
  - # 2
    frequency:   -1.0880516708
  - # 3
    frequency:   -1.0246679333
  - # 4
    frequency:   -0.9885552615
  - # 5
    frequency:    0.1168150689
  - # 6
    frequency:    0.5170357337
  - # 7
    frequency:    0.9575550545
  - # 8
    frequency:    4.5181960650
  - # 9
    frequency:    4.5651441410
  - # 10
    frequency:    5.4928386189
  - # 11
    frequency:    6.2475438001
  - # 12
    frequency:    6.4267421255
  - # 13
    frequency:    6.7716533219
  - # 14
    frequency:    6.7755701089
  - # 15
    frequency:    8.8410751881
  - # 16
    frequency:   11.9792342973
  - # 17
    frequency:   12.0412706855
  - # 18
    frequency:   12.3866782010
  - # 19
    frequency:   13.6357144325
  - # 20
    frequency:   13.6447155647
  - # 21
    frequency:   13.6941227272
  - # 22
    frequency:   13.7029433053
  - # 23
    frequency:   19.1284604555
  - # 24
    frequency:   31.8675180633
  - # 25
    frequency:   31.9803449265
  - # 26
    frequency:   67.8227428652
  - # 27
    frequency:   67.8352873954

- q-position: [    0.0404040,    0.0000000,    0.0000000 ]
  distance:    0.0138785
  band:
  - # 1
    frequency:   -1.1520633953
  - # 2
    frequency:   -1.0818691884
  - # 3
    frequency:   -0.9801408314
  - # 4
    frequency:   -0.9445381602
  - # 5
    frequency:    0.1535976943
  - # 6
    frequency:    0.5933661679
  - # 7
    frequency:    1.1013291358
  - # 8
    frequency:    4.5199269524
  - # 9
    frequency:    4.5806944636
  - # 10
    frequency:    5.4886367479
  - # 11
    frequency:    6.2438891761
  - # 12
    frequency:    6.4703342104
  - # 13
    frequency:    6.7718378313
  - # 14
    frequency:    6.7787668741
  - # 15
    frequency:    8.8419266111
  - # 16
    frequency:   11.9617766278
  - # 17
    frequency:   12.0377107688
  - # 18
    frequency:   12.4721574522
  - # 19
    frequency:   13.6368101708
  - # 20
    frequency:   13.6485970541
  - # 21
    frequency:   13.6945443859
  - # 22
    frequency:   13.7059963808
  - # 23
    frequency:   19.1075500597
  - # 24
    frequency:   31.8613955122
  - # 25
    frequency:   31.9735101235
  - # 26
    frequency:   67.8192930275
  - # 27
    frequency:   67.8317966179

- q-position: [    0.0454545,    0.0000000,    0.0000000 ]
  distance:    0.0156133
  band:
  - # 1
    frequency:   -1.1407741608
  - # 2
    frequency:   -1.0747777701
  - # 3
    frequency:   -0.9349459070
  - # 4
    frequency:   -0.8887065520
  - # 5
    frequency:    0.1960243334
  - # 6
    frequency:    0.6703656407
  - # 7
    frequency:    1.2459826512
  - # 8
    frequency:    4.5219059142
  - # 9
    frequency:    4.5980393080
  - # 10
    frequency:    5.4841980342
  - # 11
    frequency:    6.2398475286
  - # 12
    frequency:    6.5155157229
  - # 13
    frequency:    6.7719722787
  - # 14
    frequency:    6.7838604209
  - # 15
    frequency:    8.8428883065
  - # 16
    frequency:   11.9423130914
  - # 17
    frequency:   12.0336962434
  - # 18
    frequency:   12.5681127182
  - # 19
    frequency:   13.6380504869
  - # 20
    frequency:   13.6530229803
  - # 21
    frequency:   13.6950266654
  - # 22
    frequency:   13.7094246948
  - # 23
    frequency:   19.0839618496
  - # 24
    frequency:   31.8545031809
  - # 25
    frequency:   31.9658127138
  - # 26
    frequency:   67.8154041435
  - # 27
    frequency:   67.8278613088

- q-position: [    0.0505051,    0.0000000,    0.0000000 ]
  distance:    0.0173481
  band:
  - # 1
    frequency:   -1.1288933258
  - # 2
    frequency:   -1.0667523289
  - # 3
    frequency:   -0.8874851431
  - # 4
    frequency:   -0.8211985044
  - # 5
    frequency:    0.2444810035
  - # 6
    frequency:    0.7479617216
  - # 7
    frequency:    1.3910349378
  - # 8
    frequency:    4.5241392320
  - # 9
    frequency:    4.6170862604
  - # 10
    frequency:    5.4795705763
  - # 11
    frequency:    6.2354522253
  - # 12
    frequency:    6.5603650228
  - # 13
    frequency:    6.7720322829
  - # 14
    frequency:    6.7920523601
  - # 15
    frequency:    8.8439610721
  - # 16
    frequency:   11.9208308641
  - # 17
    frequency:   12.0292347047
  - # 18
    frequency:   12.6742556006
  - # 19
    frequency:   13.6394347122
  - # 20
    frequency:   13.6580168791
  - # 21
    frequency:   13.6955711630
  - # 22
    frequency:   13.7132182260
  - # 23
    frequency:   19.0577369424
  - # 24
    frequency:   31.8468580830
  - # 25
    frequency:   31.9572705784
  - # 26
    frequency:   67.8110839194
  - # 27
    frequency:   67.8234891693

- q-position: [    0.0555556,    0.0000000,    0.0000000 ]
  distance:    0.0190829
  band:
  - # 1
    frequency:   -1.1165375718
  - # 2
    frequency:   -1.0577710741
  - # 3
    frequency:   -0.8363431298
  - # 4
    frequency:   -0.7410824424
  - # 5
    frequency:    0.2994143594
  - # 6
    frequency:    0.8260572991
  - # 7
    frequency:    1.5360578773
  - # 8
    frequency:    4.5266338076
  - # 9
    frequency:    4.6377382783
  - # 10
    frequency:    5.4747930656
  - # 11
    frequency:    6.2307384172
  - # 12
    frequency:    6.6022691779
  - # 13
    frequency:    6.7719924024
  - # 14
    frequency:    6.8052764481
  - # 15
    frequency:    8.8451468289
  - # 16
    frequency:   11.8973369001
  - # 17
    frequency:   12.0243346736
  - # 18
    frequency:   12.7902004307
  - # 19
    frequency:   13.6409620364
  - # 20
    frequency:   13.6636206134
  - # 21
    frequency:   13.6961796408
  - # 22
    frequency:   13.7173667604
  - # 23
    frequency:   19.0289211714
  - # 24
    frequency:   31.8384789793
  - # 25
    frequency:   31.9479034812
  - # 26
    frequency:   67.8063408856
  - # 27
    frequency:   67.8186887266

- q-position: [    0.0606061,    0.0000000,    0.0000000 ]
  distance:    0.0208178
  band:
  - # 1
    frequency:   -1.1037866556
  - # 2
    frequency:   -1.0478183351
  - # 3
    frequency:   -0.7811305853
  - # 4
    frequency:   -0.6447232439
  - # 5
    frequency:    0.3612505646
  - # 6
    frequency:    0.9045390006
  - # 7
    frequency:    1.6806901717
  - # 8
    frequency:    4.5293971241
  - # 9
    frequency:    4.6598951661
  - # 10
    frequency:    5.4698976270
  - # 11
    frequency:    6.2257425455
  - # 12
    frequency:    6.6380348012
  - # 13
    frequency:    6.7718265365
  - # 14
    frequency:    6.8261030820
  - # 15
    frequency:    8.8464488681
  - # 16
    frequency:   11.8718513777
  - # 17
    frequency:   12.0190055976
  - # 18
    frequency:   12.9154508229
  - # 19
    frequency:   13.6426314817
  - # 20
    frequency:   13.6699123745
  - # 21
    frequency:   13.6968540232
  - # 22
    frequency:   13.7218601640
  - # 23
    frequency:   18.9975650547
  - # 24
    frequency:   31.8293862976
  - # 25
    frequency:   31.9377329981
  - # 26
    frequency:   67.8011843689
  - # 27
    frequency:   67.8134693077

- q-position: [    0.0656566,    0.0000000,    0.0000000 ]
  distance:    0.0225526
  band:
  - # 1
    frequency:   -1.0906804896
  - # 2
    frequency:   -1.0368866421
  - # 3
    frequency:   -0.7220683564
  - # 4
    frequency:   -0.5236662413
  - # 5
    frequency:    0.4302181089
  - # 6
    frequency:    0.9832853333
  - # 7
    frequency:    1.8246345220
  - # 8
    frequency:    4.5324372036
  - # 9
    frequency:    4.6834549692
  - # 10
    frequency:    5.4649125351
  - # 11
    frequency:    6.2205018770
  - # 12
    frequency:    6.6651456830
  - # 13
    frequency:    6.7715082975
  - # 14
    frequency:    6.8564927788
  - # 15
    frequency:    8.8478720921
  - # 16
    frequency:   11.8444037441
  - # 17
    frequency:   12.0132578462
  - # 18
    frequency:   13.0493607634
  - # 19
    frequency:   13.6444418721
  - # 20
    frequency:   13.6770496532
  - # 21
    frequency:   13.6975963985
  - # 22
    frequency:   13.7266887545
  - # 23
    frequency:   18.9637237683
  - # 24
    frequency:   31.8196020487
  - # 25
    frequency:   31.9267824403
  - # 26
    frequency:   67.7956244644
  - # 27
    frequency:   67.8078410113

- q-position: [    0.0707071,    0.0000000,    0.0000000 ]
  distance:    0.0242874
  band:
  - # 1
    frequency:   -1.0772201633
  - # 2
    frequency:   -1.0249770080
  - # 3
    frequency:   -0.6595974645
  - # 4
    frequency:   -0.3535800134
  - # 5
    frequency:    0.5060807225
  - # 6
    frequency:    1.0621736883
  - # 7
    frequency:    1.9676468223
  - # 8
    frequency:    4.5357625597
  - # 9
    frequency:    4.7083152581
  - # 10
    frequency:    5.4598645731
  - # 11
    frequency:    6.2150540748
  - # 12
    frequency:    6.6835610286
  - # 13
    frequency:    6.7710113486
  - # 14
    frequency:    6.8960049125
  - # 15
    frequency:    8.8494232489
  - # 16
    frequency:   11.8150302695
  - # 17
    frequency:   12.0071027010
  - # 18
    frequency:   13.1910195017
  - # 19
    frequency:   13.6463917963
  - # 20
    frequency:   13.6853887425
  - # 21
    frequency:   13.6984090239
  - # 22
    frequency:   13.7318440567
  - # 23
    frequency:   18.9274571257
  - # 24
    frequency:   31.8091497362
  - # 25
    frequency:   31.9150767722
  - # 26
    frequency:   67.7896720035
  - # 27
    frequency:   67.8018146774

- q-position: [    0.0757576,    0.0000000,    0.0000000 ]
  distance:    0.0260222
  band:
  - # 1
    frequency:   -1.0633727776
  - # 2
    frequency:   -1.0120967601
  - # 3
    frequency:   -0.5938402448
  - # 4
    frequency:    0.1786581861
  - # 5
    frequency:    0.5879093655
  - # 6
    frequency:    1.1410857368
  - # 7
    frequency:    2.1095233496
  - # 8
    frequency:    4.5393821485
  - # 9
    frequency:    4.7343742832
  - # 10
    frequency:    5.4547809688
  - # 11
    frequency:    6.2094368091
  - # 12
    frequency:    6.6953873487
  - # 13
    frequency:    6.7703097069
  - # 14
    frequency:    6.9421289061
  - # 15
    frequency:    8.8511111618
  - # 16
    frequency:   11.7837724967
  - # 17
    frequency:   12.0005523387
  - # 18
    frequency:   13.3388412258
  - # 19
    frequency:   13.6484795642
  - # 20
    frequency:   13.6958987479
  - # 21
    frequency:   13.6992943371
  - # 22
    frequency:   13.7373214279
  - # 23
    frequency:   18.8888295717
  - # 24
    frequency:   31.7980542630
  - # 25
    frequency:   31.9026425239
  - # 26
    frequency:   67.7833385209
  - # 27
    frequency:   67.7954018547

- q-position: [    0.0808081,    0.0000000,    0.0000000 ]
  distance:    0.0277570
  band:
  - # 1
    frequency:   -1.0490790382
  - # 2
    frequency:   -0.9982551949
  - # 3
    frequency:   -0.5237958012
  - # 4
    frequency:    0.4433625981
  - # 5
    frequency:    0.6741198107
  - # 6
    frequency:    1.2199111151
  - # 7
    frequency:    2.2500889544
  - # 8
    frequency:    4.5433053144
  - # 9
    frequency:    4.7615319894
  - # 10
    frequency:    5.4496909420
  - # 11
    frequency:    6.2036874100
  - # 12
    frequency:    6.7029858014
  - # 13
    frequency:    6.7693780107
  - # 14
    frequency:    6.9921765051
  - # 15
    frequency:    8.8529469564
  - # 16
    frequency:   11.7506762348
  - # 17
    frequency:   11.9936198062
  - # 18
    frequency:   13.4885568443
  - # 19
    frequency:   13.6507031534
  - # 20
    frequency:   13.7002549742
  - # 21
    frequency:   13.7121584090
  - # 22
    frequency:   13.7431389538
  - # 23
    frequency:   18.8479101956
  - # 24
    frequency:   31.7863418339
  - # 25
    frequency:   31.8895076991
  - # 26
    frequency:   67.7766362191
  - # 27
    frequency:   67.7886147660

- q-position: [    0.0858586,    0.0000000,    0.0000000 ]
  distance:    0.0294918
  band:
  - # 1
    frequency:   -1.0342618161
  - # 2
    frequency:   -0.9834582106
  - # 3
    frequency:   -0.4462576475
  - # 4
    frequency:    0.6073762960
  - # 5
    frequency:    0.7628478855
  - # 6
    frequency:    1.2985495631
  - # 7
    frequency:    2.3891873317
  - # 8
    frequency:    4.5475417340
  - # 9
    frequency:    4.7896908877
  - # 10
    frequency:    5.4446269355
  - # 11
    frequency:    6.1978425609
  - # 12
    frequency:    6.7080352143
  - # 13
    frequency:    6.7681917528
  - # 14
    frequency:    7.0442154622
  - # 15
    frequency:    8.8549442876
  - # 16
    frequency:   11.7157908963
  - # 17
    frequency:   11.9863189866
  - # 18
    frequency:   13.6193622943
  - # 19
    frequency:   13.6530601473
  - # 20
    frequency:   13.7012937974
  - # 21
    frequency:   13.7481436710
  - # 22
    frequency:   13.7554100125
  - # 23
    frequency:   18.8047727764
  - # 24
    frequency:   31.7740398560
  - # 25
    frequency:   31.8757016793
  - # 26
    frequency:   67.7695779312
  - # 27
    frequency:   67.7814662723

- q-position: [    0.0909091,    0.0000000,    0.0000000 ]
  distance:    0.0312266
  band:
  - # 1
    frequency:   -1.0188338282
  - # 2
    frequency:   -0.9677033132
  - # 3
    frequency:   -0.3535988535
  - # 4
    frequency:    0.7408568295
  - # 5
    frequency:    0.8524162265
  - # 6
    frequency:    1.3769118294
  - # 7
    frequency:    2.5266734527
  - # 8
    frequency:    4.5521013567
  - # 9
    frequency:    4.8187567866
  - # 10
    frequency:    5.4396256162
  - # 11
    frequency:    6.1919380330
  - # 12
    frequency:    6.7115635615
  - # 13
    frequency:    6.7667274845
  - # 14
    frequency:    7.0970325029
  - # 15
    frequency:    8.8571195726
  - # 16
    frequency:   11.6791690566
  - # 17
    frequency:   11.9786645556
  - # 18
    frequency:   13.6555476602
  - # 19
    frequency:   13.6793254609
  - # 20
    frequency:   13.7024139336
  - # 21
    frequency:   13.7553614687
  - # 22
    frequency:   13.8738115827
  - # 23
    frequency:   18.7594958726
  - # 24
    frequency:   31.7611768364
  - # 25
    frequency:   31.8612551235
  - # 26
    frequency:   67.7621770827
  - # 27
    frequency:   67.7739698346

- q-position: [    0.0959596,    0.0000000,    0.0000000 ]
  distance:    0.0329615
  band:
  - # 1
    frequency:   -1.0027032342
  - # 2
    frequency:   -0.9509759348
  - # 3
    frequency:   -0.2230741725
  - # 4
    frequency:    0.8581218363
  - # 5
    frequency:    0.9415988606
  - # 6
    frequency:    1.4549196895
  - # 7
    frequency:    2.6624078384
  - # 8
    frequency:    4.5569943430
  - # 9
    frequency:    4.8486393923
  - # 10
    frequency:    5.4347287305
  - # 11
    frequency:    6.1860084575
  - # 12
    frequency:    6.7141836850
  - # 13
    frequency:    6.7649629928
  - # 14
    frequency:    7.1498904461
  - # 15
    frequency:    8.8594922310
  - # 16
    frequency:   11.6408661656
  - # 17
    frequency:   11.9706719281
  - # 18
    frequency:   13.6581622490
  - # 19
    frequency:   13.7003777979
  - # 20
    frequency:   13.7036188265
  - # 21
    frequency:   13.7620300185
  - # 22
    frequency:   14.0374214703
  - # 23
    frequency:   18.7121629793
  - # 24
    frequency:   31.7477822793
  - # 25
    frequency:   31.8461998658
  - # 26
    frequency:   67.7544476505
  - # 27
    frequency:   67.7661394748

- q-position: [    0.1010101,    0.0000000,    0.0000000 ]
  distance:    0.0346963
  band:
  - # 1
    frequency:   -0.9857768169
  - # 2
    frequency:   -0.9332472600
  - # 3
    frequency:    0.1696834511
  - # 4
    frequency:    0.9650413240
  - # 5
    frequency:    1.0296358491
  - # 6
    frequency:    1.5325053960
  - # 7
    frequency:    2.7962522500
  - # 8
    frequency:    4.5622309998
  - # 9
    frequency:    4.8792527922
  - # 10
    frequency:    5.4299838908
  - # 11
    frequency:    6.1800871321
  - # 12
    frequency:    6.7162680608
  - # 13
    frequency:    6.7628774558
  - # 14
    frequency:    7.2023452957
  - # 15
    frequency:    8.8620849398
  - # 16
    frequency:   11.6009403663
  - # 17
    frequency:   11.9623571939
  - # 18
    frequency:   13.6608998089
  - # 19
    frequency:   13.7049123056
  - # 20
    frequency:   13.7137702028
  - # 21
    frequency:   13.7689443740
  - # 22
    frequency:   14.2134057221
  - # 23
    frequency:   18.6628627817
  - # 24
    frequency:   31.7338865817
  - # 25
    frequency:   31.8305688100
  - # 26
    frequency:   67.7464041224
  - # 27
    frequency:   67.7579897345

- q-position: [    0.1060606,    0.0000000,    0.0000000 ]
  distance:    0.0364311
  band:
  - # 1
    frequency:   -0.9679610491
  - # 2
    frequency:   -0.9144731964
  - # 3
    frequency:    0.3353415477
  - # 4
    frequency:    1.0646712511
  - # 5
    frequency:    1.1161213796
  - # 6
    frequency:    1.6096108124
  - # 7
    frequency:    2.9280663976
  - # 8
    frequency:    4.5678217147
  - # 9
    frequency:    4.9105158397
  - # 10
    frequency:    5.4254453613
  - # 11
    frequency:    6.1742058598
  - # 12
    frequency:    6.7180503036
  - # 13
    frequency:    6.7604515801
  - # 14
    frequency:    7.2541361531
  - # 15
    frequency:    8.8649239029
  - # 16
    frequency:   11.5594523925
  - # 17
    frequency:   11.9537370426
  - # 18
    frequency:   13.6637554508
  - # 19
    frequency:   13.7062986729
  - # 20
    frequency:   13.7251841617
  - # 21
    frequency:   13.7761174864
  - # 22
    frequency:   14.3952745863
  - # 23
    frequency:   18.6116895484
  - # 24
    frequency:   31.7195209294
  - # 25
    frequency:   31.8143958219
  - # 26
    frequency:   67.7380614536
  - # 27
    frequency:   67.7495356336

- q-position: [    0.1111111,    0.0000000,    0.0000000 ]
  distance:    0.0381659
  band:
  - # 1
    frequency:   -0.9491615977
  - # 2
    frequency:   -0.8945938997
  - # 3
    frequency:    0.4502452343
  - # 4
    frequency:    1.1588238544
  - # 5
    frequency:    1.2008770346
  - # 6
    frequency:    1.6861864146
  - # 7
    frequency:    3.0577053357
  - # 8
    frequency:    4.5737768876
  - # 9
    frequency:    4.9423524627
  - # 10
    frequency:    5.4211749052
  - # 11
    frequency:    6.1683948166
  - # 12
    frequency:    6.7196812226
  - # 13
    frequency:    6.7576677239
  - # 14
    frequency:    7.3051205650
  - # 15
    frequency:    8.8680391418
  - # 16
    frequency:   11.5164655284
  - # 17
    frequency:   11.9448286784
  - # 18
    frequency:   13.6667233584
  - # 19
    frequency:   13.7077828113
  - # 20
    frequency:   13.7359785602
  - # 21
    frequency:   13.7835474071
  - # 22
    frequency:   14.5808756706
  - # 23
    frequency:   18.5587437296
  - # 24
    frequency:   31.7047171930
  - # 25
    frequency:   31.7977156207
  - # 26
    frequency:   67.7294350238
  - # 27
    frequency:   67.7407926270

- q-position: [    0.1161616,    0.0000000,    0.0000000 ]
  distance:    0.0399007
  band:
  - # 1
    frequency:   -0.9292817702
  - # 2
    frequency:   -0.8735332836
  - # 3
    frequency:    0.5484631592
  - # 4
    frequency:    1.2486668295
  - # 5
    frequency:    1.2838553790
  - # 6
    frequency:    1.7621902785
  - # 7
    frequency:    3.1850172761
  - # 8
    frequency:    4.5801068617
  - # 9
    frequency:    4.9746919221
  - # 10
    frequency:    5.4172427528
  - # 11
    frequency:    6.1626824442
  - # 12
    frequency:    6.7212600581
  - # 13
    frequency:    6.7545100087
  - # 14
    frequency:    7.3552349979
  - # 15
    frequency:    8.8714648056
  - # 16
    frequency:   11.4720456197
  - # 17
    frequency:   11.9356497242
  - # 18
    frequency:   13.6697966256
  - # 19
    frequency:   13.7093703144
  - # 20
    frequency:   13.7466134953
  - # 21
    frequency:   13.7912298745
  - # 22
    frequency:   14.7689634575
  - # 23
    frequency:   18.5041328563
  - # 24
    frequency:   31.6895078252
  - # 25
    frequency:   31.7805636695
  - # 26
    frequency:   67.7205405925
  - # 27
    frequency:   67.7317765608

- q-position: [    0.1212121,    0.0000000,    0.0000000 ]
  distance:    0.0416355
  band:
  - # 1
    frequency:   -0.9082202373
  - # 2
    frequency:   -0.8511980525
  - # 3
    frequency:    0.6385317682
  - # 4
    frequency:    1.3349971153
  - # 5
    frequency:    1.3650780146
  - # 6
    frequency:    1.8375871262
  - # 7
    frequency:    3.3098416035
  - # 8
    frequency:    4.5868218531
  - # 9
    frequency:    5.0074690550
  - # 10
    frequency:    5.4137287431