nqpoint: 300    
npath: 3      
segment_nqpoint:
- 100
- 100
- 100
labels:
- [ 'G', 'M' ]
- [ 'M', 'K' ]
- [ 'K', 'G' ]
reciprocal_lattice:
- [   0.30363389,   0.17530311,   0.00000000 ] # a*
- [   0.00000000,   0.35060622,   0.00000000 ] # b*
- [   0.00000000,   0.00000000,   0.03878861 ] # c*
natom: 7      
lattice:
- [     3.293439994001608,     0.000000000000000,     0.000000000000000 ] # a
- [    -1.646719997000804,     2.852202700649511,     0.000000000000000 ] # b
- [     0.000000000000000,     0.000000000000000,    25.780763068529421 ] # c
points:
- symbol: C # 1
  coordinates: [  0.000000000000000,  0.000000000000000,  0.436029081594971 ]
  mass: 12.010700
- symbol: C # 2
  coordinates: [  0.333332985432215,  0.666666983183674,  0.604709740005531 ]
  mass: 12.010700
- symbol: F # 3
  coordinates: [  0.666666984744047,  0.333332985985145,  0.349097502509005 ]
  mass: 18.998403
- symbol: N # 4
  coordinates: [  0.333332985432215,  0.666666983183674,  0.650902497490995 ]
  mass: 14.006700
- symbol: S # 5
  coordinates: [  0.333332985432215,  0.666666983183674,  0.539643518284176 ]
  mass: 32.065000
- symbol: Ti # 6
  coordinates: [  0.333332985432215,  0.666666983183674,  0.395301233740969 ]
  mass: 47.867000
- symbol: Ti # 7
  coordinates: [  0.666666984744047,  0.333332985985145,  0.479516622177561 ]
  mass: 47.867000

phonon:
- q-position: [    0.0000000,    0.0000000,    0.0000000 ]
  distance:    0.0000000
  band:
  - # 1
    frequency:   -0.0000133877
  - # 2
    frequency:    0.0000003748
  - # 3
    frequency:    0.0000140183
  - # 4
    frequency:    1.5972965837
  - # 5
    frequency:    1.5972965837
  - # 6
    frequency:    4.7732263748
  - # 7
    frequency:    4.7732263748
  - # 8
    frequency:    5.4588598728
  - # 9
    frequency:    5.4588598728
  - # 10
    frequency:    6.1942330073
  - # 11
    frequency:    8.1955164173
  - # 12
    frequency:    8.1955164173
  - # 13
    frequency:   10.5555093564
  - # 14
    frequency:   11.1384840939
  - # 15
    frequency:   11.1384840940
  - # 16
    frequency:   13.0704378173
  - # 17
    frequency:   16.6587755403
  - # 18
    frequency:   17.0349488168
  - # 19
    frequency:   17.0349488168
  - # 20
    frequency:   20.3252880544
  - # 21
    frequency:   64.7553718598

- q-position: [    0.0050505,    0.0000000,    0.0000000 ]
  distance:    0.0017707
  band:
  - # 1
    frequency:    0.0022871789
  - # 2
    frequency:    0.0708180476
  - # 3
    frequency:    0.1127245431
  - # 4
    frequency:    1.5975472523
  - # 5
    frequency:    1.5995150039
  - # 6
    frequency:    4.7730829412
  - # 7
    frequency:    4.7737468172
  - # 8
    frequency:    5.4590366113
  - # 9
    frequency:    5.4601720183
  - # 10
    frequency:    6.1940668318
  - # 11
    frequency:    8.1956405017
  - # 12
    frequency:    8.1960566188
  - # 13
    frequency:   10.5552985748
  - # 14
    frequency:   11.1386413600
  - # 15
    frequency:   11.1387959027
  - # 16
    frequency:   13.0694922522
  - # 17
    frequency:   16.6581725248
  - # 18
    frequency:   17.0346642737
  - # 19
    frequency:   17.0357103548
  - # 20
    frequency:   20.3251902869
  - # 21
    frequency:   64.7552926683

- q-position: [    0.0101010,    0.0000000,    0.0000000 ]
  distance:    0.0035415
  band:
  - # 1
    frequency:    0.0090685833
  - # 2
    frequency:    0.1415673147
  - # 3
    frequency:    0.2253154839
  - # 4
    frequency:    1.5983040245
  - # 5
    frequency:    1.6061577328
  - # 6
    frequency:    4.7726521794
  - # 7
    frequency:    4.7753025719
  - # 8
    frequency:    5.4595668524
  - # 9
    frequency:    5.4641004335
  - # 10
    frequency:    6.1935749711
  - # 11
    frequency:    8.1960119098
  - # 12
    frequency:    8.1976735544
  - # 13
    frequency:   10.5546667118
  - # 14
    frequency:   11.1391126688
  - # 15
    frequency:   11.1397306524
  - # 16
    frequency:   13.0666571132
  - # 17
    frequency:   16.6563723296
  - # 18
    frequency:   17.0338124597
  - # 19
    frequency:   17.0379836704
  - # 20
    frequency:   20.3248971995
  - # 21
    frequency:   64.7550552280

- q-position: [    0.0151515,    0.0000000,    0.0000000 ]
  distance:    0.0053122
  band:
  - # 1
    frequency:    0.0203027618
  - # 2
    frequency:    0.2121775018
  - # 3
    frequency:    0.3376339460
  - # 4
    frequency:    1.5995813653
  - # 5
    frequency:    1.6171893157
  - # 6
    frequency:    4.7719327324
  - # 7
    frequency:    4.7778769388
  - # 8
    frequency:    5.4604506516
  - # 9
    frequency:    5.4706211913
  - # 10
    frequency:    6.1927773723
  - # 11
    frequency:    8.1966281121
  - # 12
    frequency:    8.2003562760
  - # 13
    frequency:   10.5536152163
  - # 14
    frequency:   11.1398965537
  - # 15
    frequency:   11.1412863088
  - # 16
    frequency:   13.0619370658
  - # 17
    frequency:   16.6534006408
  - # 18
    frequency:   17.0323988112
  - # 19
    frequency:   17.0417357549
  - # 20
    frequency:   20.3244094371
  - # 21
    frequency:   64.7546599419

- q-position: [    0.0202020,    0.0000000,    0.0000000 ]
  distance:    0.0070830
  band:
  - # 1
    frequency:    0.0358922826
  - # 2
    frequency:    0.2825751920
  - # 3
    frequency:    0.4495301566
  - # 4
    frequency:    1.6014039467
  - # 5
    frequency:    1.6325575985
  - # 6
    frequency:    4.7709224249
  - # 7
    frequency:    4.7814421442
  - # 8
    frequency:    5.4616880344
  - # 9
    frequency:    5.4796948603
  - # 10
    frequency:    6.1917071139
  - # 11
    frequency:    8.1974849126
  - # 12
    frequency:    8.2040867274
  - # 13
    frequency:   10.5521465157
  - # 14
    frequency:   11.1409905780
  - # 15
    frequency:   11.1434594677
  - # 16
    frequency:   13.0553398798
  - # 17
    frequency:   16.6492975728
  - # 18
    frequency:   17.0304323586
  - # 19
    frequency:   17.0469143502
  - # 20
    frequency:   20.3237280709
  - # 21
    frequency:   64.7541074802

- q-position: [    0.0252525,    0.0000000,    0.0000000 ]
  distance:    0.0088537
  band:
  - # 1
    frequency:    0.0557091326
  - # 2
    frequency:    0.3526820740
  - # 3
    frequency:    0.5608371376
  - # 4
    frequency:    1.6038075289
  - # 5
    frequency:    1.6522035041
  - # 6
    frequency:    4.7696183884
  - # 7
    frequency:    4.7859594516
  - # 8
    frequency:    5.4632788991
  - # 9
    frequency:    5.4912671350
  - # 10
    frequency:    6.1904101654
  - # 11
    frequency:    8.1985764800
  - # 12
    frequency:    8.2088400233
  - # 13
    frequency:   10.5502640321
  - # 14
    frequency:   11.1423913455
  - # 15
    frequency:   11.1462453356
  - # 16
    frequency:   13.0468764196
  - # 17
    frequency:   16.6441142337
  - # 18
    frequency:   17.0279256806
  - # 19
    frequency:   17.0534514747
  - # 20
    frequency:   20.3228545948
  - # 21
    frequency:   64.7533987786

- q-position: [    0.0303030,    0.0000000,    0.0000000 ]
  distance:    0.0106244
  band:
  - # 1
    frequency:    0.0796016515
  - # 2
    frequency:    0.4224128938
  - # 3
    frequency:    0.6713633598
  - # 4
    frequency:    1.6068402690
  - # 5
    frequency:    1.6760736456
  - # 6
    frequency:    4.7680172287
  - # 7
    frequency:    4.7913793518
  - # 8
    frequency:    5.4652228885
  - # 9
    frequency:    5.5052696458
  - # 10
    frequency:    6.1889450684
  - # 11
    frequency:    8.1998953887
  - # 12
    frequency:    8.2145848228
  - # 13
    frequency:   10.5479722040
  - # 14
    frequency:   11.1440945156
  - # 15
    frequency:   11.1496377056
  - # 16
    frequency:   13.0365606311
  - # 17
    frequency:   16.6379089138
  - # 18
    frequency:   17.0248948405
  - # 19
    frequency:   17.0612673605
  - # 20
    frequency:   20.3217909184
  - # 21
    frequency:   64.7525350362

- q-position: [    0.0353535,    0.0000000,    0.0000000 ]
  distance:    0.0123952
  band:
  - # 1
    frequency:    0.1074016284
  - # 2
    frequency:    0.4916730220
  - # 3
    frequency:    0.7808840699
  - # 4
    frequency:    1.6105645327
  - # 5
    frequency:    1.7041350173
  - # 6
    frequency:    4.7661152273
  - # 7
    frequency:    4.7976418646
  - # 8
    frequency:    5.4675192363
  - # 9
    frequency:    5.5216208796
  - # 10
    frequency:    6.1873825585
  - # 11
    frequency:    8.2014326740
  - # 12
    frequency:    8.2212837844
  - # 13
    frequency:   10.5452765082
  - # 14
    frequency:   11.1460948234
  - # 15
    frequency:   11.1536289299
  - # 16
    frequency:   13.0244095267
  - # 17
    frequency:   16.6307434924
  - # 18
    frequency:   17.0213593051
  - # 19
    frequency:   17.0702742071
  - # 20
    frequency:   20.3205393589
  - # 21
    frequency:   64.7515177120

- q-position: [    0.0404040,    0.0000000,    0.0000000 ]
  distance:    0.0141659
  band:
  - # 1
    frequency:    0.1389308762
  - # 2
    frequency:    0.5603555097
  - # 3
    frequency:    0.8891311881
  - # 4
    frequency:    1.6150593085
  - # 5
    frequency:    1.7363909966
  - # 6
    frequency:    4.7639085690
  - # 7
    frequency:    4.8046769830
  - # 8
    frequency:    5.4701665973
  - # 9
    frequency:    5.5402271327
  - # 10
    frequency:    6.1858051500
  - # 11
    frequency:    8.2031778964
  - # 12
    frequency:    8.2288940853
  - # 13
    frequency:   10.5421834823
  - # 14
    frequency:   11.1483861029
  - # 15
    frequency:   11.1582098934
  - # 16
    frequency:   13.0104431676
  - # 17
    frequency:   16.6226804718
  - # 18
    frequency:   17.0173418460
  - # 19
    frequency:   17.0803793394
  - # 20
    frequency:   20.3191026315
  - # 21
    frequency:   64.7503485212

- q-position: [    0.0454545,    0.0000000,    0.0000000 ]
  distance:    0.0159366
  band:
  - # 1
    frequency:    0.1740068073
  - # 2
    frequency:    0.6283374958
  - # 3
    frequency:    0.9957821552
  - # 4
    frequency:    1.6204233380
  - # 5
    frequency:    1.7728976725
  - # 6
    frequency:    4.7613935844
  - # 7
    frequency:    4.8124052916
  - # 8
    frequency:    5.4731628706
  - # 9
    frequency:    5.5609834127
  - # 10
    frequency:    6.1843067156
  - # 11
    frequency:    8.2051192195
  - # 12
    frequency:    8.2373679871
  - # 13
    frequency:   10.5387007433
  - # 14
    frequency:   11.1509613157
  - # 15
    frequency:   11.1633699881
  - # 16
    frequency:   12.9946846451
  - # 17
    frequency:   16.6137808254
  - # 18
    frequency:   17.0128684239
  - # 19
    frequency:   17.0914875829
  - # 20
    frequency:   20.3174838378
  - # 21
    frequency:   64.7490294307

- q-position: [    0.0505051,    0.0000000,    0.0000000 ]
  distance:    0.0177074
  band:
  - # 1
    frequency:    0.2124467933
  - # 2
    frequency:    0.6954758322
  - # 3
    frequency:    1.1004491656
  - # 4
    frequency:    1.6267790810
  - # 5
    frequency:    1.8137787427
  - # 6
    frequency:    4.7585669975
  - # 7
    frequency:    4.8207387842
  - # 8
    frequency:    5.4765050238
  - # 9
    frequency:    5.5837741966
  - # 10
    frequency:    6.1829920960
  - # 11
    frequency:    8.2072434968
  - # 12
    frequency:    8.2466534297
  - # 13
    frequency:   10.5348369993
  - # 14
    frequency:   11.1538125830
  - # 15
    frequency:   11.1690970943
  - # 16
    frequency:   12.9771600611
  - # 17
    frequency:   16.6041026584
  - # 18
    frequency:   17.0079680565
  - # 19
    frequency:   17.1035028559
  - # 20
    frequency:   20.3156864523
  - # 21
    frequency:   64.7475626542

- q-position: [    0.0555556,    0.0000000,    0.0000000 ]
  distance:    0.0194781
  band:
  - # 1
    frequency:    0.2540712992
  - # 2
    frequency:    0.7616018341
  - # 3
    frequency:    1.2026722222
  - # 4
    frequency:    1.6342775927
  - # 5
    frequency:    1.8592354544
  - # 6
    frequency:    4.7554261678
  - # 7
    frequency:    4.8295818975
  - # 8
    frequency:    5.4801889293
  - # 9
    frequency:    5.6084739535
  - # 10
    frequency:    6.1819767903
  - # 11
    frequency:    8.2095363698
  - # 12
    frequency:    8.2566946371
  - # 13
    frequency:   10.5306020551
  - # 14
    frequency:   11.1569312219
  - # 15
    frequency:   11.1753775666
  - # 16
    frequency:   12.9578985096
  - # 17
    frequency:   16.5937005596
  - # 18
    frequency:   17.0026726707
  - # 19
    frequency:   17.1163290958
  - # 20
    frequency:   20.3137143076
  - # 21
    frequency:   64.7459506458

- q-position: [    0.0606061,    0.0000000,    0.0000000 ]
  distance:    0.0212489
  band:
  - # 1
    frequency:    0.2987059282
  - # 2
    frequency:    0.8265151822
  - # 3
    frequency:    1.3019225860
  - # 4
    frequency:    1.6431042752
  - # 5
    frequency:    1.9095450888
  - # 6
    frequency:    4.7519693174
  - # 7
    frequency:    4.8388327733
  - # 8
    frequency:    5.4842092192
  - # 9
    frequency:    5.6349473312
  - # 10
    frequency:    6.1813867887
  - # 11
    frequency:    8.2119823761
  - # 12
    frequency:    8.2674327186
  - # 13
    frequency:   10.5260068060
  - # 14
    frequency:   11.1603077857
  - # 15
    frequency:   11.1821962294
  - # 16
    frequency:   12.9369320590
  - # 17
    frequency:   16.5826254752
  - # 18
    frequency:   16.9970169390
  - # 19
    frequency:   17.1298706893
  - # 20
    frequency:   20.3115715778
  - # 21
    frequency:   64.7441960943

- q-position: [    0.0656566,    0.0000000,    0.0000000 ]
  distance:    0.0230196
  band:
  - # 1
    frequency:    0.3461825833
  - # 2
    frequency:    0.8899772758
  - # 3
    frequency:    1.3976267095
  - # 4
    frequency:    1.6534851967
  - # 5
    frequency:    1.9650380673
  - # 6
    frequency:    4.7481957337
  - # 7
    frequency:    4.8483847447
  - # 8
    frequency:    5.4885591693
  - # 9
    frequency:    5.6630489002
  - # 10
    frequency:    6.1813586274
  - # 11
    frequency:    8.2145650661
  - # 12
    frequency:    8.2788062530
  - # 13
    frequency:   10.5210632223
  - # 14
    frequency:   11.1639321084
  - # 15
    frequency:   11.1895363802
  - # 16
    frequency:   12.9142957366
  - # 17
    frequency:   16.5709249289
  - # 18
    frequency:   16.9910381020
  - # 19
    frequency:   17.1440325781
  - # 20
    frequency:   20.3092627606
  - # 21
    frequency:   64.7423019161

- q-position: [    0.0707071,    0.0000000,    0.0000000 ]
  distance:    0.0247903
  band:
  - # 1
    frequency:    0.3963399675
  - # 2
    frequency:    0.9517048665
  - # 3
    frequency:    1.4892214206
  - # 4
    frequency:    1.6656931427
  - # 5
    frequency:    2.0260431055
  - # 6
    frequency:    4.7441059422
  - # 7
    frequency:    4.8581280379
  - # 8
    frequency:    5.4932306146
  - # 9
    frequency:    5.6926223407
  - # 10
    frequency:    6.1820397724
  - # 11
    frequency:    8.2172671281
  - # 12
    frequency:    8.2907518446
  - # 13
    frequency:   10.5157843219
  - # 14
    frequency:   11.1677933523
  - # 15
    frequency:   11.1973798010
  - # 16
    frequency:   12.8900275168
  - # 17
    frequency:   16.5586434426
  - # 18
    frequency:   16.9847757768
  - # 19
    frequency:   17.1587201834
  - # 20
    frequency:   20.3067926575
  - # 21
    frequency:   64.7402712472

- q-position: [    0.0757576,    0.0000000,    0.0000000 ]
  distance:    0.0265611
  band:
  - # 1
    frequency:    0.4490236294
  - # 2
    frequency:    1.0113657258
  - # 3
    frequency:    1.5762428963
  - # 4
    frequency:    1.6800516371
  - # 5
    frequency:    2.0927980734
  - # 6
    frequency:    4.7397018423
  - # 7
    frequency:    4.8679516636
  - # 8
    frequency:    5.4982139041
  - # 9
    frequency:    5.7234989450
  - # 10
    frequency:    6.1835894557
  - # 11
    frequency:    8.2200705212
  - # 12
    frequency:    8.3032046435
  - # 13
    frequency:   10.5101841305
  - # 14
    frequency:   11.1718800588
  - # 15
    frequency:   11.2057067781
  - # 16
    frequency:   12.8641683135
  - # 17
    frequency:   16.5458230442
  - # 18
    frequency:   16.9782717532
  - # 19
    frequency:   17.1738392608
  - # 20
    frequency:   20.3041663530
  - # 21
    frequency:   64.7381074359

- q-position: [    0.0808081,    0.0000000,    0.0000000 ]
  distance:    0.0283318
  band:
  - # 1
    frequency:    0.5040857215
  - # 2
    frequency:    1.0685794784
  - # 3
    frequency:    1.6584308758
  - # 4
    frequency:    1.6969338030
  - # 5
    frequency:    2.1653452732
  - # 6
    frequency:    4.7349868045
  - # 7
    frequency:    4.8777454631
  - # 8
    frequency:    5.5034978946
  - # 9
    frequency:    5.7554953149
  - # 10
    frequency:    6.1861801059
  - # 11
    frequency:    8.2229566145
  - # 12
    frequency:    8.3160988242
  - # 13
    frequency:   10.5042776318
  - # 14
    frequency:   11.1761802036
  - # 15
    frequency:   11.2144961265
  - # 16
    frequency:   12.8367619790
  - # 17
    frequency:   16.5325037852
  - # 18
    frequency:   16.9715697769
  - # 19
    frequency:   17.1892957608
  - # 20
    frequency:   20.3013891919
  - # 21
    frequency:   64.7358140334

- q-position: [    0.0858586,    0.0000000,    0.0000000 ]
  distance:    0.0301026
  band:
  - # 1
    frequency:    0.5613845993
  - # 2
    frequency:    1.1229282983
  - # 3
    frequency:    1.7167513584
  - # 4
    frequency:    1.7358057219
  - # 5
    frequency:    2.2434536641
  - # 6
    frequency:    4.7299657279
  - # 7
    frequency:    4.8874022605
  - # 8
    frequency:    5.5090699855
  - # 9
    frequency:    5.7884101693
  - # 10
    frequency:    6.1899994887
  - # 11
    frequency:    8.2259063314
  - # 12
    frequency:    8.3293680198
  - # 13
    frequency:   10.4980807061
  - # 14
    frequency:   11.1806812532
  - # 15
    frequency:   11.2237252173
  - # 16
    frequency:   12.8078553097
  - # 17
    frequency:   16.5187242187
  - # 18
    frequency:   16.9647153239
  - # 19
    frequency:   17.2049957395
  - # 20
    frequency:   20.2984667559
  - # 21
    frequency:   64.7333947855

- q-position: [    0.0909091,    0.0000000,    0.0000000 ]
  distance:    0.0318733
  band:
  - # 1
    frequency:    0.6207843525
  - # 2
    frequency:    1.1739829441
  - # 3
    frequency:    1.7399282705
  - # 4
    frequency:    1.8086752847
  - # 5
    frequency:    2.3266111786
  - # 6
    frequency:    4.7246450584
  - # 7
    frequency:    4.8968200571
  - # 8
    frequency:    5.5149161926
  - # 9
    frequency:    5.8220203034
  - # 10
    frequency:    6.1952535661
  - # 11
    frequency:    8.2289002983
  - # 12
    frequency:    8.3429457109
  - # 13
    frequency:   10.4916100589
  - # 14
    frequency:   11.1853702254
  - # 15
    frequency:   11.2333700042
  - # 16
    frequency:   12.7774980620
  - # 17
    frequency:   16.5045218130
  - # 18
    frequency:   16.9577553633
  - # 19
    frequency:   17.2208453442
  - # 20
    frequency:   20.2954048387
  - # 21
    frequency:   64.7308536226

- q-position: [    0.0959596,    0.0000000,    0.0000000 ]
  distance:    0.0336440
  band:
  - # 1
    frequency:    0.6821543244
  - # 2
    frequency:    1.2213475865
  - # 3
    frequency:    1.7668556155
  - # 4
    frequency:    1.8775641044
  - # 5
    frequency:    2.4140946669
  - # 6
    frequency:    4.7190327715
  - # 7
    frequency:    4.9059041973
  - # 8
    frequency:    5.5210212585
  - # 9
    frequency:    5.8560760519
  - # 10
    frequency:    6.2021697839
  - # 11
    frequency:    8.2319189966
  - # 12
    frequency:    8.3567655700
  - # 13
    frequency:   10.4848831412
  - # 14
    frequency:   11.1902337505
  - # 15
    frequency:   11.2434050459
  - # 16
    frequency:   12.7457429803
  - # 17
    frequency:   16.4899332882
  - # 18
    frequency:   16.9507381136
  - # 19
    frequency:   17.2367508831
  - # 20
    frequency:   20.2922094198
  - # 21
    frequency:   64.7281946497

- q-position: [    0.1010101,    0.0000000,    0.0000000 ]
  distance:    0.0354148
  band:
  - # 1
    frequency:    0.7453686569
  - # 2
    frequency:    1.2647199678
  - # 3
    frequency:    1.7978310996
  - # 4
    frequency:    1.9431014103
  - # 5
    frequency:    2.5050810642
  - # 6
    frequency:    4.7131383237
  - # 7
    frequency:    4.9145694216
  - # 8
    frequency:    5.5273687939
  - # 9
    frequency:    5.8902972660
  - # 10
    frequency:    6.2109998547
  - # 11
    frequency:    8.2349429151
  - # 12
    frequency:    8.3707617633
  - # 13
    frequency:   10.4779180602
  - # 14
    frequency:   11.1952581353
  - # 15
    frequency:   11.2538035164
  - # 16
    frequency:   12.7126458414
  - # 17
    frequency:   16.4749948748
  - # 18
    frequency:   16.9437127905
  - # 19
    frequency:   17.2526189760
  - # 20
    frequency:   20.2888866376
  - # 21
    frequency:   64.7254221366

- q-position: [    0.1060606,    0.0000000,    0.0000000 ]
  distance:    0.0371855
  band:
  - # 1
    frequency:    0.8103058763
  - # 2
    frequency:    1.3039524964
  - # 3
    frequency:    1.8329976427
  - # 4
    frequency:    2.0059171242
  - # 5
    frequency:    2.5987506057
  - # 6
    frequency:    4.7069725790
  - # 7
    frequency:    4.9227417207
  - # 8
    frequency:    5.5339414469
  - # 9
    frequency:    5.9243720046
  - # 10
    frequency:    6.2220199161
  - # 11
    frequency:    8.2379527038
  - # 12
    frequency:    8.3848692137
  - # 13
    frequency:   10.4707334835
  - # 14
    frequency:   11.2004294281
  - # 15
    frequency:   11.2645371987
  - # 16
    frequency:   12.6782655194
  - # 17
    frequency:   16.4597424994
  - # 18
    frequency:   16.9367293502
  - # 19
    frequency:   17.2683567797
  - # 20
    frequency:   20.2854427622
  - # 21
    frequency:   64.7225405067

- q-position: [    0.1111111,    0.0000000,    0.0000000 ]
  distance:    0.0389562
  band:
  - # 1
    frequency:    0.8768485274
  - # 2
    frequency:    1.3390917505
  - # 3
    frequency:    1.8723035460
  - # 4
    frequency:    2.0665743768
  - # 5
    frequency:    2.6943536015
  - # 6
    frequency:    4.7005477175
  - # 7
    frequency:    4.9303599078
  - # 8
    frequency:    5.5407210918
  - # 9
    frequency:    5.9579618898
  - # 10
    frequency:    6.2355241956
  - # 11
    frequency:    8.2409293254
  - # 12
    frequency:    8.3990238284
  - # 13
    frequency:   10.4633485358
  - # 14
    frequency:   11.2057334839
  - # 15
    frequency:   11.2755764528
  - # 16
    frequency:   12.6426640780
  - # 17
    frequency:   16.4442119049
  - # 18
    frequency:   16.9298382279
  - # 19
    frequency:   17.2838722775
  - # 20
    frequency:   20.2818841660
  - # 21
    frequency:   64.7195543263

- q-position: [    0.1161616,    0.0000000,    0.0000000 ]
  distance:    0.0407270
  band:
  - # 1
    frequency:    0.9448828545
  - # 2
    frequency:    1.3703780451
  - # 3
    frequency:    1.9155025943
  - # 4
    frequency:    2.1255403842
  - # 5
    frequency:    2.7912389419
  - # 6
    frequency:    4.6938771324
  - # 7
    frequency:    4.9373768318
  - # 8
    frequency:    5.5476890332
  - # 9
    frequency:    5.9907197048
  - # 10
    frequency:    6.2518066793
  - # 11
    frequency:    8.2438542044
  - # 12
    frequency:    8.4131626956
  - # 13
    frequency:   10.4557826886
  - # 14
    frequency:   11.2111560305
  - # 15
    frequency:   11.2868901468
  - # 16
    frequency:   12.6059068983
  - # 17
    frequency:   16.4284387145
  - # 18
    frequency:   16.9230900735
  - # 19
    frequency:   17.2990746206
  - # 20
    frequency:   20.2782172961
  - # 21
    frequency:   64.7164682933

- q-position: [    0.1212121,    0.0000000,    0.0000000 ]
  distance:    0.0424977
  band:
  - # 1
    frequency:    1.0142985244
  - # 2
    frequency:    1.3982042146
  - # 3
    frequency:    1.9621949361
  - # 4
    frequency:    2.1831838171
  - # 5
    frequency:    2.8888562056
  - # 6
    frequency:    4.6869753251
  - # 7
    frequency:    4.9437601779
  - # 8
    frequency:    5.5548262179
  - # 9
    frequency:    6.0223241329
  - # 10
    frequency:    6.2711259420
  - # 11
    frequency:    8.2467093719
  - # 12
    frequency:    8.4272242544
  - # 13
    frequency:   10.4480556436
  - # 14
    frequency:   11.2166827341
  - # 15
    frequency:   11.2984455381
  - # 16
    frequency:   12.5680628554
  - # 17
    frequency:   16.4124584487
  - # 18
    frequency:   16.9165354863
  - # 19
    frequency:   17.3138745093
  - # 20
    frequency:   20.2744486442
  - # 21
    frequency:   64.7132872256

- q-position: [    0.1262626,    0.0000000,    0.0000000 ]
  distance:    0.0442685
  band:
  - # 1
    frequency:    1.0849883852
  - # 2
    frequency:    1.4230512450
  - # 3
    frequency:    2.0118911129
  - # 4
    frequency:    2.2397856653
  - # 5
    frequency:    2.9867443750
  - # 6
    frequency:    4.6798578051
  - # 7
    frequency:    4.9494928207
  - # 8
    frequency:    5.5621134501
  - # 9
    frequency:    6.0525301801
  - # 10
    frequency:    6.2936546314
  - # 11
    frequency:    8.2494776048
  - # 12
    frequency:    8.4411484436
  - # 13
    frequency:   10.4401872085
  - # 14
    frequency:   11.2222992637
  - # 15
    frequency:   11.3102080864
  - # 16
    frequency:   12.5292045586
  - # 17
    frequency:   16.3963065030
  - # 18
    frequency:   16.9102247501
  - # 19
    frequency:   17.3281846027
  - # 20
    frequency:   20.2705847183
  - # 21
    frequency:   64.7100160494

- q-position: [    0.1313131,    0.0000000,    0.0000000 ]
  distance:    0.0460392
  band:
  - # 1
    frequency:    1.1568482538
  - # 2
    frequency:    1.4454242352
  - # 3
    frequency:    2.0640757553
  - # 4
    frequency:    2.2955546517
  - # 5
    frequency:    3.0845161081
  - # 6
    frequency:    4.6725410026
  - # 7
    frequency:    4.9545727291
  - # 8
    frequency:    5.5695316032
  - # 9
    frequency:    6.0812212044
  - # 10
    frequency:    6.3194276878
  - # 11
    frequency:    8.2521425572
  - # 12
    frequency:    8.4548768317
  - # 13
    frequency:   10.4321971658
  - # 14
    frequency:   11.2279913544
  - # 15
    frequency:   11.3221411755
  - # 16
    frequency:   12.4894086780
  - # 17
    frequency:   16.3800180956
  - # 18
    frequency:   16.9042075695
  - # 19
    frequency:   17.3419199466
  - # 20
    frequency:   20.2666320141
  - # 21
    frequency:   64.7066597875

- q-position: [    0.1363636,    0.0000000,    0.0000000 ]
  distance:    0.0478099
  band:
  - # 1
    frequency:    1.2297767254
  - # 2
    frequency:    1.4658045844
  - # 3
    frequency:    2.1182550501
  - # 4
    frequency:    2.3506424738
  - # 5
    frequency:    3.1818422885
  - # 6
    frequency:    4.6650422018
  - # 7
    frequency:    4.9590124516
  - # 8
    frequency:    5.5770618246
  - # 9
    frequency:    6.1084381146
  - # 10
    frequency:    6.3483137160
  - # 11
    frequency:    8.2546888842
  - # 12
    frequency:    8.4683527339
  - # 13
    frequency:   10.4241051332
  - # 14
    frequency:   11.2337448687
  - # 15
    frequency:   11.3342057110
  - # 16
    frequency:   12.4487563898
  - # 17
    frequency:   16.3636281899
  - # 18
    frequency:   16.8985328104
  - # 19
    frequency:   17.3549984089
  - # 20
    frequency:   20.2625969870
  - # 21
    frequency:   64.7032235473

- q-position: [    0.1414141,    0.0000000,    0.0000000 ]
  distance:    0.0495807
  band:
  - # 1
    frequency:    1.3036749987
  - # 2
    frequency:    1.4846226362
  - # 3
    frequency:    2.1739837488
  - # 4
    frequency:    2.4051569465
  - # 5
    frequency:    3.2784387793
  - # 6
    frequency:    4.6573795015
  - # 7
    frequency:    4.9628382399
  - # 8
    frequency:    5.5846857286
  - # 9
    frequency:    6.1343672969
  - # 10
    frequency:    6.3800278965
  - # 11
    frequency:    8.2571023549
  - # 12
    frequency:    8.4815213184
  - # 13
    frequency:   10.4159304143
  - # 14
    frequency:   11.2395458553
  - # 15
    frequency:   11.3463595499
  - # 16
    frequency:   12.4073339819
  - # 17
    frequency:   16.3471714000
  - # 18
    frequency:   16.8932482444
  - # 19
    frequency:   17.3673411157
  - # 20
    frequency:   20.2584860249
  - # 21
    frequency:   64.6997125082

- q-position: [    0.1464646,    0.0000000,    0.0000000 ]
  distance:    0.0513514
  band:
  - # 1
    frequency:    1.3784467126
  - # 2
    frequency:    1.5022471851
  - # 3
    frequency:    2.2308753090
  - # 4
    frequency:    2.4591725966
  - # 5
    frequency:    3.3740558259
  - # 6
    frequency:    4.6495718100
  - # 7
    frequency:    4.9660888948
  - # 8
    frequency:    5.5923855750
  - # 9
    frequency:    6.1592917892
  - # 10
    frequency:    6.4141818457
  - # 11
    frequency:    8.2593699555
  - # 12
    frequency:    8.4943297065
  - # 13
    frequency:   10.4076918396
  - # 14
    frequency:   11.2453806047
  - # 15
    frequency:   11.3585567001
  - # 16
    frequency:   12.3652336830
  - # 17
    frequency:   16.3306818808
  - # 18
    frequency:   16.8884003004
  - # 19
    frequency:   17.3788728781
  - # 20
    frequency:   20.2543054235
  - # 21
    frequency:   64.6961319105

- q-position: [    0.1515152,    0.0000000,    0.0000000 ]
  distance:    0.0531222
  band:
  - # 1
    frequency:    1.4539977889
  - # 2
    frequency:    1.5189857856
  - # 3
    frequency:    2.2886012304
  - # 4
    frequency:    2.5127389023
  - # 5
    frequency:    3.4684699073
  - # 6
    frequency:    4.6416388811
  - # 7
    frequency:    4.9688144347
  - # 8
    frequency:    5.6001444308
  - # 9
    frequency:    6.1835298684
  - # 10
    frequency:    6.4503461731
  - # 11
    frequency:    8.2614799790
  - # 12
    frequency:    8.5067270671
  - # 13
    frequency:   10.3994075952
  - # 14
    frequency:   11.2512357022
  - # 15
    frequency:   11.3707462023
  - # 16
    frequency:   12.3225548025
  - # 17
    frequency:   16.3141932092
  - # 18
    frequency:   16.8840338238
  - # 19
    frequency:   17.3895226053
  - # 20
    frequency:   20.2500613617
  - # 21
    frequency:   64.6924870422