nqpoint: 300    
npath: 3      
segment_nqpoint:
- 100
- 100
- 100
labels:
- [ 'G', 'M' ]
- [ 'M', 'K' ]
- [ 'K', 'G' ]
reciprocal_lattice:
- [   0.29782954,   0.17195196,   0.00000000 ] # a*
- [   0.00000000,   0.34390393,   0.00000000 ] # b*
- [   0.00000000,   0.00000000,   0.03498232 ] # c*
natom: 9      
lattice:
- [     3.357625353336362,     0.000000000000000,     0.000000000000000 ] # a
- [    -1.678812676668181,     2.907788852356140,     0.000000000000000 ] # b
- [     0.000000000000000,     0.000000000000000,    28.585871041674292 ] # c
points:
- symbol: C # 1
  coordinates: [  0.333332985432215,  0.666666983183674,  0.630826428889378 ]
  mass: 12.010700
- symbol: C # 2
  coordinates: [  0.666666984744048,  0.333332985985144,  0.369173571110622 ]
  mass: 12.010700
- symbol: N # 3
  coordinates: [  0.000000000000000,  0.000000000000000,  0.500000029203605 ]
  mass: 14.006700
- symbol: N # 4
  coordinates: [  0.333332985432215,  0.666666983183674,  0.587030076160265 ]
  mass: 14.006700
- symbol: N # 5
  coordinates: [  0.666666984744048,  0.333332985985144,  0.412969924272381 ]
  mass: 14.006700
- symbol: S # 6
  coordinates: [  0.333332985432215,  0.666666983183674,  0.685159147787408 ]
  mass: 32.065000
- symbol: S # 7
  coordinates: [  0.666666984744048,  0.333332985985144,  0.314840852212592 ]
  mass: 32.065000
- symbol: Sc # 8
  coordinates: [  0.333332985432215,  0.666666983183674,  0.457400362009055 ]
  mass: 44.955912
- symbol: Sc # 9
  coordinates: [  0.666666984744048,  0.333332985985144,  0.542599637990938 ]
  mass: 44.955912

phonon:
- q-position: [    0.0000000,    0.0000000,    0.0000000 ]
  distance:    0.0000000
  band:
  - # 1
    frequency:   -0.0000029448
  - # 2
    frequency:   -0.0000010845
  - # 3
    frequency:    0.0000028858
  - # 4
    frequency:    0.5669942196
  - # 5
    frequency:    0.5669942196
  - # 6
    frequency:    0.6723404436
  - # 7
    frequency:    0.6723404437
  - # 8
    frequency:    4.4363002264
  - # 9
    frequency:    4.4363002264
  - # 10
    frequency:    4.6525667199
  - # 11
    frequency:    7.5119410713
  - # 12
    frequency:    7.6978216433
  - # 13
    frequency:    7.6978216433
  - # 14
    frequency:    7.8079590712
  - # 15
    frequency:    7.8079590712
  - # 16
    frequency:   10.5329126069
  - # 17
    frequency:   12.1342562077
  - # 18
    frequency:   12.1342562077
  - # 19
    frequency:   13.1314437132
  - # 20
    frequency:   13.9411478250
  - # 21
    frequency:   13.9411478250
  - # 22
    frequency:   13.9667774340
  - # 23
    frequency:   13.9667774340
  - # 24
    frequency:   27.0701760756
  - # 25
    frequency:   27.0774826676
  - # 26
    frequency:   57.6600421464
  - # 27
    frequency:   57.7704703238

- q-position: [    0.0050505,    0.0000000,    0.0000000 ]
  distance:    0.0017369
  band:
  - # 1
    frequency:    0.0064210219
  - # 2
    frequency:    0.0763665768
  - # 3
    frequency:    0.1268230434
  - # 4
    frequency:    0.5689422126
  - # 5
    frequency:    0.5746820007
  - # 6
    frequency:    0.6752712408
  - # 7
    frequency:    0.6813755460
  - # 8
    frequency:    4.4366083128
  - # 9
    frequency:    4.4376477038
  - # 10
    frequency:    4.6523531995
  - # 11
    frequency:    7.5114745976
  - # 12
    frequency:    7.6977252043
  - # 13
    frequency:    7.6981509286
  - # 14
    frequency:    7.8082127259
  - # 15
    frequency:    7.8089325616
  - # 16
    frequency:   10.5315352947
  - # 17
    frequency:   12.1342157412
  - # 18
    frequency:   12.1348473309
  - # 19
    frequency:   13.1312952650
  - # 20
    frequency:   13.9411171260
  - # 21
    frequency:   13.9414308530
  - # 22
    frequency:   13.9668381917
  - # 23
    frequency:   13.9670656265
  - # 24
    frequency:   27.0700306965
  - # 25
    frequency:   27.0772154494
  - # 26
    frequency:   57.6592774543
  - # 27
    frequency:   57.7694524854

- q-position: [    0.0101010,    0.0000000,    0.0000000 ]
  distance:    0.0034738
  band:
  - # 1
    frequency:    0.0206320124
  - # 2
    frequency:    0.1521019953
  - # 3
    frequency:    0.2516768591
  - # 4
    frequency:    0.5747510816
  - # 5
    frequency:    0.5969662665
  - # 6
    frequency:    0.6841116492
  - # 7
    frequency:    0.7084266341
  - # 8
    frequency:    4.4375341682
  - # 9
    frequency:    4.4416783149
  - # 10
    frequency:    4.6517153042
  - # 11
    frequency:    7.5100858606
  - # 12
    frequency:    7.6974386757
  - # 13
    frequency:    7.6991472053
  - # 14
    frequency:    7.8089690812
  - # 15
    frequency:    7.8118307150
  - # 16
    frequency:   10.5274099977
  - # 17
    frequency:   12.1340939194
  - # 18
    frequency:   12.1366139183
  - # 19
    frequency:   13.1308515593
  - # 20
    frequency:   13.9410257698
  - # 21
    frequency:   13.9422805279
  - # 22
    frequency:   13.9670203249
  - # 23
    frequency:   13.9679294447
  - # 24
    frequency:   27.0695949220
  - # 25
    frequency:   27.0764153149
  - # 26
    frequency:   57.6569843577
  - # 27
    frequency:   57.7664015272

- q-position: [    0.0151515,    0.0000000,    0.0000000 ]
  distance:    0.0052107
  band:
  - # 1
    frequency:    0.0422518604
  - # 2
    frequency:    0.2265215581
  - # 3
    frequency:    0.3723075905
  - # 4
    frequency:    0.5843182788
  - # 5
    frequency:    0.6319006759
  - # 6
    frequency:    0.6990147659
  - # 7
    frequency:    0.7534633080
  - # 8
    frequency:    4.4390825530
  - # 9
    frequency:    4.4483568109
  - # 10
    frequency:    4.6506610958
  - # 11
    frequency:    7.5078055825
  - # 12
    frequency:    7.6969700852
  - # 13
    frequency:    7.7008338935
  - # 14
    frequency:    7.8102146679
  - # 15
    frequency:    7.8165898118
  - # 16
    frequency:   10.5205565126
  - # 17
    frequency:   12.1338894807
  - # 18
    frequency:   12.1395357643
  - # 19
    frequency:   13.1301174980
  - # 20
    frequency:   13.9408759714
  - # 21
    frequency:   13.9436985411
  - # 22
    frequency:   13.9673234140
  - # 23
    frequency:   13.9693666830
  - # 24
    frequency:   27.0688695902
  - # 25
    frequency:   27.0750870610
  - # 26
    frequency:   57.6531657951
  - # 27
    frequency:   57.7613251091

- q-position: [    0.0202020,    0.0000000,    0.0000000 ]
  distance:    0.0069476
  band:
  - # 1
    frequency:    0.0695488146
  - # 2
    frequency:    0.2988433009
  - # 3
    frequency:    0.4861629415
  - # 4
    frequency:    0.5974815173
  - # 5
    frequency:    0.6771465968
  - # 6
    frequency:    0.7202581200
  - # 7
    frequency:    0.8166192054
  - # 8
    frequency:    4.4412613074
  - # 9
    frequency:    4.4576251357
  - # 10
    frequency:    4.6492042350
  - # 11
    frequency:    7.5046808987
  - # 12
    frequency:    7.6963317604
  - # 13
    frequency:    7.7032446830
  - # 14
    frequency:    7.8119281553
  - # 15
    frequency:    7.8231132633
  - # 16
    frequency:   10.5110074398
  - # 17
    frequency:   12.1336003419
  - # 18
    frequency:   12.1435796539
  - # 19
    frequency:   13.1291011993
  - # 20
    frequency:   13.9406713988
  - # 21
    frequency:   13.9456874504
  - # 22
    frequency:   13.9677467609
  - # 23
    frequency:   13.9713739006
  - # 24
    frequency:   27.0678549740
  - # 25
    frequency:   27.0732397619
  - # 26
    frequency:   57.6478266582
  - # 27
    frequency:   57.7542359615

- q-position: [    0.0252525,    0.0000000,    0.0000000 ]
  distance:    0.0086844
  band:
  - # 1
    frequency:    0.1010080549
  - # 2
    frequency:    0.3681767614
  - # 3
    frequency:    0.5911111004
  - # 4
    frequency:    0.6140296493
  - # 5
    frequency:    0.7305335962
  - # 6
    frequency:    0.7482466322
  - # 7
    frequency:    0.8977033869
  - # 8
    frequency:    4.4440812124
  - # 9
    frequency:    4.4694033699
  - # 10
    frequency:    4.6473643750
  - # 11
    frequency:    7.5007703695
  - # 12
    frequency:    7.6955389796
  - # 13
    frequency:    7.7064177569
  - # 14
    frequency:    7.8140817991
  - # 15
    frequency:    7.8312826712
  - # 16
    frequency:   10.4988076208
  - # 17
    frequency:   12.1332236260
  - # 18
    frequency:   12.1487000242
  - # 19
    frequency:   13.1278139212
  - # 20
    frequency:   13.9404171368
  - # 21
    frequency:   13.9482503126
  - # 22
    frequency:   13.9682893899
  - # 23
    frequency:   13.9739467495
  - # 24
    frequency:   27.0665474179
  - # 25
    frequency:   27.0708900662
  - # 26
    frequency:   57.6409737842
  - # 27
    frequency:   57.7451518311

- q-position: [    0.0303030,    0.0000000,    0.0000000 ]
  distance:    0.0104213
  band:
  - # 1
    frequency:    0.1355536802
  - # 2
    frequency:    0.4335878669
  - # 3
    frequency:    0.6337144504
  - # 4
    frequency:    0.6868163328
  - # 5
    frequency:    0.7834500692
  - # 6
    frequency:    0.7902609123
  - # 7
    frequency:    0.9950039380
  - # 8
    frequency:    4.4475557985
  - # 9
    frequency:    4.4835908285
  - # 10
    frequency:    4.6451678641
  - # 11
    frequency:    7.4961387601
  - # 12
    frequency:    7.6946084592
  - # 13
    frequency:    7.7103907061
  - # 14
    frequency:    7.8166430887
  - # 15
    frequency:    7.8409685345
  - # 16
    frequency:   10.4840134082
  - # 17
    frequency:   12.1327557017
  - # 18
    frequency:   12.1548398356
  - # 19
    frequency:   13.1262699529
  - # 20
    frequency:   13.9401196380
  - # 21
    frequency:   13.9513902120
  - # 22
    frequency:   13.9689500504
  - # 23
    frequency:   13.9770803907
  - # 24
    frequency:   27.0649261363
  - # 25
    frequency:   27.0680753062
  - # 26
    frequency:   57.6326159441
  - # 27
    frequency:   57.7340954070

- q-position: [    0.0353535,    0.0000000,    0.0000000 ]
  distance:    0.0121582
  band:
  - # 1
    frequency:    0.1725004477
  - # 2
    frequency:    0.4942840691
  - # 3
    frequency:    0.6562613203
  - # 4
    frequency:    0.7751611518
  - # 5
    frequency:    0.8262257843
  - # 6
    frequency:    0.8548969362
  - # 7
    frequency:    1.1049359807
  - # 8
    frequency:    4.4517011040
  - # 9
    frequency:    4.5000669571
  - # 10
    frequency:    4.6426490534
  - # 11
    frequency:    7.4908525325
  - # 12
    frequency:    7.6935569066
  - # 13
    frequency:    7.7151970164
  - # 14
    frequency:    7.8195763650
  - # 15
    frequency:    7.8520387699
  - # 16
    frequency:   10.4666918130
  - # 17
    frequency:   12.1321922337
  - # 18
    frequency:   12.1619316072
  - # 19
    frequency:   13.1244864747
  - # 20
    frequency:   13.9397866591
  - # 21
    frequency:   13.9551097186
  - # 22
    frequency:   13.9697272192
  - # 23
    frequency:   13.9807699674
  - # 24
    frequency:   27.0628823398
  - # 25
    frequency:   27.0649242548
  - # 26
    frequency:   57.6227638261
  - # 27
    frequency:   57.7210942261

- q-position: [    0.0404040,    0.0000000,    0.0000000 ]
  distance:    0.0138951
  band:
  - # 1
    frequency:    0.2114410222
  - # 2
    frequency:    0.5498872224
  - # 3
    frequency:    0.6813780371
  - # 4
    frequency:    0.8588993633
  - # 5
    frequency:    0.8765549946
  - # 6
    frequency:    0.9233210775
  - # 7
    frequency:    1.2233706915
  - # 8
    frequency:    4.4565353892
  - # 9
    frequency:    4.5186911486
  - # 10
    frequency:    4.6398530184
  - # 11
    frequency:    7.4849765934
  - # 12
    frequency:    7.6923998013
  - # 13
    frequency:    7.7208641507
  - # 14
    frequency:    7.8228442437
  - # 15
    frequency:    7.8643644680
  - # 16
    frequency:   10.4469195792
  - # 17
    frequency:   12.1315282427
  - # 18
    frequency:   12.1698985680
  - # 19
    frequency:   13.1224833854
  - # 20
    frequency:   13.9394271859
  - # 21
    frequency:   13.9594103042
  - # 22
    frequency:   13.9706191031
  - # 23
    frequency:   13.9850111048
  - # 24
    frequency:   27.0599497084
  - # 25
    frequency:   27.0619265117
  - # 26
    frequency:   57.6114300148
  - # 27
    frequency:   57.7061805606

- q-position: [    0.0454545,    0.0000000,    0.0000000 ]
  distance:    0.0156320
  band:
  - # 1
    frequency:    0.2521438108
  - # 2
    frequency:    0.6006226819
  - # 3
    frequency:    0.7087623388
  - # 4
    frequency:    0.9338604394
  - # 5
    frequency:    0.9402766488
  - # 6
    frequency:    0.9946638118
  - # 7
    frequency:    1.3469562468
  - # 8
    frequency:    4.4620788077
  - # 9
    frequency:    4.5392987942
  - # 10
    frequency:    4.6368423149
  - # 11
    frequency:    7.4785724206
  - # 12
    frequency:    7.6911504833
  - # 13
    frequency:    7.7274127913
  - # 14
    frequency:    7.8264087594
  - # 15
    frequency:    7.8778231816
  - # 16
    frequency:   10.4247822300
  - # 17
    frequency:   12.1307581756
  - # 18
    frequency:   12.1786558803
  - # 19
    frequency:   13.1202830972
  - # 20
    frequency:   13.9390513444
  - # 21
    frequency:   13.9642917409
  - # 22
    frequency:   13.9716236435
  - # 23
    frequency:   13.9898004145
  - # 24
    frequency:   27.0559092997
  - # 25
    frequency:   27.0593274323
  - # 26
    frequency:   57.5986289634
  - # 27
    frequency:   57.6893912896

- q-position: [    0.0505051,    0.0000000,    0.0000000 ]
  distance:    0.0173689
  band:
  - # 1
    frequency:    0.2944793304
  - # 2
    frequency:    0.6472474159
  - # 3
    frequency:    0.7381102565
  - # 4
    frequency:    0.9970796457
  - # 5
    frequency:    1.0206828306
  - # 6
    frequency:    1.0682543157
  - # 7
    frequency:    1.4734029742
  - # 8
    frequency:    4.4683530429
  - # 9
    frequency:    4.5616826953
  - # 10
    frequency:    4.6337185877
  - # 11
    frequency:    7.4716973926
  - # 12
    frequency:    7.6898195625
  - # 13
    frequency:    7.7348567540
  - # 14
    frequency:    7.8302322167
  - # 15
    frequency:    7.8923003981
  - # 16
    frequency:   10.4003731247
  - # 17
    frequency:   12.1298759845
  - # 18
    frequency:   12.1881118958
  - # 19
    frequency:   13.1179102974
  - # 20
    frequency:   13.9386703011
  - # 21
    frequency:   13.9697515033
  - # 22
    frequency:   13.9727385199
  - # 23
    frequency:   13.9951359826
  - # 24
    frequency:   27.0512081473
  - # 25
    frequency:   27.0567093443
  - # 26
    frequency:   57.5843769579
  - # 27
    frequency:   57.6707677571

- q-position: [    0.0555556,    0.0000000,    0.0000000 ]
  distance:    0.0191058
  band:
  - # 1
    frequency:    0.3383724832
  - # 2
    frequency:    0.6907645450
  - # 3
    frequency:    0.7691265424
  - # 4
    frequency:    1.0649452101
  - # 5
    frequency:    1.1008570037
  - # 6
    frequency:    1.1435753220
  - # 7
    frequency:    1.6012269000
  - # 8
    frequency:    4.4753809131
  - # 9
    frequency:    4.5854943420
  - # 10
    frequency:    4.6307244778
  - # 11
    frequency:    7.4644049987
  - # 12
    frequency:    7.6884146131
  - # 13
    frequency:    7.7432032171
  - # 14
    frequency:    7.8342777805
  - # 15
    frequency:    7.9076898573
  - # 16
    frequency:   10.3737925544
  - # 17
    frequency:   12.1288752142
  - # 18
    frequency:   12.1981694192
  - # 19
    frequency:   13.1153916771
  - # 20
    frequency:   13.9382961519
  - # 21
    frequency:   13.9739611562
  - # 22
    frequency:   13.9757841944
  - # 23
    frequency:   14.0010178222
  - # 24
    frequency:   27.0460200580
  - # 25
    frequency:   27.0539305483
  - # 26
    frequency:   57.5686920691
  - # 27
    frequency:   57.6503556198

- q-position: [    0.0606061,    0.0000000,    0.0000000 ]
  distance:    0.0208427
  band:
  - # 1
    frequency:    0.3837736072
  - # 2
    frequency:    0.7321392883
  - # 3
    frequency:    0.8015361662
  - # 4
    frequency:    1.1362589447
  - # 5
    frequency:    1.1811476587
  - # 6
    frequency:    1.2202255681
  - # 7
    frequency:    1.7294510540
  - # 8
    frequency:    4.4831859529
  - # 9
    frequency:    4.6092466287
  - # 10
    frequency:    4.6292442381
  - # 11
    frequency:    7.4567455895
  - # 12
    frequency:    7.6869400962
  - # 13
    frequency:    7.7524530750
  - # 14
    frequency:    7.8385098554
  - # 15
    frequency:    7.9238932283
  - # 16
    frequency:   10.3451468935
  - # 17
    frequency:   12.1277490969
  - # 18
    frequency:   12.2087269561
  - # 19
    frequency:   13.1127556265
  - # 20
    frequency:   13.9379418011
  - # 21
    frequency:   13.9752887266
  - # 22
    frequency:   13.9823810224
  - # 23
    frequency:   14.0074482644
  - # 24
    frequency:   27.0404019918
  - # 25
    frequency:   27.0509687156
  - # 26
    frequency:   57.5515940886
  - # 27
    frequency:   57.6282046934

- q-position: [    0.0656566,    0.0000000,    0.0000000 ]
  distance:    0.0225796
  band:
  - # 1
    frequency:    0.4306419006
  - # 2
    frequency:    0.7721487077
  - # 3
    frequency:    0.8350937544
  - # 4
    frequency:    1.2100316143
  - # 5
    frequency:    1.2616901211
  - # 6
    frequency:    1.2978902485
  - # 7
    frequency:    1.8573990664
  - # 8
    frequency:    4.4917919756
  - # 9
    frequency:    4.6195785241
  - # 10
    frequency:    4.6425425302
  - # 11
    frequency:    7.4487673796
  - # 12
    frequency:    7.6853974534
  - # 13
    frequency:    7.7626013390
  - # 14
    frequency:    7.8428943139
  - # 15
    frequency:    7.9408194952
  - # 16
    frequency:   10.3145478162
  - # 17
    frequency:   12.1264906536
  - # 18
    frequency:   12.2196799407
  - # 19
    frequency:   13.1100318985
  - # 20
    frequency:   13.9376208308
  - # 21
    frequency:   13.9767181632
  - # 22
    frequency:   13.9895293741
  - # 23
    frequency:   14.0144322431
  - # 24
    frequency:   27.0343884525
  - # 25
    frequency:   27.0478262619
  - # 26
    frequency:   57.5331044376
  - # 27
    frequency:   57.6043688047

- q-position: [    0.0707071,    0.0000000,    0.0000000 ]
  distance:    0.0243164
  band:
  - # 1
    frequency:    0.4789365875
  - # 2
    frequency:    0.8113530217
  - # 3
    frequency:    0.8695882255
  - # 4
    frequency:    1.2855041748
  - # 5
    frequency:    1.3425087878
  - # 6
    frequency:    1.3763188309
  - # 7
    frequency:    1.9845704775
  - # 8
    frequency:    4.5012226246
  - # 9
    frequency:    4.6177617776
  - # 10
    frequency:    4.6692613463
  - # 11
    frequency:    7.4405174955
  - # 12
    frequency:    7.6837853146
  - # 13
    frequency:    7.7736375708
  - # 14
    frequency:    7.8473986195
  - # 15
    frequency:    7.9583842572
  - # 16
    frequency:   10.2821115768
  - # 17
    frequency:   12.1250928007
  - # 18
    frequency:   12.2309219352
  - # 19
    frequency:   13.1072512411
  - # 20
    frequency:   13.9373473627
  - # 21
    frequency:   13.9782461650
  - # 22
    frequency:   13.9972125576
  - # 23
    frequency:   14.0219774036
  - # 24
    frequency:   27.0280089678
  - # 25
    frequency:   27.0445126165
  - # 26
    frequency:   57.5132460353
  - # 27
    frequency:   57.5789056680

- q-position: [    0.0757576,    0.0000000,    0.0000000 ]
  distance:    0.0260533
  band:
  - # 1
    frequency:    0.5286127517
  - # 2
    frequency:    0.8501269889
  - # 3
    frequency:    0.9048422549
  - # 4
    frequency:    1.3621131336
  - # 5
    frequency:    1.4235726072
  - # 6
    frequency:    1.4553088445
  - # 7
    frequency:    2.1105672524
  - # 8
    frequency:    4.5115009198
  - # 9
    frequency:    4.6149218360
  - # 10
    frequency:    4.6982029217
  - # 11
    frequency:    7.4320429357
  - # 12
    frequency:    7.6820997794
  - # 13
    frequency:    7.7855463516
  - # 14
    frequency:    7.8519918871
  - # 15
    frequency:    7.9765090554
  - # 16
    frequency:   10.2479583479
  - # 17
    frequency:   12.1235484608
  - # 18
    frequency:   12.2423458062
  - # 19
    frequency:   13.1044450019
  - # 20
    frequency:   13.9371359127
  - # 21
    frequency:   13.9798692082
  - # 22
    frequency:   14.0054098188
  - # 23
    frequency:   14.0300939302
  - # 24
    frequency:   27.0212922423
  - # 25
    frequency:   27.0410398083
  - # 26
    frequency:   57.4920430967
  - # 27
    frequency:   57.5518768155

- q-position: [    0.0808081,    0.0000000,    0.0000000 ]
  distance:    0.0277902
  band:
  - # 1
    frequency:    0.5796198852
  - # 2
    frequency:    0.8887065887
  - # 3
    frequency:    0.9407082711
  - # 4
    frequency:    1.4394436624
  - # 5
    frequency:    1.5048244816
  - # 6
    frequency:    1.5346941421
  - # 7
    frequency:    2.2350495011
  - # 8
    frequency:    4.5226488048
  - # 9
    frequency:    4.6121644169
  - # 10
    frequency:    4.7282072583
  - # 11
    frequency:    7.4233913759
  - # 12
    frequency:    7.6803347402
  - # 13
    frequency:    7.7983077928
  - # 14
    frequency:    7.8566449073
  - # 15
    frequency:    7.9951207733
  - # 16
    frequency:   10.2122116061
  - # 17
    frequency:   12.1218506765
  - # 18
    frequency:   12.2538448809
  - # 19
    frequency:   13.1016447069
  - # 20
    frequency:   13.9370012403
  - # 21
    frequency:   13.9815835570
  - # 22
    frequency:   14.0140967642
  - # 23
    frequency:   14.0387939653
  - # 24
    frequency:   27.0142673804
  - # 25
    frequency:   27.0374209725
  - # 26
    frequency:   57.4695208051
  - # 27
    frequency:   57.5233476372

- q-position: [    0.0858586,    0.0000000,    0.0000000 ]
  distance:    0.0295271
  band:
  - # 1
    frequency:    0.6319019395
  - # 2
    frequency:    0.9272310904
  - # 3
    frequency:    0.9770631489
  - # 4
    frequency:    1.5171885767
  - # 5
    frequency:    1.5861966289
  - # 6
    frequency:    1.6143363787
  - # 7
    frequency:    2.3577074443
  - # 8
    frequency:    4.5346867037
  - # 9
    frequency:    4.6097873090
  - # 10
    frequency:    4.7589447705
  - # 11
    frequency:    7.4146117907
  - # 12
    frequency:    7.6784822234
  - # 13
    frequency:    7.8118980838
  - # 14
    frequency:    7.8613301528
  - # 15
    frequency:    8.0141511297
  - # 16
    frequency:   10.1749975525
  - # 17
    frequency:   12.1199927249
  - # 18
    frequency:   12.2653140853
  - # 19
    frequency:   13.0988816201
  - # 20
    frequency:   13.9369581941
  - # 21
    frequency:   13.9833852770
  - # 22
    frequency:   14.0232463063
  - # 23
    frequency:   14.0480905032
  - # 24
    frequency:   27.0069642625
  - # 25
    frequency:   27.0336696962
  - # 26
    frequency:   57.4457047485
  - # 27
    frequency:   57.4933876440

- q-position: [    0.0909091,    0.0000000,    0.0000000 ]
  distance:    0.0312640
  band:
  - # 1
    frequency:    0.6853981423
  - # 2
    frequency:    0.9657751200
  - # 3
    frequency:    1.0138031114
  - # 4
    frequency:    1.5951172975
  - # 5
    frequency:    1.6676184565
  - # 6
    frequency:    1.6941187670
  - # 7
    frequency:    2.4782423714
  - # 8
    frequency:    4.5476330902
  - # 9
    frequency:    4.6080029959
  - # 10
    frequency:    4.7901985442
  - # 11
    frequency:    7.4057548924
  - # 12
    frequency:    7.6765327366
  - # 13
    frequency:    7.8262900690
  - # 14
    frequency:    7.8660217793
  - # 15
    frequency:    8.0335362582
  - # 16
    frequency:   10.1364445571
  - # 17
    frequency:   12.1179682330
  - # 18
    frequency:   12.2766510681
  - # 19
    frequency:   13.0961862891
  - # 20
    frequency:   13.9370215543
  - # 21
    frequency:   13.9852702485
  - # 22
    frequency:   14.0328301693
  - # 23
    frequency:   14.0579957265
  - # 24
    frequency:   26.9994136226
  - # 25
    frequency:   27.0297996601
  - # 26
    frequency:   57.4206198763
  - # 27
    frequency:   57.4620711985

- q-position: [    0.0959596,    0.0000000,    0.0000000 ]
  distance:    0.0330009
  band:
  - # 1
    frequency:    0.7400441416
  - # 2
    frequency:    1.0043712419
  - # 3
    frequency:    1.0508395075
  - # 4
    frequency:    1.6730537376
  - # 5
    frequency:    1.7490204470
  - # 6
    frequency:    1.7739414491
  - # 7
    frequency:    2.5963525471
  - # 8
    frequency:    4.5615040791
  - # 9
    frequency:    4.6070246114
  - # 10
    frequency:    4.8217837704
  - # 11
    frequency:    7.3968733992
  - # 12
    frequency:    7.6744756104
  - # 13
    frequency:    7.8414538375
  - # 14
    frequency:    7.8706956265
  - # 15
    frequency:    8.0532163646
  - # 16
    frequency:   10.0966826154
  - # 17
    frequency:   12.1157712905
  - # 18
    frequency:   12.2877573053
  - # 19
    frequency:   13.0935880871
  - # 20
    frequency:   13.9372058758
  - # 21
    frequency:   13.9872341825
  - # 22
    frequency:   14.0428208218
  - # 23
    frequency:   14.0685189190
  - # 24
    frequency:   26.9916469986
  - # 25
    frequency:   27.0258244034
  - # 26
    frequency:   57.3942884061
  - # 27
    frequency:   57.4294792840

- q-position: [    0.1010101,    0.0000000,    0.0000000 ]
  distance:    0.0347378
  band:
  - # 1
    frequency:    0.7957732216
  - # 2
    frequency:    1.0430252082
  - # 3
    frequency:    1.0880955695
  - # 4
    frequency:    1.7508609145
  - # 5
    frequency:    1.8303359205
  - # 6
    frequency:    1.8537180233
  - # 7
    frequency:    2.7117218219
  - # 8
    frequency:    4.5763130418
  - # 9
    frequency:    4.6070887146
  - # 10
    frequency:    4.8535308860
  - # 11
    frequency:    7.3880221529
  - # 12
    frequency:    7.6722993315
  - # 13
    frequency:    7.8573573067
  - # 14
    frequency:    7.8753292211
  - # 15
    frequency:    8.0731354499
  - # 16
    frequency:   10.0558428081
  - # 17
    frequency:   12.1133965600
  - # 18
    frequency:   12.2985391822
  - # 19
    frequency:   13.0911147603
  - # 20
    frequency:   13.9375253311
  - # 21
    frequency:   13.9892726359
  - # 22
    frequency:   14.0531934996
  - # 23
    frequency:   14.0796642989
  - # 24
    frequency:   26.9836966222
  - # 25
    frequency:   27.0217571499
  - # 26
    frequency:   57.3667252010
  - # 27
    frequency:   57.3957037950

- q-position: [    0.1060606,    0.0000000,    0.0000000 ]
  distance:    0.0364747
  band:
  - # 1
    frequency:    0.8525174525
  - # 2
    frequency:    1.0817260203
  - # 3
    frequency:    1.1255040094
  - # 4
    frequency:    1.8284303010
  - # 5
    frequency:    1.9115016733
  - # 6
    frequency:    1.9333729125
  - # 7
    frequency:    2.8240097724
  - # 8
    frequency:    4.5920702542
  - # 9
    frequency:    4.6084661954
  - # 10
    frequency:    4.8852810069
  - # 11
    frequency:    7.3792581051
  - # 12
    frequency:    7.6699918629
  - # 13
    frequency:    7.8739667858
  - # 14
    frequency:    7.8799017816
  - # 15
    frequency:    8.0932410848
  - # 16
    frequency:   10.0140567597
  - # 17
    frequency:   12.1108393816
  - # 18
    frequency:   12.3089090392
  - # 19
    frequency:   13.0887919959
  - # 20
    frequency:   13.9379935565
  - # 21
    frequency:   13.9913810296
  - # 22
    frequency:   14.0639278448
  - # 23
    frequency:   14.0914292458
  - # 24
    frequency:   26.9755952747
  - # 25
    frequency:   27.0176106707
  - # 26
    frequency:   57.3379263418
  - # 27
    frequency:   57.3608586252

- q-position: [    0.1111111,    0.0000000,    0.0000000 ]
  distance:    0.0382115
  band:
  - # 1
    frequency:    0.9102086996
  - # 2
    frequency:    1.1204524798
  - # 3
    frequency:    1.1630052504
  - # 4
    frequency:    1.9056744233
  - # 5
    frequency:    1.9924580282
  - # 6
    frequency:    2.0128393531
  - # 7
    frequency:    2.9328429515
  - # 8
    frequency:    4.6087825787
  - # 9
    frequency:    4.6114699351
  - # 10
    frequency:    4.9168847056
  - # 11
    frequency:    7.3706401897
  - # 12
    frequency:    7.6675409510
  - # 13
    frequency:    7.8843942254
  - # 14
    frequency:    7.8912474978
  - # 15
    frequency:    8.1134842267
  - # 16
    frequency:    9.9714560913
  - # 17
    frequency:   12.1080958720
  - # 18
    frequency:   12.3187861668
  - # 19
    frequency:   13.0866430226
  - # 20
    frequency:   13.9386235031
  - # 21
    frequency:   13.9935546664
  - # 22
    frequency:   14.0750087487
  - # 23
    frequency:   14.1038033411
  - # 24
    frequency:   26.9673761226
  - # 25
    frequency:   27.0133971710
  - # 26
    frequency:   57.3078370661
  - # 27
    frequency:   57.3251113816

- q-position: [    0.1161616,    0.0000000,    0.0000000 ]
  distance:    0.0399484
  band:
  - # 1
    frequency:    0.9687794657
  - # 2
    frequency:    1.1591774189
  - # 3
    frequency:    1.2005461166
  - # 4
    frequency:    1.9825216682
  - # 5
    frequency:    2.0731485822
  - # 6
    frequency:    2.0920578541
  - # 7
    frequency:    3.0378075258
  - # 8
    frequency:    4.6164607020
  - # 9
    frequency:    4.6264531868
  - # 10
    frequency:    4.9482019317
  - # 11
    frequency:    7.3622290979
  - # 12
    frequency:    7.6649344192
  - # 13
    frequency:    7.8887891731
  - # 14
    frequency:    7.9091640506
  - # 15
    frequency:    8.1338190682
  - # 16
    frequency:    9.9281718699
  - # 17
    frequency:   12.1051630142
  - # 18
    frequency:   12.3280977315
  - # 19
    frequency:   13.0846882628
  - # 20
    frequency:   13.9394272936
  - # 21
    frequency:   13.9957887504
  - # 22
    frequency:   14.0864262417
  - # 23
    frequency:   14.1167683815
  - # 24
    frequency:   26.9590725391
  - # 25
    frequency:   27.0091281976
  - # 26
    frequency:   57.2762536175
  - # 27
    frequency:   57.2887811865

- q-position: [    0.1212121,    0.0000000,    0.0000000 ]
  distance:    0.0416853
  band:
  - # 1
    frequency:    1.0281635582
  - # 2
    frequency:    1.1978704131
  - # 3
    frequency:    1.2380788431
  - # 4
    frequency:    2.0589125958
  - # 5
    frequency:    2.1535197992
  - # 6
    frequency:    2.1709750209
  - # 7
    frequency:    3.1384443639
  - # 8
    frequency:    4.6238506031
  - # 9
    frequency:    4.6450813232
  - # 10
    frequency:    4.9791024246