nqpoint: 300    
npath: 3      
segment_nqpoint:
- 100
- 100
- 100
labels:
- [ 'G', 'M' ]
- [ 'M', 'K' ]
- [ 'K', 'G' ]
reciprocal_lattice:
- [   0.27168144,   0.15685535,   0.00000000 ] # a*
- [   0.00000000,   0.31371070,   0.00000000 ] # b*
- [   0.00000000,   0.00000000,   0.03797753 ] # c*
natom: 7      
lattice:
- [     3.680781487417094,     0.000000000000000,     0.000000000000000 ] # a
- [    -1.840390743708547,     3.187650273912002,     0.000000000000000 ] # b
- [     0.000000000000000,     0.000000000000000,    26.331357085636576 ] # c
points:
- symbol: C # 1
  coordinates: [  0.000000000000000,  0.000000000000000,  0.460357208509402 ]
  mass: 12.010700
- symbol: C # 2
  coordinates: [  0.333332985432215,  0.666666983183674,  0.612369801424091 ]
  mass: 12.010700
- symbol: Cl # 3
  coordinates: [  0.666666984744047,  0.333332985985145,  0.341797802928638 ]
  mass: 35.453000
- symbol: N # 4
  coordinates: [  0.333332985432215,  0.666666983183674,  0.565035840906495 ]
  mass: 14.006700
- symbol: O # 5
  coordinates: [  0.333332985432215,  0.666666983183674,  0.658202197071362 ]
  mass: 15.999400
- symbol: Y # 6
  coordinates: [  0.333332985432215,  0.666666983183674,  0.408836296814008 ]
  mass: 88.905850
- symbol: Y # 7
  coordinates: [  0.666666984744047,  0.333332985985145,  0.512013774979623 ]
  mass: 88.905850

phonon:
- q-position: [    0.0000000,    0.0000000,    0.0000000 ]
  distance:    0.0000000
  band:
  - # 1
    frequency:   -0.0000212366
  - # 2
    frequency:    0.0000003434
  - # 3
    frequency:    0.0000253346
  - # 4
    frequency:    0.7012698791
  - # 5
    frequency:    0.7012698792
  - # 6
    frequency:    3.2924818190
  - # 7
    frequency:    3.2924818191
  - # 8
    frequency:    4.5706635740
  - # 9
    frequency:    4.5706635741
  - # 10
    frequency:    4.7997498166
  - # 11
    frequency:    5.2605376966
  - # 12
    frequency:    5.2605376967
  - # 13
    frequency:    7.3257744536
  - # 14
    frequency:    8.7849141482
  - # 15
    frequency:    9.1358517892
  - # 16
    frequency:    9.1358517894
  - # 17
    frequency:   16.2759623170
  - # 18
    frequency:   17.7924384418
  - # 19
    frequency:   17.7924384420
  - # 20
    frequency:   38.5531987166
  - # 21
    frequency:   68.6937798934

- q-position: [    0.0050505,    0.0000000,    0.0000000 ]
  distance:    0.0015844
  band:
  - # 1
    frequency:    0.0014002313
  - # 2
    frequency:    0.0532342044
  - # 3
    frequency:    0.0932359999
  - # 4
    frequency:    0.7013190339
  - # 5
    frequency:    0.7027210858
  - # 6
    frequency:    3.2925063582
  - # 7
    frequency:    3.2934371309
  - # 8
    frequency:    4.5706823976
  - # 9
    frequency:    4.5717984335
  - # 10
    frequency:    4.8002712100
  - # 11
    frequency:    5.2605991541
  - # 12
    frequency:    5.2631111339
  - # 13
    frequency:    7.3254565497
  - # 14
    frequency:    8.7821808172
  - # 15
    frequency:    9.1356363636
  - # 16
    frequency:    9.1434288777
  - # 17
    frequency:   16.2746045989
  - # 18
    frequency:   17.7924566099
  - # 19
    frequency:   17.7927289449
  - # 20
    frequency:   38.5531725369
  - # 21
    frequency:   68.6927404301

- q-position: [    0.0101010,    0.0000000,    0.0000000 ]
  distance:    0.0031688
  band:
  - # 1
    frequency:    0.0055919452
  - # 2
    frequency:    0.1063257470
  - # 3
    frequency:    0.1859875816
  - # 4
    frequency:    0.7014847467
  - # 5
    frequency:    0.7071763267
  - # 6
    frequency:    3.2925801897
  - # 7
    frequency:    3.2962944764
  - # 8
    frequency:    4.5707389407
  - # 9
    frequency:    4.5750844591
  - # 10
    frequency:    4.8018537653
  - # 11
    frequency:    5.2607837675
  - # 12
    frequency:    5.2708248941
  - # 13
    frequency:    7.3245039878
  - # 14
    frequency:    8.7744899423
  - # 15
    frequency:    9.1349909347
  - # 16
    frequency:    9.1656546253
  - # 17
    frequency:   16.2705347089
  - # 18
    frequency:   17.7925111122
  - # 19
    frequency:   17.7935987263
  - # 20
    frequency:   38.5530940464
  - # 21
    frequency:   68.6896242313

- q-position: [    0.0151515,    0.0000000,    0.0000000 ]
  distance:    0.0047532
  band:
  - # 1
    frequency:    0.0125531457
  - # 2
    frequency:    0.1591186097
  - # 3
    frequency:    0.2776306372
  - # 4
    frequency:    0.7018246165
  - # 5
    frequency:    0.7149867886
  - # 6
    frequency:    3.2927039547
  - # 7
    frequency:    3.3010285458
  - # 8
    frequency:    4.5708334217
  - # 9
    frequency:    4.5801831688
  - # 10
    frequency:    4.8045485631
  - # 11
    frequency:    5.2610922546
  - # 12
    frequency:    5.2836522913
  - # 13
    frequency:    7.3229201817
  - # 14
    frequency:    8.7630284175
  - # 15
    frequency:    9.1339180450
  - # 16
    frequency:    9.2013509647
  - # 17
    frequency:   16.2637623889
  - # 18
    frequency:   17.7926019431
  - # 19
    frequency:   17.7950426546
  - # 20
    frequency:   38.5529633902
  - # 21
    frequency:   68.6844378639

- q-position: [    0.0202020,    0.0000000,    0.0000000 ]
  distance:    0.0063376
  band:
  - # 1
    frequency:    0.0222470566
  - # 2
    frequency:    0.2114271887
  - # 3
    frequency:    0.3671846705
  - # 4
    frequency:    0.7024448915
  - # 5
    frequency:    0.7269210939
  - # 6
    frequency:    3.2928787157
  - # 7
    frequency:    3.3075986125
  - # 8
    frequency:    4.5709662078
  - # 9
    frequency:    4.5865856091
  - # 10
    frequency:    4.8084272707
  - # 11
    frequency:    5.2615257966
  - # 12
    frequency:    5.3015269463
  - # 13
    frequency:    7.3207107063
  - # 14
    frequency:    8.7490395185
  - # 15
    frequency:    9.1324219233
  - # 16
    frequency:    9.2492828891
  - # 17
    frequency:   16.2543037075
  - # 18
    frequency:   17.7927290927
  - # 19
    frequency:   17.7970523432
  - # 20
    frequency:   38.5527808097
  - # 21
    frequency:   68.6771922511

- q-position: [    0.0252525,    0.0000000,    0.0000000 ]
  distance:    0.0079220
  band:
  - # 1
    frequency:    0.0346235282
  - # 2
    frequency:    0.2630134600
  - # 3
    frequency:    0.4529037842
  - # 4
    frequency:    0.7035186247
  - # 5
    frequency:    0.7445479722
  - # 6
    frequency:    3.2931059488
  - # 7
    frequency:    3.3159504791
  - # 8
    frequency:    4.5711378208
  - # 9
    frequency:    4.5936872706
  - # 10
    frequency:    4.8135626632
  - # 11
    frequency:    5.2620860164
  - # 12
    frequency:    5.3243153145
  - # 13
    frequency:    7.3178831415
  - # 14
    frequency:    8.7334582927
  - # 15
    frequency:    9.1305084722
  - # 16
    frequency:    9.3085138978
  - # 17
    frequency:   16.2421808216
  - # 18
    frequency:   17.7928925472
  - # 19
    frequency:   17.7996163885
  - # 20
    frequency:   38.5525466423
  - # 21
    frequency:   68.6679026412

- q-position: [    0.0303030,    0.0000000,    0.0000000 ]
  distance:    0.0095064
  band:
  - # 1
    frequency:    0.0496202085
  - # 2
    frequency:    0.3135521171
  - # 3
    frequency:    0.5315863188
  - # 4
    frequency:    0.7053173321
  - # 5
    frequency:    0.7709121422
  - # 6
    frequency:    3.2933875320
  - # 7
    frequency:    3.3260187957
  - # 8
    frequency:    4.5713489445
  - # 9
    frequency:    4.6008758295
  - # 10
    frequency:    4.8200047731
  - # 11
    frequency:    5.2627749467
  - # 12
    frequency:    5.3517886113
  - # 13
    frequency:    7.3144468804
  - # 14
    frequency:    8.7168591204
  - # 15
    frequency:    9.1281852498
  - # 16
    frequency:    9.3784466020
  - # 17
    frequency:   16.2274216633
  - # 18
    frequency:   17.7930922874
  - # 19
    frequency:   17.8027206797
  - # 20
    frequency:   38.5522613199
  - # 21
    frequency:   68.6565885631

- q-position: [    0.0353535,    0.0000000,    0.0000000 ]
  distance:    0.0110908
  band:
  - # 1
    frequency:    0.0671638571
  - # 2
    frequency:    0.3625758400
  - # 3
    frequency:    0.5982873337
  - # 4
    frequency:    0.7082634962
  - # 5
    frequency:    0.8108138466
  - # 6
    frequency:    3.2937257315
  - # 7
    frequency:    3.3377294849
  - # 8
    frequency:    4.5716004330
  - # 9
    frequency:    4.6076138664
  - # 10
    frequency:    4.8277590104
  - # 11
    frequency:    5.2635949925
  - # 12
    frequency:    5.3836027401
  - # 13
    frequency:    7.3104129256
  - # 14
    frequency:    8.6995402049
  - # 15
    frequency:    9.1254614468
  - # 16
    frequency:    9.4587247234
  - # 17
    frequency:   16.2100595738
  - # 18
    frequency:   17.7933282890
  - # 19
    frequency:   17.8063487644
  - # 20
    frequency:   38.5519253683
  - # 21
    frequency:   68.6432737694

- q-position: [    0.0404040,    0.0000000,    0.0000000 ]
  distance:    0.0126752
  band:
  - # 1
    frequency:    0.0871717106
  - # 2
    frequency:    0.4093923274
  - # 3
    frequency:    0.6491694823
  - # 4
    frequency:    0.7130119675
  - # 5
    frequency:    0.8679536343
  - # 6
    frequency:    3.2941231857
  - # 7
    frequency:    3.3510020612
  - # 8
    frequency:    4.5718933222
  - # 9
    frequency:    4.6134979034
  - # 10
    frequency:    4.8367744216
  - # 11
    frequency:    5.2645488838
  - # 12
    frequency:    5.4192935224
  - # 13
    frequency:    7.3057936902
  - # 14
    frequency:    8.6816235719
  - # 15
    frequency:    9.1223478568
  - # 16
    frequency:    9.5491191152
  - # 17
    frequency:   16.1901329056
  - # 18
    frequency:   17.7936005211
  - # 19
    frequency:   17.8104822455
  - # 20
    frequency:   38.5515394054
  - # 21
    frequency:   68.6279861674

- q-position: [    0.0454545,    0.0000000,    0.0000000 ]
  distance:    0.0142596
  band:
  - # 1
    frequency:    0.1095528260
  - # 2
    frequency:    0.4529773772
  - # 3
    frequency:    0.6861763318
  - # 4
    frequency:    0.7205557747
  - # 5
    frequency:    0.9402567519
  - # 6
    frequency:    3.2945828867
  - # 7
    frequency:    3.3657517147
  - # 8
    frequency:    4.5722288410
  - # 9
    frequency:    4.6182819303
  - # 10
    frequency:    4.8469475498
  - # 11
    frequency:    5.2656396233
  - # 12
    frequency:    5.4582904601
  - # 13
    frequency:    7.3006028234
  - # 14
    frequency:    8.6631309356
  - # 15
    frequency:    9.1188568413
  - # 16
    frequency:    9.6494387933
  - # 17
    frequency:   16.1676846132
  - # 18
    frequency:   17.7939089458
  - # 19
    frequency:   17.8151011918
  - # 20
    frequency:   38.5511041398
  - # 21
    frequency:   68.6107577383

- q-position: [    0.0505051,    0.0000000,    0.0000000 ]
  distance:    0.0158440
  band:
  - # 1
    frequency:    0.1342093500
  - # 2
    frequency:    0.4919067989
  - # 3
    frequency:    0.7147752801
  - # 4
    frequency:    0.7322934207
  - # 5
    frequency:    1.0221290945
  - # 6
    frequency:    3.2951081619
  - # 7
    frequency:    3.3818911047
  - # 8
    frequency:    4.5726084241
  - # 9
    frequency:    4.6218662828
  - # 10
    frequency:    4.8581404026
  - # 11
    frequency:    5.2668704276
  - # 12
    frequency:    5.4999468803
  - # 13
    frequency:    7.2948550676
  - # 14
    frequency:    8.6440328728
  - # 15
    frequency:    9.1150022883
  - # 16
    frequency:    9.7594708626
  - # 17
    frequency:   16.1427618553
  - # 18
    frequency:   17.7942535171
  - # 19
    frequency:   17.8201845410
  - # 20
    frequency:   38.5506203694
  - # 21
    frequency:   68.5916244439

- q-position: [    0.0555556,    0.0000000,    0.0000000 ]
  distance:    0.0174284
  band:
  - # 1
    frequency:    0.1610376736
  - # 2
    frequency:    0.5245259132
  - # 3
    frequency:    0.7392306612
  - # 4
    frequency:    0.7498588214
  - # 5
    frequency:    1.1091836068
  - # 6
    frequency:    3.2957026535
  - # 7
    frequency:    3.3993318633
  - # 8
    frequency:    4.5730337250
  - # 9
    frequency:    4.6242641038
  - # 10
    frequency:    4.8702046142
  - # 11
    frequency:    5.2682446628
  - # 12
    frequency:    5.5435799784
  - # 13
    frequency:    7.2885661549
  - # 14
    frequency:    8.6242782431
  - # 15
    frequency:    9.1107995640
  - # 16
    frequency:    9.8789435463
  - # 17
    frequency:   16.1154156242
  - # 18
    frequency:   17.7946341796
  - # 19
    frequency:   17.8257104798
  - # 20
    frequency:   38.5500889785
  - # 21
    frequency:   68.5706261224

- q-position: [    0.0606061,    0.0000000,    0.0000000 ]
  distance:    0.0190128
  band:
  - # 1
    frequency:    0.1899294463
  - # 2
    frequency:    0.5495918135
  - # 3
    frequency:    0.7618689532
  - # 4
    frequency:    0.7744786449
  - # 5
    frequency:    1.1989749241
  - # 6
    frequency:    3.2963702995
  - # 7
    frequency:    3.4179858418
  - # 8
    frequency:    4.5735066290
  - # 9
    frequency:    4.6255612355
  - # 10
    frequency:    4.8830026867
  - # 11
    frequency:    5.2697657778
  - # 12
    frequency:    5.5885126588
  - # 13
    frequency:    7.2817527414
  - # 14
    frequency:    8.6038108162
  - # 15
    frequency:    9.1062654582
  - # 16
    frequency:   10.0075061533
  - # 17
    frequency:   16.0857004184
  - # 18
    frequency:   17.7950508674
  - # 19
    frequency:   17.8316567887
  - # 20
    frequency:   38.5495109367
  - # 21
    frequency:   68.5478063727

- q-position: [    0.0656566,    0.0000000,    0.0000000 ]
  distance:    0.0205972
  band:
  - # 1
    frequency:    0.2207724305
  - # 2
    frequency:    0.5670696606
  - # 3
    frequency:    0.7838610177
  - # 4
    frequency:    0.8061757381
  - # 5
    frequency:    1.2902171614
  - # 6
    frequency:    3.2971153143
  - # 7
    frequency:    3.4377661412
  - # 8
    frequency:    4.5740292654
  - # 9
    frequency:    4.6258813110
  - # 10
    frequency:    4.8964209759
  - # 11
    frequency:    5.2714372328
  - # 12
    frequency:    5.6341102150
  - # 13
    frequency:    7.2744323763
  - # 14
    frequency:    8.5825781180
  - # 15
    frequency:    9.1014181220
  - # 16
    frequency:   10.1447213017
  - # 17
    frequency:   16.0536739696
  - # 18
    frequency:   17.7955035028
  - # 19
    frequency:   17.8380011424
  - # 20
    frequency:   38.5488872958
  - # 21
    frequency:   68.5232124281

- q-position: [    0.0707071,    0.0000000,    0.0000000 ]
  distance:    0.0221816
  band:
  - # 1
    frequency:    0.2534511794
  - # 2
    frequency:    0.5781579011
  - # 3
    frequency:    0.8058032793
  - # 4
    frequency:    0.8437437163
  - # 5
    frequency:    1.3822028560
  - # 6
    frequency:    3.2979421714
  - # 7
    frequency:    3.4585879653
  - # 8
    frequency:    4.5746040187
  - # 9
    frequency:    4.6253610094
  - # 10
    frequency:    4.9103739852
  - # 11
    frequency:    5.2732624278
  - # 12
    frequency:    5.6798076072
  - # 13
    frequency:    7.2666235000
  - # 14
    frequency:    8.5605357213
  - # 15
    frequency:    9.0962769980
  - # 16
    frequency:   10.2900659977
  - # 17
    frequency:   16.0193970332
  - # 18
    frequency:   17.7959919949
  - # 19
    frequency:   17.8447213620
  - # 20
    frequency:   38.5482191880
  - # 21
    frequency:   68.4968950189

- q-position: [    0.0757576,    0.0000000,    0.0000000 ]
  distance:    0.0237660
  band:
  - # 1
    frequency:    0.2878475260
  - # 2
    frequency:    0.5845072714
  - # 3
    frequency:    0.8280089790
  - # 4
    frequency:    0.8855278305
  - # 5
    frequency:    1.4745118936
  - # 6
    frequency:    3.2988555877
  - # 7
    frequency:    3.4803693273
  - # 8
    frequency:    4.5752335379
  - # 9
    frequency:    4.6241352722
  - # 10
    frequency:    4.9248024773
  - # 11
    frequency:    5.2752446296
  - # 12
    frequency:    5.7251259773
  - # 13
    frequency:    7.2583454658
  - # 14
    frequency:    8.5376489616
  - # 15
    frequency:    9.0908627435
  - # 16
    frequency:   10.4429389652
  - # 17
    frequency:   15.9829332491
  - # 18
    frequency:   17.7965162380
  - # 19
    frequency:   17.8517956171
  - # 20
    frequency:   38.5475078228
  - # 21
    frequency:   68.4689082257

- q-position: [    0.0808081,    0.0000000,    0.0000000 ]
  distance:    0.0253504
  band:
  - # 1
    frequency:    0.3238408689
  - # 2
    frequency:    0.5875556856
  - # 3
    frequency:    0.8506470072
  - # 4
    frequency:    0.9300899960
  - # 5
    frequency:    1.5668729034
  - # 6
    frequency:    3.2998605106
  - # 7
    frequency:    3.5030316284
  - # 8
    frequency:    4.5759207431
  - # 9
    frequency:    4.6223299871
  - # 10
    frequency:    4.9396684745
  - # 11
    frequency:    5.2773869007
  - # 12
    frequency:    5.7696792005
  - # 13
    frequency:    7.2496185770
  - # 14
    frequency:    8.5138932528
  - # 15
    frequency:    9.0851971450
  - # 16
    frequency:   10.6026720968
  - # 17
    frequency:   15.9443490788
  - # 18
    frequency:   17.7970761101
  - # 19
    frequency:   17.8592025784
  - # 20
    frequency:   38.5467544847
  - # 21
    frequency:   68.4393093228

- q-position: [    0.0858586,    0.0000000,    0.0000000 ]
  distance:    0.0269348
  band:
  - # 1
    frequency:    0.3613082422
  - # 2
    frequency:    0.5883399492
  - # 3
    frequency:    0.8738103070
  - # 4
    frequency:    0.9763970254
  - # 5
    frequency:    1.6590951411
  - # 6
    frequency:    3.3009621085
  - # 7
    frequency:    3.5265001233
  - # 8
    frequency:    4.5766688292
  - # 9
    frequency:    4.6200594038
  - # 10
    frequency:    4.9549494729
  - # 11
    frequency:    5.2796920291
  - # 12
    frequency:    5.8131724752
  - # 13
    frequency:    7.2404641366
  - # 14
    frequency:    8.4892536911
  - # 15
    frequency:    9.0793030255
  - # 16
    frequency:   10.7685442282
  - # 17
    frequency:   15.9037138264
  - # 18
    frequency:   17.7976714715
  - # 19
    frequency:   17.8669215260
  - # 20
    frequency:   38.5459605302
  - # 21
    frequency:   68.4081586122

- q-position: [    0.0909091,    0.0000000,    0.0000000 ]
  distance:    0.0285192
  band:
  - # 1
    frequency:    0.4001241575
  - # 2
    frequency:    0.5875584859
  - # 3
    frequency:    0.8975514980
  - # 4
    frequency:    1.0237578681
  - # 5
    frequency:    1.7510332312
  - # 6
    frequency:    3.3021657650
  - # 7
    frequency:    3.5507042777
  - # 8
    frequency:    4.5774812658
  - # 9
    frequency:    4.6174261621
  - # 10
    frequency:    4.9706331718
  - # 11
    frequency:    5.2821624626
  - # 12
    frequency:    5.8553953310
  - # 13
    frequency:    7.2309045041
  - # 14
    frequency:    8.4637243369
  - # 15
    frequency:    9.0732041436
  - # 16
    frequency:   10.9397957405
  - # 17
    frequency:   15.8610997530
  - # 18
    frequency:   17.7983021629
  - # 19
    frequency:   17.8749324166
  - # 20
    frequency:   38.5451273852
  - # 21
    frequency:   68.3755192494

- q-position: [    0.0959596,    0.0000000,    0.0000000 ]
  distance:    0.0301036
  band:
  - # 1
    frequency:    0.4401602031
  - # 2
    frequency:    0.5856785686
  - # 3
    frequency:    0.9219026105
  - # 4
    frequency:    1.0717163527
  - # 5
    frequency:    1.8425679046
  - # 6
    frequency:    3.3034770765
  - # 7
    frequency:    3.5755780239
  - # 8
    frequency:    4.5783617925
  - # 9
    frequency:    4.6145225633
  - # 10
    frequency:    4.9867132409
  - # 11
    frequency:    5.2848002469
  - # 12
    frequency:    5.8962112948
  - # 13
    frequency:    7.2209631573
  - # 14
    frequency:    8.4373073920
  - # 15
    frequency:    9.0669250844
  - # 16
    frequency:   11.1156428047
  - # 17
    frequency:   15.8165822983
  - # 18
    frequency:   17.7989680037
  - # 19
    frequency:   17.8832159152
  - # 20
    frequency:   38.5442565420
  - # 21
    frequency:   68.3414570609

- q-position: [    0.1010101,    0.0000000,    0.0000000 ]
  distance:    0.0316879
  band:
  - # 1
    frequency:    0.4812843904
  - # 2
    frequency:    0.5830202980
  - # 3
    frequency:    0.9468867618
  - # 4
    frequency:    1.1199671821
  - # 5
    frequency:    1.9335949288
  - # 6
    frequency:    3.3049018545
  - # 7
    frequency:    3.6010599167
  - # 8
    frequency:    4.5793144097
  - # 9
    frequency:    4.6114322981
  - # 10
    frequency:    5.0031861867
  - # 11
    frequency:    5.2876069699
  - # 12
    frequency:    5.9355460386
  - # 13
    frequency:    7.2106647584
  - # 14
    frequency:    8.4100123866
  - # 15
    frequency:    9.0604911438
  - # 16
    frequency:   11.2952904020
  - # 17
    frequency:   15.7702404337
  - # 18
    frequency:   17.7996687905
  - # 19
    frequency:   17.8917533976
  - # 20
    frequency:   38.5433495562
  - # 21
    frequency:   68.3060403544

- q-position: [    0.1060606,    0.0000000,    0.0000000 ]
  distance:    0.0332723
  band:
  - # 1
    frequency:    0.5233602396
  - # 2
    frequency:    0.5798115880
  - # 3
    frequency:    0.9725255869
  - # 4
    frequency:    1.1683009107
  - # 5
    frequency:    2.0240184432
  - # 6
    frequency:    3.3064461325
  - # 7
    frequency:    3.6270931910
  - # 8
    frequency:    4.5803433639
  - # 9
    frequency:    4.6082322312
  - # 10
    frequency:    5.0200491785
  - # 11
    frequency:    5.2905837119
  - # 12
    frequency:    5.9733753480
  - # 13
    frequency:    7.2000352246
  - # 14
    frequency:    8.3818554319
  - # 15
    frequency:    9.0539282051
  - # 16
    frequency:   11.4779435487
  - # 17
    frequency:   15.7221571813
  - # 18
    frequency:   17.8004042951
  - # 19
    frequency:   17.9005269282
  - # 20
    frequency:   38.5424080435
  - # 21
    frequency:   68.2693397223

- q-position: [    0.1111111,    0.0000000,    0.0000000 ]
  distance:    0.0348567
  band:
  - # 1
    frequency:    0.5662456097
  - # 2
    frequency:    0.5762222775
  - # 3
    frequency:    0.9988443650
  - # 4
    frequency:    1.2165697784
  - # 5
    frequency:    2.1137467739
  - # 6
    frequency:    3.3081161760
  - # 7
    frequency:    3.6536257241
  - # 8
    frequency:    4.5814531273
  - # 9
    frequency:    4.6049940647
  - # 10
    frequency:    5.0372986297
  - # 11
    frequency:    5.2937310041
  - # 12
    frequency:    6.0097137854
  - # 13
    frequency:    7.1891018054
  - # 14
    frequency:    8.3528585642
  - # 15
    frequency:    9.0472626087
  - # 16
    frequency:   11.6628164070
  - # 17
    frequency:   15.6724203520
  - # 18
    frequency:   17.8011742631
  - # 19
    frequency:   17.9095192178
  - # 20
    frequency:   38.5414336771
  - # 21
    frequency:   68.2314278380

- q-position: [    0.1161616,    0.0000000,    0.0000000 ]
  distance:    0.0364411
  band:
  - # 1
    frequency:    0.5723850979
  - # 2
    frequency:    0.6097912994
  - # 3
    frequency:    1.0258758587
  - # 4
    frequency:    1.2646666602
  - # 5
    frequency:    2.2026897018
  - # 6
    frequency:    3.3099184971
  - # 7
    frequency:    3.6806099015
  - # 8
    frequency:    4.5826483721
  - # 9
    frequency:    4.6017858249
  - # 10
    frequency:    5.0549293392
  - # 11
    frequency:    5.2970487949
  - # 12
    frequency:    6.0446045444
  - # 13
    frequency:    7.1778931688
  - # 14
    frequency:    8.3230491847
  - # 15
    frequency:    9.0405210159
  - # 16
    frequency:   11.8491391427
  - # 17
    frequency:   15.6211235891
  - # 18
    frequency:   17.8019784118
  - # 19
    frequency:   17.9187135677
  - # 20
    frequency:   38.5404281839
  - # 21
    frequency:   68.1923792480

- q-position: [    0.1212121,    0.0000000,    0.0000000 ]
  distance:    0.0380255
  band:
  - # 1
    frequency:    0.5684086730
  - # 2
    frequency:    0.6538394875
  - # 3
    frequency:    1.0536633833
  - # 4
    frequency:    1.3125119504
  - # 5
    frequency:    2.2907566161
  - # 6
    frequency:    3.3118598718
  - # 7
    frequency:    3.7080023861
  - # 8
    frequency:    4.5839339379
  - # 9
    frequency:    4.5986731782
  - # 10
    frequency:    5.0729340360
  - # 11
    frequency:    5.3005364242
  - # 12
    frequency:    6.0781107070
  - # 13
    frequency:    7.1664395022
  - # 14
    frequency:    8.2924595943
  - # 15
    frequency:    9.0337302683
  - # 16
    frequency:   12.0361624996
  - # 17
    frequency:   15.5683678423
  - # 18
    frequency:   17.8028164289
  - # 19
    frequency:   17.9280937999
  - # 20
    frequency:   38.5393933417
  - # 21
    frequency:   68.1522701579

- q-position: [    0.1262626,    0.0000000,    0.0000000 ]
  distance:    0.0396099
  band:
  - # 1
    frequency:    0.5643856874
  - # 2
    frequency:    0.6982221560
  - # 3
    frequency:    1.0822633070
  - # 4
    frequency:    1.3600452329
  - # 5
    frequency:    2.3778552278
  - # 6
    frequency:    3.3139473596
  - # 7
    frequency:    3.7357637865
  - # 8
    frequency:    4.5853147948
  - # 9
    frequency:    4.5957206069
  - # 10
    frequency:    5.0913032014
  - # 11
    frequency:    5.3041926077
  - # 12
    frequency:    6.1103079212
  - # 13
    frequency:    7.1547726324
  - # 14
    frequency:    8.2611266181
  - # 15
    frequency:    9.0269172416
  - # 16
    frequency:   12.2231600807
  - # 17
    frequency:   15.5142634762
  - # 18
    frequency:   17.8036879704
  - # 19
    frequency:   17.9376441805
  - # 20
    frequency:   38.5383309753
  - # 21
    frequency:   68.1111782147

- q-position: [    0.1313131,    0.0000000,    0.0000000 ]
  distance:    0.0411943
  band:
  - # 1
    frequency:    0.5603980853
  - # 2
    frequency:    0.7427597484
  - # 3
    frequency:    1.1117469382
  - # 4
    frequency:    1.4072198714
  - # 5
    frequency:    2.4638906552
  - # 6
    frequency:    3.3161883245
  - # 7
    frequency:    3.7638582152
  - # 8
    frequency:    4.5867960003
  - # 9
    frequency:    4.5929924879
  - # 10
    frequency:    5.1100250818
  - # 11
    frequency:    5.3080154298
  - # 12
    frequency:    6.1412783942
  - # 13
    frequency:    7.1429261732
  - # 14
    frequency:    8.2290913108
  - # 15
    frequency:    9.0201086976
  - # 16
    frequency:   12.4094282557
  - # 17
    frequency:   15.4589333307
  - # 18
    frequency:   17.8045926592
  - # 19
    frequency:   17.9473493347
  - # 20
    frequency:   38.5372429536
  - # 21
    frequency:   68.0691822859

- q-position: [    0.1363636,    0.0000000,    0.0000000 ]
  distance:    0.0427787
  band:
  - # 1
    frequency:    0.5565203949
  - # 2
    frequency:    0.7872604756
  - # 3
    frequency:    1.1422015156
  - # 4
    frequency:    1.4539994140
  - # 5
    frequency:    2.5487647688
  - # 6
    frequency:    3.3185904562
  - # 7
    frequency:    3.7922527252
  - # 8
    frequency:    4.5883826514
  - # 9
    frequency:    4.5905541194
  - # 10
    frequency:    5.1290858296
  - # 11
    frequency:    5.3120023447
  - # 12
    frequency:    6.1711060323
  - # 13
    frequency:    7.1309357100
  - # 14
    frequency:    8.1963987394
  - # 15
    frequency:    9.0133311331
  - # 16
    frequency:   12.5942834258
  - # 17
    frequency:   15.4025172528
  - # 18
    frequency:   17.8055300835
  - # 19
    frequency:   17.9571941576
  - # 20
    frequency:   38.5361311856
  - # 21
    frequency:   68.0263622348

- q-position: [    0.1414141,    0.0000000,    0.0000000 ]
  distance:    0.0443631
  band:
  - # 1
    frequency:    0.5528218406
  - # 2
    frequency:    0.8315208775
  - # 3
    frequency:    1.1737297813
  - # 4
    frequency:    1.5003551465
  - # 5
    frequency:    2.6323757356
  - # 6
    frequency:    3.3211617892
  - # 7
    frequency:    3.8209166046
  - # 8
    frequency:    4.5884727377
  - # 9
    frequency:    4.5900798327
  - # 10
    frequency:    5.1484697252
  - # 11
    frequency:    5.3161501870
  - # 12
    frequency:    6.1998725299
  - # 13
    frequency:    7.1188390303
  - # 14
    frequency:    8.1630978365
  - # 15
    frequency:    9.0066106292
  - # 16
    frequency:   12.7770560247
  - # 17
    frequency:   15.3451789623
  - # 18
    frequency:   17.8064997952
  - # 19
    frequency:   17.9671637199
  - # 20
    frequency:   38.5349976172
  - # 21
    frequency:   67.9827986949

- q-position: [    0.1464646,    0.0000000,    0.0000000 ]
  distance:    0.0459475
  band:
  - # 1
    frequency:    0.5493676436
  - # 2
    frequency:    0.8753284156
  - # 3
    frequency:    1.2064474147
  - # 4
    frequency:    1.5462643872
  - # 5
    frequency:    2.7146177325
  - # 6
    frequency:    3.3239107196
  - # 7
    frequency:    3.8498205011
  - # 8
    frequency:    4.5868185631
  - # 9
    frequency:    4.5918925609
  - # 10
    frequency:    5.1681594517
  - # 11
    frequency:    5.3204551898
  - # 12
    frequency:    6.2276542077
  - # 13
    frequency:    7.1066764157
  - # 14
    frequency:    8.1292413234
  - # 15
    frequency:    8.9999727010
  - # 16
    frequency:   12.9570799867
  - # 17
    frequency:   15.2871167366
  - # 18
    frequency:   17.8075013084
  - # 19
    frequency:   17.9772431712
  - # 20
    frequency:   38.5338442267
  - # 21
    frequency:   67.9385728423

- q-position: [    0.1515152,    0.0000000,    0.0000000 ]
  distance:    0.0475319
  band:
  - # 1
    frequency:    0.5462197616
  - # 2
    frequency:    0.9184669092
  - # 3
    frequency:    1.2404775533
  - # 4
    frequency:    1.5917092703
  - # 5
    frequency:    2.7953808254
  - # 6
    frequency:    3.3268460161
  - # 7
    frequency:    3.8789353448
  - # 8
    frequency:    4.5856659107
  - # 9
    frequency:    4.5938257266
  - # 10
    frequency:    5.1881363987
  - # 11
    frequency:    5.3249130104
  - # 12
    frequency:    6.2545194107
  - # 13
    frequency:    7.0944910081
  - # 14
    frequency:    8.0948857004
  - # 15
    frequency:    8.9934421499
  - # 16
    frequency:   13.1336752352
  - # 17
    frequency:   15.2285805453
  - # 18
    frequency:   17.8085340979
  - # 19
    frequency:   17.9874176384
  - # 20
    frequency:   38.5326730215
  - # 21
    frequency:   67.8937661677
