nqpoint: 300    
npath: 3      
segment_nqpoint:
- 100
- 100
- 100
labels:
- [ 'G', 'M' ]
- [ 'M', 'K' ]
- [ 'K', 'G' ]
reciprocal_lattice:
- [   0.29174671,   0.16844004,   0.00000000 ] # a*
- [   0.00000000,   0.33688009,   0.00000000 ] # b*
- [   0.00000000,   0.00000000,   0.03676747 ] # c*
natom: 8      
lattice:
- [     3.427630723522328,     0.000000000000000,     0.000000000000000 ] # a
- [    -1.713815361761164,     2.968415281331999,     0.000000000000000 ] # b
- [     0.000000000000000,     0.000000000000000,    27.197956888454407 ] # c
points:
- symbol: C # 1
  coordinates: [  0.000000000000000,  0.000000000000000,  0.527416663229718 ]
  mass: 12.010700
- symbol: C # 2
  coordinates: [  0.333332985432215,  0.666666983183674,  0.625018546448500 ]
  mass: 12.010700
- symbol: C # 3
  coordinates: [  0.666666984744047,  0.333332985985144,  0.388098896428773 ]
  mass: 12.010700
- symbol: N # 4
  coordinates: [  0.333332985432215,  0.666666983183674,  0.669092791164011 ]
  mass: 14.006700
- symbol: N # 5
  coordinates: [  0.666666984744047,  0.333332985985144,  0.433968150088887 ]
  mass: 14.006700
- symbol: S # 6
  coordinates: [  0.666666984744047,  0.333332985985144,  0.330907208835989 ]
  mass: 32.065000
- symbol: Sc # 7
  coordinates: [  0.333332985432215,  0.666666983183674,  0.481400986204622 ]
  mass: 44.955912
- symbol: Sc # 8
  coordinates: [  0.666666984744047,  0.333332985985144,  0.572735003095033 ]
  mass: 44.955912

phonon:
- q-position: [    0.0000000,    0.0000000,    0.0000000 ]
  distance:    0.0000000
  band:
  - # 1
    frequency:   -2.7709174420
  - # 2
    frequency:   -2.7709174420
  - # 3
    frequency:   -0.4673315229
  - # 4
    frequency:   -0.4673315228
  - # 5
    frequency:   -0.0000046493
  - # 6
    frequency:    0.0000023220
  - # 7
    frequency:    0.0000039959
  - # 8
    frequency:    4.6811628793
  - # 9
    frequency:    4.6811628793
  - # 10
    frequency:    5.1867550169
  - # 11
    frequency:    5.7937730985
  - # 12
    frequency:    5.7937730985
  - # 13
    frequency:    7.6032387485
  - # 14
    frequency:    7.6032387485
  - # 15
    frequency:    8.2224948396
  - # 16
    frequency:   10.8779746170
  - # 17
    frequency:   10.8779746170
  - # 18
    frequency:   11.2845680517
  - # 19
    frequency:   14.5054763785
  - # 20
    frequency:   14.5054763785
  - # 21
    frequency:   18.2090970529
  - # 22
    frequency:   27.3541578027
  - # 23
    frequency:   59.5981757995
  - # 24
    frequency:   62.7838065236

- q-position: [    0.0050505,    0.0000000,    0.0000000 ]
  distance:    0.0017014
  band:
  - # 1
    frequency:   -2.7707379744
  - # 2
    frequency:   -2.7703520363
  - # 3
    frequency:   -0.4643731837
  - # 4
    frequency:   -0.4578344550
  - # 5
    frequency:   -0.0179945173
  - # 6
    frequency:    0.0793244625
  - # 7
    frequency:    0.1225981444
  - # 8
    frequency:    4.6814742976
  - # 9
    frequency:    4.6821015115
  - # 10
    frequency:    5.1865479745
  - # 11
    frequency:    5.7941657844
  - # 12
    frequency:    5.7991453818
  - # 13
    frequency:    7.6033046191
  - # 14
    frequency:    7.6044202823
  - # 15
    frequency:    8.2224204225
  - # 16
    frequency:   10.8785054851
  - # 17
    frequency:   10.8833191115
  - # 18
    frequency:   11.2846927968
  - # 19
    frequency:   14.5055665920
  - # 20
    frequency:   14.5058376497
  - # 21
    frequency:   18.2075209128
  - # 22
    frequency:   27.3540671396
  - # 23
    frequency:   59.5965594376
  - # 24
    frequency:   62.7837124580

- q-position: [    0.0101010,    0.0000000,    0.0000000 ]
  distance:    0.0034028
  band:
  - # 1
    frequency:   -2.7702012288
  - # 2
    frequency:   -2.7686679320
  - # 3
    frequency:   -0.4556078477
  - # 4
    frequency:   -0.4287679515
  - # 5
    frequency:   -0.0264804020
  - # 6
    frequency:    0.1592637934
  - # 7
    frequency:    0.2452387394
  - # 8
    frequency:    4.6824075414
  - # 9
    frequency:    4.6848994330
  - # 10
    frequency:    5.1859424478
  - # 11
    frequency:    5.7953401039
  - # 12
    frequency:    5.8150780190
  - # 13
    frequency:    7.6035015352
  - # 14
    frequency:    7.6079638649
  - # 15
    frequency:    8.2221997966
  - # 16
    frequency:   10.8800943863
  - # 17
    frequency:   10.8991397713
  - # 18
    frequency:   11.2852957645
  - # 19
    frequency:   14.5058371038
  - # 20
    frequency:   14.5069208953
  - # 21
    frequency:   18.2027963381
  - # 22
    frequency:   27.3537952664
  - # 23
    frequency:   59.5917147713
  - # 24
    frequency:   62.7834305463

- q-position: [    0.0151515,    0.0000000,    0.0000000 ]
  distance:    0.0051042
  band:
  - # 1
    frequency:   -2.7693121314
  - # 2
    frequency:   -2.7659006472
  - # 3
    frequency:   -0.4412838804
  - # 4
    frequency:   -0.3774829634
  - # 5
    frequency:   -0.0328894908
  - # 6
    frequency:    0.2402368234
  - # 7
    frequency:    0.3698210929
  - # 8
    frequency:    4.6839595833
  - # 9
    frequency:    4.6895045044
  - # 10
    frequency:    5.1849816926
  - # 11
    frequency:    5.7972849001
  - # 12
    frequency:    5.8410316716
  - # 13
    frequency:    7.6038274175
  - # 14
    frequency:    7.6138657205
  - # 15
    frequency:    8.2218409063
  - # 16
    frequency:   10.8827302384
  - # 17
    frequency:   10.9247006612
  - # 18
    frequency:   11.2871574627
  - # 19
    frequency:   14.5062875272
  - # 20
    frequency:   14.5087244160
  - # 21
    frequency:   18.1949348547
  - # 22
    frequency:   27.3533425310
  - # 23
    frequency:   59.5836550377
  - # 24
    frequency:   62.7829616420

- q-position: [    0.0202020,    0.0000000,    0.0000000 ]
  distance:    0.0068057
  band:
  - # 1
    frequency:   -2.7680787431
  - # 2
    frequency:   -2.7621067604
  - # 3
    frequency:   -0.4215813197
  - # 4
    frequency:   -0.2953939371
  - # 5
    frequency:   -0.0287863850
  - # 6
    frequency:    0.3223665054
  - # 7
    frequency:    0.4960694204
  - # 8
    frequency:    4.6861253942
  - # 9
    frequency:    4.6958351643
  - # 10
    frequency:    5.1837280245
  - # 11
    frequency:    5.7999817675
  - # 12
    frequency:    5.8761493402
  - # 13
    frequency:    7.6042788263
  - # 14
    frequency:    7.6221171645
  - # 15
    frequency:    8.2213572240
  - # 16
    frequency:   10.8863946608
  - # 17
    frequency:   10.9584046109
  - # 18
    frequency:   11.2919389955
  - # 19
    frequency:   14.5069172188
  - # 20
    frequency:   14.5112453969
  - # 21
    frequency:   18.1839556363
  - # 22
    frequency:   27.3527095124
  - # 23
    frequency:   59.5724022272
  - # 24
    frequency:   62.7823071624

- q-position: [    0.0252525,    0.0000000,    0.0000000 ]
  distance:    0.0085071
  band:
  - # 1
    frequency:   -2.7665120439
  - # 2
    frequency:   -2.7573603672
  - # 3
    frequency:   -0.3963624550
  - # 4
    frequency:   -0.1560915918
  - # 5
    frequency:    0.0763685060
  - # 6
    frequency:    0.4055154802
  - # 7
    frequency:    0.6234681633
  - # 8
    frequency:    4.6888979702
  - # 9
    frequency:    4.7037865985
  - # 10
    frequency:    5.1822536250
  - # 11
    frequency:    5.8034053308
  - # 12
    frequency:    5.9193121736
  - # 13
    frequency:    7.6048509985
  - # 14
    frequency:    7.6327010605
  - # 15
    frequency:    8.2207681147
  - # 16
    frequency:   10.8910621086
  - # 17
    frequency:   10.9971120366
  - # 18
    frequency:   11.3028482805
  - # 19
    frequency:   14.5077252796
  - # 20
    frequency:   14.5144799344
  - # 21
    frequency:   18.1698854515
  - # 22
    frequency:   27.3518970197
  - # 23
    frequency:   59.5579869771
  - # 24
    frequency:   62.7814690790

- q-position: [    0.0303030,    0.0000000,    0.0000000 ]
  distance:    0.0102085
  band:
  - # 1
    frequency:   -2.7646256447
  - # 2
    frequency:   -2.7517487912
  - # 3
    frequency:   -0.3649327639
  - # 4
    frequency:   -0.0756417912
  - # 5
    frequency:    0.2662751398
  - # 6
    frequency:    0.4894078351
  - # 7
    frequency:    0.7514977482
  - # 8
    frequency:    4.6922683694
  - # 9
    frequency:    4.7132365811
  - # 10
    frequency:    5.1806344404
  - # 11
    frequency:    5.8075236257
  - # 12
    frequency:    5.9692072440
  - # 13
    frequency:    7.6055379001
  - # 14
    frequency:    7.6455869841
  - # 15
    frequency:    8.2200993847
  - # 16
    frequency:   10.8967000612
  - # 17
    frequency:   11.0352953769
  - # 18
    frequency:   11.3254658909
  - # 19
    frequency:   14.5087105567
  - # 20
    frequency:   14.5184230750
  - # 21
    frequency:   18.1527585896
  - # 22
    frequency:   27.3509060897
  - # 23
    frequency:   59.5404484230
  - # 24
    frequency:   62.7804499071

- q-position: [    0.0353535,    0.0000000,    0.0000000 ]
  distance:    0.0119099
  band:
  - # 1
    frequency:   -2.7624354430
  - # 2
    frequency:   -2.7453680448
  - # 3
    frequency:   -0.3257215245
  - # 4
    frequency:   -0.0520435890
  - # 5
    frequency:    0.4076278578
  - # 6
    frequency:    0.5737479774
  - # 7
    frequency:    0.8797759375
  - # 8
    frequency:    4.6962257616
  - # 9
    frequency:    4.7240496699
  - # 10
    frequency:    5.1789484083
  - # 11
    frequency:    5.8122985696
  - # 12
    frequency:    6.0244018484
  - # 13
    frequency:    7.6063322925
  - # 14
    frequency:    7.6607252983
  - # 15
    frequency:    8.2193840540
  - # 16
    frequency:   10.9032692642
  - # 17
    frequency:   11.0656110291
  - # 18
    frequency:   11.3671499888
  - # 19
    frequency:   14.5098716455
  - # 20
    frequency:   14.5230688705
  - # 21
    frequency:   18.1326167677
  - # 22
    frequency:   27.3497379849
  - # 23
    frequency:   59.5198340100
  - # 24
    frequency:   62.7792526897

- q-position: [    0.0404040,    0.0000000,    0.0000000 ]
  distance:    0.0136113
  band:
  - # 1
    frequency:   -2.7599592358
  - # 2
    frequency:   -2.7383184772
  - # 3
    frequency:   -0.2754818027
  - # 4
    frequency:    0.0310240630
  - # 5
    frequency:    0.5252006005
  - # 6
    frequency:    0.6582864071
  - # 7
    frequency:    1.0080576925
  - # 8
    frequency:    4.7007574912
  - # 9
    frequency:    4.7360791691
  - # 10
    frequency:    5.1772772753
  - # 11
    frequency:    5.8176865139
  - # 12
    frequency:    6.0834196109
  - # 13
    frequency:    7.6072258116
  - # 14
    frequency:    7.6780404907
  - # 15
    frequency:    8.2186634130
  - # 16
    frequency:   10.9107240247
  - # 17
    frequency:   11.0829725257
  - # 18
    frequency:   11.4329384517
  - # 19
    frequency:   14.5112068919
  - # 20
    frequency:   14.5284104509
  - # 21
    frequency:   18.1095090202
  - # 22
    frequency:   27.3483941910
  - # 23
    frequency:   59.4961992637
  - # 24
    frequency:   62.7778809805

- q-position: [    0.0454545,    0.0000000,    0.0000000 ]
  distance:    0.0153127
  band:
  - # 1
    frequency:   -2.7572163087
  - # 2
    frequency:   -2.7307009342
  - # 3
    frequency:   -0.2062590094
  - # 4
    frequency:    0.0814638026
  - # 5
    frequency:    0.6317688372
  - # 6
    frequency:    0.7428363626
  - # 7
    frequency:    1.1361896394
  - # 8
    frequency:    4.7058491523
  - # 9
    frequency:    4.7491669150
  - # 10
    frequency:    5.1757105940
  - # 11
    frequency:    5.8236388607
  - # 12
    frequency:    6.1448136605
  - # 13
    frequency:    7.6082090591
  - # 14
    frequency:    7.6974242955
  - # 15
    frequency:    8.2179884458
  - # 16
    frequency:   10.9190125606
  - # 17
    frequency:   11.0877434545
  - # 18
    frequency:   11.5223319162
  - # 19
    frequency:   14.5127143959
  - # 20
    frequency:   14.5344401220
  - # 21
    frequency:   18.0834915713
  - # 22
    frequency:   27.3468764132
  - # 23
    frequency:   59.4696075236
  - # 24
    frequency:   62.7763388230

- q-position: [    0.0505051,    0.0000000,    0.0000000 ]
  distance:    0.0170141
  band:
  - # 1
    frequency:   -2.7542270169
  - # 2
    frequency:   -2.7226136135
  - # 3
    frequency:   -0.0775869494
  - # 4
    frequency:    0.1227436089
  - # 5
    frequency:    0.7320148533
  - # 6
    frequency:    0.8272654327
  - # 7
    frequency:    1.2640692228
  - # 8
    frequency:    4.7114846801
  - # 9
    frequency:    4.7631413251
  - # 10
    frequency:    5.1743507154
  - # 11
    frequency:    5.8301027331
  - # 12
    frequency:    6.2072320488
  - # 13
    frequency:    7.6092717057
  - # 14
    frequency:    7.7187292613
  - # 15
    frequency:    8.2174217284
  - # 16
    frequency:   10.9280774006
  - # 17
    frequency:   11.0831311135
  - # 18
    frequency:   11.6318791654
  - # 19
    frequency:   14.5143920139
  - # 20
    frequency:   14.5411494964
  - # 21
    frequency:   18.0546276962
  - # 22
    frequency:   27.3451865727
  - # 23
    frequency:   59.4401296390
  - # 24
    frequency:   62.7746307274

- q-position: [    0.0555556,    0.0000000,    0.0000000 ]
  distance:    0.0187156
  band:
  - # 1
    frequency:   -2.7510123750
  - # 2
    frequency:   -2.7141496680
  - # 3
    frequency:    0.1641265620
  - # 4
    frequency:    0.1835873636
  - # 5
    frequency:    0.8281499118
  - # 6
    frequency:    0.9114805419
  - # 7
    frequency:    1.3916184614
  - # 8
    frequency:    4.7176464548
  - # 9
    frequency:    4.7778142916
  - # 10
    frequency:    5.1733180494
  - # 11
    frequency:    5.8370216814
  - # 12
    frequency:    6.2694709471
  - # 13
    frequency:    7.6104026034
  - # 14
    frequency:    7.7417634784
  - # 15
    frequency:    8.2170399427
  - # 16
    frequency:   10.9378558361
  - # 17
    frequency:   11.0720189010
  - # 18
    frequency:   11.7583291291
  - # 19
    frequency:   14.5162373628
  - # 20
    frequency:   14.5485296717
  - # 21
    frequency:   18.0229875714
  - # 22
    frequency:   27.3433268026
  - # 23
    frequency:   59.4078436313
  - # 24
    frequency:   62.7727616454

- q-position: [    0.0606061,    0.0000000,    0.0000000 ]
  distance:    0.0204170
  band:
  - # 1
    frequency:   -2.7475936695
  - # 2
    frequency:   -2.7053955089
  - # 3
    frequency:    0.2071993077
  - # 4
    frequency:    0.2768404690
  - # 5
    frequency:    0.9213789283
  - # 6
    frequency:    0.9954145564
  - # 7
    frequency:    1.5187691150
  - # 8
    frequency:    4.7243154220
  - # 9
    frequency:    4.7929775554
  - # 10
    frequency:    5.1727561477
  - # 11
    frequency:    5.8443364130
  - # 12
    frequency:    6.3305122767
  - # 13
    frequency:    7.6115899071
  - # 14
    frequency:    7.7662870586
  - # 15
    frequency:    8.2169371730
  - # 16
    frequency:   10.9482804219
  - # 17
    frequency:   11.0562638136
  - # 18
    frequency:   11.8993248740
  - # 19
    frequency:   14.5182478229
  - # 20
    frequency:   14.5565714765
  - # 21
    frequency:   17.9886481212
  - # 22
    frequency:   27.3412994434
  - # 23
    frequency:   59.3728343229
  - # 24
    frequency:   62.7707369425

- q-position: [    0.0656566,    0.0000000,    0.0000000 ]
  distance:    0.0221184
  band:
  - # 1
    frequency:   -2.7439921051
  - # 2
    frequency:   -2.6964296949
  - # 3
    frequency:    0.2524471942
  - # 4
    frequency:    0.3504070520
  - # 5
    frequency:    1.0124207639
  - # 6
    frequency:    1.0790165801
  - # 7
    frequency:    1.6454547612
  - # 8
    frequency:    4.7314712262
  - # 9
    frequency:    4.8083993110
  - # 10
    frequency:    5.1728361359
  - # 11
    frequency:    5.8519855299
  - # 12
    frequency:    6.3895441324
  - # 13
    frequency:    7.6128212029
  - # 14
    frequency:    7.7920106701
  - # 15
    frequency:    8.2172291547
  - # 16
    frequency:   10.9592795222
  - # 17
    frequency:   11.0369785190
  - # 18
    frequency:   12.0531210155
  - # 19
    frequency:   14.5204205422
  - # 20
    frequency:   14.5652658199
  - # 21
    frequency:   17.9516928658
  - # 22
    frequency:   27.3391070380
  - # 23
    frequency:   59.3351929367
  - # 24
    frequency:   62.7685623686

- q-position: [    0.0707071,    0.0000000,    0.0000000 ]
  distance:    0.0238198
  band:
  - # 1
    frequency:   -2.7402284938
  - # 2
    frequency:   -2.6873222735
  - # 3
    frequency:    0.3000147582
  - # 4
    frequency:    0.4148726043
  - # 5
    frequency:    1.1017317933
  - # 6
    frequency:    1.1622455941
  - # 7
    frequency:    1.7716066385
  - # 8
    frequency:    4.7390923587
  - # 9
    frequency:    4.8238221046
  - # 10
    frequency:    5.1737596778
  - # 11
    frequency:    5.8599062625
  - # 12
    frequency:    6.4459643432
  - # 13
    frequency:    7.6140836429
  - # 14
    frequency:    7.8185960109
  - # 15
    frequency:    8.2180585857
  - # 16
    frequency:   10.9707779009
  - # 17
    frequency:   11.0148430944
  - # 18
    frequency:   12.2182793304
  - # 19
    frequency:   14.5227524398
  - # 20
    frequency:   14.5746042022
  - # 21
    frequency:   17.9122117802
  - # 22
    frequency:   27.3367523262
  - # 23
    frequency:   59.2950166669
  - # 24
    frequency:   62.7662440277

- q-position: [    0.0757576,    0.0000000,    0.0000000 ]
  distance:    0.0255212
  band:
  - # 1
    frequency:   -2.7363229927
  - # 2
    frequency:   -2.6781344404
  - # 3
    frequency:    0.3499056288
  - # 4
    frequency:    0.4739328109
  - # 5
    frequency:    1.1896148972
  - # 6
    frequency:    1.2450665207
  - # 7
    frequency:    1.8971514048
  - # 8
    frequency:    4.7471563179
  - # 9
    frequency:    4.8389636102
  - # 10
    frequency:    5.1757590521
  - # 11
    frequency:    5.8680351864
  - # 12
    frequency:    6.4993693779
  - # 13
    frequency:    7.6153640829
  - # 14
    frequency:    7.8456577797
  - # 15
    frequency:    8.2196013910
  - # 16
    frequency:   10.9826973493
  - # 17
    frequency:   10.9902961530
  - # 18
    frequency:   12.3934917032
  - # 19
    frequency:   14.5252402098
  - # 20
    frequency:   14.5845794833
  - # 21
    frequency:   17.8703011745
  - # 22
    frequency:   27.3342382398
  - # 23
    frequency:   59.2524082261
  - # 24
    frequency:   62.7637883452

- q-position: [    0.0808081,    0.0000000,    0.0000000 ]
  distance:    0.0272226
  band:
  - # 1
    frequency:   -2.7322948920
  - # 2
    frequency:   -2.6689184070
  - # 3
    frequency:    0.4020544056
  - # 4
    frequency:    0.5293606593
  - # 5
    frequency:    1.2762776258
  - # 6
    frequency:    1.3274478931
  - # 7
    frequency:    2.0220097895
  - # 8
    frequency:    4.7556397813
  - # 9
    frequency:    4.8535224780
  - # 10
    frequency:    5.1790922491
  - # 11
    frequency:    5.8763089137
  - # 12
    frequency:    6.5495321881
  - # 13
    frequency:    7.6166492236
  - # 14
    frequency:    7.8727667668
  - # 15
    frequency:    8.2220732994
  - # 16
    frequency:   10.9636398793
  - # 17
    frequency:   10.9949573486
  - # 18
    frequency:   12.5774939289
  - # 19
    frequency:   14.5278803254
  - # 20
    frequency:   14.5951870828
  - # 21
    frequency:   17.8260636138
  - # 22
    frequency:   27.3315678959
  - # 23
    frequency:   59.2074753695
  - # 24
    frequency:   62.7612020350

- q-position: [    0.0858586,    0.0000000,    0.0000000 ]
  distance:    0.0289240
  band:
  - # 1
    frequency:   -2.7281624538
  - # 2
    frequency:   -2.6597173975
  - # 3
    frequency:    0.4563579283
  - # 4
    frequency:    0.5821511368
  - # 5
    frequency:    1.3618654416
  - # 6
    frequency:    1.4093605312
  - # 7
    frequency:    2.1460955808
  - # 8
    frequency:    4.7645187858
  - # 9
    frequency:    4.8671916900
  - # 10
    frequency:    5.1840307097
  - # 11
    frequency:    5.8846647492
  - # 12
    frequency:    6.5963732428
  - # 13
    frequency:    7.6179257514
  - # 14
    frequency:    7.8994545568
  - # 15
    frequency:    8.2257349783
  - # 16
    frequency:   10.9350973610
  - # 17
    frequency:   11.0074757603
  - # 18
    frequency:   12.7690295009
  - # 19
    frequency:   14.5306690427
  - # 20
    frequency:   14.6064269300
  - # 21
    frequency:   17.7796078969
  - # 22
    frequency:   27.3287445911
  - # 23
    frequency:   59.1603304004
  - # 24
    frequency:   62.7584920655

- q-position: [    0.0909091,    0.0000000,    0.0000000 ]
  distance:    0.0306255
  band:
  - # 1
    frequency:   -2.7239427989
  - # 2
    frequency:   -2.6505657296
  - # 3
    frequency:    0.5126909394
  - # 4
    frequency:    0.6329184495
  - # 5
    frequency:    1.4464817814
  - # 6
    frequency:    1.4907768307
  - # 7
    frequency:    2.2693146399
  - # 8
    frequency:    4.7737689175
  - # 9
    frequency:    4.8796809485
  - # 10
    frequency:    5.1908382226
  - # 11
    frequency:    5.8930413064
  - # 12
    frequency:    6.6399289221
  - # 13
    frequency:    7.6191804796
  - # 14
    frequency:    7.9252222845
  - # 15
    frequency:    8.2308920698
  - # 16
    frequency:   10.9048446527
  - # 17
    frequency:   11.0201695387
  - # 18
    frequency:   12.9668381554
  - # 19
    frequency:   14.5336024049
  - # 20
    frequency:   14.6183067804
  - # 21
    frequency:   17.7310491271
  - # 22
    frequency:   27.3257717953
  - # 23
    frequency:   59.1110896595
  - # 24
    frequency:   62.7556656248

- q-position: [    0.0959596,    0.0000000,    0.0000000 ]
  distance:    0.0323269
  band:
  - # 1
    frequency:   -2.7196518380
  - # 2
    frequency:   -2.6414889597
  - # 3
    frequency:    0.5709149190
  - # 4
    frequency:    0.6820668704
  - # 5
    frequency:    1.5302007166
  - # 6
    frequency:    1.5716704152
  - # 7
    frequency:    2.3915637589
  - # 8
    frequency:    4.7833655051
  - # 9
    frequency:    4.8907467987
  - # 10
    frequency:    5.1997423114
  - # 11
    frequency:    5.9013790774
  - # 12
    frequency:    6.6803207371
  - # 13
    frequency:    7.6204004855
  - # 14
    frequency:    7.9495586399
  - # 15
    frequency:    8.2378840153
  - # 16
    frequency:   10.8730293188
  - # 17
    frequency:   11.0329554574
  - # 18
    frequency:   13.1696542675
  - # 19
    frequency:   14.5366762464
  - # 20
    frequency:   14.6308481694
  - # 21
    frequency:   17.6805089181
  - # 22
    frequency:   27.3226531444
  - # 23
    frequency:   59.0598730029
  - # 24
    frequency:   62.7527300855

- q-position: [    0.1010101,    0.0000000,    0.0000000 ]
  distance:    0.0340283
  band:
  - # 1
    frequency:   -2.7153042404
  - # 2
    frequency:   -2.6325040959
  - # 3
    frequency:    0.6308836325
  - # 4
    frequency:    0.7298749992
  - # 5
    frequency:    1.6130752475
  - # 6
    frequency:    1.6520159954
  - # 7
    frequency:    2.5127292462
  - # 8
    frequency:    4.7932838179
  - # 9
    frequency:    4.9002248137
  - # 10
    frequency:    5.2109038325
  - # 11
    frequency:    5.9096209547
  - # 12
    frequency:    6.7177278103
  - # 13
    frequency:    7.6215732442
  - # 14
    frequency:    7.9719740593
  - # 15
    frequency:    8.2470542493
  - # 16
    frequency:   10.8397815351
  - # 17
    frequency:   11.0457508446
  - # 18
    frequency:   13.3762047805
  - # 19
    frequency:   14.5398861972
  - # 20
    frequency:   14.6440978151
  - # 21
    frequency:   17.6281157997
  - # 22
    frequency:   27.3193924341
  - # 23
    frequency:   59.0068032685
  - # 24
    frequency:   62.7496929702

- q-position: [    0.1060606,    0.0000000,    0.0000000 ]
  distance:    0.0357297
  band:
  - # 1
    frequency:   -2.7109134367
  - # 2
    frequency:   -2.6236198924
  - # 3
    frequency:    0.6924469626
  - # 4
    frequency:    0.7765415050
  - # 5
    frequency:    1.6951429140
  - # 6
    frequency:    1.7317893393
  - # 7
    frequency:    2.6326851396
  - # 8
    frequency:    4.8034992633
  - # 9
    frequency:    4.9080546460
  - # 10
    frequency:    5.2243940353
  - # 11
    frequency:    5.9177127032
  - # 12
    frequency:    6.7523639592
  - # 13
    frequency:    7.6226867568
  - # 14
    frequency:    7.9920547021
  - # 15
    frequency:    8.2586981206
  - # 16
    frequency:   10.8052209642
  - # 17
    frequency:   11.0584743166
  - # 18
    frequency:   13.5851957128
  - # 19
    frequency:   14.5432276877
  - # 20
    frequency:   14.6581512854
  - # 21
    frequency:   17.5740059189
  - # 22
    frequency:   27.3159936127
  - # 23
    frequency:   58.9520057392
  - # 24
    frequency:   62.7465619159

- q-position: [    0.1111111,    0.0000000,    0.0000000 ]
  distance:    0.0374311
  band:
  - # 1
    frequency:   -2.7064916461
  - # 2
    frequency:   -2.6148372446
  - # 3
    frequency:    0.7554537706
  - # 4
    frequency:    0.8222117993
  - # 5
    frequency:    1.7764296983
  - # 6
    frequency:    1.8109672969
  - # 7
    frequency:    2.7512909570
  - # 8
    frequency:    4.8139875840
  - # 9
    frequency:    4.9142895310
  - # 10
    frequency:    5.2401875835
  - # 11
    frequency:    5.9256033824
  - # 12
    frequency:    6.7844597961
  - # 13
    frequency:    7.6237296704
  - # 14
    frequency:    8.0095276232
  - # 15
    frequency:    8.2729974262
  - # 16
    frequency:   10.7694611547
  - # 17
    frequency:   11.0710465036
  - # 18
    frequency:   13.7952664907
  - # 19
    frequency:   14.5466959536
  - # 20
    frequency:   14.6732074403
  - # 21
    frequency:   17.5183241803
  - # 22
    frequency:   27.3124607738
  - # 23
    frequency:   58.8956076010
  - # 24
    frequency:   62.7433446392

- q-position: [    0.1161616,    0.0000000,    0.0000000 ]
  distance:    0.0391325
  band:
  - # 1
    frequency:   -2.7020499248
  - # 2
    frequency:   -2.6061496999
  - # 3
    frequency:    0.8197541506
  - # 4
    frequency:    0.8669944751
  - # 5
    frequency:    1.8569528066
  - # 6
    frequency:    1.8895278428
  - # 7
    frequency:    2.8683888809
  - # 8
    frequency:    4.8247250508
  - # 9
    frequency:    4.9190878137
  - # 10
    frequency:    5.2581740671
  - # 11
    frequency:    5.9332457203
  - # 12
    frequency:    6.8142495895
  - # 13
    frequency:    7.6246913915
  - # 14
    frequency:    8.0243120862
  - # 15
    frequency:    8.2899671025
  - # 16
    frequency:   10.7326124498
  - # 17
    frequency:   11.0833907582
  - # 18
    frequency:   14.0048525835
  - # 19
    frequency:   14.5502860417
  - # 20
    frequency:   14.6897119941
  - # 21
    frequency:   17.4612260538
  - # 22
    frequency:   27.3087981493
  - # 23
    frequency:   58.8377374041
  - # 24
    frequency:   62.7400489023

- q-position: [    0.1212121,    0.0000000,    0.0000000 ]
  distance:    0.0408340
  band:
  - # 1
    frequency:   -2.6975982284
  - # 2
    frequency:   -2.5975440930
  - # 3
    frequency:    0.8852012559
  - # 4
    frequency:    0.9109718987
  - # 5
    frequency:    1.9367226930
  - # 6
    frequency:    1.9674501188
  - # 7
    frequency:    2.9838002546
  - # 8
    frequency:    4.8356886499
  - # 9
    frequency:    4.9226916386
  - # 10
    frequency:    5.2781829945
  - # 11
    frequency:    5.9405964401
  - # 12
    frequency:    6.8419622446
  - # 13
    frequency:    7.6255621883
  - # 14
    frequency:    8.0365281809
  - # 15
    frequency:    8.3094434548
  - # 16
    frequency:   10.6947839817
  - # 17
    frequency:   11.0954338388
  - # 18
    frequency:   14.2117311914
  - # 19
    frequency:   14.5539928159
  - # 20
    frequency:   14.7088148000
  - # 21
    frequency:   17.4028804084
  - # 22
    frequency:   27.3050101017
  - # 23
    frequency:   58.7785245263
  - # 24
    frequency:   62.7366824788

- q-position: [    0.1262626,    0.0000000,    0.0000000 ]
  distance:    0.0425354
  band:
  - # 1
    frequency:   -2.6931454830
  - # 2
    frequency:   -2.5890013018
  - # 3
    frequency:    0.9516527852
  - # 4
    frequency:    0.9542072886
  - # 5
    frequency:    2.0157445620
  - # 6
    frequency:    2.0447144640
  - # 7
    frequency:    3.0973212540
  - # 8
    frequency:    4.8468562622
  - # 9
    frequency:    4.9254019643
  - # 10
    frequency:    5.3000132506
  - # 11
    frequency:    5.9476165429
  - # 12
    frequency:    6.8678156000
  - # 13
    frequency:    7.6263332837
  - # 14
    frequency:    8.0464547155
  - # 15
    frequency:    8.3311224530
  - # 16
    frequency:   10.6560850990
  - # 17
    frequency:   11.1071065609
  - # 18
    frequency:   14.4111186045
  - # 19
    frequency:   14.5578109642
  - # 20
    frequency:   14.7342717303
  - # 21
    frequency:   17.3434739726
  - # 22
    frequency:   27.3011011173
  - # 23
    frequency:   58.7180986451
  - # 24
    frequency:   62.7332531214

- q-position: [    0.1313131,    0.0000000,    0.0000000 ]
  distance:    0.0442368
  band:
  - # 1
    frequency:   -2.6886996621
  - # 2
    frequency:   -2.5804971121
  - # 3
    frequency:    0.9967495912
  - # 4
    frequency:    1.0189721670
  - # 5
    frequency:    2.0940195011
  - # 6
    frequency:    2.1213024284
  - # 7
    frequency:    3.2087175883
  - # 8
    frequency:    4.8582068337
  - # 9
    frequency:    4.9275578948
  - # 10
    frequency:    5.3234591892
  - # 11
    frequency:    5.9542715484
  - # 12
    frequency:    6.8920132356
  - # 13
    frequency:    7.6269969374
  - # 14
    frequency:    8.0544578991
  - # 15
    frequency:    8.3546269833
  - # 16
    frequency:   10.6166264459
  - # 17
    frequency:   11.1183444074
  - # 18
    frequency:   14.5617350067
  - # 19
    frequency:   14.5853171489
  - # 20
    frequency:   14.7827924874
  - # 21
    frequency:   17.2832184392
  - # 22
    frequency:   27.2970757982
  - # 23
    frequency:   58.6565892199
  - # 24
    frequency:   62.7297685295

- q-position: [    0.1363636,    0.0000000,    0.0000000 ]
  distance:    0.0459382
  band:
  - # 1
    frequency:   -2.6842678638
  - # 2
    frequency:   -2.5720031662
  - # 3
    frequency:    1.0386369286
  - # 4
    frequency:    1.0870294614
  - # 5
    frequency:    2.1715453480
  - # 6
    frequency:    2.1971967684
  - # 7