nqpoint: 300    
npath: 3      
segment_nqpoint:
- 100
- 100
- 100
labels:
- [ 'G', 'M' ]
- [ 'M', 'K' ]
- [ 'K', 'G' ]
reciprocal_lattice:
- [   0.31502824,   0.18188164,   0.00000000 ] # a*
- [   0.00000000,   0.36376328,   0.00000000 ] # b*
- [   0.00000000,   0.00000000,   0.03595448 ] # c*
natom: 9      
lattice:
- [     3.174318607146919,     0.000000000000000,     0.000000000000000 ] # a
- [    -1.587159303573460,     2.749040553505593,     0.000000000000000 ] # b
- [     0.000000000000000,     0.000000000000000,    27.812945181263348 ] # c
points:
- symbol: C # 1
  coordinates: [  0.000000000000000,  0.000000000000000,  0.500000033333080 ]
  mass: 12.010700
- symbol: C # 2
  coordinates: [  0.333332985432215,  0.666666983183674,  0.633119223537830 ]
  mass: 12.010700
- symbol: C # 3
  coordinates: [  0.666666984744047,  0.333332985985145,  0.366880775964670 ]
  mass: 12.010700
- symbol: N # 4
  coordinates: [  0.333332985432215,  0.666666983183674,  0.588293895499738 ]
  mass: 14.006700
- symbol: N # 5
  coordinates: [  0.666666984744047,  0.333332985985145,  0.411706104500271 ]
  mass: 14.006700
- symbol: O # 6
  coordinates: [  0.333332985432215,  0.666666983183674,  0.676409673936186 ]
  mass: 15.999400
- symbol: O # 7
  coordinates: [  0.666666984744047,  0.333332985985145,  0.323590326063814 ]
  mass: 15.999400
- symbol: Ti # 8
  coordinates: [  0.333332985432215,  0.666666983183674,  0.459828993484522 ]
  mass: 47.867000
- symbol: Ti # 9
  coordinates: [  0.666666984744047,  0.333332985985145,  0.540171006017969 ]
  mass: 47.867000

phonon:
- q-position: [    0.0000000,    0.0000000,    0.0000000 ]
  distance:    0.0000000
  band:
  - # 1
    frequency:   -0.4701910668
  - # 2
    frequency:   -0.4701910666
  - # 3
    frequency:   -0.4504473103
  - # 4
    frequency:   -0.4504473099
  - # 5
    frequency:   -0.0000145743
  - # 6
    frequency:   -0.0000002366
  - # 7
    frequency:    0.0000278164
  - # 8
    frequency:    5.3993994901
  - # 9
    frequency:    5.3993994902
  - # 10
    frequency:    6.2975718492
  - # 11
    frequency:    7.3049865321
  - # 12
    frequency:    7.3049865321
  - # 13
    frequency:    7.4216750042
  - # 14
    frequency:    7.4216750042
  - # 15
    frequency:    9.8580895242
  - # 16
    frequency:   12.8015251190
  - # 17
    frequency:   17.3468460859
  - # 18
    frequency:   17.3468460860
  - # 19
    frequency:   17.3549200272
  - # 20
    frequency:   17.3549200273
  - # 21
    frequency:   17.9180062366
  - # 22
    frequency:   18.5862074484
  - # 23
    frequency:   18.5862074485
  - # 24
    frequency:   38.4566341600
  - # 25
    frequency:   38.5138265394
  - # 26
    frequency:   69.1113204681
  - # 27
    frequency:   69.1277445827

- q-position: [    0.0050505,    0.0000000,    0.0000000 ]
  distance:    0.0018372
  band:
  - # 1
    frequency:   -0.4736664814
  - # 2
    frequency:   -0.4683730276
  - # 3
    frequency:   -0.4456007954
  - # 4
    frequency:   -0.4378945098
  - # 5
    frequency:    0.0027866670
  - # 6
    frequency:    0.0825731770
  - # 7
    frequency:    0.1399921088
  - # 8
    frequency:    5.3996715424
  - # 9
    frequency:    5.4009441823
  - # 10
    frequency:    6.2963293362
  - # 11
    frequency:    7.3044185301
  - # 12
    frequency:    7.3061699505
  - # 13
    frequency:    7.4224270127
  - # 14
    frequency:    7.4227911188
  - # 15
    frequency:    9.8577254728
  - # 16
    frequency:   12.8003020918
  - # 17
    frequency:   17.3468958715
  - # 18
    frequency:   17.3471799968
  - # 19
    frequency:   17.3549671678
  - # 20
    frequency:   17.3551195248
  - # 21
    frequency:   17.9177095156
  - # 22
    frequency:   18.5856635177
  - # 23
    frequency:   18.5866068517
  - # 24
    frequency:   38.4566370391
  - # 25
    frequency:   38.5137860978
  - # 26
    frequency:   69.1100536040
  - # 27
    frequency:   69.1264690468

- q-position: [    0.0101010,    0.0000000,    0.0000000 ]
  distance:    0.0036744
  band:
  - # 1
    frequency:   -0.4792775824
  - # 2
    frequency:   -0.4569720440
  - # 3
    frequency:   -0.4360980888
  - # 4
    frequency:   -0.4072930604
  - # 5
    frequency:    0.0112580037
  - # 6
    frequency:    0.1656471667
  - # 7
    frequency:    0.2837083630
  - # 8
    frequency:    5.4004872220
  - # 9
    frequency:    5.4055670191
  - # 10
    frequency:    6.2926292999
  - # 11
    frequency:    7.3027529716
  - # 12
    frequency:    7.3096822343
  - # 13
    frequency:    7.4246437629
  - # 14
    frequency:    7.4261470811
  - # 15
    frequency:    9.8566350225
  - # 16
    frequency:   12.7966360806
  - # 17
    frequency:   17.3470451333
  - # 18
    frequency:   17.3481805166
  - # 19
    frequency:   17.3551085539
  - # 20
    frequency:   17.3557169393
  - # 21
    frequency:   17.9168208109
  - # 22
    frequency:   18.5840340194
  - # 23
    frequency:   18.5878014687
  - # 24
    frequency:   38.4566456888
  - # 25
    frequency:   38.5136649078
  - # 26
    frequency:   69.1062555355
  - # 27
    frequency:   69.1226449812

- q-position: [    0.0151515,    0.0000000,    0.0000000 ]
  distance:    0.0055116
  band:
  - # 1
    frequency:   -0.4836215615
  - # 2
    frequency:   -0.4325594341
  - # 3
    frequency:   -0.4257738272
  - # 4
    frequency:   -0.3623600868
  - # 5
    frequency:    0.0258381892
  - # 6
    frequency:    0.2493523383
  - # 7
    frequency:    0.4314457623
  - # 8
    frequency:    5.4018451017
  - # 9
    frequency:    5.4132344937
  - # 10
    frequency:    6.2865521489
  - # 11
    frequency:    7.3000936614
  - # 12
    frequency:    7.3154133689
  - # 13
    frequency:    7.4282189756
  - # 14
    frequency:    7.4317639959
  - # 15
    frequency:    9.8548232904
  - # 16
    frequency:   12.7905362711
  - # 17
    frequency:   17.3472935867
  - # 18
    frequency:   17.3498439609
  - # 19
    frequency:   17.3553440786
  - # 20
    frequency:   17.3567090774
  - # 21
    frequency:   17.9153445195
  - # 22
    frequency:   18.5813258283
  - # 23
    frequency:   18.5897805477
  - # 24
    frequency:   38.4566601462
  - # 25
    frequency:   38.5134633728
  - # 26
    frequency:   69.0999338269
  - # 27
    frequency:   69.1162800061

- q-position: [    0.0202020,    0.0000000,    0.0000000 ]
  distance:    0.0073488
  band:
  - # 1
    frequency:   -0.4860042701
  - # 2
    frequency:   -0.4155816312
  - # 3
    frequency:   -0.3935419700
  - # 4
    frequency:   -0.2987682150
  - # 5
    frequency:    0.0476059475
  - # 6
    frequency:    0.3334878713
  - # 7
    frequency:    0.5813837376
  - # 8
    frequency:    5.4037428123
  - # 9
    frequency:    5.4238914520
  - # 10
    frequency:    6.2782252973
  - # 11
    frequency:    7.2965822672
  - # 12
    frequency:    7.3231927464
  - # 13
    frequency:    7.4330068875
  - # 14
    frequency:    7.4396710589
  - # 15
    frequency:    9.8522988236
  - # 16
    frequency:   12.7820178880
  - # 17
    frequency:   17.3476407577
  - # 18
    frequency:   17.3521639602
  - # 19
    frequency:   17.3556735624
  - # 20
    frequency:   17.3580908313
  - # 21
    frequency:   17.9132880392
  - # 22
    frequency:   18.5775503786
  - # 23
    frequency:   18.5925262551
  - # 24
    frequency:   38.4566804730
  - # 25
    frequency:   38.5131821635
  - # 26
    frequency:   69.0911010622
  - # 27
    frequency:   69.1073867984

- q-position: [    0.0252525,    0.0000000,    0.0000000 ]
  distance:    0.0091859
  band:
  - # 1
    frequency:   -0.4863692775
  - # 2
    frequency:   -0.4055506840
  - # 3
    frequency:   -0.3369432489
  - # 4
    frequency:   -0.1982679630
  - # 5
    frequency:    0.0795253852
  - # 6
    frequency:    0.4177934762
  - # 7
    frequency:    0.7320214218
  - # 8
    frequency:    5.4061770590
  - # 9
    frequency:    5.4374620829
  - # 10
    frequency:    6.2678145181
  - # 11
    frequency:    7.2923693144
  - # 12
    frequency:    7.3328072827
  - # 13
    frequency:    7.4388513006
  - # 14
    frequency:    7.4498963459
  - # 15
    frequency:    9.8490736254
  - # 16
    frequency:   12.7711020713
  - # 17
    frequency:   17.3480859834
  - # 18
    frequency:   17.3551306522
  - # 19
    frequency:   17.3560967507
  - # 20
    frequency:   17.3598559615
  - # 21
    frequency:   17.9106618719
  - # 22
    frequency:   18.5727236283
  - # 23
    frequency:   18.5960138067
  - # 24
    frequency:   38.4567067546
  - # 25
    frequency:   38.5128222155
  - # 26
    frequency:   69.0797748102
  - # 27
    frequency:   69.0959830566

- q-position: [    0.0303030,    0.0000000,    0.0000000 ]
  distance:    0.0110231
  band:
  - # 1
    frequency:   -0.4848165308
  - # 2
    frequency:   -0.3953788248
  - # 3
    frequency:   -0.2584923799
  - # 4
    frequency:    0.1212873598
  - # 5
    frequency:    0.1460126970
  - # 6
    frequency:    0.5021119261
  - # 7
    frequency:    0.8826486108
  - # 8
    frequency:    5.4091436418
  - # 9
    frequency:    5.4538512179
  - # 10
    frequency:    6.2555139573
  - # 11
    frequency:    7.2875938512
  - # 12
    frequency:    7.3440243075
  - # 13
    frequency:    7.4456059755
  - # 14
    frequency:    7.4624542853
  - # 15
    frequency:    9.8451631920
  - # 16
    frequency:   12.7578157066
  - # 17
    frequency:   17.3486284130
  - # 18
    frequency:   17.3566133108
  - # 19
    frequency:   17.3587268992
  - # 20
    frequency:   17.3620008407
  - # 21
    frequency:   17.9074797658
  - # 22
    frequency:   18.5668660100
  - # 23
    frequency:   18.6002116517
  - # 24
    frequency:   38.4567390999
  - # 25
    frequency:   38.5123847257
  - # 26
    frequency:   69.0659775763
  - # 27
    frequency:   69.0820914523

- q-position: [    0.0353535,    0.0000000,    0.0000000 ]
  distance:    0.0128603
  band:
  - # 1
    frequency:   -0.4814660075
  - # 2
    frequency:   -0.3846859678
  - # 3
    frequency:   -0.1656296696
  - # 4
    frequency:    0.2143824467
  - # 5
    frequency:    0.2960632810
  - # 6
    frequency:    0.5863948557
  - # 7
    frequency:    1.0329958508
  - # 8
    frequency:    5.4126374818
  - # 9
    frequency:    5.4729458540
  - # 10
    frequency:    6.2415361978
  - # 11
    frequency:    7.2823737838
  - # 12
    frequency:    7.3566159378
  - # 13
    frequency:    7.4531443704
  - # 14
    frequency:    7.4773317311
  - # 15
    frequency:    9.8405865559
  - # 16
    frequency:   12.7421912161
  - # 17
    frequency:   17.3492670095
  - # 18
    frequency:   17.3572228279
  - # 19
    frequency:   17.3628970572
  - # 20
    frequency:   17.3645556268
  - # 21
    frequency:   17.9037588956
  - # 22
    frequency:   18.5600023666
  - # 23
    frequency:   18.6050817117
  - # 24
    frequency:   38.4567776398
  - # 25
    frequency:   38.5118711476
  - # 26
    frequency:   69.0497367400
  - # 27
    frequency:   69.0657395673

- q-position: [    0.0404040,    0.0000000,    0.0000000 ]
  distance:    0.0146975
  band:
  - # 1
    frequency:   -0.4764114043
  - # 2
    frequency:   -0.3731051254
  - # 3
    frequency:   -0.0788005801
  - # 4
    frequency:    0.3263769273
  - # 5
    frequency:    0.4060334421
  - # 6
    frequency:    0.6706553803
  - # 7
    frequency:    1.1829680053
  - # 8
    frequency:    5.4166526516
  - # 9
    frequency:    5.4946167997
  - # 10
    frequency:    6.2261034677
  - # 11
    frequency:    7.2768040076
  - # 12
    frequency:    7.3703804461
  - # 13
    frequency:    7.4613615989
  - # 14
    frequency:    7.4944760537
  - # 15
    frequency:    9.8353663359
  - # 16
    frequency:   12.7242663140
  - # 17
    frequency:   17.3500005518
  - # 18
    frequency:   17.3579247989
  - # 19
    frequency:   17.3669797305
  - # 20
    frequency:   17.3681514251
  - # 21
    frequency:   17.8995200779
  - # 22
    frequency:   18.5521618738
  - # 23
    frequency:   18.6105796741
  - # 24
    frequency:   38.4568225266
  - # 25
    frequency:   38.5112831862
  - # 26
    frequency:   69.0310844798
  - # 27
    frequency:   69.0469598180

- q-position: [    0.0454545,    0.0000000,    0.0000000 ]
  distance:    0.0165347
  band:
  - # 1
    frequency:   -0.4697055389
  - # 2
    frequency:   -0.3602929122
  - # 3
    frequency:    0.0926983488
  - # 4
    frequency:    0.4320759568
  - # 5
    frequency:    0.5016533036
  - # 6
    frequency:    0.7549293626
  - # 7
    frequency:    1.3325272349
  - # 8
    frequency:    5.4211824106
  - # 9
    frequency:    5.5187203187
  - # 10
    frequency:    6.2094406824
  - # 11
    frequency:    7.2709586585
  - # 12
    frequency:    7.3851562465
  - # 13
    frequency:    7.4701722770
  - # 14
    frequency:    7.5137889867
  - # 15
    frequency:    9.8295287899
  - # 16
    frequency:   12.7040837340
  - # 17
    frequency:   17.3508276384
  - # 18
    frequency:   17.3587186259
  - # 19
    frequency:   17.3702768760
  - # 20
    frequency:   17.3734510711
  - # 21
    frequency:   17.8947880241
  - # 22
    frequency:   18.5433779475
  - # 23
    frequency:   18.6166553398
  - # 24
    frequency:   38.4568739326
  - # 25
    frequency:   38.5106227917
  - # 26
    frequency:   69.0100576838
  - # 27
    frequency:   69.0257893653

- q-position: [    0.0505051,    0.0000000,    0.0000000 ]
  distance:    0.0183719
  band:
  - # 1
    frequency:   -0.4613572113
  - # 2
    frequency:   -0.3459085829
  - # 3
    frequency:    0.1567486941
  - # 4
    frequency:    0.5287624540
  - # 5
    frequency:    0.5899377602
  - # 6
    frequency:    0.8392552386
  - # 7
    frequency:    1.4816488265
  - # 8
    frequency:    5.4262192424
  - # 9
    frequency:    5.5450996202
  - # 10
    frequency:    6.1917706257
  - # 11
    frequency:    7.2648948625
  - # 12
    frequency:    7.4008262053
  - # 13
    frequency:    7.4795068854
  - # 14
    frequency:    7.5351282908
  - # 15
    frequency:    9.8231038693
  - # 16
    frequency:   12.6816909341
  - # 17
    frequency:   17.3517466918
  - # 18
    frequency:   17.3596036072
  - # 19
    frequency:   17.3737306177
  - # 20
    frequency:   17.3794721649
  - # 21
    frequency:   17.8895916293
  - # 22
    frequency:   18.5336881386
  - # 23
    frequency:   18.6232530231
  - # 24
    frequency:   38.4569320478
  - # 25
    frequency:   38.5098921522
  - # 26
    frequency:   68.9866978485
  - # 27
    frequency:   69.0022700126

- q-position: [    0.0555556,    0.0000000,    0.0000000 ]
  distance:    0.0202091
  band:
  - # 1
    frequency:   -0.4513310415
  - # 2
    frequency:   -0.3295805634
  - # 3
    frequency:    0.2106428886
  - # 4
    frequency:    0.6191177384
  - # 5
    frequency:    0.6737545367
  - # 6
    frequency:    0.9236660348
  - # 7
    frequency:    1.6303054086
  - # 8
    frequency:    5.4317548961
  - # 9
    frequency:    5.5735859928
  - # 10
    frequency:    6.1733113311
  - # 11
    frequency:    7.2586565762
  - # 12
    frequency:    7.4173132259
  - # 13
    frequency:    7.4893080467
  - # 14
    frequency:    7.5583163640
  - # 15
    frequency:    9.8161252692
  - # 16
    frequency:   12.6571397865
  - # 17
    frequency:   17.3527559650
  - # 18
    frequency:   17.3605789274
  - # 19
    frequency:   17.3774286679
  - # 20
    frequency:   17.3860814544
  - # 21
    frequency:   17.8839643002
  - # 22
    frequency:   18.5231340121
  - # 23
    frequency:   18.6303120006
  - # 24
    frequency:   38.4569970792
  - # 25
    frequency:   38.5090936858
  - # 26
    frequency:   68.9610509636
  - # 27
    frequency:   68.9764480901

- q-position: [    0.0606061,    0.0000000,    0.0000000 ]
  distance:    0.0220463
  band:
  - # 1
    frequency:   -0.4395464335
  - # 2
    frequency:   -0.3108613860
  - # 3
    frequency:    0.2634948066
  - # 4
    frequency:    0.7050926847
  - # 5
    frequency:    0.7545541233
  - # 6
    frequency:    1.0081872444
  - # 7
    frequency:    1.7784615234
  - # 8
    frequency:    5.4377804278
  - # 9
    frequency:    5.6039992842
  - # 10
    frequency:    6.1542756456
  - # 11
    frequency:    7.2522779333
  - # 12
    frequency:    7.4345705513
  - # 13
    frequency:    7.4995273046
  - # 14
    frequency:    7.5831526135
  - # 15
    frequency:    9.8086304727
  - # 16
    frequency:   12.6304862582
  - # 17
    frequency:   17.3538535490
  - # 18
    frequency:   17.3616436447
  - # 19
    frequency:   17.3813519807
  - # 20
    frequency:   17.3932469367
  - # 21
    frequency:   17.8779443228
  - # 22
    frequency:   18.5117610139
  - # 23
    frequency:   18.6377670044
  - # 24
    frequency:   38.4570692477
  - # 25
    frequency:   38.5082300323
  - # 26
    frequency:   68.9331673855
  - # 27
    frequency:   68.9483743273

- q-position: [    0.0656566,    0.0000000,    0.0000000 ]
  distance:    0.0238834
  band:
  - # 1
    frequency:   -0.4258735668
  - # 2
    frequency:   -0.2891594086
  - # 3
    frequency:    0.3175693544
  - # 4
    frequency:    0.7879027113
  - # 5
    frequency:    0.8331647052
  - # 6
    frequency:    1.0928370052
  - # 7
    frequency:    1.9260718332
  - # 8
    frequency:    5.4442862451
  - # 9
    frequency:    5.6361472238
  - # 10
    frequency:    6.1348731083
  - # 11
    frequency:    7.2457859446
  - # 12
    frequency:    7.4525707353
  - # 13
    frequency:    7.5101225532
  - # 14
    frequency:    7.6094259727
  - # 15
    frequency:    9.8006607823
  - # 16
    frequency:   12.6017900900
  - # 17
    frequency:   17.3550373831
  - # 18
    frequency:   17.3627966773
  - # 19
    frequency:   17.3854667486
  - # 20
    frequency:   17.4009455628
  - # 21
    frequency:   17.8715752724
  - # 22
    frequency:   18.4996183227
  - # 23
    frequency:   18.6455487551
  - # 24
    frequency:   38.4571487859
  - # 25
    frequency:   38.5073040435
  - # 26
    frequency:   68.9031016982
  - # 27
    frequency:   68.9181037125

- q-position: [    0.0707071,    0.0000000,    0.0000000 ]
  distance:    0.0257206
  band:
  - # 1
    frequency:   -0.4101245911
  - # 2
    frequency:   -0.2636163706
  - # 3
    frequency:    0.3736517807
  - # 4
    frequency:    0.8683204673
  - # 5
    frequency:    0.9100980027
  - # 6
    frequency:    1.1776269652
  - # 7
    frequency:    2.0730804963
  - # 8
    frequency:    5.4512621509
  - # 9
    frequency:    5.6698226496
  - # 10
    frequency:    6.1153147297
  - # 11
    frequency:    7.2392025852
  - # 12
    frequency:    7.4712960817
  - # 13
    frequency:    7.5210560810
  - # 14
    frequency:    7.6369250935
  - # 15
    frequency:    9.7922613352
  - # 16
    frequency:   12.5711144777
  - # 17
    frequency:   17.3563052664
  - # 18
    frequency:   17.3640367877
  - # 19
    frequency:   17.3897316240
  - # 20
    frequency:   17.4091556628
  - # 21
    frequency:   17.8649064636
  - # 22
    frequency:   18.4867586882
  - # 23
    frequency:   18.6535845268
  - # 24
    frequency:   38.4572359355
  - # 25
    frequency:   38.5063187733
  - # 26
    frequency:   68.8709125626
  - # 27
    frequency:   68.8856953414

- q-position: [    0.0757576,    0.0000000,    0.0000000 ]
  distance:    0.0275578
  band:
  - # 1
    frequency:   -0.3920373617
  - # 2
    frequency:   -0.2328456865
  - # 3
    frequency:    0.4320288283
  - # 4
    frequency:    0.9468563137
  - # 5
    frequency:    0.9856882361
  - # 6
    frequency:    1.2625632068
  - # 7
    frequency:    2.2194208080
  - # 8
    frequency:    5.4586973876
  - # 9
    frequency:    5.7047966915
  - # 10
    frequency:    6.0958223262
  - # 11
    frequency:    7.2325463701
  - # 12
    frequency:    7.4907317317
  - # 13
    frequency:    7.5322931276
  - # 14
    frequency:    7.6654453245
  - # 15
    frequency:    9.7834810930
  - # 16
    frequency:   12.5385257627
  - # 17
    frequency:   17.3576548713
  - # 18
    frequency:   17.3653625656
  - # 19
    frequency:   17.3940986624
  - # 20
    frequency:   17.4178556027
  - # 21
    frequency:   17.8579934337
  - # 22
    frequency:   18.4732382565
  - # 23
    frequency:   18.6617987382
  - # 24
    frequency:   38.4573309440
  - # 25
    frequency:   38.5052774681
  - # 26
    frequency:   68.8366625545
  - # 27
    frequency:   68.8512122537

- q-position: [    0.0808081,    0.0000000,    0.0000000 ]
  distance:    0.0293950
  band:
  - # 1
    frequency:   -0.3712467528
  - # 2
    frequency:   -0.1942384104
  - # 3
    frequency:    0.4927793027
  - # 4
    frequency:    1.0238594008
  - # 5
    frequency:    1.0601627975
  - # 6
    frequency:    1.3476470327
  - # 7
    frequency:    2.3650147741
  - # 8
    frequency:    5.4665806808
  - # 9
    frequency:    5.7408035004
  - # 10
    frequency:    6.0766466008
  - # 11
    frequency:    7.2258335210
  - # 12
    frequency:    7.5108613754
  - # 13
    frequency:    7.5438008462
  - # 14
    frequency:    7.6947927266
  - # 15
    frequency:    9.7743728019
  - # 16
    frequency:   12.5040931348
  - # 17
    frequency:   17.3590837594
  - # 18
    frequency:   17.3667724102
  - # 19
    frequency:   17.3985131880
  - # 20
    frequency:   17.4270234863
  - # 21
    frequency:   17.8508984450
  - # 22
    frequency:   18.4591163804
  - # 23
    frequency:   18.6701135620
  - # 24
    frequency:   38.4574340606
  - # 25
    frequency:   38.5041835556
  - # 26
    frequency:   68.8004179924
  - # 27
    frequency:   68.8147212594

- q-position: [    0.0858586,    0.0000000,    0.0000000 ]
  distance:    0.0312322
  band:
  - # 1
    frequency:   -0.3472332488
  - # 2
    frequency:   -0.1413337904
  - # 3
    frequency:    0.5558833912
  - # 4
    frequency:    1.0995755471
  - # 5
    frequency:    1.1336812760
  - # 6
    frequency:    1.4328755822
  - # 7
    frequency:    2.5097724936
  - # 8
    frequency:    5.4749002818
  - # 9
    frequency:    5.7775055442
  - # 10
    frequency:    6.0581048102
  - # 11
    frequency:    7.2190788198
  - # 12
    frequency:    7.5316650058
  - # 13
    frequency:    7.5555475766
  - # 14
    frequency:    7.7247858814
  - # 15
    frequency:    9.7649929125
  - # 16
    frequency:   12.4678883511
  - # 17
    frequency:   17.3605893971
  - # 18
    frequency:   17.3682645119
  - # 19
    frequency:   17.4029134032
  - # 20
    frequency:   17.4366371130
  - # 21
    frequency:   17.8436909759
  - # 22
    frequency:   18.4444554177
  - # 23
    frequency:   18.6784495454
  - # 24
    frequency:   38.4575455325
  - # 25
    frequency:   38.5030406342
  - # 26
    frequency:   68.7622487541
  - # 27
    frequency:   68.7762927544

- q-position: [    0.0909091,    0.0000000,    0.0000000 ]
  distance:    0.0330694
  band:
  - # 1
    frequency:   -0.3192253233
  - # 2
    frequency:   -0.0301021223
  - # 3
    frequency:    0.6212706567
  - # 4
    frequency:    1.1741817499
  - # 5
    frequency:    1.2063584186
  - # 6
    frequency:    1.5182423040
  - # 7
    frequency:    2.6535912935
  - # 8
    frequency:    5.4836440096
  - # 9
    frequency:    5.8144091800
  - # 10
    frequency:    6.0406682296
  - # 11
    frequency:    7.2122962225
  - # 12
    frequency:    7.5531180343
  - # 13
    frequency:    7.5675023521
  - # 14
    frequency:    7.7552562947
  - # 15
    frequency:    9.7554014501
  - # 16
    frequency:   12.4299854746
  - # 17
    frequency:   17.3621691733
  - # 18
    frequency:   17.3698368352
  - # 19
    frequency:   17.4072299763
  - # 20
    frequency:   17.4466740073
  - # 21
    frequency:   17.8364481509
  - # 22
    frequency:   18.4293205148
  - # 23
    frequency:   18.6867262353
  - # 24
    frequency:   38.4576655994
  - # 25
    frequency:   38.5018524624
  - # 26
    frequency:   68.7222280845
  - # 27
    frequency:   68.7360005262

- q-position: [    0.0959596,    0.0000000,    0.0000000 ]
  distance:    0.0349066
  band:
  - # 1
    frequency:   -0.2859948666
  - # 2
    frequency:    0.1397446357
  - # 3
    frequency:    0.6888435668
  - # 4
    frequency:    1.2478076108
  - # 5
    frequency:    1.2782783474
  - # 6
    frequency:    1.6037373195
  - # 7
    frequency:    2.7963545777
  - # 8
    frequency:    5.4927992903
  - # 9
    frequency:    5.8506378418
  - # 10
    frequency:    6.0251920597
  - # 11
    frequency:    7.2054992916
  - # 12
    frequency:    7.5751912041
  - # 13
    frequency:    7.5796345796
  - # 14
    frequency:    7.7860480412
  - # 15
    frequency:    9.7456618269
  - # 16
    frequency:   12.3904606331
  - # 17
    frequency:   17.3638204161
  - # 18
    frequency:   17.3714871028
  - # 19
    frequency:   17.4113857409
  - # 20
    frequency:   17.4571114670
  - # 21
    frequency:   17.8292550310
  - # 22
    frequency:   18.4137793776
  - # 23
    frequency:   18.6948628008
  - # 24
    frequency:   38.4577944880
  - # 25
    frequency:   38.5006229481
  - # 26
    frequency:   68.6804323937
  - # 27
    frequency:   68.6939215507

- q-position: [    0.1010101,    0.0000000,    0.0000000 ]
  distance:    0.0367438
  band:
  - # 1
    frequency:   -0.2453568238
  - # 2
    frequency:    0.2034151459
  - # 3
    frequency:    0.7584900203
  - # 4
    frequency:    1.3205491300
  - # 5
    frequency:    1.3495037428
  - # 6
    frequency:    1.6893477100
  - # 7
    frequency:    2.9379303467
  - # 8
    frequency:    5.5023531959
  - # 9
    frequency:    5.8842681437
  - # 10
    frequency:    6.0135825012
  - # 11
    frequency:    7.1987014934
  - # 12
    frequency:    7.5919138489
  - # 13
    frequency:    7.5978509025
  - # 14
    frequency:    7.8170170993
  - # 15
    frequency:    9.7358405822
  - # 16
    frequency:   12.3493918004
  - # 17
    frequency:   17.3655404089
  - # 18
    frequency:   17.3732127836
  - # 19
    frequency:   17.4152956427
  - # 20
    frequency:   17.4679266102
  - # 21
    frequency:   17.8222046523
  - # 22
    frequency:   18.3979020292
  - # 23
    frequency:   18.7027786479
  - # 24
    frequency:   38.4579324050
  - # 25
    frequency:   38.4993561387
  - # 26
    frequency:   68.6369410466
  - # 27
    frequency:   68.6501357798

- q-position: [    0.1060606,    0.0000000,    0.0000000 ]
  distance:    0.0385810
  band:
  - # 1
    frequency:   -0.1925812821
  - # 2
    frequency:    0.2543409685
  - # 3
    frequency:    0.8300904383
  - # 4
    frequency:    1.3924778744
  - # 5
    frequency:    1.4200819988
  - # 6
    frequency:    1.7750577531
  - # 7
    frequency:    3.0781693306
  - # 8
    frequency:    5.5122924813
  - # 9
    frequency:    5.9106578414
  - # 10
    frequency:    6.0104721198
  - # 11
    frequency:    7.1919163913
  - # 12
    frequency:    7.6043098341
  - # 13
    frequency:    7.6210596222
  - # 14
    frequency:    7.8480306624
  - # 15
    frequency:    9.7260070397
  - # 16
    frequency:   12.3068586002
  - # 17
    frequency:   17.3673264042
  - # 18
    frequency:   17.3750110839
  - # 19
    frequency:   17.4188670928
  - # 20
    frequency:   17.4790964159
  - # 21
    frequency:   17.8153976580
  - # 22
    frequency:   18.3817605538
  - # 23
    frequency:   18.7103940197
  - # 24
    frequency:   38.4580795289
  - # 25
    frequency:   38.4980562120
  - # 26
    frequency:   68.5918361446
  - # 27
    frequency:   68.6047259219

- q-position: [    0.1111111,    0.0000000,    0.0000000 ]
  distance:    0.0404181
  band:
  - # 1
    frequency:   -0.1114281284
  - # 2
    frequency:    0.2991830323
  - # 3
    frequency:    0.9035219515
  - # 4
    frequency:    1.4636472401
  - # 5
    frequency:    1.4900494869
  - # 6
    frequency:    1.8608491256
  - # 7
    frequency:    3.2169026638
  - # 8
    frequency:    5.5226036197
  - # 9
    frequency:    5.9226946690
  - # 10
    frequency:    6.0229745814
  - # 11
    frequency:    7.1851577623
  - # 12
    frequency:    7.6167922624
  - # 13
    frequency:    7.6447764177
  - # 14
    frequency:    7.8789665939
  - # 15
    frequency:    9.7162328685
  - # 16
    frequency:   12.2629421324
  - # 17
    frequency:   17.3691756363
  - # 18
    frequency:   17.3768789451
  - # 19
    frequency:   17.4220009222
  - # 20
    frequency:   17.4905977557
  - # 21
    frequency:   17.8089413357
  - # 22
    frequency:   18.3654288283
  - # 23
    frequency:   18.7176305797
  - # 24
    frequency:   38.4582360006
  - # 25
    frequency:   38.4967274678
  - # 26
    frequency:   68.5452023005
  - # 27
    frequency:   68.5577772137

- q-position: [    0.1161616,    0.0000000,    0.0000000 ]
  distance:    0.0422553
  band:
  - # 1
    frequency:    0.1177054861
  - # 2
    frequency:    0.3404222656
  - # 3
    frequency:    0.9786609292
  - # 4
    frequency:    1.5340968374
  - # 5
    frequency:    1.5594346032
  - # 6
    frequency:    1.9467010844
  - # 7
    frequency:    3.3539390073
  - # 8
    frequency:    5.5332728365
  - # 9
    frequency:    5.9210844227
  - # 10
    frequency:    6.0504005063
  - # 11
    frequency:    7.1784396552
  - # 12
    frequency:    7.6293309302
  - # 13
    frequency:    7.6689572731
  - # 14
    frequency:    7.9097131217
  - # 15
    frequency:    9.7065915362
  - # 16
    frequency:   12.2177248214
  - # 17
    frequency:   17.3710853292
  - # 18
    frequency:   17.3788130474
  - # 19
    frequency:   17.4245931437
  - # 20
    frequency:   17.5024074181
  - # 21
    frequency:   17.8029478525
  - # 22
    frequency:   18.3489822401
  - # 23
    frequency:   18.7244119708
  - # 24
    frequency:   38.4584019111
  - # 25
    frequency:   38.4953743219
  - # 26
    frequency:   68.4971264057
  - # 27
    frequency:   68.5093771868

- q-position: [    0.1212121,    0.0000000,    0.0000000 ]
  distance:    0.0440925
  band:
  - # 1
    frequency:    0.2043671759
  - # 2
    frequency:    0.3792951569
  - # 3
    frequency:    1.0553845014
  - # 4
    frequency:    1.6038556270
  - # 5
    frequency:    1.6282600143
  - # 6
    frequency:    2.0325906364
  - # 7
    frequency:    3.4890610129
  - # 8
    frequency:    5.5442861426
  - # 9
    frequency:    5.9133681652
  - # 10
    frequency:    6.0852447115