nqpoint: 300    
npath: 3      
segment_nqpoint:
- 100
- 100
- 100
labels:
- [ 'G', 'M' ]
- [ 'M', 'K' ]
- [ 'K', 'G' ]
reciprocal_lattice:
- [   0.31502824,   0.18188164,   0.00000000 ] # a*
- [   0.00000000,   0.36376328,   0.00000000 ] # b*
- [   0.00000000,   0.00000000,   0.03595448 ] # c*
natom: 9      
lattice:
- [     3.174318607146919,     0.000000000000000,     0.000000000000000 ] # a
- [    -1.587159303573460,     2.749040553505593,     0.000000000000000 ] # b
- [     0.000000000000000,     0.000000000000000,    27.812945181263348 ] # c
points:
- symbol: C # 1
  coordinates: [  0.000000000000000,  0.000000000000000,  0.500000033333080 ]
  mass: 12.010700
- symbol: C # 2
  coordinates: [  0.333332985432215,  0.666666983183674,  0.633119223537830 ]
  mass: 12.010700
- symbol: C # 3
  coordinates: [  0.666666984744047,  0.333332985985145,  0.366880775964670 ]
  mass: 12.010700
- symbol: N # 4
  coordinates: [  0.333332985432215,  0.666666983183674,  0.588293895499738 ]
  mass: 14.006700
- symbol: N # 5
  coordinates: [  0.666666984744047,  0.333332985985145,  0.411706104500271 ]
  mass: 14.006700
- symbol: O # 6
  coordinates: [  0.333332985432215,  0.666666983183674,  0.676409673936186 ]
  mass: 15.999400
- symbol: O # 7
  coordinates: [  0.666666984744047,  0.333332985985145,  0.323590326063814 ]
  mass: 15.999400
- symbol: Ti # 8
  coordinates: [  0.333332985432215,  0.666666983183674,  0.459828993484522 ]
  mass: 47.867000
- symbol: Ti # 9
  coordinates: [  0.666666984744047,  0.333332985985145,  0.540171006017969 ]
  mass: 47.867000

phonon:
- q-position: [    0.0000000,    0.0000000,    0.0000000 ]
  distance:    0.0000000
  band:
  - # 1
    frequency:   -1.2652120171
  - # 2
    frequency:   -1.2652120171
  - # 3
    frequency:   -1.1105670376
  - # 4
    frequency:   -1.1105670376
  - # 5
    frequency:   -0.0000030530
  - # 6
    frequency:    0.0000007172
  - # 7
    frequency:    0.0000031233
  - # 8
    frequency:    5.2410536288
  - # 9
    frequency:    5.2410536288
  - # 10
    frequency:    6.1656101227
  - # 11
    frequency:    7.1543593527
  - # 12
    frequency:    7.1543593527
  - # 13
    frequency:    7.1599814274
  - # 14
    frequency:    7.1599814274
  - # 15
    frequency:    9.7697579083
  - # 16
    frequency:   12.7568389092
  - # 17
    frequency:   17.3128019851
  - # 18
    frequency:   17.3128019851
  - # 19
    frequency:   17.3512536328
  - # 20
    frequency:   17.3512536328
  - # 21
    frequency:   17.7867219937
  - # 22
    frequency:   17.9423871459
  - # 23
    frequency:   17.9423871459
  - # 24
    frequency:   38.4808782409
  - # 25
    frequency:   38.4852416102
  - # 26
    frequency:   69.1318489724
  - # 27
    frequency:   69.3746606673

- q-position: [    0.0050505,    0.0000000,    0.0000000 ]
  distance:    0.0018372
  band:
  - # 1
    frequency:   -1.2637752812
  - # 2
    frequency:   -1.2613523654
  - # 3
    frequency:   -1.1099274352
  - # 4
    frequency:   -1.1082266245
  - # 5
    frequency:   -0.0327633528
  - # 6
    frequency:    0.0903556791
  - # 7
    frequency:    0.1279366292
  - # 8
    frequency:    5.2418078268
  - # 9
    frequency:    5.2430756936
  - # 10
    frequency:    6.1647458038
  - # 11
    frequency:    7.1496211416
  - # 12
    frequency:    7.1509808391
  - # 13
    frequency:    7.1658490427
  - # 14
    frequency:    7.1665030193
  - # 15
    frequency:    9.7695498262
  - # 16
    frequency:   12.7556979858
  - # 17
    frequency:   17.3129950346
  - # 18
    frequency:   17.3132493866
  - # 19
    frequency:   17.3513161825
  - # 20
    frequency:   17.3514316505
  - # 21
    frequency:   17.7867689291
  - # 22
    frequency:   17.9435731986
  - # 23
    frequency:   17.9442321705
  - # 24
    frequency:   38.4808665088
  - # 25
    frequency:   38.4852347345
  - # 26
    frequency:   69.1304140603
  - # 27
    frequency:   69.3729332791

- q-position: [    0.0101010,    0.0000000,    0.0000000 ]
  distance:    0.0036744
  band:
  - # 1
    frequency:   -1.2595004297
  - # 2
    frequency:   -1.2498282276
  - # 3
    frequency:   -1.1080072151
  - # 4
    frequency:   -1.1011905002
  - # 5
    frequency:   -0.0644472311
  - # 6
    frequency:    0.1809672469
  - # 7
    frequency:    0.2564643844
  - # 8
    frequency:    5.2440657489
  - # 9
    frequency:    5.2491220213
  - # 10
    frequency:    6.1621761206
  - # 11
    frequency:    7.1438433650
  - # 12
    frequency:    7.1486559452
  - # 13
    frequency:    7.1750063367
  - # 14
    frequency:    7.1782205528
  - # 15
    frequency:    9.7689267943
  - # 16
    frequency:   12.7522785894
  - # 17
    frequency:   17.3135703181
  - # 18
    frequency:   17.3145882560
  - # 19
    frequency:   17.3515036579
  - # 20
    frequency:   17.3519650729
  - # 21
    frequency:   17.7869073580
  - # 22
    frequency:   17.9471234935
  - # 23
    frequency:   17.9497545491
  - # 24
    frequency:   38.4808313184
  - # 25
    frequency:   38.4852140863
  - # 26
    frequency:   69.1261133060
  - # 27
    frequency:   69.3677564416

- q-position: [    0.0151515,    0.0000000,    0.0000000 ]
  distance:    0.0055116
  band:
  - # 1
    frequency:   -1.2524907006
  - # 2
    frequency:   -1.2307937073
  - # 3
    frequency:   -1.1048021119
  - # 4
    frequency:   -1.0894143679
  - # 5
    frequency:   -0.0939154724
  - # 6
    frequency:    0.2720709037
  - # 7
    frequency:    0.3861200182
  - # 8
    frequency:    5.2478134303
  - # 9
    frequency:    5.2591336106
  - # 10
    frequency:    6.1579688973
  - # 11
    frequency:    7.1388162294
  - # 12
    frequency:    7.1491520258
  - # 13
    frequency:    7.1856371348
  - # 14
    frequency:    7.1932590654
  - # 15
    frequency:    9.7678924656
  - # 16
    frequency:   12.7465907841
  - # 17
    frequency:   17.3145164795
  - # 18
    frequency:   17.3168087168
  - # 19
    frequency:   17.3518155378
  - # 20
    frequency:   17.3528520078
  - # 21
    frequency:   17.7871306496
  - # 22
    frequency:   17.9530143243
  - # 23
    frequency:   17.9589157781
  - # 24
    frequency:   38.4807726844
  - # 25
    frequency:   38.4851796075
  - # 26
    frequency:   69.1189586357
  - # 27
    frequency:   69.3591461087

- q-position: [    0.0202020,    0.0000000,    0.0000000 ]
  distance:    0.0073488
  band:
  - # 1
    frequency:   -1.2429087892
  - # 2
    frequency:   -1.2044699420
  - # 3
    frequency:   -1.1003049296
  - # 4
    frequency:   -1.0728258166
  - # 5
    frequency:   -0.1199008692
  - # 6
    frequency:    0.3638649186
  - # 7
    frequency:    0.5173349768
  - # 8
    frequency:    5.2530277647
  - # 9
    frequency:    5.2730140794
  - # 10
    frequency:    6.1522309022
  - # 11
    frequency:    7.1345478952
  - # 12
    frequency:    7.1524785058
  - # 13
    frequency:    7.1976903772
  - # 14
    frequency:    7.2114366597
  - # 15
    frequency:    9.7664529581
  - # 16
    frequency:   12.7386511538
  - # 17
    frequency:   17.3158153638
  - # 18
    frequency:   17.3198947157
  - # 19
    frequency:   17.3522509532
  - # 20
    frequency:   17.3540893093
  - # 21
    frequency:   17.7874291513
  - # 22
    frequency:   17.9612058185
  - # 23
    frequency:   17.9716505761
  - # 24
    frequency:   38.4806906204
  - # 25
    frequency:   38.4851312148
  - # 26
    frequency:   69.1089698619
  - # 27
    frequency:   69.3471287806

- q-position: [    0.0252525,    0.0000000,    0.0000000 ]
  distance:    0.0091859
  band:
  - # 1
    frequency:   -1.2309631818
  - # 2
    frequency:   -1.1710889835
  - # 3
    frequency:   -1.0945054063
  - # 4
    frequency:   -1.0513273019
  - # 5
    frequency:   -0.1408850468
  - # 6
    frequency:    0.4564944683
  - # 7
    frequency:    0.6503941699
  - # 8
    frequency:    5.2596767541
  - # 9
    frequency:    5.2906324509
  - # 10
    frequency:    6.1450996537
  - # 11
    frequency:    7.1309579848
  - # 12
    frequency:    7.1585340487
  - # 13
    frequency:    7.2111871749
  - # 14
    frequency:    7.2326264145
  - # 15
    frequency:    9.7646168996
  - # 16
    frequency:   12.7284825274
  - # 17
    frequency:   17.3174430827
  - # 18
    frequency:   17.3238245396
  - # 19
    frequency:   17.3528086870
  - # 20
    frequency:   17.3556726159
  - # 21
    frequency:   17.7877915714
  - # 22
    frequency:   17.9716414776
  - # 23
    frequency:   17.9878659849
  - # 24
    frequency:   38.4805851253
  - # 25
    frequency:   38.4850688194
  - # 26
    frequency:   69.0961745860
  - # 27
    frequency:   69.3317413694

- q-position: [    0.0303030,    0.0000000,    0.0000000 ]
  distance:    0.0110231
  band:
  - # 1
    frequency:   -1.2168902091
  - # 2
    frequency:   -1.1308146910
  - # 3
    frequency:   -1.0873900179
  - # 4
    frequency:   -1.0248022298
  - # 5
    frequency:   -0.1548710606
  - # 6
    frequency:    0.5500413295
  - # 7
    frequency:    0.7854133605
  - # 8
    frequency:    5.2677198514
  - # 9
    frequency:    5.3118267840
  - # 10
    frequency:    6.1367339940
  - # 11
    frequency:    7.1279568612
  - # 12
    frequency:    7.1671923078
  - # 13
    frequency:    7.2261422998
  - # 14
    frequency:    7.2566812684
  - # 15
    frequency:    9.7623954861
  - # 16
    frequency:   12.7161136120
  - # 17
    frequency:   17.3193713416
  - # 18
    frequency:   17.3285713538
  - # 19
    frequency:   17.3534871742
  - # 20
    frequency:   17.3575964807
  - # 21
    frequency:   17.7882060372
  - # 22
    frequency:   17.9842476887
  - # 23
    frequency:   18.0074410685
  - # 24
    frequency:   38.4804561655
  - # 25
    frequency:   38.4849923509
  - # 26
    frequency:   69.0806080639
  - # 27
    frequency:   69.3130310125

- q-position: [    0.0353535,    0.0000000,    0.0000000 ]
  distance:    0.0128603
  band:
  - # 1
    frequency:   -1.2009336520
  - # 2
    frequency:   -1.0836462688
  - # 3
    frequency:   -1.0789417116
  - # 4
    frequency:   -0.9931264042
  - # 5
    frequency:   -0.1588767145
  - # 6
    frequency:    0.6445199387
  - # 7
    frequency:    0.9223425051
  - # 8
    frequency:    5.2771083915
  - # 9
    frequency:    5.3364084173
  - # 10
    frequency:    6.1273047511
  - # 11
    frequency:    7.1254590184
  - # 12
    frequency:    7.1783188221
  - # 13
    frequency:    7.2425517515
  - # 14
    frequency:    7.2834279654
  - # 15
    frequency:    9.7598025526
  - # 16
    frequency:   12.7015785503
  - # 17
    frequency:   17.3215688935
  - # 18
    frequency:   17.3341035283
  - # 19
    frequency:   17.3542845027
  - # 20
    frequency:   17.3598547369
  - # 21
    frequency:   17.7886606891
  - # 22
    frequency:   17.9989333258
  - # 23
    frequency:   18.0302274032
  - # 24
    frequency:   38.4803036582
  - # 25
    frequency:   38.4849017831
  - # 26
    frequency:   69.0623130340
  - # 27
    frequency:   69.2910548344

- q-position: [    0.0404040,    0.0000000,    0.0000000 ]
  distance:    0.0146975
  band:
  - # 1
    frequency:   -1.1833244918
  - # 2
    frequency:   -1.0691395586
  - # 3
    frequency:   -1.0293115350
  - # 4
    frequency:   -0.9561873099
  - # 5
    frequency:   -0.1475013559
  - # 6
    frequency:    0.7398804765
  - # 7
    frequency:    1.0609951577
  - # 8
    frequency:    5.2877861018
  - # 9
    frequency:    5.3641665816
  - # 10
    frequency:    6.1169865105
  - # 11
    frequency:    7.1233867617
  - # 12
    frequency:    7.1917771022
  - # 13
    frequency:    7.2603902006
  - # 14
    frequency:    7.3126709598
  - # 15
    frequency:    9.7568546532
  - # 16
    frequency:   12.6849164215
  - # 17
    frequency:   17.3240029878
  - # 18
    frequency:   17.3403842817
  - # 19
    frequency:   17.3551984155
  - # 20
    frequency:   17.3624415013
  - # 21
    frequency:   17.7891439247
  - # 22
    frequency:   18.0155895610
  - # 23
    frequency:   18.0560502823
  - # 24
    frequency:   38.4801274566
  - # 25
    frequency:   38.4847971594
  - # 26
    frequency:   69.0413395094
  - # 27
    frequency:   69.2658796585

- q-position: [    0.0454545,    0.0000000,    0.0000000 ]
  distance:    0.0165347
  band:
  - # 1
    frequency:   -1.1642635917
  - # 2
    frequency:   -1.0579583091
  - # 3
    frequency:   -0.9671526552
  - # 4
    frequency:   -0.9139078748
  - # 5
    frequency:   -0.1063292866
  - # 6
    frequency:    0.8360183143
  - # 7
    frequency:    1.2010948568
  - # 8
    frequency:    5.2996896857
  - # 9
    frequency:    5.3948731373
  - # 10
    frequency:    6.1059510957
  - # 11
    frequency:    7.1216711556
  - # 12
    frequency:    7.2074312696
  - # 13
    frequency:    7.2796113056
  - # 14
    frequency:    7.3441982860
  - # 15
    frequency:    9.7535711438
  - # 16
    frequency:   12.6661707046
  - # 17
    frequency:   17.3266406988
  - # 18
    frequency:   17.3473693261
  - # 19
    frequency:   17.3562263145
  - # 20
    frequency:   17.3653540739
  - # 21
    frequency:   17.7896444891
  - # 22
    frequency:   18.0340899810
  - # 23
    frequency:   18.0847104539
  - # 24
    frequency:   38.4799273402
  - # 25
    frequency:   38.4846786138
  - # 26
    frequency:   69.0177445349
  - # 27
    frequency:   69.2375816706

- q-position: [    0.0505051,    0.0000000,    0.0000000 ]
  distance:    0.0183719
  band:
  - # 1
    frequency:   -1.1439094736
  - # 2
    frequency:   -1.0453678311
  - # 3
    frequency:   -0.8960436299
  - # 4
    frequency:   -0.8662029046
  - # 5
    frequency:    0.0934993251
  - # 6
    frequency:    0.9327878652
  - # 7
    frequency:    1.3423244174
  - # 8
    frequency:    5.3127494675
  - # 9
    frequency:    5.4282872232
  - # 10
    frequency:    6.0943629503
  - # 11
    frequency:    7.1202518631
  - # 12
    frequency:    7.2251471003
  - # 13
    frequency:    7.3001492539
  - # 14
    frequency:    7.3777873080
  - # 15
    frequency:    9.7499742650
  - # 16
    frequency:   12.6453887255
  - # 17
    frequency:   17.3294500503
  - # 18
    frequency:   17.3549975666
  - # 19
    frequency:   17.3573652668
  - # 20
    frequency:   17.3686026504
  - # 21
    frequency:   17.7901515631
  - # 22
    frequency:   18.0542910752
  - # 23
    frequency:   18.1159862271
  - # 24
    frequency:   38.4797030121
  - # 25
    frequency:   38.4845463871
  - # 26
    frequency:   68.9915919117
  - # 27
    frequency:   69.2062460360

- q-position: [    0.0555556,    0.0000000,    0.0000000 ]
  distance:    0.0202091
  band:
  - # 1
    frequency:   -1.1223720897
  - # 2
    frequency:   -1.0313324036
  - # 3
    frequency:   -0.8179887108
  - # 4
    frequency:   -0.8091079549
  - # 5
    frequency:    0.2035428468
  - # 6
    frequency:    1.0300181458
  - # 7
    frequency:    1.4843660902
  - # 8
    frequency:    5.3268900906
  - # 9
    frequency:    5.4641596377
  - # 10
    frequency:    6.0823763273
  - # 11
    frequency:    7.1190764740
  - # 12
    frequency:    7.2447922509
  - # 13
    frequency:    7.3219208993
  - # 14
    frequency:    7.4132096380
  - # 15
    frequency:    9.7460892174
  - # 16
    frequency:   12.6226211054
  - # 17
    frequency:   17.3324008873
  - # 18
    frequency:   17.3586120133
  - # 19
    frequency:   17.3631489389
  - # 20
    frequency:   17.3722527573
  - # 21
    frequency:   17.7906549283
  - # 22
    frequency:   18.0760331211
  - # 23
    frequency:   18.1496358329
  - # 24
    frequency:   38.4794541066
  - # 25
    frequency:   38.4844008336
  - # 26
    frequency:   68.9629518893
  - # 27
    frequency:   69.1719664730

- q-position: [    0.0606061,    0.0000000,    0.0000000 ]
  distance:    0.0220463
  band:
  - # 1
    frequency:   -1.0997120870
  - # 2
    frequency:   -1.0158098274
  - # 3
    frequency:   -0.7577793370
  - # 4
    frequency:   -0.7143830300
  - # 5
    frequency:    0.3000943718
  - # 6
    frequency:    1.1275274514
  - # 7
    frequency:    1.6269270071
  - # 8
    frequency:    5.3420312586
  - # 9
    frequency:    5.5022368166
  - # 10
    frequency:    6.0701340131
  - # 11
    frequency:    7.1180996178
  - # 12
    frequency:    7.2662360945
  - # 13
    frequency:    7.3448281766
  - # 14
    frequency:    7.4502350389
  - # 15
    frequency:    9.7419442217
  - # 16
    frequency:   12.5979212279
  - # 17
    frequency:   17.3354654810
  - # 18
    frequency:   17.3599629800
  - # 19
    frequency:   17.3713717672
  - # 20
    frequency:   17.3766980343
  - # 21
    frequency:   17.7911452314
  - # 22
    frequency:   18.0991414600
  - # 23
    frequency:   18.1853999646
  - # 24
    frequency:   38.4791802054
  - # 25
    frequency:   38.4842424195
  - # 26
    frequency:   68.9319008286
  - # 27
    frequency:   69.1348447849

- q-position: [    0.0656566,    0.0000000,    0.0000000 ]
  distance:    0.0238834
  band:
  - # 1
    frequency:   -1.0759440539
  - # 2
    frequency:   -0.9987503039
  - # 3
    frequency:   -0.6960472126
  - # 4
    frequency:   -0.5942653992
  - # 5
    frequency:    0.3971462203
  - # 6
    frequency:    1.2251353216
  - # 7
    frequency:    1.7697505229
  - # 8
    frequency:    5.3580885079
  - # 9
    frequency:    5.5422643090
  - # 10
    frequency:    6.0577672669
  - # 11
    frequency:    7.1172820265
  - # 12
    frequency:    7.2893494197
  - # 13
    frequency:    7.3687605964
  - # 14
    frequency:    7.4886343685
  - # 15
    frequency:    9.7375705580
  - # 16
    frequency:   12.5713447389
  - # 17
    frequency:   17.3386188818
  - # 18
    frequency:   17.3614142929
  - # 19
    frequency:   17.3778865765
  - # 20
    frequency:   17.3836564511
  - # 21
    frequency:   17.7916143409
  - # 22
    frequency:   18.1234281241
  - # 23
    frequency:   18.2230044432
  - # 24
    frequency:   38.4788808661
  - # 25
    frequency:   38.4840717106
  - # 26
    frequency:   68.8985208366
  - # 27
    frequency:   69.0949903532

- q-position: [    0.0707071,    0.0000000,    0.0000000 ]
  distance:    0.0257206
  band:
  - # 1
    frequency:   -1.0510418498
  - # 2
    frequency:   -0.9800950126
  - # 3
    frequency:   -0.6296543806
  - # 4
    frequency:   -0.4330389197
  - # 5
    frequency:    0.4965769144
  - # 6
    frequency:    1.3226709972
  - # 7
    frequency:    1.9126173422
  - # 8
    frequency:    5.3749740036
  - # 9
    frequency:    5.5839896793
  - # 10
    frequency:    6.0453966749
  - # 11
    frequency:    7.1165896419
  - # 12
    frequency:    7.3140041318
  - # 13
    frequency:    7.3935977034
  - # 14
    frequency:    7.5281817317
  - # 15
    frequency:    9.7330025731
  - # 16
    frequency:   12.5429490902
  - # 17
    frequency:   17.3418390550
  - # 18
    frequency:   17.3629617961
  - # 19
    frequency:   17.3826440405
  - # 20
    frequency:   17.3931123020
  - # 21
    frequency:   17.7920557772
  - # 22
    frequency:   18.1486937576
  - # 23
    frequency:   18.2621629618
  - # 24
    frequency:   38.4785556589
  - # 25
    frequency:   38.4838893513
  - # 26
    frequency:   68.8628993764
  - # 27
    frequency:   69.0525195956

- q-position: [    0.0757576,    0.0000000,    0.0000000 ]
  distance:    0.0275578
  band:
  - # 1
    frequency:   -1.0249442820
  - # 2
    frequency:   -0.9597742894
  - # 3
    frequency:   -0.5563593139
  - # 4
    frequency:   -0.1166575878
  - # 5
    frequency:    0.5976690640
  - # 6
    frequency:    1.4199784580
  - # 7
    frequency:    2.0553407931
  - # 8
    frequency:    5.3925973471
  - # 9
    frequency:    5.6271647633
  - # 10
    frequency:    6.0331337079
  - # 11
    frequency:    7.1159928149
  - # 12
    frequency:    7.3400730281
  - # 13
    frequency:    7.4192114262
  - # 14
    frequency:    7.5686560372
  - # 15
    frequency:    9.7282776465
  - # 16
    frequency:   12.5127931359
  - # 17
    frequency:   17.3451068455
  - # 18
    frequency:   17.3646010722
  - # 19
    frequency:   17.3871117641
  - # 20
    frequency:   17.4035293060
  - # 21
    frequency:   17.7924651948
  - # 22
    frequency:   18.1747297622
  - # 23
    frequency:   18.3025798683
  - # 24
    frequency:   38.4782042119
  - # 25
    frequency:   38.4836960349
  - # 26
    frequency:   68.8251288533
  - # 27
    frequency:   69.0075553929

- q-position: [    0.0808081,    0.0000000,    0.0000000 ]
  distance:    0.0293950
  band:
  - # 1
    frequency:   -0.9975598375
  - # 2
    frequency:   -0.9377052715
  - # 3
    frequency:   -0.4708641559
  - # 4
    frequency:    0.4105917670
  - # 5
    frequency:    0.6989716952
  - # 6
    frequency:    1.5169186646
  - # 7
    frequency:    2.1977596134
  - # 8
    frequency:    5.4108663885
  - # 9
    frequency:    5.6715471448
  - # 10
    frequency:    6.0210829194
  - # 11
    frequency:    7.1154656168
  - # 12
    frequency:    7.3674296720
  - # 13
    frequency:    7.4454682775
  - # 14
    frequency:    7.6098421387
  - # 15
    frequency:    9.7234361050
  - # 16
    frequency:   12.4809367854
  - # 17
    frequency:   17.3484058174
  - # 18
    frequency:   17.3663274669
  - # 19
    frequency:   17.3915951179
  - # 20
    frequency:   17.4145296181
  - # 21
    frequency:   17.7928408986
  - # 22
    frequency:   18.2013205969
  - # 23
    frequency:   18.3439529464
  - # 24
    frequency:   38.4778262619
  - # 25
    frequency:   38.4834924695
  - # 26
    frequency:   68.7853061803
  - # 27
    frequency:   68.9602264863

- q-position: [    0.0858586,    0.0000000,    0.0000000 ]
  distance:    0.0312322
  band:
  - # 1
    frequency:   -0.9687696447
  - # 2
    frequency:   -0.9137888086
  - # 3
    frequency:   -0.3608414392
  - # 4
    frequency:    0.5992165703
  - # 5
    frequency:    0.7991819837
  - # 6
    frequency:    1.6133698162
  - # 7
    frequency:    2.3397303122
  - # 8
    frequency:    5.4296880330
  - # 9
    frequency:    5.7169005060
  - # 10
    frequency:    6.0093450210
  - # 11
    frequency:    7.1149852647
  - # 12
    frequency:    7.3959483697
  - # 13
    frequency:    7.4722313846
  - # 14
    frequency:    7.6515317153
  - # 15
    frequency:    9.7185210741
  - # 16
    frequency:   12.4474407170
  - # 17
    frequency:   17.3517220162
  - # 18
    frequency:   17.3681361156
  - # 19
    frequency:   17.3961268943
  - # 20
    frequency:   17.4260040069
  - # 21
    frequency:   17.7931843722
  - # 22
    frequency:   18.2282461639
  - # 23
    frequency:   18.3859761642
  - # 24
    frequency:   38.4774217064
  - # 25
    frequency:   38.4832793408
  - # 26
    frequency:   68.7435323261
  - # 27
    frequency:   68.9106668512

- q-position: [    0.0909091,    0.0000000,    0.0000000 ]
  distance:    0.0330694
  band:
  - # 1
    frequency:   -0.9384281709
  - # 2
    frequency:   -0.8879053497
  - # 3
    frequency:   -0.1792879804
  - # 4
    frequency:    0.7468547671
  - # 5
    frequency:    0.8974686421
  - # 6
    frequency:    1.7092263883
  - # 7
    frequency:    2.4811201259
  - # 8
    frequency:    5.4489690362
  - # 9
    frequency:    5.7629927702
  - # 10
    frequency:    5.9980218697
  - # 11
    frequency:    7.1145316546
  - # 12
    frequency:    7.4255042366
  - # 13
    frequency:    7.4993623416
  - # 14
    frequency:    7.6935240086
  - # 15
    frequency:    9.7135782530
  - # 16
    frequency:   12.4123661515
  - # 17
    frequency:   17.3550436897
  - # 18
    frequency:   17.3700219729
  - # 19
    frequency:   17.4006858339
  - # 20
    frequency:   17.4378931698
  - # 21
    frequency:   17.7935008010
  - # 22
    frequency:   18.2552842226
  - # 23
    frequency:   18.4283423596
  - # 24
    frequency:   38.4769906537
  - # 25
    frequency:   38.4830572766
  - # 26
    frequency:   68.6999118461
  - # 27
    frequency:   68.8590150507

- q-position: [    0.0959596,    0.0000000,    0.0000000 ]
  distance:    0.0349066
  band:
  - # 1
    frequency:   -0.9063612870
  - # 2
    frequency:   -0.8599093625
  - # 3
    frequency:    0.2738525110
  - # 4
    frequency:    0.8744864111
  - # 5
    frequency:    0.9934418326
  - # 6
    frequency:    1.8043975459
  - # 7
    frequency:    2.6218009198
  - # 8
    frequency:    5.4686167799
  - # 9
    frequency:    5.8095881007
  - # 10
    frequency:    5.9872273112
  - # 11
    frequency:    7.1140869903
  - # 12
    frequency:    7.4559733392
  - # 13
    frequency:    7.5267228827
  - # 14
    frequency:    7.7356265034
  - # 15
    frequency:    9.7086556023
  - # 16
    frequency:   12.3757746844
  - # 17
    frequency:   17.3583609972
  - # 18
    frequency:   17.3719798439
  - # 19
    frequency:   17.4052322942
  - # 20
    frequency:   17.4501519388
  - # 21
    frequency:   17.7937995648
  - # 22
    frequency:   18.2822127817
  - # 23
    frequency:   18.4707458410
  - # 24
    frequency:   38.4765334676
  - # 25
    frequency:   38.4828268161
  - # 26
    frequency:   68.6545524015
  - # 27
    frequency:   68.8054135725

- q-position: [    0.1010101,    0.0000000,    0.0000000 ]
  distance:    0.0367438
  band:
  - # 1
    frequency:   -0.8723612300
  - # 2
    frequency:   -0.8296215953
  - # 3
    frequency:    0.4396068985
  - # 4
    frequency:    0.9898379460
  - # 5
    frequency:    1.0870055971
  - # 6
    frequency:    1.8988053454
  - # 7
    frequency:    2.7616440286
  - # 8
    frequency:    5.4885400227
  - # 9
    frequency:    5.8564140789
  - # 10
    frequency:    5.9771225988
  - # 11
    frequency:    7.1136354959
  - # 12
    frequency:    7.4872328966
  - # 13
    frequency:    7.5541763787
  - # 14
    frequency:    7.7776556142
  - # 15
    frequency:    9.7038029312
  - # 16
    frequency:   12.3377281738
  - # 17
    frequency:   17.3616657296
  - # 18
    frequency:   17.3740044173
  - # 19
    frequency:   17.4097167615
  - # 20
    frequency:   17.4627407018
  - # 21
    frequency:   17.7940946731
  - # 22
    frequency:   18.3088124299
  - # 23
    frequency:   18.5128848835
  - # 24
    frequency:   38.4760508037
  - # 25
    frequency:   38.4825883854
  - # 26
    frequency:   68.6075642673
  - # 27
    frequency:   68.7500081561

- q-position: [    0.1060606,    0.0000000,    0.0000000 ]
  distance:    0.0385810
  band:
  - # 1
    frequency:   -0.8361776459
  - # 2
    frequency:   -0.7968180687
  - # 3
    frequency:    0.5694095957
  - # 4
    frequency:    1.0967388713
  - # 5
    frequency:    1.1782239341
  - # 6
    frequency:    1.9923829756
  - # 7
    frequency:    2.9005158676
  - # 8
    frequency:    5.5086496212
  - # 9
    frequency:    5.9029594320
  - # 10
    frequency:    5.9681210900
  - # 11
    frequency:    7.1131631988
  - # 12
    frequency:    7.5191615265
  - # 13
    frequency:    7.5815891640
  - # 14
    frequency:    7.8194374190
  - # 15
    frequency:    9.6990713732
  - # 16
    frequency:   12.2982886793
  - # 17
    frequency:   17.3649510515
  - # 18
    frequency:   17.3760903002
  - # 19
    frequency:   17.4140825485
  - # 20
    frequency:   17.4756227289
  - # 21
    frequency:   17.7944051068
  - # 22
    frequency:   18.3348685750
  - # 23
    frequency:   18.5544641073
  - # 24
    frequency:   38.4755436353
  - # 25
    frequency:   38.4823422830
  - # 26
    frequency:   68.5590598312
  - # 27
    frequency:   68.6929471120

- q-position: [    0.1111111,    0.0000000,    0.0000000 ]
  distance:    0.0404181
  band:
  - # 1
    frequency:   -0.7975031929
  - # 2
    frequency:   -0.7612139364
  - # 3
    frequency:    0.6849364892
  - # 4
    frequency:    1.1973958865
  - # 5
    frequency:    1.2672331755
  - # 6
    frequency:    2.0850731716
  - # 7
    frequency:    3.0382740890
  - # 8
    frequency:    5.5288592168
  - # 9
    frequency:    5.9444426784
  - # 10
    frequency:    5.9649219376
  - # 11
    frequency:    7.1126577725
  - # 12
    frequency:    7.5516395236
  - # 13
    frequency:    7.6088316996
  - # 14
    frequency:    7.8608084656
  - # 15
    frequency:    9.6945127422
  - # 16
    frequency:   12.2575184466
  - # 17
    frequency:   17.3682112749
  - # 18
    frequency:   17.3782320530
  - # 19
    frequency:   17.4182669231
  - # 20
    frequency:   17.4887631983
  - # 21
    frequency:   17.7947550254
  - # 22
    frequency:   18.3601735681
  - # 23
    frequency:   18.5951967263
  - # 24
    frequency:   38.4750132687
  - # 25
    frequency:   38.4820886739
  - # 26
    frequency:   68.5091530874
  - # 27
    frequency:   68.6343806415

- q-position: [    0.1161616,    0.0000000,    0.0000000 ]
  distance:    0.0422553
  band:
  - # 1
    frequency:   -0.7559508694
  - # 2
    frequency:   -0.7224389464
  - # 3
    frequency:    0.7930416662
  - # 4
    frequency:    1.2932042278
  - # 5
    frequency:    1.3541930301
  - # 6
    frequency:    2.1768268542
  - # 7
    frequency:    3.1747640558
  - # 8
    frequency:    5.5490858854
  - # 9
    frequency:    5.9476600203
  - # 10
    frequency:    6.0006645538
  - # 11
    frequency:    7.1121084270
  - # 12
    frequency:    7.5845491617
  - # 13
    frequency:    7.6357795796
  - # 14
    frequency:    7.9016166643
  - # 15
    frequency:    9.6901787612
  - # 16
    frequency:   12.2154799326
  - # 17
    frequency:   17.3714416670
  - # 18
    frequency:   17.3804242248
  - # 19
    frequency:   17.4222018237
  - # 20
    frequency:   17.5021288119
  - # 21
    frequency:   17.7951737880
  - # 22
    frequency:   18.3845286974
  - # 23
    frequency:   18.6348066576
  - # 24
    frequency:   38.4744613472
  - # 25
    frequency:   38.4818275924
  - # 26
    frequency:   68.4579591240
  - # 27
    frequency:   68.5744601611

- q-position: [    0.1212121,    0.0000000,    0.0000000 ]
  distance:    0.0440925
  band:
  - # 1
    frequency:   -0.7110176734
  - # 2
    frequency:   -0.6799984496
  - # 3
    frequency:    0.8968015965
  - # 4
    frequency:    1.3851035605
  - # 5
    frequency:    1.4392620465
  - # 6
    frequency:    2.2676020038
  - # 7
    frequency:    3.3098154202
  - # 8
    frequency:    5.5692507456
  - # 9
    frequency:    5.9414618120
  - # 10
    frequency:    6.0464546274