nqpoint: 300    
npath: 3      
segment_nqpoint:
- 100
- 100
- 100
labels:
- [ 'G', 'M' ]
- [ 'M', 'K' ]
- [ 'K', 'G' ]
reciprocal_lattice:
- [   0.26720780,   0.15427249,   0.00000000 ] # a*
- [   0.00000000,   0.30854499,   0.00000000 ] # b*
- [   0.00000000,   0.00000000,   0.03954663 ] # c*
natom: 6      
lattice:
- [     3.742405754076459,     0.000000000000000,     0.000000000000000 ] # a
- [    -1.871202877038230,     3.241018454341849,     0.000000000000000 ] # b
- [     0.000000000000000,     0.000000000000000,    25.286605093529925 ] # c
points:
- symbol: Br # 1
  coordinates: [  0.666666984744047,  0.333332985985145,  0.355919664451233 ]
  mass: 79.904000
- symbol: C # 2
  coordinates: [  0.000000000000000,  0.000000000000000,  0.485967851575264 ]
  mass: 12.010700
- symbol: C # 3
  coordinates: [  0.333332985432215,  0.666666983183674,  0.596625777051942 ]
  mass: 12.010700
- symbol: N # 4
  coordinates: [  0.333332985432215,  0.666666983183674,  0.644080335548767 ]
  mass: 14.006700
- symbol: Y # 5
  coordinates: [  0.333332985432215,  0.666666983183674,  0.432839915832305 ]
  mass: 88.905850
- symbol: Y # 6
  coordinates: [  0.666666984744047,  0.333332985985145,  0.539373074827904 ]
  mass: 88.905850

phonon:
- q-position: [    0.0000000,    0.0000000,    0.0000000 ]
  distance:    0.0000000
  band:
  - # 1
    frequency:   -2.9668540798
  - # 2
    frequency:   -2.9668540798
  - # 3
    frequency:   -0.0000251997
  - # 4
    frequency:   -0.0000001742
  - # 5
    frequency:    0.0000265955
  - # 6
    frequency:    2.6256106288
  - # 7
    frequency:    2.6256106289
  - # 8
    frequency:    3.8256845544
  - # 9
    frequency:    3.8256845545
  - # 10
    frequency:    4.1012546992
  - # 11
    frequency:    6.5604083570
  - # 12
    frequency:    6.7053189947
  - # 13
    frequency:    6.7053189948
  - # 14
    frequency:    7.9935550781
  - # 15
    frequency:    9.0010663625
  - # 16
    frequency:    9.0010663627
  - # 17
    frequency:   15.5342141330
  - # 18
    frequency:   62.4080554273

- q-position: [    0.0050505,    0.0000000,    0.0000000 ]
  distance:    0.0015583
  band:
  - # 1
    frequency:   -2.9668402738
  - # 2
    frequency:   -2.9666855474
  - # 3
    frequency:    0.0013303630
  - # 4
    frequency:    0.0486750284
  - # 5
    frequency:    0.0832620345
  - # 6
    frequency:    2.6257268189
  - # 7
    frequency:    2.6268408725
  - # 8
    frequency:    3.8255202981
  - # 9
    frequency:    3.8256768360
  - # 10
    frequency:    4.1020457708
  - # 11
    frequency:    6.5602345812
  - # 12
    frequency:    6.7053105215
  - # 13
    frequency:    6.7083048394
  - # 14
    frequency:    7.9927034584
  - # 15
    frequency:    9.0007829567
  - # 16
    frequency:    9.0056586814
  - # 17
    frequency:   15.5329647636
  - # 18
    frequency:   62.4080138790

- q-position: [    0.0101010,    0.0000000,    0.0000000 ]
  distance:    0.0031166
  band:
  - # 1
    frequency:   -2.9667989653
  - # 2
    frequency:   -2.9661810035
  - # 3
    frequency:    0.0053139433
  - # 4
    frequency:    0.0973295474
  - # 5
    frequency:    0.1664984646
  - # 6
    frequency:    2.6260753580
  - # 7
    frequency:    2.6305203370
  - # 8
    frequency:    3.8250174976
  - # 9
    frequency:    3.8256535361
  - # 10
    frequency:    4.1044143774
  - # 11
    frequency:    6.5597270080
  - # 12
    frequency:    6.7052857407
  - # 13
    frequency:    6.7171580559
  - # 14
    frequency:    7.9901633573
  - # 15
    frequency:    8.9999337625
  - # 16
    frequency:    9.0194559134
  - # 17
    frequency:   15.5292186718
  - # 18
    frequency:   62.4078893121

- q-position: [    0.0151515,    0.0000000,    0.0000000 ]
  distance:    0.0046749
  band:
  - # 1
    frequency:   -2.9667304792
  - # 2
    frequency:   -2.9653435606
  - # 3
    frequency:    0.0119292313
  - # 4
    frequency:    0.1459430537
  - # 5
    frequency:    0.2496832220
  - # 6
    frequency:    2.6266561533
  - # 7
    frequency:    2.6366157475
  - # 8
    frequency:    3.8241481850
  - # 9
    frequency:    3.8256142212
  - # 10
    frequency:    4.1083458263
  - # 11
    frequency:    6.5589186695
  - # 12
    frequency:    6.7052465652
  - # 13
    frequency:    6.7315780816
  - # 14
    frequency:    7.9859773942
  - # 15
    frequency:    8.9985218456
  - # 16
    frequency:    9.0425173492
  - # 17
    frequency:   15.5229819060
  - # 18
    frequency:   62.4076819597

- q-position: [    0.0202020,    0.0000000,    0.0000000 ]
  distance:    0.0062332
  band:
  - # 1
    frequency:   -2.9666353472
  - # 2
    frequency:   -2.9641782560
  - # 3
    frequency:    0.0211408195
  - # 4
    frequency:    0.1944950846
  - # 5
    frequency:    0.3327893024
  - # 6
    frequency:    2.6274690516
  - # 7
    frequency:    2.6450733363
  - # 8
    frequency:    3.8228722665
  - # 9
    frequency:    3.8255581703
  - # 10
    frequency:    4.1138131333
  - # 11
    frequency:    6.5578452681
  - # 12
    frequency:    6.7051961719
  - # 13
    frequency:    6.7510971610
  - # 14
    frequency:    7.9802114851
  - # 15
    frequency:    8.9965523025
  - # 16
    frequency:    9.0749363306
  - # 17
    frequency:   15.5142645410
  - # 18
    frequency:   62.4073922097

- q-position: [    0.0252525,    0.0000000,    0.0000000 ]
  distance:    0.0077915
  band:
  - # 1
    frequency:   -2.9665142937
  - # 2
    frequency:   -2.9626918407
  - # 3
    frequency:    0.0329003266
  - # 4
    frequency:    0.2429652291
  - # 5
    frequency:    0.4157883309
  - # 6
    frequency:    2.6285138411
  - # 7
    frequency:    2.6558211833
  - # 8
    frequency:    3.8211455162
  - # 9
    frequency:    3.8254843764
  - # 10
    frequency:    4.1207744902
  - # 11
    frequency:    6.5565333587
  - # 12
    frequency:    6.7051389842
  - # 13
    frequency:    6.7751127083
  - # 14
    frequency:    7.9729484201
  - # 15
    frequency:    8.9940322407
  - # 16
    frequency:    9.1168310205
  - # 17
    frequency:   15.5030806710
  - # 18
    frequency:   62.4070206036

- q-position: [    0.0303030,    0.0000000,    0.0000000 ]
  distance:    0.0093498
  band:
  - # 1
    frequency:   -2.9663682152
  - # 2
    frequency:   -2.9608925125
  - # 3
    frequency:    0.0471475099
  - # 4
    frequency:    0.2913331486
  - # 5
    frequency:    0.4986501509
  - # 6
    frequency:    2.6297902546
  - # 7
    frequency:    2.6687721408
  - # 8
    frequency:    3.8189278397
  - # 9
    frequency:    3.8253915513
  - # 10
    frequency:    4.1291716269
  - # 11
    frequency:    6.5549975053
  - # 12
    frequency:    6.7050806483
  - # 13
    frequency:    6.8029182500
  - # 14
    frequency:    7.9642808911
  - # 15
    frequency:    8.9909707511
  - # 16
    frequency:    9.1683301338
  - # 17
    frequency:   15.4894483990
  - # 18
    frequency:   62.4065678349

- q-position: [    0.0353535,    0.0000000,    0.0000000 ]
  distance:    0.0109082
  band:
  - # 1
    frequency:   -2.9661981563
  - # 2
    frequency:   -2.9587896154
  - # 3
    frequency:    0.0638115921
  - # 4
    frequency:    0.3395786003
  - # 5
    frequency:    0.5813424477
  - # 6
    frequency:    2.6312979735
  - # 7
    frequency:    2.6838270700
  - # 8
    frequency:    3.8161900995
  - # 9
    frequency:    3.8252781302
  - # 10
    frequency:    4.1389299955
  - # 11
    frequency:    6.5532428326
  - # 12
    frequency:    6.7050280010
  - # 13
    frequency:    6.8337353510
  - # 14
    frequency:    7.9543051337
  - # 15
    frequency:    8.9873788726
  - # 16
    frequency:    9.2295535524
  - # 17
    frequency:   15.4733898261
  - # 18
    frequency:   62.4060347474

- q-position: [    0.0404040,    0.0000000,    0.0000000 ]
  distance:    0.0124665
  band:
  - # 1
    frequency:   -2.9660052808
  - # 2
    frequency:   -2.9563933272
  - # 3
    frequency:    0.0828127385
  - # 4
    frequency:    0.3876814615
  - # 5
    frequency:    0.6638304101
  - # 6
    frequency:    2.6330366326
  - # 7
    frequency:    2.7008781237
  - # 8
    frequency:    3.8129184607
  - # 9
    frequency:    3.8251422807
  - # 10
    frequency:    4.1499610987
  - # 11
    frequency:    6.5512687512
  - # 12
    frequency:    6.7049890314
  - # 13
    frequency:    6.8667487352
  - # 14
    frequency:    7.9431159416
  - # 15
    frequency:    8.9832695487
  - # 16
    frequency:    9.3005888649
  - # 17
    frequency:   15.4549310390
  - # 18
    frequency:   62.4054223326

- q-position: [    0.0454545,    0.0000000,    0.0000000 ]
  distance:    0.0140248
  band:
  - # 1
    frequency:   -2.9657908386
  - # 2
    frequency:   -2.9537143562
  - # 3
    frequency:    0.1040636160
  - # 4
    frequency:    0.4356217585
  - # 5
    frequency:    0.7460764322
  - # 6
    frequency:    2.6350058264
  - # 7
    frequency:    2.7198118519
  - # 8
    frequency:    3.8091160261
  - # 9
    frequency:    3.8249819145
  - # 10
    frequency:    4.1621666253
  - # 11
    frequency:    6.5490718728
  - # 12
    frequency:    6.7049728337
  - # 13
    frequency:    6.9011437242
  - # 14
    frequency:    7.9308033505
  - # 15
    frequency:    8.9786575765
  - # 16
    frequency:    9.3814660456
  - # 17
    frequency:   15.4341020992
  - # 18
    frequency:   62.4047317270

- q-position: [    0.0505051,    0.0000000,    0.0000000 ]
  distance:    0.0155831
  band:
  - # 1
    frequency:   -2.9655561315
  - # 2
    frequency:   -2.9507636631
  - # 3
    frequency:    0.1274709686
  - # 4
    frequency:    0.4833796969
  - # 5
    frequency:    0.8280398545
  - # 6
    frequency:    2.6372051167
  - # 7
    frequency:    2.7405119688
  - # 8
    frequency:    3.8048021852
  - # 9
    frequency:    3.8247947034
  - # 10
    frequency:    4.1754436159
  - # 11
    frequency:    6.5466477943
  - # 12
    frequency:    6.7049895524
  - # 13
    frequency:    6.9361428689
  - # 14
    frequency:    7.9174509258
  - # 15
    frequency:    8.9735595474
  - # 16
    frequency:    9.4721333262
  - # 17
    frequency:   15.4109370357
  - # 18
    frequency:   62.4039642090

- q-position: [    0.0555556,    0.0000000,    0.0000000 ]
  distance:    0.0171414
  band:
  - # 1
    frequency:   -2.9653024749
  - # 2
    frequency:   -2.9475522172
  - # 3
    frequency:    0.1529371514
  - # 4
    frequency:    0.5309356958
  - # 5
    frequency:    0.9096767469
  - # 6
    frequency:    2.6396340411
  - # 7
    frequency:    2.7628616809
  - # 8
    frequency:    3.8000104387
  - # 9
    frequency:    3.8245781012
  - # 10
    frequency:    4.1896897626
  - # 11
    frequency:    6.5439920367
  - # 12
    frequency:    6.7050503195
  - # 13
    frequency:    6.9710379890
  - # 14
    frequency:    7.9031353772
  - # 15
    frequency:    8.9679937809
  - # 16
    frequency:    9.5724375092
  - # 17
    frequency:   15.3854738425
  - # 18
    frequency:   62.4031211952

- q-position: [    0.0606061,    0.0000000,    0.0000000 ]
  distance:    0.0186997
  band:
  - # 1
    frequency:   -2.9650311596
  - # 2
    frequency:   -2.9440907941
  - # 3
    frequency:    0.1803615739
  - # 4
    frequency:    0.5782704237
  - # 5
    frequency:    0.9909397321
  - # 6
    frequency:    2.6422921234
  - # 7
    frequency:    2.7867455343
  - # 8
    frequency:    3.7947854962
  - # 9
    frequency:    3.8243293711
  - # 10
    frequency:    4.2048080965
  - # 11
    frequency:    6.5411004786
  - # 12
    frequency:    6.7051671830
  - # 13
    frequency:    7.0052143972
  - # 14
    frequency:    7.8879271546
  - # 15
    frequency:    8.9619802497
  - # 16
    frequency:    9.6821114229
  - # 17
    frequency:   15.3577544849
  - # 18
    frequency:   62.4022042363

- q-position: [    0.0656566,    0.0000000,    0.0000000 ]
  distance:    0.0202580
  band:
  - # 1
    frequency:   -2.9647434131
  - # 2
    frequency:   -2.9403898151
  - # 3
    frequency:    0.2096420164
  - # 4
    frequency:    0.6253648366
  - # 5
    frequency:    1.0717778518
  - # 6
    frequency:    2.6451788853
  - # 7
    frequency:    2.8120507834
  - # 8
    frequency:    3.7891802797
  - # 9
    frequency:    3.8240456205
  - # 10
    frequency:    4.2207106093
  - # 11
    frequency:    6.5379695258
  - # 12
    frequency:    6.7053530260
  - # 13
    frequency:    7.0381653821
  - # 14
    frequency:    7.8718917025
  - # 15
    frequency:    8.9555404986
  - # 16
    frequency:    9.8007700392
  - # 17
    frequency:   15.3278249200
  - # 18
    frequency:   62.4012150133

- q-position: [    0.0707071,    0.0000000,    0.0000000 ]
  distance:    0.0218163
  band:
  - # 1
    frequency:   -2.9644403606
  - # 2
    frequency:   -2.9364592261
  - # 3
    frequency:    0.2406757949
  - # 4
    frequency:    0.6722002184
  - # 5
    frequency:    1.1521364783
  - # 6
    frequency:    2.6482938602
  - # 7
    frequency:    2.8386683090
  - # 8
    frequency:    3.7832532451
  - # 9
    frequency:    3.8237238438
  - # 10
    frequency:    4.2373206542
  - # 11
    frequency:    6.5345961609
  - # 12
    frequency:    6.7056214776
  - # 13
    frequency:    7.0694966155
  - # 14
    frequency:    7.8550911207
  - # 15
    frequency:    8.9486975548
  - # 16
    frequency:    9.9279153130
  - # 17
    frequency:   15.2957351349
  - # 18
    frequency:   62.4001553324

- q-position: [    0.0757576,    0.0000000,    0.0000000 ]
  distance:    0.0233746
  band:
  - # 1
    frequency:   -2.9641229878
  - # 2
    frequency:   -2.9323084123
  - # 3
    frequency:    0.2733607613
  - # 4
    frequency:    0.7187582209
  - # 5
    frequency:    1.2319572749
  - # 6
    frequency:    2.6516366078
  - # 7
    frequency:    2.8664931301
  - # 8
    frequency:    3.7770662217
  - # 9
    frequency:    3.8233609738
  - # 10
    frequency:    4.2545741952
  - # 11
    frequency:    6.5309779439
  - # 12
    frequency:    6.7059868145
  - # 13
    frequency:    7.0989215988
  - # 14
    frequency:    7.8375860662
  - # 15
    frequency:    8.9414758323
  - # 16
    frequency:   10.0629484458
  - # 17
    frequency:   15.2615392120
  - # 18
    frequency:   62.3990271199

- q-position: [    0.0808081,    0.0000000,    0.0000000 ]
  distance:    0.0249329
  band:
  - # 1
    frequency:   -2.9637921055
  - # 2
    frequency:   -2.9279461440
  - # 3
    frequency:    0.3075961373
  - # 4
    frequency:    0.7650209047
  - # 5
    frequency:    1.3111782109
  - # 6
    frequency:    2.6552067314
  - # 7
    frequency:    2.8954245524
  - # 8
    frequency:    3.7706828279
  - # 9
    frequency:    3.8229539419
  - # 10
    frequency:    4.2724201069
  - # 11
    frequency:    6.5271130020
  - # 12
    frequency:    6.7064638537
  - # 13
    frequency:    7.1262502538
  - # 14
    frequency:    7.8194378051
  - # 15
    frequency:    8.9339010290
  - # 16
    frequency:   10.2051873690
  - # 17
    frequency:   15.2252954308
  - # 18
    frequency:   62.3978324174

- q-position: [    0.0858586,    0.0000000,    0.0000000 ]
  distance:    0.0264912
  band:
  - # 1
    frequency:   -2.9634483159
  - # 2
    frequency:   -2.9233805467
  - # 3
    frequency:    0.3432831859
  - # 4
    frequency:    0.8109707788
  - # 5
    frequency:    1.3897336373
  - # 6
    frequency:    2.6590038962
  - # 7
    frequency:    2.9253659953
  - # 8
    frequency:    3.7641674357
  - # 9
    frequency:    3.8224997488
  - # 10
    frequency:    4.2908197691
  - # 11
    frequency:    6.5230000235
  - # 12
    frequency:    6.7070678356
  - # 13
    frequency:    7.1513731497
  - # 14
    frequency:    7.8007103944
  - # 15
    frequency:    8.9260000179
  - # 16
    frequency:   10.3538869117
  - # 17
    frequency:   15.1870664190
  - # 18
    frequency:   62.3965733756

- q-position: [    0.0909091,    0.0000000,    0.0000000 ]
  distance:    0.0280495
  band:
  - # 1
    frequency:   -2.9630919833
  - # 2
    frequency:   -2.9186190919
  - # 3
    frequency:    0.3803257334
  - # 4
    frequency:    0.8565908385
  - # 5
    frequency:    1.4675544299
  - # 6
    frequency:    2.6630278498
  - # 7
    frequency:    2.9562245241
  - # 8
    frequency:    3.7575846217
  - # 9
    frequency:    3.8219955437
  - # 10
    frequency:    4.3097461937
  - # 11
    frequency:    6.5186382593
  - # 12
    frequency:    6.7078142998
  - # 13
    frequency:    7.1742437095
  - # 14
    frequency:    7.7814730222
  - # 15
    frequency:    8.9178007317
  - # 16
    frequency:   10.5082593073
  - # 17
    frequency:   15.1469193726
  - # 18
    frequency:   62.3952522490

- q-position: [    0.0959596,    0.0000000,    0.0000000 ]
  distance:    0.0296079
  band:
  - # 1
    frequency:   -2.9627232071
  - # 2
    frequency:   -2.9136686039
  - # 3
    frequency:    0.4186305548
  - # 4
    frequency:    0.9018646004
  - # 5
    frequency:    1.5445682098
  - # 6
    frequency:    2.6672784440
  - # 7
    frequency:    2.9879101023
  - # 8
    frequency:    3.7509990428
  - # 9
    frequency:    3.8214387137
  - # 10
    frequency:    4.3291828800
  - # 11
    frequency:    6.5140275368
  - # 12
    frequency:    6.7087189514
  - # 13
    frequency:    7.1948602309
  - # 14
    frequency:    7.7618025786
  - # 15
    frequency:    8.9093320434
  - # 16
    frequency:   10.6674932213
  - # 17
    frequency:   15.1049263698
  - # 18
    frequency:   62.3938713891

- q-position: [    0.1010101,    0.0000000,    0.0000000 ]
  distance:    0.0311662
  band:
  - # 1
    frequency:   -2.9623417994
  - # 2
    frequency:   -2.9085352787
  - # 3
    frequency:    0.4581076422
  - # 4
    frequency:    0.9467761340
  - # 5
    frequency:    1.6206996470
  - # 6
    frequency:    2.6717556580
  - # 7
    frequency:    3.0203345619
  - # 8
    frequency:    3.7444756865
  - # 9
    frequency:    3.8208269813
  - # 10
    frequency:    4.3491225450
  - # 11
    frequency:    6.5091682813
  - # 12
    frequency:    6.7097975210
  - # 13
    frequency:    7.2132489195
  - # 14
    frequency:    7.7417865558
  - # 15
    frequency:    8.9006236410
  - # 16
    frequency:   10.8307701213
  - # 17
    frequency:   15.0611648136
  - # 18
    frequency:   62.3924332384

- q-position: [    0.1060606,    0.0000000,    0.0000000 ]
  distance:    0.0327245
  band:
  - # 1
    frequency:   -2.9619472665
  - # 2
    frequency:   -2.9032247122
  - # 3
    frequency:    0.4986703730
  - # 4
    frequency:    0.9913100884
  - # 5
    frequency:    1.6958708554
  - # 6
    frequency:    2.6764596232
  - # 7
    frequency:    3.0534102686
  - # 8
    frequency:    3.7380804795
  - # 9
    frequency:    3.8201585110
  - # 10
    frequency:    4.3695658277
  - # 11
    frequency:    6.5040615461
  - # 12
    frequency:    6.7110656172
  - # 13
    frequency:    7.2294485268
  - # 14
    frequency:    7.7215263922
  - # 15
    frequency:    8.8917058986
  - # 16
    frequency:   10.9972774052
  - # 17
    frequency:   15.0157180542
  - # 18
    frequency:   62.3909403239

- q-position: [    0.1111111,    0.0000000,    0.0000000 ]
  distance:    0.0342828
  band:
  - # 1
    frequency:   -2.9615387949
  - # 2
    frequency:   -2.8977419369
  - # 3
    frequency:    0.5402355945
  - # 4
    frequency:    1.0354517130
  - # 5
    frequency:    1.7700018864
  - # 6
    frequency:    2.6813906491
  - # 7
    frequency:    3.0870484348
  - # 8
    frequency:    3.7318812695
  - # 9
    frequency:    3.8194320208
  - # 10
    frequency:    4.3905200271
  - # 11
    frequency:    6.4987090483
  - # 12
    frequency:    6.7125385746
  - # 13
    frequency:    7.2434967357
  - # 14
    frequency:    7.7011413546
  - # 15
    frequency:    8.8826097449
  - # 16
    frequency:   11.1662181499
  - # 17
    frequency:   14.9686762637
  - # 18
    frequency:   62.3893952498

- q-position: [    0.1161616,    0.0000000,    0.0000000 ]
  distance:    0.0358411
  band:
  - # 1
    frequency:   -2.9611152419
  - # 2
    frequency:   -2.8920914629
  - # 3
    frequency:    0.5827236436
  - # 4
    frequency:    1.0791868735
  - # 5
    frequency:    1.8430113215
  - # 6
    frequency:    2.6865492493
  - # 7
    frequency:    3.1211570033
  - # 8
    frequency:    3.7259492405
  - # 9
    frequency:    3.8186469005
  - # 10
    frequency:    4.4119979000
  - # 11
    frequency:    6.4931132086
  - # 12
    frequency:    6.7142312967
  - # 13
    frequency:    7.2554181969
  - # 14
    frequency:    7.6807729823
  - # 15
    frequency:    8.8733665284
  - # 16
    frequency:   11.3368176160
  - # 17
    frequency:   14.9201376670
  - # 18
    frequency:   62.3878006911

- q-position: [    0.1212121,    0.0000000,    0.0000000 ]
  distance:    0.0373994
  band:
  - # 1
    frequency:   -2.9606751308
  - # 2
    frequency:   -2.8862773253
  - # 3
    frequency:    0.6260583134
  - # 4
    frequency:    1.1225020592
  - # 5
    frequency:    1.9148169658
  - # 6
    frequency:    2.6919361689
  - # 7
    frequency:    3.1556379798
  - # 8
    frequency:    3.7203608797
  - # 9
    frequency:    3.8178033313
  - # 10
    frequency:    4.4340165258
  - # 11
    frequency:    6.4872771953
  - # 12
    frequency:    6.7161580967
  - # 13
    frequency:    7.2652141291
  - # 14
    frequency:    7.6605899237
  - # 15
    frequency:    8.8640078815
  - # 16
    frequency:   11.5083267563
  - # 17
    frequency:   14.8702102890
  - # 18
    frequency:   62.3861593861

- q-position: [    0.1262626,    0.0000000,    0.0000000 ]
  distance:    0.0389577
  band:
  - # 1
    frequency:   -2.9602166505
  - # 2
    frequency:   -2.8803031346
  - # 3
    frequency:    0.6701667822
  - # 4
    frequency:    1.1653843849
  - # 5
    frequency:    1.9853366350
  - # 6
    frequency:    2.6975524110
  - # 7
    frequency:    3.1903840293
  - # 8
    frequency:    3.7152006827
  - # 9
    frequency:    3.8169024064
  - # 10
    frequency:    4.4565962266
  - # 11
    frequency:    6.4812049695
  - # 12
    frequency:    6.7183325379
  - # 13
    frequency:    7.2728537154
  - # 14
    frequency:    7.6407926017
  - # 15
    frequency:    8.8545655841
  - # 16
    frequency:   11.6800229476
  - # 17
    frequency:   14.8190144554
  - # 18
    frequency:   62.3844741292

- q-position: [    0.1313131,    0.0000000,    0.0000000 ]
  distance:    0.0405160
  band:
  - # 1
    frequency:   -2.9597376598
  - # 2
    frequency:   -2.8741721300
  - # 3
    frequency:    0.7149795143
  - # 4
    frequency:    1.2078215840
  - # 5
    frequency:    2.0544890224
  - # 6
    frequency:    2.7033992635
  - # 7
    frequency:    3.2252740677
  - # 8
    frequency:    3.7105648894
  - # 9
    frequency:    3.8159462495
  - # 10
    frequency:    4.4797595251
  - # 11
    frequency:    6.4749013315
  - # 12
    frequency:    6.7207672745
  - # 13
    frequency:    7.2782682307
  - # 14
    frequency:    7.6216164390
  - # 15
    frequency:    8.8450714274
  - # 16
    frequency:   11.8512080224
  - # 17
    frequency:   14.7666864175
  - # 18
    frequency:   62.3827477636

- q-position: [    0.1363636,    0.0000000,    0.0000000 ]
  distance:    0.0420743
  band:
  - # 1
    frequency:   -2.9592356960
  - # 2
    frequency:   -2.8678872361
  - # 3
    frequency:    0.7604301413
  - # 4
    frequency:    1.2498019944
  - # 5
    frequency:    2.1221946272
  - # 6
    frequency:    2.7094783238
  - # 7
    frequency:    3.2601674550
  - # 8
    frequency:    3.7065666686
  - # 9
    frequency:    3.8149381275
  - # 10
    frequency:    4.5035301156
  - # 11
    frequency:    6.4683719686
  - # 12
    frequency:    6.7234738961
  - # 13
    frequency:    7.2813499386
  - # 14
    frequency:    7.6033312972
  - # 15
    frequency:    8.8355570788
  - # 16
    frequency:   12.0212034095
  - # 17
    frequency:   14.7133836909
  - # 18
    frequency:   62.3809831740

- q-position: [    0.1414141,    0.0000000,    0.0000000 ]
  distance:    0.0436326
  band:
  - # 1
    frequency:   -2.9587079877
  - # 2
    frequency:   -2.8614511210
  - # 3
    frequency:    0.8064553331
  - # 4
    frequency:    1.2913145375
  - # 5
    frequency:    2.1883767127
  - # 6
    frequency:    2.7157915231
  - # 7
    frequency:    3.2948962508
  - # 8
    frequency:    3.7033433321
  - # 9
    frequency:    3.8138825540
  - # 10
    frequency:    4.5279318231
  - # 11
    frequency:    6.4616235023
  - # 12
    frequency:    6.7264627777
  - # 13
    frequency:    7.2819590381
  - # 14
    frequency:    7.5862335914
  - # 15
    frequency:    8.8260539502
  - # 16
    frequency:   12.1893417579
  - # 17
    frequency:   14.6592930601
  - # 18
    frequency:   62.3791832788

- q-position: [    0.1464646,    0.0000000,    0.0000000 ]
  distance:    0.0451909
  band:
  - # 1
    frequency:   -2.9581514717
  - # 2
    frequency:   -2.8548662556
  - # 3
    frequency:    0.8529946619
  - # 4
    frequency:    1.3323486893
  - # 5
    frequency:    2.2529622588
  - # 6
    frequency:    2.7223411475
  - # 7
    frequency:    3.3292548621
  - # 8
    frequency:    3.7010662924
  - # 9
    frequency:    3.8127853823
  - # 10
    frequency:    4.5529875255
  - # 11
    frequency:    6.4546635351
  - # 12
    frequency:    6.7297429370
  - # 13
    frequency:    7.2799424073
  - # 14
    frequency:    7.5706271263
  - # 15
    frequency:    8.8165930679
  - # 16
    frequency:   12.3549537176
  - # 17
    frequency:   14.6046428439
  - # 18
    frequency:   62.3773510231

- q-position: [    0.1515152,    0.0000000,    0.0000000 ]
  distance:    0.0467492
  band:
  - # 1
    frequency:   -2.9575628139
  - # 2
    frequency:   -2.8481349738
  - # 3
    frequency:    0.8999904653
  - # 4
    frequency:    1.3728944453
  - # 5
    frequency:    2.3158828620
  - # 6
    frequency:    2.7291298559
  - # 7
    frequency:    3.3629864730
  - # 8
    frequency:    3.6999544281
  - # 9
    frequency:    3.8116538812
  - # 10
    frequency:    4.5787180213
  - # 11
    frequency:    6.4475006970
  - # 12
    frequency:    6.7333219028
  - # 13
    frequency:    7.2751658230
  - # 14
    frequency:    7.5567908149
  - # 15
    frequency:    8.8072049482
  - # 16
    frequency:   12.5173473523
  - # 17
    frequency:   14.5497221487
  - # 18
    frequency:   62.3754893707

- q-position: [    0.1565657,    0.0000000,    0.0000000 ]
  distance:    0.0483075
  band:
  - # 1
    frequency:   -2.9569384332
  - # 2
    frequency:   -2.8412595322
  - # 3
    frequency:    0.9473877114
  - # 4
    frequency:    1.4129422789
  - # 5
    frequency:    2.3770755367
  - # 6
    frequency:    2.7361606944
  - # 7
    frequency:    3.3957663715
  - # 8
    frequency:    3.7002907878
  - # 9
    frequency:    3.8104967931
  - # 10
    frequency:    4.6051408268
  - # 11
    frequency:    6.4401446922
  - # 12
    frequency:    6.7372055947
  - # 13
    frequency:    7.2675553010
  - # 14
    frequency:    7.5449375148
  - # 15
    frequency:    8.7979194777
  - # 16
    frequency:   12.6757755390
  - # 17
    frequency:   14.4949119067
  - # 18
    frequency:   62.3736012970

- q-position: [    0.1616162,    0.0000000,    0.0000000 ]
  distance:    0.0498659
  band:
  - # 1
    frequency:   -2.9562745294
  - # 2
    frequency:   -2.8342421691
  - # 3
    frequency:    0.9951338665
  - # 4
    frequency:    1.4524830958
  - # 5
    frequency:    2.4364833658
  - # 6
    frequency:    2.7434371056
  - # 7
    frequency:    3.4271848117
  - # 8
    frequency:    3.7024400431
  - # 9
    frequency:    3.8093243707
  - # 10
    frequency:    4.6322688989
  - # 11
    frequency:    6.4326063432
  - # 12
    frequency:    6.7413982181
  - # 13
    frequency:    7.2571350016
  - # 14
    frequency:    7.5351764501
  - # 15
    frequency:    8.7887657986
  - # 16
    frequency:   12.8293828098
  - # 17
    frequency:   14.4407363573
  - # 18
    frequency:   62.3716897814

- q-position: [    0.1666667,    0.0000000,    0.0000000 ]
  distance:    0.0514242
  band:
  - # 1
    frequency:   -2.9555671136
  - # 2
    frequency:   -2.8270851617
  - # 3
    frequency:    1.0431787697
  - # 4
    frequency:    1.4915081831
  - # 5
    frequency:    2.4940559560
  - # 6
    frequency:    2.7509629324
  - # 7
    frequency:    3.4567383600
  - # 8
    frequency:    3.7068577677
  - # 9
    frequency:    3.8081483878
  - # 10
    frequency:    4.6601092892
  - # 11
    frequency:    6.4248976363
  - # 12
    frequency:    6.7459021751
  - # 13
    frequency:    7.2440455208
  - # 14
    frequency:    7.5274953388
  - # 15
    frequency:    8.7797722024
  - # 16
    frequency:   12.9771158575
  - # 17
    frequency:   14.3879508267
  - # 18
    frequency:   62.3697578000

- q-position: [    0.1717172,    0.0000000,    0.0000000 ]
  distance:    0.0529825
  band:
  - # 1
    frequency:   -2.9548120419
  - # 2
    frequency:   -2.8197908806
  - # 3
    frequency:    1.0914745123
  - # 4
    frequency:    1.5300091563
  - # 5
    frequency:    2.5497496615
  - # 6
    frequency:    2.7587424145
  - # 7
    frequency:    3.4838501377
  - # 8
    frequency:    3.7140711453
  - # 9
    frequency:    3.8069821248
  - # 10
    frequency:    4.6886617462
  - # 11
    frequency:    6.4170317645
  - # 12
    frequency:    6.7507179939
  - # 13
    frequency:    7.2285335676
  - # 14
    frequency:    7.5217711784
  - # 15
    frequency:    8.7709660293
  - # 16
    frequency:   13.1175688658
  - # 17
    frequency:   14.3376947002
  - # 18
    frequency:   62.3678083184

- q-position: [    0.1767677,    0.0000000,    0.0000000 ]
  distance:    0.0545408
  band:
  - # 1
    frequency:   -2.9540050515
  - # 2
    frequency:   -2.8123618408
  - # 3
    frequency:    1.1399753239
  - # 4
    frequency:    1.5679779046
  - # 5
    frequency:    2.6035275577
  - # 6
    frequency:    2.7667801778
  - # 7
    frequency:    3.5079494745
  - # 8
    frequency:    3.7246005701
  - # 9
    frequency:    3.8058403247
  - # 10
    frequency:    4.7179172966
  - # 11
    frequency:    6.4090231700
  - # 12
    frequency:    6.7558442783
  - # 13
    frequency:    7.2109185088
  - # 14