nqpoint: 300    
npath: 3      
segment_nqpoint:
- 100
- 100
- 100
labels:
- [ 'G', 'M' ]
- [ 'M', 'K' ]
- [ 'K', 'G' ]
reciprocal_lattice:
- [   0.27968395,   0.16147560,  -0.00000000 ] # a*
- [   0.00000000,   0.32295120,  -0.00000000 ] # b*
- [   0.00000000,   0.00000000,   0.03667552 ] # c*
natom: 5      
lattice:
- [     3.575464427319698,     0.000000000000000,     0.000000000000000 ] # a
- [    -1.787732213659848,     3.096443024391211,     0.000000000000000 ] # b
- [     0.000000000000001,     0.000000000000003,    27.266142822409336 ] # c
points:
- symbol: C # 1
  coordinates: [  0.000000000000000,  0.000000000000000,  0.500000026799995 ]
  mass: 12.010700
- symbol: F # 2
  coordinates: [  0.333332985432215,  0.666666983183674,  0.593308608444180 ]
  mass: 18.998403
- symbol: F # 3
  coordinates: [  0.666666984744048,  0.333332985985145,  0.406691391555820 ]
  mass: 18.998403
- symbol: Y # 4
  coordinates: [  0.333332985432215,  0.666666983183674,  0.449693804636432 ]
  mass: 88.905850
- symbol: Y # 5
  coordinates: [  0.666666984744048,  0.333332985985145,  0.550306194963561 ]
  mass: 88.905850

phonon:
- q-position: [    0.0000000,    0.0000000,    0.0000000 ]
  distance:    0.0000000
  band:
  - # 1
    frequency:   -0.0000114290
  - # 2
    frequency:    0.0000001664
  - # 3
    frequency:    0.0000111804
  - # 4
    frequency:    3.6936834617
  - # 5
    frequency:    3.6936834618
  - # 6
    frequency:    6.0729007790
  - # 7
    frequency:    6.4179703073
  - # 8
    frequency:    6.4179703073
  - # 9
    frequency:    6.7342406972
  - # 10
    frequency:    6.7342406972
  - # 11
    frequency:    9.7143533254
  - # 12
    frequency:   10.5401181367
  - # 13
    frequency:   11.0620670437
  - # 14
    frequency:   11.0620670438
  - # 15
    frequency:   17.7434543984

- q-position: [    0.0050505,    0.0000000,    0.0000000 ]
  distance:    0.0016311
  band:
  - # 1
    frequency:    0.0266891075
  - # 2
    frequency:    0.0651184877
  - # 3
    frequency:    0.1050096760
  - # 4
    frequency:    3.6935943623
  - # 5
    frequency:    3.6945597702
  - # 6
    frequency:    6.0727976814
  - # 7
    frequency:    6.4176400400
  - # 8
    frequency:    6.4221112162
  - # 9
    frequency:    6.7341752254
  - # 10
    frequency:    6.7342757458
  - # 11
    frequency:    9.7138979751
  - # 12
    frequency:   10.5375941378
  - # 13
    frequency:   11.0618638713
  - # 14
    frequency:   11.0680483659
  - # 15
    frequency:   17.7423755477

- q-position: [    0.0101010,    0.0000000,    0.0000000 ]
  distance:    0.0032621
  band:
  - # 1
    frequency:    0.0535109926
  - # 2
    frequency:    0.1302029500
  - # 3
    frequency:    0.2100106107
  - # 4
    frequency:    3.6933279039
  - # 5
    frequency:    3.6971867935
  - # 6
    frequency:    6.0724882820
  - # 7
    frequency:    6.4166523770
  - # 8
    frequency:    6.4344215377
  - # 9
    frequency:    6.7339892103
  - # 10
    frequency:    6.7343793279
  - # 11
    frequency:    9.7125329529
  - # 12
    frequency:   10.5302569784
  - # 13
    frequency:   11.0612549267
  - # 14
    frequency:   11.0857746396
  - # 15
    frequency:   17.7391405730

- q-position: [    0.0151515,    0.0000000,    0.0000000 ]
  distance:    0.0048932
  band:
  - # 1
    frequency:    0.0805966445
  - # 2
    frequency:    0.1952193830
  - # 3
    frequency:    0.3149940191
  - # 4
    frequency:    3.6928866037
  - # 5
    frequency:    3.7015587778
  - # 6
    frequency:    6.0719722574
  - # 7
    frequency:    6.4150166506
  - # 8
    frequency:    6.4545642933
  - # 9
    frequency:    6.7337180714
  - # 10
    frequency:    6.7345468277
  - # 11
    frequency:    9.7102613467
  - # 12
    frequency:   10.5187153950
  - # 13
    frequency:   11.0602419286
  - # 14
    frequency:   11.1146870542
  - # 15
    frequency:   17.7337542035

- q-position: [    0.0202020,    0.0000000,    0.0000000 ]
  distance:    0.0065243
  band:
  - # 1
    frequency:    0.1080734981
  - # 2
    frequency:    0.2601338313
  - # 3
    frequency:    0.4199510014
  - # 4
    frequency:    3.6922746500
  - # 5
    frequency:    3.7076659884
  - # 6
    frequency:    6.0712490613
  - # 7
    frequency:    6.4127481420
  - # 8
    frequency:    6.4819752541
  - # 9
    frequency:    6.7334380071
  - # 10
    frequency:    6.7347707959
  - # 11
    frequency:    9.7070883123
  - # 12
    frequency:   10.5037390042
  - # 13
    frequency:   11.0588277414
  - # 14
    frequency:   11.1540942174
  - # 15
    frequency:   17.7262243113

- q-position: [    0.0252525,    0.0000000,    0.0000000 ]
  distance:    0.0081553
  band:
  - # 1
    frequency:    0.1360637199
  - # 2
    frequency:    0.3249124117
  - # 3
    frequency:    0.5248724273
  - # 4
    frequency:    3.6914978918
  - # 5
    frequency:    3.7154945392
  - # 6
    frequency:    6.0703179285
  - # 7
    frequency:    6.4098676945
  - # 8
    frequency:    6.5158432754
  - # 9
    frequency:    6.7333065430
  - # 10
    frequency:    6.7350412908
  - # 11
    frequency:    9.7030210822
  - # 12
    frequency:   10.4860638509
  - # 13
    frequency:   11.0570163746
  - # 14
    frequency:   11.2033592695
  - # 15
    frequency:   17.7165618968

- q-position: [    0.0303030,    0.0000000,    0.0000000 ]
  distance:    0.0097864
  band:
  - # 1
    frequency:    0.1646825894
  - # 2
    frequency:    0.3895213404
  - # 3
    frequency:    0.6297487615
  - # 4
    frequency:    3.6905638235
  - # 5
    frequency:    3.7250262371
  - # 6
    frequency:    6.0691778977
  - # 7
    frequency:    6.4064012188
  - # 8
    frequency:    6.5550292406
  - # 9
    frequency:    6.7336709922
  - # 10
    frequency:    6.7353463132
  - # 11
    frequency:    9.6980689736
  - # 12
    frequency:   10.4662875989
  - # 13
    frequency:   11.0548129828
  - # 14
    frequency:   11.2619947380
  - # 15
    frequency:   17.7047810696

- q-position: [    0.0353535,    0.0000000,    0.0000000 ]
  distance:    0.0114175
  band:
  - # 1
    frequency:    0.1940370272
  - # 2
    frequency:    0.4539269621
  - # 3
    frequency:    0.7345698245
  - # 4
    frequency:    3.6894815664
  - # 5
    frequency:    3.7362384938
  - # 6
    frequency:    6.0678278523
  - # 7
    frequency:    6.4023791217
  - # 8
    frequency:    6.5977680022
  - # 9
    frequency:    6.7353988160
  - # 10
    frequency:    6.7356722972
  - # 11
    frequency:    9.6922433883
  - # 12
    frequency:   10.4448455430
  - # 13
    frequency:   11.0522238638
  - # 14
    frequency:   11.3296743286
  - # 15
    frequency:   17.6908990243

- q-position: [    0.0404040,    0.0000000,    0.0000000 ]
  distance:    0.0130485
  band:
  - # 1
    frequency:    0.2242243295
  - # 2
    frequency:    0.5180957820
  - # 3
    frequency:    0.8393244931
  - # 4
    frequency:    3.6882618452
  - # 5
    frequency:    3.7491043513
  - # 6
    frequency:    6.0662665776
  - # 7
    frequency:    6.3978356996
  - # 8
    frequency:    6.6405619649
  - # 9
    frequency:    6.7360046233
  - # 10
    frequency:    6.7410193887
  - # 11
    frequency:    9.6855578023
  - # 12
    frequency:   10.4220302656
  - # 13
    frequency:   11.0492564564
  - # 14
    frequency:   11.4061993924
  - # 15
    frequency:   17.6749360140

- q-position: [    0.0454545,    0.0000000,    0.0000000 ]
  distance:    0.0146796
  band:
  - # 1
    frequency:    0.2553311614
  - # 2
    frequency:    0.5819945013
  - # 3
    frequency:    0.9440003531
  - # 4
    frequency:    3.6869169602
  - # 5
    frequency:    3.7635926438
  - # 6
    frequency:    6.0644928290
  - # 7
    frequency:    6.3928085257
  - # 8
    frequency:    6.6751840977
  - # 9
    frequency:    6.7363281186
  - # 10
    frequency:    6.7577574228
  - # 11
    frequency:    9.6780277397
  - # 12
    frequency:   10.3980252947
  - # 13
    frequency:   11.0459193368
  - # 14
    frequency:   11.4914504586
  - # 15
    frequency:   17.6569153216

- q-position: [    0.0505051,    0.0000000,    0.0000000 ]
  distance:    0.0163107
  band:
  - # 1
    frequency:    0.2874328500
  - # 2
    frequency:    0.6455900569
  - # 3
    frequency:    1.0485833182
  - # 4
    frequency:    3.6854607555
  - # 5
    frequency:    3.7796683007
  - # 6
    frequency:    6.0625054087
  - # 7
    frequency:    6.3873378626
  - # 8
    frequency:    6.6925514795
  - # 9
    frequency:    6.7366275188
  - # 10
    frequency:    6.7936949974
  - # 11
    frequency:    9.6696707294
  - # 12
    frequency:   10.3729376687
  - # 13
    frequency:   11.0422222123
  - # 14
    frequency:   11.5853398579
  - # 15
    frequency:   17.6368632318

- q-position: [    0.0555556,    0.0000000,    0.0000000 ]
  distance:    0.0179417
  band:
  - # 1
    frequency:    0.3205929950
  - # 2
    frequency:    0.7088496643
  - # 3
    frequency:    1.1530572323
  - # 4
    frequency:    3.6839085824
  - # 5
    frequency:    3.7972927759
  - # 6
    frequency:    6.0603032497
  - # 7
    frequency:    6.3814661154
  - # 8
    frequency:    6.6977503079
  - # 9
    frequency:    6.7368878729
  - # 10
    frequency:    6.8427794354
  - # 11
    frequency:    9.6605062432
  - # 12
    frequency:   10.3468241655
  - # 13
    frequency:   11.0381759133
  - # 14
    frequency:   11.6877717214
  - # 15
    frequency:   17.6148090050

- q-position: [    0.0606061,    0.0000000,    0.0000000 ]
  distance:    0.0195728
  band:
  - # 1
    frequency:    0.3548633948
  - # 2
    frequency:    0.7717408666
  - # 3
    frequency:    1.2574034724
  - # 4
    frequency:    3.6822772584
  - # 5
    frequency:    3.8164245777
  - # 6
    frequency:    6.0578855060
  - # 7
    frequency:    6.3752373408
  - # 8
    frequency:    6.6980400325
  - # 9
    frequency:    6.7370948802
  - # 10
    frequency:    6.8968477757
  - # 11
    frequency:    9.6505556164
  - # 12
    frequency:   10.3197106420
  - # 13
    frequency:   11.0337923816
  - # 14
    frequency:   11.7986109764
  - # 15
    frequency:   17.5907848566

- q-position: [    0.0656566,    0.0000000,    0.0000000 ]
  distance:    0.0212039
  band:
  - # 1
    frequency:    0.3902842624
  - # 2
    frequency:    0.8342315873
  - # 3
    frequency:    1.3616005652
  - # 4
    frequency:    3.6805850211
  - # 5
    frequency:    3.8370198652
  - # 6
    frequency:    6.0552516485
  - # 7
    frequency:    6.3686968138
  - # 8
    frequency:    6.6961741943
  - # 9
    frequency:    6.7372351547
  - # 10
    frequency:    6.9523290279
  - # 11
    frequency:    9.6398419510
  - # 12
    frequency:   10.2916055823
  - # 13
    frequency:   11.0290846562
  - # 14
    frequency:   11.9176611896
  - # 15
    frequency:   17.5648259460

- q-position: [    0.0707071,    0.0000000,    0.0000000 ]
  distance:    0.0228349
  band:
  - # 1
    frequency:    0.4268846909
  - # 2
    frequency:    0.8962901894
  - # 3
    frequency:    1.4656238281
  - # 4
    frequency:    3.6788514776
  - # 5
    frequency:    3.8590330804
  - # 6
    frequency:    6.0524015666
  - # 7
    frequency:    6.3618906541
  - # 8
    frequency:    6.6930968678
  - # 9
    frequency:    6.7372964198
  - # 10
    frequency:    7.0075645191
  - # 11
    frequency:    9.6283900036
  - # 12
    frequency:   10.2625092682
  - # 13
    frequency:   11.0240668532
  - # 14
    frequency:   12.0446505566
  - # 15
    frequency:   17.5369703786

- q-position: [    0.0757576,    0.0000000,    0.0000000 ]
  distance:    0.0244660
  band:
  - # 1
    frequency:    0.4646833156
  - # 2
    frequency:    0.9578855390
  - # 3
    frequency:    1.5694450424
  - # 4
    frequency:    3.6770975478
  - # 5
    frequency:    3.8824175849
  - # 6
    frequency:    6.0493356738
  - # 7
    frequency:    6.3548655047
  - # 8
    frequency:    6.6891825059
  - # 9
    frequency:    6.7372676387
  - # 10
    frequency:    7.0615782533
  - # 11
    frequency:    9.6162260619
  - # 12
    frequency:   10.2324198126
  - # 13
    frequency:   11.0187541427
  - # 14
    frequency:   12.1792251541
  - # 15
    frequency:   17.5072592281

- q-position: [    0.0808081,    0.0000000,    0.0000000 ]
  distance:    0.0260971
  band:
  - # 1
    frequency:    0.5036891186
  - # 2
    frequency:    1.0189870757
  - # 3
    frequency:    1.6730321623
  - # 4
    frequency:    3.6753454023
  - # 5
    frequency:    3.9071262773
  - # 6
    frequency:    6.0460550170
  - # 7
    frequency:    6.3476682574
  - # 8
    frequency:    6.6846009502
  - # 9
    frequency:    6.7371390877
  - # 10
    frequency:    7.1137157481
  - # 11
    frequency:    9.6033778104
  - # 12
    frequency:   10.2013370128
  - # 13
    frequency:   11.0131627193
  - # 14
    frequency:   12.3209484498
  - # 15
    frequency:   17.4757365863

- q-position: [    0.0858586,    0.0000000,    0.0000000 ]
  distance:    0.0277281
  band:
  - # 1
    frequency:    0.5439023220
  - # 2
    frequency:    1.0795648874
  - # 3
    frequency:    1.7763490616
  - # 4
    frequency:    3.6736183946
  - # 5
    frequency:    3.9331121738
  - # 6
    frequency:    6.0425613883
  - # 7
    frequency:    6.3403458174
  - # 8
    frequency:    6.6794371241
  - # 9
    frequency:    6.7369023842
  - # 10
    frequency:    7.1635225117
  - # 11
    frequency:    9.5898741890
  - # 12
    frequency:   10.1692647218
  - # 13
    frequency:   11.0073097673
  - # 14
    frequency:   12.4693059353
  - # 15
    frequency:   17.4424496515

- q-position: [    0.0909091,    0.0000000,    0.0000000 ]
  distance:    0.0293592
  band:
  - # 1
    frequency:    0.5853153209
  - # 2
    frequency:    1.1395897923
  - # 3
    frequency:    1.8793553181
  - # 4
    frequency:    3.6719409858
  - # 5
    frequency:    3.9603289390
  - # 6
    frequency:    6.0388574372
  - # 7
    frequency:    6.3329448966
  - # 8
    frequency:    6.6737366540
  - # 9
    frequency:    6.7365504760
  - # 10
    frequency:    7.2106919344
  - # 11
    frequency:    9.5757452477
  - # 12
    frequency:   10.1362122282
  - # 13
    frequency:   11.0012134198
  - # 14
    frequency:   12.6237136409
  - # 15
    frequency:   17.4074488682

- q-position: [    0.0959596,    0.0000000,    0.0000000 ]
  distance:    0.0309903
  band:
  - # 1
    frequency:    0.6279136166
  - # 2
    frequency:    1.1990334246
  - # 3
    frequency:    1.9820060353
  - # 4
    frequency:    3.6703386626
  - # 5
    frequency:    3.9887313591
  - # 6
    frequency:    6.0349467829
  - # 7
    frequency:    6.3255118300
  - # 8
    frequency:    6.6675256487
  - # 9
    frequency:    6.7360776029
  - # 10
    frequency:    7.2550355745
  - # 11
    frequency:    9.5610219977
  - # 12
    frequency:   10.1021949834
  - # 13
    frequency:   10.9948927109
  - # 14
    frequency:   12.7835292498
  - # 15
    frequency:   17.3707881374

- q-position: [    0.1010101,    0.0000000,    0.0000000 ]
  distance:    0.0326213
  band:
  - # 1
    frequency:    0.6716767184
  - # 2
    frequency:    1.2578683272
  - # 3
    frequency:    2.0842516986
  - # 4
    frequency:    3.6688378474
  - # 5
    frequency:    4.0182757541
  - # 6
    frequency:    6.0308341252
  - # 7
    frequency:    6.3180924075
  - # 8
    frequency:    6.6608202343
  - # 9
    frequency:    6.7354792385
  - # 10
    frequency:    7.2964614852
  - # 11
    frequency:    9.5457362639
  - # 12
    frequency:   10.0672349080
  - # 13
    frequency:   10.9883675211
  - # 14
    frequency:   12.9480645795
  - # 15
    frequency:   17.3325251239

- q-position: [    0.1060606,    0.0000000,    0.0000000 ]
  distance:    0.0342524
  band:
  - # 1
    frequency:    0.7165789915
  - # 2
    frequency:    1.3160680482
  - # 3
    frequency:    2.1860380665
  - # 4
    frequency:    3.6674658004
  - # 5
    frequency:    4.0489203276
  - # 6
    frequency:    6.0265253525
  - # 7
    frequency:    6.3107317150
  - # 8
    frequency:    6.6536315783
  - # 9
    frequency:    6.7347520184
  - # 10
    frequency:    7.3349560009
  - # 11
    frequency:    9.5299205391
  - # 12
    frequency:   10.0313604325
  - # 13
    frequency:   10.9816585164
  - # 14
    frequency:   13.1165983315
  - # 15
    frequency:   17.2927216941

- q-position: [    0.1111111,    0.0000000,    0.0000000 ]
  distance:    0.0358835
  band:
  - # 1
    frequency:    0.7625904347
  - # 2
    frequency:    1.3736072421
  - # 3
    frequency:    2.2873060955
  - # 4
    frequency:    3.6662505118
  - # 5
    frequency:    4.0806254525
  - # 6
    frequency:    6.0220276458
  - # 7
    frequency:    6.3034739814
  - # 8
    frequency:    6.6459687501
  - # 9
    frequency:    6.7338936621
  - # 10
    frequency:    7.3705675977
  - # 11
    frequency:    9.5136078429
  - # 12
    frequency:    9.9946063774
  - # 13
    frequency:   10.9747870792
  - # 14
    frequency:   13.2883882041
  - # 15
    frequency:   17.2514445374

- q-position: [    0.1161616,    0.0000000,    0.0000000 ]
  distance:    0.0375145
  band:
  - # 1
    frequency:    0.8096773819
  - # 2
    frequency:    1.4304617752
  - # 3
    frequency:    2.3879918983
  - # 4
    frequency:    3.6652205848
  - # 5
    frequency:    4.1133538940
  - # 6
    frequency:    6.0173495799
  - # 7
    frequency:    6.2963624277
  - # 8
    frequency:    6.6378404646
  - # 9
    frequency:    6.7329028916
  - # 10
    frequency:    7.4033925091
  - # 11
    frequency:    9.4968315871
  - # 12
    frequency:    9.9570137408
  - # 13
    frequency:   10.9677752330
  - # 14
    frequency:   13.4626816781
  - # 15
    frequency:   17.2087660417

- q-position: [    0.1212121,    0.0000000,    0.0000000 ]
  distance:    0.0391456
  band:
  - # 1
    frequency:    0.8578031217
  - # 2
    frequency:    1.4866088336
  - # 3
    frequency:    2.4880267395
  - # 4
    frequency:    3.6644051090
  - # 5
    frequency:    4.1470709682
  - # 6
    frequency:    6.0125012191
  - # 7
    frequency:    6.2894391152
  - # 8
    frequency:    6.6292562142
  - # 9
    frequency:    6.7317793525
  - # 10
    frequency:    7.4335620824
  - # 11
    frequency:    9.4796254488
  - # 12
    frequency:    9.9186294394
  - # 13
    frequency:   10.9606455598
  - # 14
    frequency:   13.6387249821
  - # 15
    frequency:   17.1647655309

- q-position: [    0.1262626,    0.0000000,    0.0000000 ]
  distance:    0.0407767
  band:
  - # 1
    frequency:    0.9069284387
  - # 2
    frequency:    1.5420270336
  - # 3
    frequency:    2.5873370693
  - # 4
    frequency:    3.6638335216
  - # 5
    frequency:    4.1817446338
  - # 6
    frequency:    6.0074942116
  - # 7
    frequency:    6.2827447930
  - # 8
    frequency:    6.6202270420
  - # 9
    frequency:    6.7305235380
  - # 10
    frequency:    7.4612318938
  - # 11
    frequency:    9.4620232543
  - # 12
    frequency:    9.8795060309
  - # 13
    frequency:   10.9534211112
  - # 14
    frequency:   13.8157698963
  - # 15
    frequency:   17.1195310245

- q-position: [    0.1313131,    0.0000000,    0.0000000 ]
  distance:    0.0424077
  band:
  - # 1
    frequency:    0.9570120772
  - # 2
    frequency:    1.5966965338
  - # 3
    frequency:    2.6858446041
  - # 4
    frequency:    3.6635354584
  - # 5
    frequency:    4.2173455116
  - # 6
    frequency:    6.0023418823
  - # 7
    frequency:    6.2763187432
  - # 8
    frequency:    6.6107660960
  - # 9
    frequency:    6.7291367206
  - # 10
    frequency:    7.4865725830
  - # 11
    frequency:    9.4440588728
  - # 12
    frequency:    9.8397014377
  - # 13
    frequency:   10.9461253133
  - # 14
    frequency:   13.9930781278
  - # 15
    frequency:   17.0731617612

- q-position: [    0.1363636,    0.0000000,    0.0000000 ]
  distance:    0.0440388
  band:
  - # 1
    frequency:    1.0080111357
  - # 2
    frequency:    1.6505991465
  - # 3
    frequency:    2.7834664597
  - # 4
    frequency:    3.6635405932
  - # 5
    frequency:    4.2538468236
  - # 6
    frequency:    5.9970593280
  - # 7
    frequency:    6.2701986247
  - # 8
    frequency:    6.6008890378
  - # 9
    frequency:    6.7276208900
  - # 10
    frequency:    7.5097623043
  - # 11
    frequency:    9.4257661218
  - # 12
    frequency:    9.7992786813
  - # 13
    frequency:   10.9387818657
  - # 14
    frequency:   14.1699229675
  - # 15
    frequency:   17.0257718691

- q-position: [    0.1414141,    0.0000000,    0.0000000 ]
  distance:    0.0456699
  band:
  - # 1
    frequency:    1.0598813973
  - # 2
    frequency:    1.7037184482
  - # 3
    frequency:    2.8801153510
  - # 4
    frequency:    3.6638784645
  - # 5
    frequency:    4.2912242396
  - # 6
    frequency:    5.9916635209
  - # 7
    frequency:    6.2644203156
  - # 8
    frequency:    6.5906143489
  - # 9
    frequency:    6.7259786998
  - # 10
    frequency:    7.5309806364
  - # 11
    frequency:    9.4071786821
  - # 12
    frequency:    9.7583056381
  - # 13
    frequency:   10.9314146357
  - # 14
    frequency:   14.3455877822
  - # 15
    frequency:   16.9774957914

- q-position: [    0.1464646,    0.0000000,    0.0000000 ]
  distance:    0.0473009
  band:
  - # 1
    frequency:    1.1125776034
  - # 2
    frequency:    1.7560398880
  - # 3
    frequency:    2.9756998709
  - # 4
    frequency:    3.6645782919
  - # 5
    frequency:    4.3294556119
  - # 6
    frequency:    5.9861734251
  - # 7
    frequency:    6.2590177564
  - # 8
    frequency:    6.5799635603
  - # 9
    frequency:    6.7242134228
  - # 10
    frequency:    7.5504037703
  - # 11
    frequency:    9.3883300208
  - # 12
    frequency:    9.7168548201
  - # 13
    frequency:   10.9240475491
  - # 14
    frequency:   14.5193605372
  - # 15
    frequency:   16.9284964657

- q-position: [    0.1515152,    0.0000000,    0.0000000 ]
  distance:    0.0489320
  band:
  - # 1
    frequency:    1.1660536787
  - # 2
    frequency:    1.8075508914
  - # 3
    frequency:    3.0701248690
  - # 4
    frequency:    3.6656687801
  - # 5
    frequency:    4.3685205773
  - # 6
    frequency:    5.9806101372
  - # 7
    frequency:    6.2540227947
  - # 8
    frequency:    6.5689614158
  - # 9
    frequency:    6.7223289137
  - # 10
    frequency:    7.5682007815
  - # 11
    frequency:    9.3692533141
  - # 12
    frequency:    9.6750031888
  - # 13
    frequency:   10.9167044767
  - # 14
    frequency:   14.6905228711
  - # 15
    frequency:   16.8789779453

- q-position: [    0.1565657,    0.0000000,    0.0000000 ]
  distance:    0.0505631
  band:
  - # 1
    frequency:    1.2202629139
  - # 2
    frequency:    1.8582409581
  - # 3
    frequency:    3.1632919519
  - # 4
    frequency:    3.6671779124
  - # 5
    frequency:    4.4083999950
  - # 6
    frequency:    5.9749970619
  - # 7
    frequency:    6.2494650346
  - # 8
    frequency:    6.5576359779
  - # 9
    frequency:    6.7203295806
  - # 10
    frequency:    7.5845308052
  - # 11
    frequency:    9.3499813595
  - # 12
    frequency:    9.6328320115
  - # 13
    frequency:   10.9094091190
  - # 14
    frequency:   14.8583309899
  - # 15
    frequency:   16.8292053905

- q-position: [    0.1616162,    0.0000000,    0.0000000 ]
  distance:    0.0521941
  band:
  - # 1
    frequency:    1.2751581136
  - # 2
    frequency:    1.9081017530
  - # 3
    frequency:    3.2551001310
  - # 4
    frequency:    3.6691327343
  - # 5
    frequency:    4.4490751863
  - # 6
    frequency:    5.9693601362
  - # 7
    frequency:    6.2453716909
  - # 8
    frequency:    6.5460186777
  - # 9
    frequency:    6.7182203622
  - # 10
    frequency:    7.5995409473
  - # 11
    frequency:    9.3305464561
  - # 12
    frequency:    9.5904267790
  - # 13
    frequency:   10.9021848905
  - # 14
    frequency:   15.0219833198
  - # 15
    frequency:   16.7795376694

- q-position: [    0.1666667,    0.0000000,    0.0000000 ]
  distance:    0.0538252
  band:
  - # 1
    frequency:    1.3306917156
  - # 2
    frequency:    1.9571271870
  - # 3
    frequency:    3.3454466476
  - # 4
    frequency:    3.6715591282
  - # 5
    frequency:    4.4905269344
  - # 6
    frequency:    5.9637281224
  - # 7
    frequency:    6.2417674525
  - # 8
    frequency:    6.5341443079
  - # 9
    frequency:    6.7160067115
  - # 10
    frequency:    7.6133647887
  - # 11
    frequency:    9.3109802117
  - # 12
    frequency:    9.5478772156
  - # 13
    frequency:   10.8950548030
  - # 14
    frequency:   15.1805654436
  - # 15
    frequency:   16.7304821984

- q-position: [    0.1717172,    0.0000000,    0.0000000 ]
  distance:    0.0554563
  band:
  - # 1
    frequency:    1.3868158860
  - # 2
    frequency:    2.0053134875
  - # 3
    frequency:    3.4342280024
  - # 4
    frequency:    3.6744815810
  - # 5
    frequency:    4.5327341988
  - # 6
    frequency:    5.9581329891
  - # 7
    frequency:    6.2386743558
  - # 8
    frequency:    6.5220509570
  - # 9
    frequency:    6.7136945837
  - # 10
    frequency:    7.6261213652
  - # 11
    frequency:    9.2913132072
  - # 12
    frequency:    9.5052774475
  - # 13
    frequency:   10.8880413512
  - # 14
    frequency:   15.3329543907
  - # 15
    frequency:   16.6827900824

- q-position: [    0.1767677,    0.0000000,    0.0000000 ]
  distance:    0.0570873
  band:
  - # 1
    frequency:    1.4434825979
  - # 2
    frequency:    2.0526592542
  - # 3
    frequency:    3.5213412159
  - # 4
    frequency:    3.6779229468
  - # 5
    frequency:    4.5756724999
  - # 6
    frequency:    5.9526104093
  - # 7
    frequency:    6.2361116705
  - # 8
    frequency:    6.5097798828
  - # 9
    frequency:    6.7112904279
  - # 10
    frequency:    7.6379145280
  - # 11
    frequency:    9.2715743800
  - # 12
    frequency:    9.4627264548
  - # 13
    frequency:   10.8811663995
  - # 14
    frequency:   15.4776485941
  - # 15
    frequency:   16.6376253450

- q-position: [    0.1818182,    0.0000000,    0.0000000 ]
  distance:    0.0587184
  band:
  - # 1
    frequency:    1.5006436961
  - # 2
    frequency:    2.0991655017
  - # 3
    frequency:    3.6066853345
  - # 4
    frequency:    3.6819042060
  - # 5
    frequency:    4.6193119303
  - # 6
    frequency:    5.9472004049
  - # 7
    frequency:    6.2340958011
  - # 8
    frequency:    6.4973753207
  - # 9
    frequency:    6.7088011801
  - # 10
    frequency:    7.6488326136
  - # 11
    frequency:    9.2517898534
  - # 12
    frequency:    9.4203290659
  - # 13
    frequency:   10.8744510741
  - # 14
    frequency:   15.6124643246
  - # 15
    frequency:   16.5968675227

- q-position: [    0.1868687,    0.0000000,    0.0000000 ]
  distance:    0.0603495
  band:
  - # 1
    frequency:    1.5582509522
  - # 2
    frequency:    2.1448356829
  - # 3
    frequency:    3.6864442251
  - # 4
    frequency:    3.6901631834
  - # 5
    frequency:    4.6636147621
  - # 6
    frequency:    5.9419481754
  - # 7
    frequency:    6.2326402045
  - # 8
    frequency:    6.4848842253
  - # 9
    frequency:    6.7062342564
  - # 10
    frequency:    7.6589483741
  - # 11
    frequency:    9.2319806355
  - # 12
    frequency:    9.3781980553
  - # 13
    frequency:   10.8679156585
  - # 14
    frequency:   15.7340214408
  - # 15
    frequency:   16.5636248496

- q-position: [    0.1919192,    0.0000000,    0.0000000 ]
  distance:    0.0619805
  band:
  - # 1
    frequency:    1.6162561143
  - # 2
    frequency:    2.1896756952
  - # 3
    frequency:    3.6915595189
  - # 4
    frequency:    3.7716833390
  - # 5
    frequency:    4.7085326366
  - # 6
    frequency:    5.9369051510
  - # 7
    frequency:    6.2317553269
  - # 8
    frequency:    6.4723559434
  - # 9
    frequency:    6.7035975462
  - # 10
    frequency:    7.6683191328
  - # 11
    frequency:    9.2121578812
  - # 12
    frequency:    9.3364586293
  - # 13
    frequency:   10.8615794961
  - # 14
    frequency:   15.8370602079
  - # 15
    frequency:   16.5429163271

- q-position: [    0.1969697,    0.0000000,    0.0000000 ]
  distance:    0.0636116
  band:
  - # 1
    frequency:    1.6746109548
  - # 2
    frequency:    2.2336938651
  - # 3
    frequency:    3.6972640185
  - # 4
    frequency:    3.8511622641
  - # 5
    frequency:    4.7540033506
  - # 6
    frequency:    5.9321303204
  - # 7
    frequency:    6.2314485604
  - # 8
    frequency:    6.4598418184
  - # 9
    frequency:    6.7008994023
  - # 10
    frequency:    7.6769871512
  - # 11
    frequency:    9.1923124802
  - # 12
    frequency:    9.2952585123
  - # 13
    frequency:   10.8554608989
  - # 14
    frequency:   15.9143424061
  - # 15
    frequency:   16.5417694952

- q-position: [    0.2020202,    0.0000000,    0.0000000 ]
  distance:    0.0652427
  band:
  - # 1
    frequency:    1.7332673166
  - # 2
    frequency:    2.2769009106
  - # 3
    frequency:    3.7035688501
  - # 4
    frequency:    3.9285265049
  - # 5
    frequency:    4.7999472891
  - # 6
    frequency:    5.9276918795
  - # 7
    frequency:    6.2317242220
  - # 8
    frequency:    6.4473947282
  - # 9
    frequency:    6.6981486272
  - # 10
    frequency:    7.6849802023
  - # 11
    frequency:    9.1723901137
  - # 12
    frequency:    9.2547924626
  - # 13
    frequency:   10.8495770652
  - # 14
    frequency:   15.9592897208
  - # 15
    frequency:   16.5665809367

- q-position: [    0.2070707,    0.0000000,    0.0000000 ]
  distance:    0.0668737
  band:
  - # 1
    frequency:    1.7921771622
  - # 2
    frequency:    2.3193098811
  - # 3
    frequency:    3.7104821261
  - # 4
    frequency:    4.0037148084
  - # 5
    frequency:    4.8462635944
  - # 6
    frequency:    5.9236692544
  - # 7
    frequency:    6.2325835545
  - # 8
    frequency:    6.4350685612
  - # 9
    frequency:    6.6953544551
  - # 10
    frequency:    7.6923123599
  - # 11
    frequency:    9.1522246945
  - # 12
    frequency:    9.2153682678
  - # 13
    frequency:   10.8439440051
  - # 14
    frequency:   15.9714313017
  - # 15
    frequency:   16.6176676478

- q-position: [    0.2121212,    0.0000000,    0.0000000 ]
  distance:    0.0685048
  band:
  - # 1
    frequency:    1.8512926271
  - # 2