nqpoint: 300    
npath: 3      
segment_nqpoint:
- 100
- 100
- 100
labels:
- [ 'G', 'M' ]
- [ 'M', 'K' ]
- [ 'K', 'G' ]
reciprocal_lattice:
- [   0.29391364,   0.16969112,   0.00000000 ] # a*
- [   0.00000000,   0.33938224,   0.00000000 ] # b*
- [   0.00000000,   0.00000000,   0.03874380 ] # c*
natom: 6      
lattice:
- [     3.402359902893906,     0.000000000000000,     0.000000000000000 ] # a
- [    -1.701179951446953,     2.946530108708037,     0.000000000000000 ] # b
- [     0.000000000000000,     0.000000000000000,    25.810580908839750 ] # c
points:
- symbol: Br # 1
  coordinates: [  0.666666984744047,  0.333332985985145,  0.348694205364345 ]
  mass: 79.904000
- symbol: N # 2
  coordinates: [  0.000000000000000,  0.000000000000000,  0.470313760332066 ]
  mass: 14.006700
- symbol: O # 3
  coordinates: [  0.333332985432215,  0.666666983183674,  0.651305794635655 ]
  mass: 15.999400
- symbol: P # 4
  coordinates: [  0.333332985432215,  0.666666983183674,  0.593348512678807 ]
  mass: 30.973762
- symbol: Zr # 5
  coordinates: [  0.333332985432215,  0.666666983183674,  0.425227075940078 ]
  mass: 91.224000
- symbol: Zr # 6
  coordinates: [  0.666666984744047,  0.333332985985145,  0.518170289281496 ]
  mass: 91.224000

phonon:
- q-position: [    0.0000000,    0.0000000,    0.0000000 ]
  distance:    0.0000000
  band:
  - # 1
    frequency:   -1.7537381801
  - # 2
    frequency:   -1.7537381801
  - # 3
    frequency:   -0.0000188214
  - # 4
    frequency:   -0.0000001074
  - # 5
    frequency:    0.0000165561
  - # 6
    frequency:    2.7373542171
  - # 7
    frequency:    2.7373542171
  - # 8
    frequency:    4.1776781586
  - # 9
    frequency:    4.3316235447
  - # 10
    frequency:    4.3316235447
  - # 11
    frequency:    4.9325778976
  - # 12
    frequency:    4.9325778977
  - # 13
    frequency:    7.2165629142
  - # 14
    frequency:    9.0533875169
  - # 15
    frequency:   11.2762015730
  - # 16
    frequency:   14.7987687653
  - # 17
    frequency:   14.7987687654
  - # 18
    frequency:   33.8091802670

- q-position: [    0.0050505,    0.0000000,    0.0000000 ]
  distance:    0.0017141
  band:
  - # 1
    frequency:   -1.7535494790
  - # 2
    frequency:   -1.7531298820
  - # 3
    frequency:    0.0013981697
  - # 4
    frequency:    0.0387907370
  - # 5
    frequency:    0.0986381857
  - # 6
    frequency:    2.7376438123
  - # 7
    frequency:    2.7386675605
  - # 8
    frequency:    4.1725830604
  - # 9
    frequency:    4.3315061467
  - # 10
    frequency:    4.3369431288
  - # 11
    frequency:    4.9324242536
  - # 12
    frequency:    4.9325545724
  - # 13
    frequency:    7.2163007458
  - # 14
    frequency:    9.0528708067
  - # 15
    frequency:   11.2763576788
  - # 16
    frequency:   14.7987841315
  - # 17
    frequency:   14.7988236091
  - # 18
    frequency:   33.8090274795

- q-position: [    0.0101010,    0.0000000,    0.0000000 ]
  distance:    0.0034281
  band:
  - # 1
    frequency:   -1.7529893708
  - # 2
    frequency:   -1.7513034940
  - # 3
    frequency:    0.0055834476
  - # 4
    frequency:    0.0776740427
  - # 5
    frequency:    0.1972400073
  - # 6
    frequency:    2.7385120191
  - # 7
    frequency:    2.7425965333
  - # 8
    frequency:    4.1590193008
  - # 9
    frequency:    4.3311551245
  - # 10
    frequency:    4.3511718168
  - # 11
    frequency:    4.9319640586
  - # 12
    frequency:    4.9324965389
  - # 13
    frequency:    7.2155146457
  - # 14
    frequency:    9.0513197022
  - # 15
    frequency:   11.2768272153
  - # 16
    frequency:   14.7988302891
  - # 17
    frequency:   14.7989871593
  - # 18
    frequency:   33.8085693594

- q-position: [    0.0151515,    0.0000000,    0.0000000 ]
  distance:    0.0051422
  band:
  - # 1
    frequency:   -1.7520757988
  - # 2
    frequency:   -1.7482541027
  - # 3
    frequency:    0.0125320974
  - # 4
    frequency:    0.1167414123
  - # 5
    frequency:    0.2957664955
  - # 6
    frequency:    2.7399570995
  - # 7
    frequency:    2.7491082267
  - # 8
    frequency:    4.1401875546
  - # 9
    frequency:    4.3305739828
  - # 10
    frequency:    4.3710829344
  - # 11
    frequency:    4.9311995264
  - # 12
    frequency:    4.9324400319
  - # 13
    frequency:    7.2142058368
  - # 14
    frequency:    9.0487313224
  - # 15
    frequency:   11.2776138107
  - # 16
    frequency:   14.7989074159
  - # 17
    frequency:   14.7992564754
  - # 18
    frequency:   33.8078066337

- q-position: [    0.0202020,    0.0000000,    0.0000000 ]
  distance:    0.0068562
  band:
  - # 1
    frequency:   -1.7508385260
  - # 2
    frequency:   -1.7439721449
  - # 3
    frequency:    0.0222048774
  - # 4
    frequency:    0.1560821575
  - # 5
    frequency:    0.3941738079
  - # 6
    frequency:    2.7419761537
  - # 7
    frequency:    2.7581486512
  - # 8
    frequency:    4.1185243042
  - # 9
    frequency:    4.3297685262
  - # 10
    frequency:    4.3941952977
  - # 11
    frequency:    4.9301343555
  - # 12
    frequency:    4.9324468045
  - # 13
    frequency:    7.2123763811
  - # 14
    frequency:    9.0451010019
  - # 15
    frequency:   11.2787234128
  - # 16
    frequency:   14.7990158075
  - # 17
    frequency:   14.7996266674
  - # 18
    frequency:   33.8067405121

- q-position: [    0.0252525,    0.0000000,    0.0000000 ]
  distance:    0.0085703
  band:
  - # 1
    frequency:   -1.7493189029
  - # 2
    frequency:   -1.7384415655
  - # 3
    frequency:    0.0345487336
  - # 4
    frequency:    0.1957822679
  - # 5
    frequency:    0.4924115458
  - # 6
    frequency:    2.7445651150
  - # 7
    frequency:    2.7696439539
  - # 8
    frequency:    4.0954546600
  - # 9
    frequency:    4.3287468056
  - # 10
    frequency:    4.4190183535
  - # 11
    frequency:    4.9287737413
  - # 12
    frequency:    4.9326061615
  - # 13
    frequency:    7.2100292152
  - # 14
    frequency:    9.0404224906
  - # 15
    frequency:   11.2801641435
  - # 16
    frequency:   14.7991558767
  - # 17
    frequency:   14.8000909111
  - # 18
    frequency:   33.8053726840

- q-position: [    0.0303030,    0.0000000,    0.0000000 ]
  distance:    0.0102843
  band:
  - # 1
    frequency:   -1.7475695096
  - # 2
    frequency:   -1.7316376275
  - # 3
    frequency:    0.0494985260
  - # 4
    frequency:    0.2359232142
  - # 5
    frequency:    0.5904218289
  - # 6
    frequency:    2.7477187433
  - # 7
    frequency:    2.7835019896
  - # 8
    frequency:    4.0717794592
  - # 9
    frequency:    4.3275190430
  - # 10
    frequency:    4.4446623085
  - # 11
    frequency:    4.9271243929
  - # 12
    frequency:    4.9330377348
  - # 13
    frequency:    7.2071681979
  - # 14
    frequency:    9.0346882268
  - # 15
    frequency:   11.2819461003
  - # 16
    frequency:   14.7993281519
  - # 17
    frequency:   14.8006404704
  - # 18
    frequency:   33.8037053145

- q-position: [    0.0353535,    0.0000000,    0.0000000 ]
  distance:    0.0119984
  band:
  - # 1
    frequency:   -1.7456536416
  - # 2
    frequency:   -1.7235246566
  - # 3
    frequency:    0.0669790434
  - # 4
    frequency:    0.2765806974
  - # 5
    frequency:    0.6881391564
  - # 6
    frequency:    2.7514306184
  - # 7
    frequency:    2.7996141317
  - # 8
    frequency:    4.0479694896
  - # 9
    frequency:    4.3260975373
  - # 10
    frequency:    4.4705406205
  - # 11
    frequency:    4.9251945529
  - # 12
    frequency:    4.9338947939
  - # 13
    frequency:    7.2037981698
  - # 14
    frequency:    9.0278896735
  - # 15
    frequency:   11.2840811113
  - # 16
    frequency:   14.7995332766
  - # 17
    frequency:   14.8012647262
  - # 18
    frequency:   33.8017410389

- q-position: [    0.0404040,    0.0000000,    0.0000000 ]
  distance:    0.0137124
  band:
  - # 1
    frequency:   -1.7436446058
  - # 2
    frequency:   -1.7140539692
  - # 3
    frequency:    0.0869071871
  - # 4
    frequency:    0.3178233544
  - # 5
    frequency:    0.7854909747
  - # 6
    frequency:    2.7556931326
  - # 7
    frequency:    2.8178571970
  - # 8
    frequency:    4.0243226089
  - # 9
    frequency:    4.3244965525
  - # 10
    frequency:    4.4962096019
  - # 11
    frequency:    4.9229940188
  - # 12
    frequency:    4.9353675851
  - # 13
    frequency:    7.1999250236
  - # 14
    frequency:    9.0200177120
  - # 15
    frequency:   11.2865824492
  - # 16
    frequency:   14.7997720069
  - # 17
    frequency:   14.8019512110
  - # 18
    frequency:   33.7994829567

- q-position: [    0.0454545,    0.0000000,    0.0000000 ]
  distance:    0.0154265
  band:
  - # 1
    frequency:   -1.7416247936
  - # 2
    frequency:   -1.7031621583
  - # 3
    frequency:    0.1091942065
  - # 4
    frequency:    0.3597114465
  - # 5
    frequency:    0.8823987851
  - # 6
    frequency:    2.7604974840
  - # 7
    frequency:    2.8380953578
  - # 8
    frequency:    4.0010432609
  - # 9
    frequency:    4.3227321874
  - # 10
    frequency:    4.5212866917
  - # 11
    frequency:    4.9205341655
  - # 12
    frequency:    4.9376856619
  - # 13
    frequency:    7.1955557819
  - # 14
    frequency:    9.0110630785
  - # 15
    frequency:   11.2894645131
  - # 16
    frequency:   14.8000452100
  - # 17
    frequency:   14.8026856506
  - # 18
    frequency:   33.7969346238

- q-position: [    0.0505051,    0.0000000,    0.0000000 ]
  distance:    0.0171405
  band:
  - # 1
    frequency:   -1.7396845050
  - # 2
    frequency:   -1.6907698120
  - # 3
    frequency:    0.1337478830
  - # 4
    frequency:    0.4022955750
  - # 5
    frequency:    0.9787795814
  - # 6
    frequency:    2.7658336717
  - # 7
    frequency:    2.8601819260
  - # 8
    frequency:    3.9782837614
  - # 9
    frequency:    4.3208222317
  - # 10
    frequency:    4.5454098956
  - # 11
    frequency:    4.9178279667
  - # 12
    frequency:    4.9411173597
  - # 13
    frequency:    7.1906986824
  - # 14
    frequency:    9.0010168344
  - # 15
    frequency:   11.2927424866
  - # 16
    frequency:   14.8003538619
  - # 17
    frequency:   14.8034520127
  - # 18
    frequency:   33.7941000438

- q-position: [    0.0555556,    0.0000000,    0.0000000 ]
  distance:    0.0188546
  band:
  - # 1
    frequency:   -1.7379205068
  - # 2
    frequency:   -1.6767806535
  - # 3
    frequency:    0.1604745793
  - # 4
    frequency:    0.4456154800
  - # 5
    frequency:    1.0745474117
  - # 6
    frequency:    2.7716904935
  - # 7
    frequency:    2.8839609051
  - # 8
    frequency:    3.9561668842
  - # 9
    frequency:    4.3187860077
  - # 10
    frequency:    4.5682217124
  - # 11
    frequency:    4.9148900138
  - # 12
    frequency:    4.9459635947
  - # 13
    frequency:    7.1853632680
  - # 14
    frequency:    8.9898708563
  - # 15
    frequency:   11.2964319817
  - # 16
    frequency:   14.8006990455
  - # 17
    frequency:   14.8042325613
  - # 18
    frequency:   33.7909836586

- q-position: [    0.0606061,    0.0000000,    0.0000000 ]
  distance:    0.0205686
  band:
  - # 1
    frequency:   -1.7364343288
  - # 2
    frequency:   -1.6610810072
  - # 3
    frequency:    0.1892810921
  - # 4
    frequency:    0.4896989938
  - # 5
    frequency:    1.1696148829
  - # 6
    frequency:    2.7780555471
  - # 7
    frequency:    2.9092682252
  - # 8
    frequency:    3.9347990519
  - # 9
    frequency:    4.3166442011
  - # 10
    frequency:    4.5893717180
  - # 11
    frequency:    4.9117365308
  - # 12
    frequency:    4.9525425453
  - # 13
    frequency:    7.1795604801
  - # 14
    frequency:    8.9776183321
  - # 15
    frequency:   11.3005486776
  - # 16
    frequency:   14.8010819476
  - # 17
    frequency:   14.8050079187
  - # 18
    frequency:   33.7875903378

- q-position: [    0.0656566,    0.0000000,    0.0000000 ]
  distance:    0.0222827
  band:
  - # 1
    frequency:   -1.7353303205
  - # 2
    frequency:   -1.6435394496
  - # 3
    frequency:    0.2200762742
  - # 4
    frequency:    0.5345612242
  - # 5
    frequency:    1.2638944770
  - # 6
    frequency:    2.7849152367
  - # 7
    frequency:    2.9359325948
  - # 8
    frequency:    3.9142786608
  - # 9
    frequency:    4.3144186824
  - # 10
    frequency:    4.6085359168
  - # 11
    frequency:    4.9083853831
  - # 12
    frequency:    4.9611626189
  - # 13
    frequency:    7.1733027525
  - # 14
    frequency:    8.9642542511
  - # 15
    frequency:   11.3051079651
  - # 16
    frequency:   14.8015038570
  - # 17
    frequency:   14.8057571342
  - # 18
    frequency:   33.7839253663

- q-position: [    0.0707071,    0.0000000,    0.0000000 ]
  distance:    0.0239967
  band:
  - # 1
    frequency:   -1.7347135192
  - # 2
    frequency:   -1.6240064686
  - # 3
    frequency:    0.2527724114
  - # 4
    frequency:    0.5802040415
  - # 5
    frequency:    1.3572995958
  - # 6
    frequency:    2.7922547847
  - # 7
    frequency:    2.9637759182
  - # 8
    frequency:    3.8947018405
  - # 9
    frequency:    4.3121323201
  - # 10
    frequency:    4.6254495917
  - # 11
    frequency:    4.9048560786
  - # 12
    frequency:    4.9720847136
  - # 13
    frequency:    7.1666041059
  - # 14
    frequency:    8.9497758742
  - # 15
    frequency:   11.3101246045
  - # 16
    frequency:   14.8019661616
  - # 17
    frequency:   14.8064577591
  - # 18
    frequency:   33.7799944326

- q-position: [    0.0757576,    0.0000000,    0.0000000 ]
  distance:    0.0257108
  band:
  - # 1
    frequency:   -1.7346874041
  - # 2
    frequency:   -1.6023139419
  - # 3
    frequency:    0.2872863610
  - # 4
    frequency:    0.6266159325
  - # 5
    frequency:    1.4497452938
  - # 6
    frequency:    2.8000582515
  - # 7
    frequency:    2.9926132453
  - # 8
    frequency:    3.8761668767
  - # 9
    frequency:    4.3098087895
  - # 10
    frequency:    4.6399451282
  - # 11
    frequency:    4.9011697598
  - # 12
    frequency:    4.9854811201
  - # 13
    frequency:    7.1594802399
  - # 14
    frequency:    8.9341831730
  - # 15
    frequency:   11.3156124066
  - # 16
    frequency:   14.8024703453
  - # 17
    frequency:   14.8070859296
  - # 18
    frequency:   33.7758036144

- q-position: [    0.0808081,    0.0000000,    0.0000000 ]
  distance:    0.0274248
  band:
  - # 1
    frequency:   -1.7353516311
  - # 2
    frequency:   -1.5782742337
  - # 3
    frequency:    0.3235404736
  - # 4
    frequency:    0.6737722631
  - # 5
    frequency:    1.5411486904
  - # 6
    frequency:    2.8083085629
  - # 7
    frequency:    3.0222522398
  - # 8
    frequency:    3.8587779794
  - # 9
    frequency:    4.3074723775
  - # 10
    frequency:    4.6519810887
  - # 11
    frequency:    4.8973491842
  - # 12
    frequency:    5.0014041447
  - # 13
    frequency:    7.1519486207
  - # 14
    frequency:    8.9174792271
  - # 15
    frequency:   11.3215839429
  - # 16
    frequency:   14.8030179862
  - # 17
    frequency:   14.8076164551
  - # 18
    frequency:   33.7713593646

- q-position: [    0.0858586,    0.0000000,    0.0000000 ]
  distance:    0.0291389
  band:
  - # 1
    frequency:   -1.7367998585
  - # 2
    frequency:   -1.5516786915
  - # 3
    frequency:    0.3614633333
  - # 4
    frequency:    0.7216359616
  - # 5
    frequency:    1.6314290698
  - # 6
    frequency:    2.8169875467
  - # 7
    frequency:    3.0524921803
  - # 8
    frequency:    3.8426487868
  - # 9
    frequency:    4.3051477858
  - # 10
    frequency:    4.6616495849
  - # 11
    frequency:    4.8934186931
  - # 12
    frequency:    5.0197770412
  - # 13
    frequency:    7.1440285647
  - # 14
    frequency:    8.8996705707
  - # 15
    frequency:   11.3280502929
  - # 16
    frequency:   14.8036107527
  - # 17
    frequency:   14.8080229154
  - # 18
    frequency:   33.7666684959

- q-position: [    0.0909091,    0.0000000,    0.0000000 ]
  distance:    0.0308529
  band:
  - # 1
    frequency:   -1.7391177727
  - # 2
    frequency:   -1.5222952939
  - # 3
    frequency:    0.4009903586
  - # 4
    frequency:    0.7701586042
  - # 5
    frequency:    1.7205076849
  - # 6
    frequency:    2.8260759797
  - # 7
    frequency:    3.0831225558
  - # 8
    frequency:    3.8279057998
  - # 9
    frequency:    4.3028599350
  - # 10
    frequency:    4.6691579915
  - # 11
    frequency:    4.8894041652
  - # 12
    frequency:    5.0404109992
  - # 13
    frequency:    7.1357413150
  - # 14
    frequency:    8.8807674800
  - # 15
    frequency:   11.3350208308
  - # 16
    frequency:   14.8042504017
  - # 17
    frequency:   14.8082777624
  - # 18
    frequency:   33.7617381645

- q-position: [    0.0959596,    0.0000000,    0.0000000 ]
  distance:    0.0325670
  band:
  - # 1
    frequency:   -1.7423814166
  - # 2
    frequency:   -1.4898651299
  - # 3
    frequency:    0.4420643117
  - # 4
    frequency:    0.8192818459
  - # 5
    frequency:    1.8083072805
  - # 6
    frequency:    2.8355536459
  - # 7
    frequency:    3.1139214057
  - # 8
    frequency:    3.8146917800
  - # 9
    frequency:    4.3006337703
  - # 10
    frequency:    4.6747927170
  - # 11
    frequency:    4.8853329559
  - # 12
    frequency:    5.0630403431
  - # 13
    frequency:    7.1271101090
  - # 14
    frequency:    8.8607841992
  - # 15
    frequency:   11.3425030571
  - # 16
    frequency:   14.8049387746
  - # 17
    frequency:   14.8083524309
  - # 18
    frequency:   33.7565758537

- q-position: [    0.1010101,    0.0000000,    0.0000000 ]
  distance:    0.0342810
  band:
  - # 1
    frequency:   -1.7466558974
  - # 2
    frequency:   -1.4540972800
  - # 3
    frequency:    0.4846357702
  - # 4
    frequency:    0.8689391176
  - # 5
    frequency:    1.8947513396
  - # 6
    frequency:    2.8453994057
  - # 7
    frequency:    3.1446537060
  - # 8
    frequency:    3.8031689502
  - # 9
    frequency:    4.2984940713
  - # 10
    frequency:    4.6788786580
  - # 11
    frequency:    4.8812338202
  - # 12
    frequency:    5.0873622389
  - # 13
    frequency:    7.1181602377
  - # 14
    frequency:    8.8397390980
  - # 15
    frequency:   11.3505024738
  - # 16
    frequency:   14.8056777953
  - # 17
    frequency:   14.8082174537
  - # 18
    frequency:   33.7511893559

- q-position: [    0.1060606,    0.0000000,    0.0000000 ]
  distance:    0.0359951
  band:
  - # 1
    frequency:   -1.7519945247
  - # 2
    frequency:   -1.4146614682
  - # 3
    frequency:    0.5286636125
  - # 4
    frequency:    0.9190574859
  - # 5
    frequency:    1.9797630492
  - # 6
    frequency:    2.8555912780
  - # 7
    frequency:    3.1750703529
  - # 8
    frequency:    3.7935215591
  - # 9
    frequency:    4.2964652669
  - # 10
    frequency:    4.6817455222
  - # 11
    frequency:    4.8771368176
  - # 12
    frequency:    5.1130696719
  - # 13
    frequency:    7.1089190919
  - # 14
    frequency:    8.8176547634
  - # 15
    frequency:   11.3590225052
  - # 16
    frequency:   14.8064694662
  - # 17
    frequency:   14.8078425848
  - # 18
    frequency:   33.7455867549

- q-position: [    0.1111111,    0.0000000,    0.0000000 ]
  distance:    0.0377091
  band:
  - # 1
    frequency:   -1.7584383913
  - # 2
    frequency:   -1.3711775204
  - # 3
    frequency:    0.5741155728
  - # 4
    frequency:    0.9695595682
  - # 5
    frequency:    2.0632639625
  - # 6
    frequency:    2.8661065342
  - # 7
    frequency:    3.2049086761
  - # 8
    frequency:    3.7859569876
  - # 9
    frequency:    4.2945712564
  - # 10
    frequency:    4.6837057117
  - # 11
    frequency:    4.8730732003
  - # 12
    frequency:    5.1398729698
  - # 13
    frequency:    7.0994161966
  - # 14
    frequency:    8.7945580242
  - # 15
    frequency:   11.3680644604
  - # 16
    frequency:   14.8071969283
  - # 17
    frequency:   14.8073158652
  - # 18
    frequency:   33.7397764069

- q-position: [    0.1161616,    0.0000000,    0.0000000 ]
  distance:    0.0394232
  band:
  - # 1
    frequency:   -1.7660163796
  - # 2
    frequency:   -1.3232000883
  - # 3
    frequency:    0.6209689156
  - # 4
    frequency:    1.0203653984
  - # 5
    frequency:    2.1451723199
  - # 6
    frequency:    2.8769218052
  - # 7
    frequency:    3.2338959123
  - # 8
    frequency:    3.7807040681
  - # 9
    frequency:    4.2928352389
  - # 10
    frequency:    4.6850430587
  - # 11
    frequency:    4.8690752825
  - # 12
    frequency:    5.1675105573
  - # 13
    frequency:    7.0896832286
  - # 14
    frequency:    8.7704799115
  - # 15
    frequency:   11.3776275363
  - # 16
    frequency:   14.8062490727
  - # 17
    frequency:   14.8082191422
  - # 18
    frequency:   33.7337669218

- q-position: [    0.1212121,    0.0000000,    0.0000000 ]
  distance:    0.0411372
  band:
  - # 1
    frequency:   -1.7747455444
  - # 2
    frequency:   -1.2701960706
  - # 3
    frequency:    0.6692112769
  - # 4
    frequency:    1.0713941545
  - # 5
    frequency:    2.2254009716
  - # 6
    frequency:    2.8880132003
  - # 7
    frequency:    3.2617575756
  - # 8
    frequency:    3.7780067900
  - # 9
    frequency:    4.2912795512
  - # 10
    frequency:    4.6860093028
  - # 11
    frequency:    4.8651762917
  - # 12
    frequency:    5.1957520354
  - # 13
    frequency:    7.0797540166
  - # 14
    frequency:    8.7454555601
  - # 15
    frequency:   11.3877088553
  - # 16
    frequency:   14.8049672316
  - # 17
    frequency:   14.8091815153
  - # 18
    frequency:   33.7275671427

- q-position: [    0.1262626,    0.0000000,    0.0000000 ]
  distance:    0.0428513
  band:
  - # 1
    frequency:   -1.7846318058
  - # 2
    frequency:   -1.2115102541
  - # 3
    frequency:    0.7188417038
  - # 4
    frequency:    1.1225656800
  - # 5
    frequency:    2.3038548273
  - # 6
    frequency:    2.8993564382
  - # 7
    frequency:    3.2882328526
  - # 8
    frequency:    3.7781113774
  - # 9
    frequency:    4.2899255152
  - # 10
    frequency:    4.6868250751
  - # 11
    frequency:    4.8614102024
  - # 12
    frequency:    5.2243968058
  - # 13
    frequency:    7.0696645203
  - # 14
    frequency:    8.7195240545
  - # 15
    frequency:   11.3983035334
  - # 16
    frequency:   14.8033193896
  - # 17
    frequency:   14.8102052659
  - # 18
    frequency:   33.7211861268

- q-position: [    0.1313131,    0.0000000,    0.0000000 ]
  distance:    0.0445653
  band:
  - # 1
    frequency:   -1.7956708749
  - # 2
    frequency:   -1.1463109493
  - # 3
    frequency:    0.7698718983
  - # 4
    frequency:    1.1738017566
  - # 5
    frequency:    2.3804277424
  - # 6
    frequency:    2.9109269897
  - # 7
    frequency:    3.3130984546
  - # 8
    frequency:    3.7812454315
  - # 9
    frequency:    4.2887932959
  - # 10
    frequency:    4.6876829870
  - # 11
    frequency:    4.8578115515
  - # 12
    frequency:    5.2532706347
  - # 13
    frequency:    7.0594527855
  - # 14
    frequency:    8.6927282280
  - # 15
    frequency:   11.4094047730
  - # 16
    frequency:   14.8012734524
  - # 17
    frequency:   14.8112927350
  - # 18
    frequency:   33.7146331245

- q-position: [    0.1363636,    0.0000000,    0.0000000 ]
  distance:    0.0462794
  band:
  - # 1
    frequency:   -1.8078493312
  - # 2
    frequency:   -1.0734995027
  - # 3
    frequency:    0.8223276230
  - # 4
    frequency:    1.2250271110
  - # 5
    frequency:    2.4549987481
  - # 6
    frequency:    2.9227002296
  - # 7
    frequency:    3.3362001483
  - # 8
    frequency:    3.7875900345
  - # 9
    frequency:    4.2879017708
  - # 10
    frequency:    4.6887513465
  - # 11
    frequency:    4.8544152380
  - # 12
    frequency:    5.2822216191
  - # 13
    frequency:    7.0491588703
  - # 14
    frequency:    8.6651144191
  - # 15
    frequency:   11.4210039751
  - # 16
    frequency:   14.7987974026
  - # 17
    frequency:   14.8124463170
  - # 18
    frequency:   33.7079175590

- q-position: [    0.1414141,    0.0000000,    0.0000000 ]
  distance:    0.0479934
  band:
  - # 1
    frequency:   -1.8211457790
  - # 2
    frequency:   -0.9915495061
  - # 3
    frequency:    0.8762501328
  - # 4
    frequency:    1.2761701563
  - # 5
    frequency:    2.5274275490
  - # 6
    frequency:    2.9346515982
  - # 7
    frequency:    3.3574874701
  - # 8
    frequency:    3.7972494068
  - # 9
    frequency:    4.2872684107
  - # 10
    frequency:    4.6901777253
  - # 11
    frequency:    4.8512563071
  - # 12
    frequency:    5.3111163280
  - # 13
    frequency:    7.0388247400
  - # 14
    frequency:    8.6367321943
  - # 15
    frequency:   11.4330908641
  - # 16
    frequency:   14.7958594587
  - # 17
    frequency:   14.8136684542
  - # 18
    frequency:   33.7010490056

- q-position: [    0.1464646,    0.0000000,    0.0000000 ]
  distance:    0.0497075
  band:
  - # 1
    frequency:   -1.8355320202
  - # 2
    frequency:   -0.8981953015
  - # 3
    frequency:    0.9316973458
  - # 4
    frequency:    1.3271634891
  - # 5
    frequency:    2.5975492932
  - # 6
    frequency:    2.9467567697
  - # 7
    frequency:    3.3770433823
  - # 8
    frequency:    3.8102263762
  - # 9
    frequency:    4.2869091728
  - # 10
    frequency:    4.6920920340
  - # 11
    frequency:    4.8483697203
  - # 12
    frequency:    5.3398364503
  - # 13
    frequency:    7.0284941240
  - # 14
    frequency:    8.6076340435
  - # 15
    frequency:   11.4456536209
  - # 16
    frequency:   14.7924282376
  - # 17
    frequency:   14.8149616302
  - # 18
    frequency:   33.6940371706

- q-position: [    0.1515152,    0.0000000,    0.0000000 ]
  distance:    0.0514216
  band:
  - # 1
    frequency:   -1.8509741913
  - # 2
    frequency:   -0.7897520621
  - # 3
    frequency:    0.9887442241
  - # 4
    frequency:    1.3779441700
  - # 5
    frequency:    2.6651687941
  - # 6
    frequency:    2.9589918257
  - # 7
    frequency:    3.3950996756
  - # 8
    frequency:    3.8264126856
  - # 9
    frequency:    4.2868384074
  - # 10
    frequency:    4.6946090021
  - # 11
    frequency:    4.8457901139
  - # 12
    frequency:    5.3682760493
  - # 13
    frequency:    7.0182123319
  - # 14
    frequency:    8.5778750549
  - # 15
    frequency:   11.4586790184
  - # 16
    frequency:   14.7884729204
  - # 17
    frequency:   14.8163283623
  - # 18
    frequency:   33.6868918705

- q-position: [    0.1565657,    0.0000000,    0.0000000 ]
  distance:    0.0531356
  band:
  - # 1
    frequency:   -1.8674338308
  - # 2
    frequency:   -0.6593417552
  - # 3
    frequency:    1.0474814855
  - # 4
    frequency:    1.4284538241
  - # 5
    frequency:    2.7300547694
  - # 6
    frequency:    2.9713334316
  - # 7
    frequency:    3.4120326621
  - # 8
    frequency:    3.8455990458
  - # 9
    frequency:    4.2870687773
  - # 10
    frequency:    4.6978300745
  - # 11
    frequency:    4.8435515475
  - # 12
    frequency:    5.3963394045
  - # 13
    frequency:    7.0080260218
  - # 14
    frequency:    8.5475125754
  - # 15
    frequency:   11.4721525552
  - # 16
    frequency:   14.7839634209
  - # 17
    frequency:   14.8177711928
  - # 18
    frequency:   33.6796230109

- q-position: [    0.1616162,    0.0000000,    0.0000000 ]
  distance:    0.0548497
  band:
  - # 1
    frequency:   -1.8848688505
  - # 2
    frequency:   -0.4905869104
  - # 3
    frequency:    1.1080113504
  - # 4
    frequency:    1.4786385961
  - # 5
    frequency:    2.7919353523
  - # 6
    frequency:    2.9837590129
  - # 7
    frequency:    3.4283404285
  - # 8
    frequency:    3.8675024132
  - # 9
    frequency:    4.2876111920
  - # 10
    frequency:    4.7018447895
  - # 11
    frequency:    4.8416872455
  - # 12
    frequency:    5.4239393772
  - # 13
    frequency:    6.9979829167
  - # 14
    frequency:    8.5166058639
  - # 15
    frequency:   11.4860585836
  - # 16
    frequency:   14.7788705548
  - # 17
    frequency:   14.8192926799
  - # 18
    frequency:   33.6722405661

- q-position: [    0.1666667,    0.0000000,    0.0000000 ]
  distance:    0.0565637
  band:
  - # 1
    frequency:   -1.9032344008
  - # 2
    frequency:   -0.2062334491
  - # 3
    frequency:    1.1704386821
  - # 4
    frequency:    1.5284489977
  - # 5
    frequency:    2.8504972728
  - # 6
    frequency:    2.9962469296
  - # 7
    frequency:    3.4446078816
  - # 8
    frequency:    3.8918018677
  - # 9
    frequency:    4.2884747561
  - # 10
    frequency:    4.7067317148
  - # 11
    frequency:    4.8402293341
  - # 12
    frequency:    5.4509962236
  - # 13
    frequency:    6.9881314646
  - # 14
    frequency:    8.4852157405
  - # 15
    frequency:   11.5003804291
  - # 16
    frequency:   14.7731662115
  - # 17
    frequency:   14.8208953866
  - # 18
    frequency:   33.6647545578

- q-position: [    0.1717172,    0.0000000,    0.0000000 ]
  distance:    0.0582778
  band:
  - # 1
    frequency:   -1.9224836231
  - # 2
    frequency:    0.3982415601
  - # 3
    frequency:    1.2348559766
  - # 4
    frequency:    1.5778396759
  - # 5
    frequency:    2.9053926405
  - # 6
    frequency:    3.0087766439
  - # 7
    frequency:    3.4614655131
  - # 8
    frequency:    3.9181732290
  - # 9
    frequency:    4.2896667345
  - # 10
    frequency:    4.7125590219
  - # 11
    frequency:    4.8392085765
  - # 12
    frequency:    5.4774367801
  - # 13
    frequency:    6.9785204380
  - # 14
    frequency:    8.4534042384
  - # 15
    frequency:   11.5151004982
  - # 16
    frequency:   14.7668235249
  - # 17
    frequency:   14.8225818691
  - # 18
    frequency:   33.6571750348

- q-position: [    0.1767677,    0.0000000,    0.0000000 ]
  distance:    0.0599918
  band:
  - # 1
    frequency:   -1.9425682932
  - # 2
    frequency:    0.6012973757
  - # 3
    frequency:    1.3013217583
  - # 4
    frequency:    1.6267691308
  - # 5
    frequency:    2.9562586359
  - # 6
    frequency:    3.0213288793
  - # 7
    frequency:    3.4795432533
  - # 8
    frequency:    3.9463157272
  - # 9
    frequency:    4.2911925325
  - # 10
    frequency:    4.7193847762
  - # 11
    frequency:    4.8386541097
  - # 12
    frequency:    5.5031939596
  - # 13
    frequency:    6.9691984713
  - # 14