nqpoint: 300    
npath: 3      
segment_nqpoint:
- 100
- 100
- 100
labels:
- [ 'G', 'M' ]
- [ 'M', 'K' ]
- [ 'K', 'G' ]
reciprocal_lattice:
- [   0.29943403,   0.17287832,   0.00000000 ] # a*
- [   0.00000000,   0.34575664,   0.00000000 ] # b*
- [   0.00000000,   0.00000000,   0.03883608 ] # c*
natom: 7      
lattice:
- [     3.339633742413284,     0.000000000000000,     0.000000000000000 ] # a
- [    -1.669816871206642,     2.892207660265584,     0.000000000000000 ] # b
- [     0.000000000000000,     0.000000000000000,    25.749253255130245 ] # c
points:
- symbol: C # 1
  coordinates: [  0.333332985432215,  0.666666983183674,  0.603599987015496 ]
  mass: 12.010700
- symbol: N # 2
  coordinates: [  0.000000000000000,  0.000000000000000,  0.497837640948245 ]
  mass: 14.006700
- symbol: N # 3
  coordinates: [  0.333332985432215,  0.666666983183674,  0.650475300746562 ]
  mass: 14.006700
- symbol: N # 4
  coordinates: [  0.666666984744047,  0.333332985985145,  0.400644874241879 ]
  mass: 14.006700
- symbol: O # 5
  coordinates: [  0.666666984744047,  0.333332985985145,  0.349524699253438 ]
  mass: 15.999400
- symbol: Zr # 6
  coordinates: [  0.333332985432215,  0.666666983183674,  0.447961289108380 ]
  mass: 91.224000
- symbol: Zr # 7
  coordinates: [  0.666666984744047,  0.333332985985145,  0.545662564150420 ]
  mass: 91.224000

phonon:
- q-position: [    0.0000000,    0.0000000,    0.0000000 ]
  distance:    0.0000000
  band:
  - # 1
    frequency:   -3.4458366549
  - # 2
    frequency:   -3.4458366549
  - # 3
    frequency:   -0.0000007348
  - # 4
    frequency:   -0.0000003935
  - # 5
    frequency:    0.0000006051
  - # 6
    frequency:    0.7333730259
  - # 7
    frequency:    0.7333730259
  - # 8
    frequency:    3.8690481853
  - # 9
    frequency:    3.8690481853
  - # 10
    frequency:    5.4102292763
  - # 11
    frequency:    6.6900848362
  - # 12
    frequency:    6.6900848362
  - # 13
    frequency:    7.3075364480
  - # 14
    frequency:    7.3075364480
  - # 15
    frequency:    8.3772646202
  - # 16
    frequency:    8.8009406572
  - # 17
    frequency:   13.9450941483
  - # 18
    frequency:   14.1082087921
  - # 19
    frequency:   14.1082087921
  - # 20
    frequency:   39.5824530817
  - # 21
    frequency:   59.9924916523

- q-position: [    0.0050505,    0.0000000,    0.0000000 ]
  distance:    0.0017462
  band:
  - # 1
    frequency:   -3.4454205574
  - # 2
    frequency:   -3.4451795091
  - # 3
    frequency:    0.0015074458
  - # 4
    frequency:    0.0619772040
  - # 5
    frequency:    0.1047117215
  - # 6
    frequency:    0.7331629588
  - # 7
    frequency:    0.7355647531
  - # 8
    frequency:    3.8695457538
  - # 9
    frequency:    3.8700582263
  - # 10
    frequency:    5.4098165744
  - # 11
    frequency:    6.6890518122
  - # 12
    frequency:    6.6893941329
  - # 13
    frequency:    7.3084190641
  - # 14
    frequency:    7.3093144812
  - # 15
    frequency:    8.3765922616
  - # 16
    frequency:    8.8008330985
  - # 17
    frequency:   13.9445662902
  - # 18
    frequency:   14.1078619134
  - # 19
    frequency:   14.1083701282
  - # 20
    frequency:   39.5818156339
  - # 21
    frequency:   59.9924486950

- q-position: [    0.0101010,    0.0000000,    0.0000000 ]
  distance:    0.0034925
  band:
  - # 1
    frequency:   -3.4441780756
  - # 2
    frequency:   -3.4432092274
  - # 3
    frequency:    0.0060177251
  - # 4
    frequency:    0.1238845927
  - # 5
    frequency:    0.2092116792
  - # 6
    frequency:    0.7325564450
  - # 7
    frequency:    0.7421677288
  - # 8
    frequency:    3.8710352932
  - # 9
    frequency:    3.8730822622
  - # 10
    frequency:    5.4085824080
  - # 11
    frequency:    6.6859755346
  - # 12
    frequency:    6.6873550284
  - # 13
    frequency:    7.3110450488
  - # 14
    frequency:    7.3146089869
  - # 15
    frequency:    8.3745784462
  - # 16
    frequency:    8.8005105776
  - # 17
    frequency:   13.9429912198
  - # 18
    frequency:   14.1068233069
  - # 19
    frequency:   14.1088455905
  - # 20
    frequency:   39.5799042197
  - # 21
    frequency:   59.9923198517

- q-position: [    0.0151515,    0.0000000,    0.0000000 ]
  distance:    0.0052387
  band:
  - # 1
    frequency:   -3.4421265600
  - # 2
    frequency:   -3.4399292255
  - # 3
    frequency:    0.0134916876
  - # 4
    frequency:    0.1856241488
  - # 5
    frequency:    0.3132040649
  - # 6
    frequency:    0.7316313835
  - # 7
    frequency:    0.7532973790
  - # 8
    frequency:    3.8735073337
  - # 9
    frequency:    3.8781021650
  - # 10
    frequency:    5.4065385585
  - # 11
    frequency:    6.6809223838
  - # 12
    frequency:    6.6840621599
  - # 13
    frequency:    7.3153508084
  - # 14
    frequency:    7.3233055939
  - # 15
    frequency:    8.3712329531
  - # 16
    frequency:    8.7999735640
  - # 17
    frequency:   13.9403934264
  - # 18
    frequency:   14.1050990581
  - # 19
    frequency:   14.1096105756
  - # 20
    frequency:   39.5767216251
  - # 21
    frequency:   59.9921052089

- q-position: [    0.0202020,    0.0000000,    0.0000000 ]
  distance:    0.0069850
  band:
  - # 1
    frequency:   -3.4392946551
  - # 2
    frequency:   -3.4353450267
  - # 3
    frequency:    0.0238676031
  - # 4
    frequency:    0.2470322838
  - # 5
    frequency:    0.4161666436
  - # 6
    frequency:    0.7305434407
  - # 7
    frequency:    0.7692782484
  - # 8
    frequency:    3.8769461848
  - # 9
    frequency:    3.8850881570
  - # 10
    frequency:    5.4037045353
  - # 11
    frequency:    6.6739967377
  - # 12
    frequency:    6.6796598284
  - # 13
    frequency:    7.3212365861
  - # 14
    frequency:    7.3352272176
  - # 15
    frequency:    8.3665720748
  - # 16
    frequency:    8.7992228546
  - # 17
    frequency:   13.9368105910
  - # 18
    frequency:   14.1026992987
  - # 19
    frequency:   14.1106272513
  - # 20
    frequency:   39.5722724867
  - # 21
    frequency:   59.9918049106

- q-position: [    0.0252525,    0.0000000,    0.0000000 ]
  distance:    0.0087312
  band:
  - # 1
    frequency:   -3.4357218874
  - # 2
    frequency:   -3.4294640129
  - # 3
    frequency:    0.0370643174
  - # 4
    frequency:    0.3078190702
  - # 5
    frequency:    0.5170260602
  - # 6
    frequency:    0.7295773591
  - # 7
    frequency:    0.7909638725
  - # 8
    frequency:    3.8813300724
  - # 9
    frequency:    3.8939994438
  - # 10
    frequency:    5.4001073769
  - # 11
    frequency:    6.6653329174
  - # 12
    frequency:    6.6743254348
  - # 13
    frequency:    7.3285744826
  - # 14
    frequency:    7.3501507948
  - # 15
    frequency:    8.3606186094
  - # 16
    frequency:    8.7982595947
  - # 17
    frequency:   13.9322897236
  - # 18
    frequency:   14.0996381903
  - # 19
    frequency:   14.1118484771
  - # 20
    frequency:   39.5665632816
  - # 21
    frequency:   59.9914191584

- q-position: [    0.0303030,    0.0000000,    0.0000000 ]
  distance:    0.0104775
  band:
  - # 1
    frequency:   -3.4314580841
  - # 2
    frequency:   -3.4222950847
  - # 3
    frequency:    0.0529850551
  - # 4
    frequency:    0.3674565266
  - # 5
    frequency:    0.6133333556
  - # 6
    frequency:    0.7292518262
  - # 7
    frequency:    0.8205645008
  - # 8
    frequency:    3.8866313280
  - # 9
    frequency:    3.9047850584
  - # 10
    frequency:    5.3957813554
  - # 11
    frequency:    6.6550860939
  - # 12
    frequency:    6.6682518770
  - # 13
    frequency:    7.3372175031
  - # 14
    frequency:    7.3678251412
  - # 15
    frequency:    8.3534018531
  - # 16
    frequency:    8.7970853081
  - # 17
    frequency:   13.9268830664
  - # 18
    frequency:   14.0959338990
  - # 19
    frequency:   14.1132219808
  - # 20
    frequency:   39.5596023139
  - # 21
    frequency:   59.9909482117

- q-position: [    0.0353535,    0.0000000,    0.0000000 ]
  distance:    0.0122237
  band:
  - # 1
    frequency:   -3.4265626208
  - # 2
    frequency:   -3.4138482417
  - # 3
    frequency:    0.0715208937
  - # 4
    frequency:    0.4249612003
  - # 5
    frequency:    0.6995685161
  - # 6
    frequency:    0.7305316781
  - # 7
    frequency:    0.8633491148
  - # 8
    frequency:    3.8928166254
  - # 9
    frequency:    3.9173848812
  - # 10
    frequency:    5.3907675734
  - # 11
    frequency:    6.6434234813
  - # 12
    frequency:    6.6616318380
  - # 13
    frequency:    7.3470083045
  - # 14
    frequency:    7.3879870156
  - # 15
    frequency:    8.3449575962
  - # 16
    frequency:    8.7957019340
  - # 17
    frequency:   13.9206444453
  - # 18
    frequency:   14.0916085608
  - # 19
    frequency:   14.1146941064
  - # 20
    frequency:   39.5513996965
  - # 21
    frequency:   59.9903923876

- q-position: [    0.0404040,    0.0000000,    0.0000000 ]
  distance:    0.0139700
  band:
  - # 1
    frequency:   -3.4211034965
  - # 2
    frequency:   -3.4041340948
  - # 3
    frequency:    0.0925536088
  - # 4
    frequency:    0.4784859105
  - # 5
    frequency:    0.7352319830
  - # 6
    frequency:    0.7678184295
  - # 7
    frequency:    0.9269745675
  - # 8
    frequency:    3.8998472622
  - # 9
    frequency:    3.9317307927
  - # 10
    frequency:    5.3851134422
  - # 11
    frequency:    6.6305167576
  - # 12
    frequency:    6.6546456469
  - # 13
    frequency:    7.3577867056
  - # 14
    frequency:    7.4103737154
  - # 15
    frequency:    8.3353281286
  - # 16
    frequency:    8.7941118730
  - # 17
    frequency:   13.9136264599
  - # 18
    frequency:   14.0866882348
  - # 19
    frequency:   14.1162127423
  - # 20
    frequency:   39.5419673297
  - # 21
    frequency:   59.9897520610

- q-position: [    0.0454545,    0.0000000,    0.0000000 ]
  distance:    0.0157162
  band:
  - # 1
    frequency:   -3.4151562419
  - # 2
    frequency:   -3.3931633276
  - # 3
    frequency:    0.1159578535
  - # 4
    frequency:    0.5247608722
  - # 5
    frequency:    0.7465734225
  - # 6
    frequency:    0.8180390114
  - # 7
    frequency:    1.0112295845
  - # 8
    frequency:    3.9076794820
  - # 9
    frequency:    3.9477479157
  - # 10
    frequency:    5.3788720385
  - # 11
    frequency:    6.6165361796
  - # 12
    frequency:    6.6474531734
  - # 13
    frequency:    7.3693954917
  - # 14
    frequency:    7.4347317450
  - # 15
    frequency:    8.3245622614
  - # 16
    frequency:    8.7923180395
  - # 17
    frequency:   13.9058786089
  - # 18
    frequency:   14.0812028429
  - # 19
    frequency:   14.1177293304
  - # 20
    frequency:   39.5313188754
  - # 21
    frequency:   59.9890276650

- q-position: [    0.0505051,    0.0000000,    0.0000000 ]
  distance:    0.0174625
  band:
  - # 1
    frequency:   -3.4088026662
  - # 2
    frequency:   -3.3809461242
  - # 3
    frequency:    0.1416027990
  - # 4
    frequency:    0.5593127018
  - # 5
    frequency:    0.7689602076
  - # 6
    frequency:    0.8587064883
  - # 7
    frequency:    1.1073880166
  - # 8
    frequency:    3.9162648314
  - # 9
    frequency:    3.9653559047
  - # 10
    frequency:    5.3721013432
  - # 11
    frequency:    6.6016464603
  - # 12
    frequency:    6.6401893797
  - # 13
    frequency:    7.3816844484
  - # 14
    frequency:    7.4608219219
  - # 15
    frequency:    8.3127153784
  - # 16
    frequency:    8.7903239222
  - # 17
    frequency:   13.8974462527
  - # 18
    frequency:   14.0751860922
  - # 19
    frequency:   14.1192000520
  - # 20
    frequency:   39.5194697280
  - # 21
    frequency:   59.9882196906

- q-position: [    0.0555556,    0.0000000,    0.0000000 ]
  distance:    0.0192087
  band:
  - # 1
    frequency:   -3.4021294625
  - # 2
    frequency:   -3.3674915861
  - # 3
    frequency:    0.1693534175
  - # 4
    frequency:    0.5793420906
  - # 5
    frequency:    0.8050995399
  - # 6
    frequency:    0.8959171169
  - # 7
    frequency:    1.2091119877
  - # 8
    frequency:    3.9255505493
  - # 9
    frequency:    3.9844702408
  - # 10
    frequency:    5.3648633730
  - # 11
    frequency:    6.5860042111
  - # 12
    frequency:    6.6329627613
  - # 13
    frequency:    7.3945128232
  - # 14
    frequency:    7.4884216646
  - # 15
    frequency:    8.2998495320
  - # 16
    frequency:    8.7881336517
  - # 17
    frequency:   13.8883702253
  - # 18
    frequency:   14.0686753792
  - # 19
    frequency:   14.1205863756
  - # 20
    frequency:   39.5064369816
  - # 21
    frequency:   59.9873286871

- q-position: [    0.0606061,    0.0000000,    0.0000000 ]
  distance:    0.0209549
  band:
  - # 1
    frequency:   -3.3952266926
  - # 2
    frequency:   -3.3528071599
  - # 3
    frequency:    0.1990715689
  - # 4
    frequency:    0.5865382004
  - # 5
    frequency:    0.8531843571
  - # 6
    frequency:    0.9322642088
  - # 7
    frequency:    1.3135762722
  - # 8
    frequency:    3.9354799821
  - # 9
    frequency:    4.0050035008
  - # 10
    frequency:    5.3572232277
  - # 11
    frequency:    6.5697566277
  - # 12
    frequency:    6.6258558417
  - # 13
    frequency:    7.4077505352
  - # 14
    frequency:    7.5173252562
  - # 15
    frequency:    8.2860336145
  - # 16
    frequency:    8.7857520753
  - # 17
    frequency:   13.8786868926
  - # 18
    frequency:   14.0617116705
  - # 19
    frequency:   14.1218551675
  - # 20
    frequency:   39.4922393932
  - # 21
    frequency:   59.9863552622

- q-position: [    0.0656566,    0.0000000,    0.0000000 ]
  distance:    0.0227012
  band:
  - # 1
    frequency:   -3.3881861856
  - # 2
    frequency:   -3.3368980998
  - # 3
    frequency:    0.2306170051
  - # 4
    frequency:    0.5847547511
  - # 5
    frequency:    0.9092141528
  - # 6
    frequency:    0.9687650936
  - # 7
    frequency:    1.4195415881
  - # 8
    frequency:    3.9459930226
  - # 9
    frequency:    4.0268665702
  - # 10
    frequency:    5.3492480796
  - # 11
    frequency:    6.5530410802
  - # 12
    frequency:    6.6189269926
  - # 13
    frequency:    7.4212784757
  - # 14
    frequency:    7.5473427445
  - # 15
    frequency:    8.2713436437
  - # 16
    frequency:    8.7831848391
  - # 17
    frequency:   13.8684284862
  - # 18
    frequency:   14.0543393597
  - # 19
    frequency:   14.1229785317
  - # 20
    frequency:   39.4768973428
  - # 21
    frequency:   59.9853000821

- q-position: [    0.0707071,    0.0000000,    0.0000000 ]
  distance:    0.0244474
  band:
  - # 1
    frequency:   -3.3810998914
  - # 2
    frequency:   -3.3197669877
  - # 3
    frequency:    0.2638483518
  - # 4
    frequency:    0.5769822401
  - # 5
    frequency:    0.9700190987
  - # 6
    frequency:    1.0058179265
  - # 7
    frequency:    1.5263972263
  - # 8
    frequency:    3.9570265679
  - # 9
    frequency:    4.0499697812
  - # 10
    frequency:    5.3410061419
  - # 11
    frequency:    6.5359853018
  - # 12
    frequency:    6.6122130194
  - # 13
    frequency:    7.4349882049
  - # 14
    frequency:    7.5782979415
  - # 15
    frequency:    8.2558632340
  - # 16
    frequency:    8.7804384788
  - # 17
    frequency:   13.8576235842
  - # 18
    frequency:   14.0466060952
  - # 19
    frequency:   14.1239335074
  - # 20
    frequency:   39.4604327900
  - # 21
    frequency:   59.9841638721

- q-position: [    0.0757576,    0.0000000,    0.0000000 ]
  distance:    0.0261937
  band:
  - # 1
    frequency:   -3.3740582362
  - # 2
    frequency:   -3.3014133327
  - # 3
    frequency:    0.2986240862
  - # 4
    frequency:    0.5648961159
  - # 5
    frequency:    1.0337071577
  - # 6
    frequency:    1.0435655510
  - # 7
    frequency:    1.6337960850
  - # 8
    frequency:    3.9685149944
  - # 9
    frequency:    4.0742239609
  - # 10
    frequency:    5.3325656501
  - # 11
    frequency:    6.5187079348
  - # 12
    frequency:    6.6057321175
  - # 13
    frequency:    7.4487812857
  - # 14
    frequency:    7.6100257722
  - # 15
    frequency:    8.2396843658
  - # 16
    frequency:    8.7775205179
  - # 17
    frequency:   13.8462976517
  - # 18
    frequency:   14.0385625784
  - # 19
    frequency:   14.1247017052
  - # 20
    frequency:   39.4428692271
  - # 21
    frequency:   59.9829474164

- q-position: [    0.0808081,    0.0000000,    0.0000000 ]
  distance:    0.0279399
  band:
  - # 1
    frequency:   -3.3671485320
  - # 2
    frequency:   -3.2818332668
  - # 3
    frequency:    0.3348035092
  - # 4
    frequency:    0.5493188285
  - # 5
    frequency:    1.0820388427
  - # 6
    frequency:    1.0991954953
  - # 7
    frequency:    1.7415099061
  - # 8
    frequency:    3.9803906475
  - # 9
    frequency:    4.0995413830
  - # 10
    frequency:    5.3239938970
  - # 11
    frequency:    6.5013192553
  - # 12
    frequency:    6.5994869361
  - # 13
    frequency:    7.4625684339
  - # 14
    frequency:    7.6423690070
  - # 15
    frequency:    8.2229086474
  - # 16
    frequency:    8.7744395761
  - # 17
    frequency:   13.8344735875
  - # 18
    frequency:   14.0302623283
  - # 19
    frequency:   14.1252689352
  - # 20
    frequency:   39.4242316296
  - # 21
    frequency:   59.9816515583

- q-position: [    0.0858586,    0.0000000,    0.0000000 ]
  distance:    0.0296862
  band:
  - # 1
    frequency:   -3.3604534946
  - # 2
    frequency:   -3.2610193514
  - # 3
    frequency:    0.3722476914
  - # 4
    frequency:    0.5305905729
  - # 5
    frequency:    1.1212178750
  - # 6
    frequency:    1.1658301158
  - # 7
    frequency:    1.8493665260
  - # 8
    frequency:    3.9925843455
  - # 9
    frequency:    4.1258366200
  - # 10
    frequency:    5.3153563557
  - # 11
    frequency:    6.4839219537
  - # 12
    frequency:    6.5934675848
  - # 13
    frequency:    7.4762686091
  - # 14
    frequency:    7.6751741708
  - # 15
    frequency:    8.2056494117
  - # 16
    frequency:    8.7712054878
  - # 17
    frequency:   13.8221722473
  - # 18
    frequency:   14.0217614107
  - # 19
    frequency:   14.1256248529
  - # 20
    frequency:   39.4045464029
  - # 21
    frequency:   59.9802772011

- q-position: [    0.0909091,    0.0000000,    0.0000000 ]
  distance:    0.0314324
  band:
  - # 1
    frequency:   -3.3540499192
  - # 2
    frequency:   -3.2389605035
  - # 3
    frequency:    0.4108203737
  - # 4
    frequency:    0.5087604860
  - # 5
    frequency:    1.1610599217
  - # 6
    frequency:    1.2331798005
  - # 7
    frequency:    1.9572202311
  - # 8
    frequency:    4.0050258970
  - # 9
    frequency:    4.1530272997
  - # 10
    frequency:    5.3067159228
  - # 11
    frequency:    6.4666118900
  - # 12
    frequency:    6.5876544877
  - # 13
    frequency:    7.4898081224
  - # 14
    frequency:    7.7082860692
  - # 15
    frequency:    8.1880352713
  - # 16
    frequency:    8.7678294343
  - # 17
    frequency:   13.8094129279
  - # 18
    frequency:   14.0131181315
  - # 19
    frequency:   14.1257626358
  - # 20
    frequency:   39.3838413270
  - # 21
    frequency:   59.9788253079

- q-position: [    0.0959596,    0.0000000,    0.0000000 ]
  distance:    0.0331787
  band:
  - # 1
    frequency:   -3.3480075591
  - # 2
    frequency:   -3.2156420430
  - # 3
    frequency:    0.4503888016
  - # 4
    frequency:    0.4836663326
  - # 5
    frequency:    1.2015128974
  - # 6
    frequency:    1.3009324022
  - # 7
    frequency:    2.0649366732
  - # 8
    frequency:    4.0176446318
  - # 9
    frequency:    4.1810347704
  - # 10
    frequency:    5.2981323113
  - # 11
    frequency:    6.4494787758
  - # 12
    frequency:    6.5820210350
  - # 13
    frequency:    7.5031198122
  - # 14
    frequency:    7.7415397706
  - # 15
    frequency:    8.1702163230
  - # 16
    frequency:    8.7643240896
  - # 17
    frequency:   13.7962138085
  - # 18
    frequency:   14.0043926920
  - # 19
    frequency:   14.1256786919
  - # 20
    frequency:   39.3621454977
  - # 21
    frequency:   59.9772969020

- q-position: [    0.1010101,    0.0000000,    0.0000000 ]
  distance:    0.0349249
  band:
  - # 1
    frequency:   -3.3423882408
  - # 2
    frequency:   -3.1910458593
  - # 3
    frequency:    0.4549461831
  - # 4
    frequency:    0.4908244778
  - # 5
    frequency:    1.2425219168
  - # 6
    frequency:    1.3688424177
  - # 7
    frequency:    2.1723846907
  - # 8
    frequency:    4.0303699485
  - # 9
    frequency:    4.2097846827
  - # 10
    frequency:    5.2896616146
  - # 11
    frequency:    6.4326067562
  - # 12
    frequency:    6.5765360102
  - # 13
    frequency:    7.5161423113
  - # 14
    frequency:    7.7747476708
  - # 15
    frequency:    8.1523753740
  - # 16
    frequency:    8.7607037847
  - # 17
    frequency:   13.7825923489
  - # 18
    frequency:   13.9956468061
  - # 19
    frequency:   14.1253723978
  - # 20
    frequency:   39.3394892660
  - # 21
    frequency:   59.9756930673

- q-position: [    0.1060606,    0.0000000,    0.0000000 ]
  distance:    0.0366712
  band:
  - # 1
    frequency:   -3.3372452382
  - # 2
    frequency:   -3.1651506884
  - # 3
    frequency:    0.4219920565
  - # 4
    frequency:    0.5320038181
  - # 5
    frequency:    1.2840324034
  - # 6
    frequency:    1.4367039383
  - # 7
    frequency:    2.2794316127
  - # 8
    frequency:    4.0431318776
  - # 9
    frequency:    4.2392074960
  - # 10
    frequency:    5.2813560606
  - # 11
    frequency:    6.4160748784
  - # 12
    frequency:    6.5711657922
  - # 13
    frequency:    7.5288194168
  - # 14
    frequency:    7.8076766479
  - # 15
    frequency:    8.1347491707
  - # 16
    frequency:    8.7569846948
  - # 17
    frequency:   13.7685656486
  - # 18
    frequency:   13.9869432818
  - # 19
    frequency:   14.1248458614
  - # 20
    frequency:   39.3159041743
  - # 21
    frequency:   59.9740149490

- q-position: [    0.1111111,    0.0000000,    0.0000000 ]
  distance:    0.0384174
  band:
  - # 1
    frequency:   -3.3326229145
  - # 2
    frequency:   -3.1379324856
  - # 3
    frequency:    0.3838207060
  - # 4
    frequency:    0.5738087045
  - # 5
    frequency:    1.3259913835
  - # 6
    frequency:    1.5043365071
  - # 7
    frequency:    2.3859403957
  - # 8
    frequency:    4.0558616646
  - # 9
    frequency:    4.2692389168
  - # 10
    frequency:    5.2732639718
  - # 11
    frequency:    6.3999574440
  - # 12
    frequency:    6.5658763401
  - # 13
    frequency:    7.5410995649
  - # 14
    frequency:    7.8400043106
  - # 15
    frequency:    8.1176706068
  - # 16
    frequency:    8.7531850526
  - # 17
    frequency:   13.7541507695
  - # 18
    frequency:   13.9783455656
  - # 19
    frequency:   14.1241037012
  - # 20
    frequency:   39.2914228914
  - # 21
    frequency:   59.9722637534

- q-position: [    0.1161616,    0.0000000,    0.0000000 ]
  distance:    0.0401636
  band:
  - # 1
    frequency:   -3.3285566253
  - # 2
    frequency:   -3.1093648787
  - # 3
    frequency:    0.3387666754
  - # 4
    frequency:    0.6161269273
  - # 5
    frequency:    1.3683477973
  - # 6
    frequency:    1.5715777693
  - # 7
    frequency:    2.4917677501
  - # 8
    frequency:    4.0684923721
  - # 9
    frequency:    4.2998202724
  - # 10
    frequency:    5.2654299441
  - # 11
    frequency:    6.3843242469
  - # 12
    frequency:    6.5606349772
  - # 13
    frequency:    7.5529354059
  - # 14
    frequency:    7.8712292361
  - # 15
    frequency:    8.1016569918
  - # 16
    frequency:    8.7493253954
  - # 17
    frequency:   13.7393650283
  - # 18
    frequency:   13.9699172556
  - # 19
    frequency:   14.1231528390
  - # 20
    frequency:   39.2660791450
  - # 21
    frequency:   59.9704407490

- q-position: [    0.1212121,    0.0000000,    0.0000000 ]
  distance:    0.0419099
  band:
  - # 1
    frequency:   -3.3250728657
  - # 2
    frequency:   -3.0794196786
  - # 3
    frequency:    0.2836624302
  - # 4
    frequency:    0.6588525151
  - # 5
    frequency:    1.4110522656
  - # 6
    frequency:    1.6382798042
  - # 7
    frequency:    2.5967627957
  - # 8
    frequency:    4.0809595040
  - # 9
    frequency:    4.3308988211
  - # 10
    frequency:    5.2578952577
  - # 11
    frequency:    6.3692407036
  - # 12
    frequency:    6.5554119913
  - # 13
    frequency:    7.5642834727
  - # 14
    frequency:    7.9004792230
  - # 15
    frequency:    8.0876003304
  - # 16
    frequency:    8.7454288545
  - # 17
    frequency:   13.7242262599
  - # 18
    frequency:   13.9617215847
  - # 19
    frequency:   14.1220022973
  - # 20
    frequency:   39.2399076520
  - # 21
    frequency:   59.9685472663

- q-position: [    0.1262626,    0.0000000,    0.0000000 ]
  distance:    0.0436561
  band:
  - # 1
    frequency:   -3.3221896333
  - # 2
    frequency:   -3.0480674267
  - # 3
    frequency:    0.2108812612
  - # 4
    frequency:    0.7018859496
  - # 5
    frequency:    1.4540565546
  - # 6
    frequency:    1.7043074826
  - # 7
    frequency:    2.7007659867
  - # 8
    frequency:    4.0932016503
  - # 9
    frequency:    4.3624279902
  - # 10
    frequency:    5.2506985358
  - # 11
    frequency:    6.3547678833
  - # 12
    frequency:    6.5501820690
  - # 13
    frequency:    7.5751039321
  - # 14
    frequency:    7.9261243513
  - # 15
    frequency:    8.0771527959
  - # 16
    frequency:    8.7415214952
  - # 17
    frequency:   13.7087530564
  - # 18
    frequency:   13.9538208805
  - # 19
    frequency:   14.1206630004
  - # 20
    frequency:   39.2129440484
  - # 21
    frequency:   59.9665846987

- q-position: [    0.1313131,    0.0000000,    0.0000000 ]
  distance:    0.0454024
  band:
  - # 1
    frequency:   -3.3199169712
  - # 2
    frequency:   -3.0152779555
  - # 3
    frequency:    0.0826324657
  - # 4
    frequency:    0.7451342677
  - # 5
    frequency:    1.4973128810
  - # 6
    frequency:    1.7695379285
  - # 7
    frequency:    2.8036081559
  - # 8
    frequency:    4.1051611509
  - # 9
    frequency:    4.3943675232
  - # 10
    frequency:    5.2438766720
  - # 11
    frequency:    6.3409624494
  - # 12
    frequency:    6.5449255800
  - # 13
    frequency:    7.5853604109
  - # 14
    frequency:    7.9452981694
  - # 15
    frequency:    8.0732040589
  - # 16
    frequency:    8.7376327190
  - # 17
    frequency:   13.6929649823
  - # 18
    frequency:   13.9462760061
  - # 19
    frequency:   14.1191475736
  - # 20
    frequency:   39.1852248169
  - # 21
    frequency:   59.9645545028

- q-position: [    0.1363636,    0.0000000,    0.0000000 ]
  distance:    0.0471486
  band:
  - # 1
    frequency:   -3.3182576510
  - # 2
    frequency:   -2.9810209400
  - # 3
    frequency:   -0.1800515593
  - # 4
    frequency:    0.7885110502
  - # 5
    frequency:    1.5407731357
  - # 6
    frequency:    1.8338605581
  - # 7
    frequency:    2.9051095954
  - # 8
    frequency:    4.1167847760
  - # 9
    frequency:    4.4266835000
  - # 10
    frequency:    5.2374660542
  - # 11
    frequency:    6.3278765232
  - # 12
    frequency:    6.5396297233
  - # 13
    frequency:    7.5950198839
  - # 14
    frequency:    7.9547131096
  - # 15
    frequency:    8.0790643472
  - # 16
    frequency:    8.7337957436
  - # 17
    frequency:   13.6768827664
  - # 18
    frequency:   13.9391457907
  - # 19
    frequency:   14.1174701403
  - # 20
    frequency:   39.1567872135
  - # 21
    frequency:   59.9624581987

- q-position: [    0.1414141,    0.0000000,    0.0000000 ]
  distance:    0.0488949
  band:
  - # 1
    frequency:   -3.3172079576
  - # 2
    frequency:   -2.9452664197
  - # 3
    frequency:   -0.2705966423
  - # 4
    frequency:    0.8319363015
  - # 5
    frequency:    1.5843880795
  - # 6
    frequency:    1.8971773816
  - # 7
    frequency:    3.0050791375
  - # 8
    frequency:    4.1280244146
  - # 9
    frequency:    4.4593481699
  - # 10
    frequency:    5.2315041256
  - # 11
    frequency:    6.3155574839
  - # 12
    frequency:    6.5342895416
  - # 13
    frequency:    7.6040526149
  - # 14
    frequency:    7.9541314829
  - # 15
    frequency:    8.0949918713
  - # 16
    frequency:    8.7300481719
  - # 17
    frequency:   13.6605284718
  - # 18
    frequency:   13.9324864561
  - # 19
    frequency:   14.1156461143
  - # 20
    frequency:   39.1276691939
  - # 21
    frequency:   59.9602973708

- q-position: [    0.1464646,    0.0000000,    0.0000000 ]
  distance:    0.0506411
  band:
  - # 1
    frequency:   -3.3167585336
  - # 2
    frequency:   -2.9079852700
  - # 3
    frequency:   -0.3399042860
  - # 4
    frequency:    0.8753362242
  - # 5
    frequency:    1.6281065386
  - # 6
    frequency:    1.9594033791
  - # 7
    frequency:    3.1033132421
  - # 8
    frequency:    4.1388377652
  - # 9
    frequency:    4.4923395017
  - # 10
    frequency:    5.2260313401
  - # 11
    frequency:    6.3040477200
  - # 12
    frequency:    6.5289088072
  - # 13
    frequency:    7.6124321392
  - # 14
    frequency:    7.9469180873
  - # 15
    frequency:    8.1176385671
  - # 16
    frequency:    8.7264326686
  - # 17
    frequency:   13.6439256414
  - # 18
    frequency:   13.9263510495
  - # 19
    frequency:   14.1136919888
  - # 20
    frequency:   39.0979093385
  - # 21
    frequency:   59.9580736677

- q-position: [    0.1515152,    0.0000000,    0.0000000 ]
  distance:    0.0523874
  band:
  - # 1
    frequency:   -3.3168952518
  - # 2
    frequency:   -2.8691496081
  - # 3
    frequency:   -0.3991287324
  - # 4
    frequency:    0.9186428914
  - # 5
    frequency:    1.6718746225
  - # 6
    frequency:    2.0204668403
  - # 7
    frequency:    3.1995951382
  - # 8
    frequency:    4.1491890151
  - # 9
    frequency:    4.5256403056
  - # 10
    frequency:    5.2210935887
  - # 11
    frequency:    6.2933843486
  - # 12
    frequency:    6.5235007739
  - # 13
    frequency:    7.6201352773
  - # 14
    frequency:    7.9364128791
  - # 15
    frequency:    8.1436757019
  - # 16
    frequency:    8.7229977533
  - # 17
    frequency:   13.6270994195
  - # 18
    frequency:   13.9207888905
  - # 19
    frequency:   14.1116251217
  - # 20
    frequency:   39.0675467773
  - # 21
    frequency:   59.9557888032