nqpoint: 300    
npath: 3      
segment_nqpoint:
- 100
- 100
- 100
labels:
- [ 'G', 'M' ]
- [ 'M', 'K' ]
- [ 'K', 'G' ]
reciprocal_lattice:
- [   0.32259725,   0.18625161,   0.00000000 ] # a*
- [   0.00000000,   0.37250322,   0.00000000 ] # b*
- [   0.00000000,   0.00000000,   0.03303018 ] # c*
natom: 8      
lattice:
- [     3.099840444947878,     0.000000000000000,     0.000000000000000 ] # a
- [    -1.549920222473939,     2.684540573003202,     0.000000000000000 ] # b
- [     0.000000000000000,     0.000000000000000,    30.275339237483472 ] # c
points:
- symbol: C # 1
  coordinates: [  0.000000000000000,  0.000000000000000,  0.460284320755347 ]
  mass: 12.010700
- symbol: C # 2
  coordinates: [  0.666666984744048,  0.333332985985145,  0.337005533588535 ]
  mass: 12.010700
- symbol: Cl # 3
  coordinates: [  0.333332985432215,  0.666666983183674,  0.702728351632895 ]
  mass: 35.453000
- symbol: N # 4
  coordinates: [  0.666666984744048,  0.333332985985145,  0.378174340587119 ]
  mass: 14.006700
- symbol: O # 5
  coordinates: [  0.333332985432215,  0.666666983183674,  0.533851275989311 ]
  mass: 15.999400
- symbol: O # 6
  coordinates: [  0.666666984744048,  0.333332985985145,  0.297271648367105 ]
  mass: 15.999400
- symbol: Ti # 7
  coordinates: [  0.333332985432215,  0.666666983183674,  0.422722360596420 ]
  mass: 47.867000
- symbol: Ti # 8
  coordinates: [  0.666666984744048,  0.333332985985145,  0.504450176234784 ]
  mass: 47.867000

phonon:
- q-position: [    0.0000000,    0.0000000,    0.0000000 ]
  distance:    0.0000000
  band:
  - # 1
    frequency:   -1.4285801615
  - # 2
    frequency:   -1.4285801615
  - # 3
    frequency:   -0.2944357373
  - # 4
    frequency:   -0.0000004868
  - # 5
    frequency:   -0.0000002888
  - # 6
    frequency:    0.0000015217
  - # 7
    frequency:    0.0956162478
  - # 8
    frequency:    0.0956162478
  - # 9
    frequency:    3.5186749814
  - # 10
    frequency:    3.5186749814
  - # 11
    frequency:    6.6654851147
  - # 12
    frequency:    6.6654851147
  - # 13
    frequency:    6.8813775063
  - # 14
    frequency:    8.0046927990
  - # 15
    frequency:    8.0046927990
  - # 16
    frequency:   11.4657066303
  - # 17
    frequency:   15.7513300035
  - # 18
    frequency:   15.7513300035
  - # 19
    frequency:   16.0845939643
  - # 20
    frequency:   17.1461109389
  - # 21
    frequency:   17.1461109389
  - # 22
    frequency:   19.6329454685
  - # 23
    frequency:   38.5935585201
  - # 24
    frequency:   69.5098075566

- q-position: [    0.0050505,    0.0000000,    0.0000000 ]
  distance:    0.0018813
  band:
  - # 1
    frequency:   -1.4274528729
  - # 2
    frequency:   -1.4249437389
  - # 3
    frequency:   -0.4150864713
  - # 4
    frequency:   -0.2564840388
  - # 5
    frequency:   -0.1644316360
  - # 6
    frequency:   -0.0896555990
  - # 7
    frequency:    0.0982331590
  - # 8
    frequency:    0.4155910774
  - # 9
    frequency:    3.5185931213
  - # 10
    frequency:    3.5195354091
  - # 11
    frequency:    6.6642109396
  - # 12
    frequency:    6.6650470596
  - # 13
    frequency:    6.8821530244
  - # 14
    frequency:    8.0043997818
  - # 15
    frequency:    8.0050841390
  - # 16
    frequency:   11.4646924928
  - # 17
    frequency:   15.7478798999
  - # 18
    frequency:   15.7507915647
  - # 19
    frequency:   16.0862117913
  - # 20
    frequency:   17.1462037203
  - # 21
    frequency:   17.1464644033
  - # 22
    frequency:   19.6321937941
  - # 23
    frequency:   38.5935327100
  - # 24
    frequency:   69.5081638881

- q-position: [    0.0101010,    0.0000000,    0.0000000 ]
  distance:    0.0037627
  band:
  - # 1
    frequency:   -1.4240892084
  - # 2
    frequency:   -1.4140501895
  - # 3
    frequency:   -0.5573331423
  - # 4
    frequency:   -0.3620707264
  - # 5
    frequency:   -0.2544861680
  - # 6
    frequency:   -0.2279535498
  - # 7
    frequency:    0.1760540015
  - # 8
    frequency:    0.6080897511
  - # 9
    frequency:    3.5183520340
  - # 10
    frequency:    3.5220982486
  - # 11
    frequency:    6.6604085628
  - # 12
    frequency:    6.6637595321
  - # 13
    frequency:    6.8844514002
  - # 14
    frequency:    8.0035226444
  - # 15
    frequency:    8.0062504534
  - # 16
    frequency:   11.4616521766
  - # 17
    frequency:   15.7377839866
  - # 18
    frequency:   15.7491787050
  - # 19
    frequency:   16.0908213243
  - # 20
    frequency:   17.1464818140
  - # 21
    frequency:   17.1475241748
  - # 22
    frequency:   19.6299422745
  - # 23
    frequency:   38.5934553868
  - # 24
    frequency:   69.5032377116

- q-position: [    0.0151515,    0.0000000,    0.0000000 ]
  distance:    0.0056440
  band:
  - # 1
    frequency:   -1.4185420428
  - # 2
    frequency:   -1.3959399744
  - # 3
    frequency:   -0.6607557606
  - # 4
    frequency:   -0.5506830875
  - # 5
    frequency:   -0.3546612725
  - # 6
    frequency:   -0.2446378555
  - # 7
    frequency:    0.2592676102
  - # 8
    frequency:    0.7680853132
  - # 9
    frequency:    3.5179656368
  - # 10
    frequency:    3.5263122586
  - # 11
    frequency:    6.6541380469
  - # 12
    frequency:    6.6616973862
  - # 13
    frequency:    6.8881927069
  - # 14
    frequency:    8.0020677615
  - # 15
    frequency:    8.0081689724
  - # 16
    frequency:   11.4565919681
  - # 17
    frequency:   15.7217092909
  - # 18
    frequency:   15.7464987814
  - # 19
    frequency:   16.0977868237
  - # 20
    frequency:   17.1469444714
  - # 21
    frequency:   17.1492883609
  - # 22
    frequency:   19.6262013801
  - # 23
    frequency:   38.5933268703
  - # 24
    frequency:   69.4950434899

- q-position: [    0.0202020,    0.0000000,    0.0000000 ]
  distance:    0.0075253
  band:
  - # 1
    frequency:   -1.4108939526
  - # 2
    frequency:   -1.3706595546
  - # 3
    frequency:   -0.7420615545
  - # 4
    frequency:   -0.7359572068
  - # 5
    frequency:   -0.4782284716
  - # 6
    frequency:   -0.2287955868
  - # 7
    frequency:    0.3428519305
  - # 8
    frequency:    0.9133203516
  - # 9
    frequency:    3.5174585844
  - # 10
    frequency:    3.5321055548
  - # 11
    frequency:    6.6454982483
  - # 12
    frequency:    6.6589703428
  - # 13
    frequency:    6.8932573199
  - # 14
    frequency:    8.0000478388
  - # 15
    frequency:    8.0108028695
  - # 16
    frequency:   11.4495223382
  - # 17
    frequency:   15.7005236673
  - # 18
    frequency:   15.7427640130
  - # 19
    frequency:   16.1062923764
  - # 20
    frequency:   17.1475904531
  - # 21
    frequency:   17.1517537178
  - # 22
    frequency:   19.6209884263
  - # 23
    frequency:   38.5931476921
  - # 24
    frequency:   69.4836052479

- q-position: [    0.0252525,    0.0000000,    0.0000000 ]
  distance:    0.0094066
  band:
  - # 1
    frequency:   -1.4012496235
  - # 2
    frequency:   -1.3382349440
  - # 3
    frequency:   -0.9215924822
  - # 4
    frequency:   -0.8054837798
  - # 5
    frequency:   -0.6001313406
  - # 6
    frequency:   -0.2061182994
  - # 7
    frequency:    0.4259118015
  - # 8
    frequency:    1.0501572353
  - # 9
    frequency:    3.5168684472
  - # 10
    frequency:    3.5394055153
  - # 11
    frequency:    6.6346250343
  - # 12
    frequency:    6.6557057109
  - # 13
    frequency:    6.8995011799
  - # 14
    frequency:    7.9974849340
  - # 15
    frequency:    8.0141028318
  - # 16
    frequency:   11.4404579325
  - # 17
    frequency:   15.6751047139
  - # 18
    frequency:   15.7379914183
  - # 19
    frequency:   16.1155326590
  - # 20
    frequency:   17.1484180417
  - # 21
    frequency:   17.1549155267
  - # 22
    frequency:   19.6143273735
  - # 23
    frequency:   38.5929185925
  - # 24
    frequency:   69.4689564526

- q-position: [    0.0303030,    0.0000000,    0.0000000 ]
  distance:    0.0112880
  band:
  - # 1
    frequency:   -1.3897265866
  - # 2
    frequency:   -1.2986468899
  - # 3
    frequency:   -1.1045263595
  - # 4
    frequency:   -0.8578532827
  - # 5
    frequency:   -0.7207494289
  - # 6
    frequency:   -0.1739494165
  - # 7
    frequency:    0.5079384609
  - # 8
    frequency:    1.1812920071
  - # 9
    frequency:    3.5162487330
  - # 10
    frequency:    3.5481659978
  - # 11
    frequency:    6.6216889511
  - # 12
    frequency:    6.6520317614
  - # 13
    frequency:    6.9067699209
  - # 14
    frequency:    7.9944144862
  - # 15
    frequency:    8.0180090516
  - # 16
    frequency:   11.4294175563
  - # 17
    frequency:   15.6462356278
  - # 18
    frequency:   15.7322027280
  - # 19
    frequency:   16.1248166086
  - # 20
    frequency:   17.1494250575
  - # 21
    frequency:   17.1587674388
  - # 22
    frequency:   19.6062485501
  - # 23
    frequency:   38.5926405169
  - # 24
    frequency:   69.4511398474

- q-position: [    0.0353535,    0.0000000,    0.0000000 ]
  distance:    0.0131693
  band:
  - # 1
    frequency:   -1.3764454268
  - # 2
    frequency:   -1.2857628635
  - # 3
    frequency:   -1.2518298908
  - # 4
    frequency:   -0.8999728986
  - # 5
    frequency:   -0.8401581866
  - # 6
    frequency:   -0.1249686478
  - # 7
    frequency:    0.5884713008
  - # 8
    frequency:    1.3077210918
  - # 9
    frequency:    3.5156726936
  - # 10
    frequency:    3.5584013111
  - # 11
    frequency:    6.6068924600
  - # 12
    frequency:    6.6480647836
  - # 13
    frequency:    6.9149091465
  - # 14
    frequency:    7.9908901365
  - # 15
    frequency:    8.0224534725
  - # 16
    frequency:   11.4164241549
  - # 17
    frequency:   15.6145759018
  - # 18
    frequency:   15.7254242757
  - # 19
    frequency:   16.1335960793
  - # 20
    frequency:   17.1506088772
  - # 21
    frequency:   17.1633013081
  - # 22
    frequency:   19.5967883042
  - # 23
    frequency:   38.5923146109
  - # 24
    frequency:   69.4302072395

- q-position: [    0.0404040,    0.0000000,    0.0000000 ]
  distance:    0.0150506
  band:
  - # 1
    frequency:   -1.4651117094
  - # 2
    frequency:   -1.3615206053
  - # 3
    frequency:   -1.1977818801
  - # 4
    frequency:   -0.9583216056
  - # 5
    frequency:   -0.9325604941
  - # 6
    frequency:    0.0388897602
  - # 7
    frequency:    0.6670230440
  - # 8
    frequency:    1.4294529623
  - # 9
    frequency:    3.5152378068
  - # 10
    frequency:    3.5702260908
  - # 11
    frequency:    6.5904668592
  - # 12
    frequency:    6.6439009580
  - # 13
    frequency:    6.9237701317
  - # 14
    frequency:    7.9869890511
  - # 15
    frequency:    8.0273621269
  - # 16
    frequency:   11.4015047861
  - # 17
    frequency:   15.5806711266
  - # 18
    frequency:   15.7176868669
  - # 19
    frequency:   16.1414551958
  - # 20
    frequency:   17.1519664537
  - # 21
    frequency:   17.1685070313
  - # 22
    frequency:   19.5859885876
  - # 23
    frequency:   38.5919422144
  - # 24
    frequency:   69.4062192435

- q-position: [    0.0454545,    0.0000000,    0.0000000 ]
  distance:    0.0169320
  band:
  - # 1
    frequency:   -1.6423684297
  - # 2
    frequency:   -1.3450528434
  - # 3
    frequency:   -1.1371519555
  - # 4
    frequency:   -1.0751556761
  - # 5
    frequency:   -0.9547781563
  - # 6
    frequency:    0.1456655994
  - # 7
    frequency:    0.7430564089
  - # 8
    frequency:    1.5458163486
  - # 9
    frequency:    3.5150707303
  - # 10
    frequency:    3.5838993381
  - # 11
    frequency:    6.5726689738
  - # 12
    frequency:    6.6396128706
  - # 13
    frequency:    6.9332116117
  - # 14
    frequency:    7.9828173635
  - # 15
    frequency:    8.0326574193
  - # 16
    frequency:   11.3846905851
  - # 17
    frequency:   15.5449754966
  - # 18
    frequency:   15.7090256286
  - # 19
    frequency:   16.1480867863
  - # 20
    frequency:   17.1534943362
  - # 21
    frequency:   17.1743724146
  - # 22
    frequency:   19.5738964798
  - # 23
    frequency:   38.5915248548
  - # 24
    frequency:   69.3792449815

- q-position: [    0.0505051,    0.0000000,    0.0000000 ]
  distance:    0.0188133
  band:
  - # 1
    frequency:   -1.8173153970
  - # 2
    frequency:   -1.3271237014
  - # 3
    frequency:   -1.1905536468
  - # 4
    frequency:   -1.0747563295
  - # 5
    frequency:   -0.9607619480
  - # 6
    frequency:    0.2088084346
  - # 7
    frequency:    0.8159762640
  - # 8
    frequency:    1.6556059253
  - # 9
    frequency:    3.5153323990
  - # 10
    frequency:    3.5998687681
  - # 11
    frequency:    6.5537776695
  - # 12
    frequency:    6.6352499719
  - # 13
    frequency:    6.9430989257
  - # 14
    frequency:    7.9785152545
  - # 15
    frequency:    8.0382602435
  - # 16
    frequency:   11.3660167174
  - # 17
    frequency:   15.5078742815
  - # 18
    frequency:   15.6994798398
  - # 19
    frequency:   16.1532686173
  - # 20
    frequency:   17.1551886889
  - # 21
    frequency:   17.1808830865
  - # 22
    frequency:   19.5605636578
  - # 23
    frequency:   38.5910642391
  - # 24
    frequency:   69.3493617427

- q-position: [    0.0555556,    0.0000000,    0.0000000 ]
  distance:    0.0206946
  band:
  - # 1
    frequency:   -1.9897314526
  - # 2
    frequency:   -1.3078094465
  - # 3
    frequency:   -1.3043805537
  - # 4
    frequency:   -1.0326731759
  - # 5
    frequency:   -0.9263365391
  - # 6
    frequency:    0.2622411533
  - # 7
    frequency:    0.8851279605
  - # 8
    frequency:    1.7571559013
  - # 9
    frequency:    3.5162227543
  - # 10
    frequency:    3.6188075101
  - # 11
    frequency:    6.5340902076
  - # 12
    frequency:    6.6308422620
  - # 13
    frequency:    6.9533018602
  - # 14
    frequency:    7.9742610769
  - # 15
    frequency:    8.0440918618
  - # 16
    frequency:   11.3455223190
  - # 17
    frequency:   15.4697019801
  - # 18
    frequency:   15.6890927460
  - # 19
    frequency:   16.1568437077
  - # 20
    frequency:   17.1570453078
  - # 21
    frequency:   17.1880224716
  - # 22
    frequency:   19.5460458203
  - # 23
    frequency:   38.5905622455
  - # 24
    frequency:   69.3166546024

- q-position: [    0.0606061,    0.0000000,    0.0000000 ]
  distance:    0.0225760
  band:
  - # 1
    frequency:   -2.1593951311
  - # 2
    frequency:   -1.4165671367
  - # 3
    frequency:   -1.2870919286
  - # 4
    frequency:   -1.0190970217
  - # 5
    frequency:   -0.8395929486
  - # 6
    frequency:    0.3112035816
  - # 7
    frequency:    0.9497988694
  - # 8
    frequency:    1.8483897623
  - # 9
    frequency:    3.5179843845
  - # 10
    frequency:    3.6416288088
  - # 11
    frequency:    6.5139184366
  - # 12
    frequency:    6.6264066633
  - # 13
    frequency:    6.9636923911
  - # 14
    frequency:    7.9702738337
  - # 15
    frequency:    8.0500755067
  - # 16
    frequency:   11.3232504194
  - # 17
    frequency:   15.4307556405
  - # 18
    frequency:   15.6779113581
  - # 19
    frequency:   16.1587052458
  - # 20
    frequency:   17.1590596336
  - # 21
    frequency:   17.1957718339
  - # 22
    frequency:   19.5304020749
  - # 23
    frequency:   38.5900209132
  - # 24
    frequency:   69.2812160059

- q-position: [    0.0656566,    0.0000000,    0.0000000 ]
  distance:    0.0244573
  band:
  - # 1
    frequency:   -2.3260869038
  - # 2
    frequency:   -1.5269336566
  - # 3
    frequency:   -1.2650385706
  - # 4
    frequency:   -1.0093738839
  - # 5
    frequency:   -0.7183002282
  - # 6
    frequency:    0.3577225092
  - # 7
    frequency:    1.0092223398
  - # 8
    frequency:    1.9268841380
  - # 9
    frequency:    3.5209041183
  - # 10
    frequency:    3.6694572461
  - # 11
    frequency:    6.4935848018
  - # 12
    frequency:    6.6219557182
  - # 13
    frequency:    6.9741433203
  - # 14
    frequency:    7.9668132510
  - # 15
    frequency:    8.0561376988
  - # 16
    frequency:   11.2992478454
  - # 17
    frequency:   15.3913040947
  - # 18
    frequency:   15.6659862361
  - # 19
    frequency:   16.1587853798
  - # 20
    frequency:   17.1612267616
  - # 21
    frequency:   17.2041103936
  - # 22
    frequency:   19.5136942987
  - # 23
    frequency:   38.5894424323
  - # 24
    frequency:   69.2431453169

- q-position: [    0.0707071,    0.0000000,    0.0000000 ]
  distance:    0.0263386
  band:
  - # 1
    frequency:   -2.4895906471
  - # 2
    frequency:   -1.6353744208
  - # 3
    frequency:   -1.2416214281
  - # 4
    frequency:   -0.9945152855
  - # 5
    frequency:   -0.5561620506
  - # 6
    frequency:    0.4028350919
  - # 7
    frequency:    1.0625843106
  - # 8
    frequency:    1.9899803776
  - # 9
    frequency:    3.5253114289
  - # 10
    frequency:    3.7035327468
  - # 11
    frequency:    6.4734181583
  - # 12
    frequency:    6.6175083307
  - # 13
    frequency:    6.9845285946
  - # 14
    frequency:    7.9641767007
  - # 15
    frequency:    8.0622092959
  - # 16
    frequency:   11.2735651032
  - # 17
    frequency:   15.3515940851
  - # 18
    frequency:   15.6533712606
  - # 19
    frequency:   16.1570469426
  - # 20
    frequency:   17.1635414473
  - # 21
    frequency:   17.2130155114
  - # 22
    frequency:   19.4959864799
  - # 23
    frequency:   38.5888291326
  - # 24
    frequency:   69.2025483342

- q-position: [    0.0757576,    0.0000000,    0.0000000 ]
  distance:    0.0282199
  band:
  - # 1
    frequency:   -2.6496946747
  - # 2
    frequency:   -1.7417660079
  - # 3
    frequency:   -1.2168124274
  - # 4
    frequency:   -0.9721302667
  - # 5
    frequency:   -0.2991563500
  - # 6
    frequency:    0.4472089742
  - # 7
    frequency:    1.1090332794
  - # 8
    frequency:    2.0349628249
  - # 9
    frequency:    3.5315724450
  - # 10
    frequency:    3.7450361293
  - # 11
    frequency:    6.4537493925
  - # 12
    frequency:    6.6131022526
  - # 13
    frequency:    6.9947258520
  - # 14
    frequency:    7.9626923677
  - # 15
    frequency:    8.0682263014
  - # 16
    frequency:   11.2462562366
  - # 17
    frequency:   15.3118541432
  - # 18
    frequency:   15.6401233908
  - # 19
    frequency:   16.1534772979
  - # 20
    frequency:   17.1659981084
  - # 21
    frequency:   17.2224629325
  - # 22
    frequency:   19.4773440534
  - # 23
    frequency:   38.5881834717
  - # 24
    frequency:   69.1595367806

- q-position: [    0.0808081,    0.0000000,    0.0000000 ]
  distance:    0.0301013
  band:
  - # 1
    frequency:   -2.8061925159
  - # 2
    frequency:   -1.8459873232
  - # 3
    frequency:   -1.1905665734
  - # 4
    frequency:   -0.9411675123
  - # 5
    frequency:    0.3756047584
  - # 6
    frequency:    0.4919035031
  - # 7
    frequency:    1.1476943172
  - # 8
    frequency:    2.0592898457
  - # 9
    frequency:    3.5400785699
  - # 10
    frequency:    3.7948591214
  - # 11
    frequency:    6.4349068850
  - # 12
    frequency:    6.6088078789
  - # 13
    frequency:    7.0046214210
  - # 14
    frequency:    7.9627083842
  - # 15
    frequency:    8.0741304692
  - # 16
    frequency:   11.2173786633
  - # 17
    frequency:   15.2722968952
  - # 18
    frequency:   15.6263024115
  - # 19
    frequency:   16.1480836970
  - # 20
    frequency:   17.1685908226
  - # 21
    frequency:   17.2324270743
  - # 22
    frequency:   19.4578332381
  - # 23
    frequency:   38.5875080226
  - # 24
    frequency:   69.1142277651

- q-position: [    0.0858586,    0.0000000,    0.0000000 ]
  distance:    0.0319826
  band:
  - # 1
    frequency:   -2.9588835364
  - # 2
    frequency:   -1.9479201509
  - # 3
    frequency:   -1.1628244153
  - # 4
    frequency:   -0.9010066832
  - # 5
    frequency:    0.5323183457
  - # 6
    frequency:    0.6214731189
  - # 7
    frequency:    1.1776872612
  - # 8
    frequency:    2.0608263450
  - # 9
    frequency:    3.5512292875
  - # 10
    frequency:    3.8533856857
  - # 11
    frequency:    6.4172118868
  - # 12
    frequency:    6.6047426951
  - # 13
    frequency:    7.0141175737
  - # 14
    frequency:    7.9645781825
  - # 15
    frequency:    8.0798697410
  - # 16
    frequency:   11.1869929890
  - # 17
    frequency:   15.2331202986
  - # 18
    frequency:   15.6119706681
  - # 19
    frequency:   16.1408897117
  - # 20
    frequency:   17.1713133239
  - # 21
    frequency:   17.2428813405
  - # 22
    frequency:   19.4375203880
  - # 23
    frequency:   38.5868054602
  - # 24
    frequency:   69.0667432240

- q-position: [    0.0909091,    0.0000000,    0.0000000 ]
  distance:    0.0338639
  band:
  - # 1
    frequency:   -3.1075734549
  - # 2
    frequency:   -2.0474496284
  - # 3
    frequency:   -1.1335144409
  - # 4
    frequency:   -0.8514239645
  - # 5
    frequency:    0.5767357349
  - # 6
    frequency:    0.7977532821
  - # 7
    frequency:    1.1981481203
  - # 8
    frequency:    2.0380285416
  - # 9
    frequency:    3.5654097443
  - # 10
    frequency:    3.9203694055
  - # 11
    frequency:    6.4009739151
  - # 12
    frequency:    6.6010854088
  - # 13
    frequency:    7.0231413475
  - # 14
    frequency:    7.9686430130
  - # 15
    frequency:    8.0853985531
  - # 16
    frequency:   11.1551628056
  - # 17
    frequency:   15.1945081856
  - # 18
    frequency:   15.5971927914
  - # 19
    frequency:   16.1319324417
  - # 20
    frequency:   17.1741589960
  - # 21
    frequency:   17.2537984445
  - # 22
    frequency:   19.4164713658
  - # 23
    frequency:   38.5860785486
  - # 24
    frequency:   69.0172093423

- q-position: [    0.0959596,    0.0000000,    0.0000000 ]
  distance:    0.0357453
  band:
  - # 1
    frequency:   -3.2520747882
  - # 2
    frequency:   -2.1444646317
  - # 3
    frequency:   -1.1025557234
  - # 4
    frequency:   -0.7930520770
  - # 5
    frequency:    0.6204323931
  - # 6
    frequency:    0.9458883959
  - # 7
    frequency:    1.2082512163
  - # 8
    frequency:    1.9901268346
  - # 9
    frequency:    3.5829650108
  - # 10
    frequency:    3.9949549442
  - # 11
    frequency:    6.3864863123
  - # 12
    frequency:    6.5980884452
  - # 13
    frequency:    7.0316538084
  - # 14
    frequency:    7.9752132990
  - # 15
    frequency:    8.0906780418
  - # 16
    frequency:   11.1219544801
  - # 17
    frequency:   15.1566303899
  - # 18
    frequency:   15.5820354122
  - # 19
    frequency:   16.1212602945
  - # 20
    frequency:   17.1771208664
  - # 21
    frequency:   17.2651507237
  - # 22
    frequency:   19.3947509489
  - # 23
    frequency:   38.5853301269
  - # 24
    frequency:   68.9657559605

- q-position: [    0.1010101,    0.0000000,    0.0000000 ]
  distance:    0.0376266
  band:
  - # 1
    frequency:   -3.3922072421
  - # 2
    frequency:   -2.2388580962
  - # 3
    frequency:   -1.0698614678
  - # 4
    frequency:   -0.7287845738
  - # 5
    frequency:    0.6641921594
  - # 6
    frequency:    1.0755606370
  - # 7
    frequency:    1.2072280166
  - # 8
    frequency:    1.9176035294
  - # 9
    frequency:    3.6041742221
  - # 10
    frequency:    4.0758209249
  - # 11
    frequency:    6.3740221242
  - # 12
    frequency:    6.5960871210
  - # 13
    frequency:    7.0396584012
  - # 14
    frequency:    7.9845510388
  - # 15
    frequency:    8.0956761767
  - # 16
    frequency:   11.0874369424
  - # 17
    frequency:   15.1196426650
  - # 18
    frequency:   15.5665668665
  - # 19
    frequency:   16.1089311995
  - # 20
    frequency:   17.1801916003
  - # 21
    frequency:   17.2769104322
  - # 22
    frequency:   19.3724222759
  - # 23
    frequency:   38.5845630956
  - # 24
    frequency:   68.9125159691

- q-position: [    0.1060606,    0.0000000,    0.0000000 ]
  distance:    0.0395079
  band:
  - # 1
    frequency:   -3.5277980589
  - # 2
    frequency:   -2.3305272890
  - # 3
    frequency:   -1.0353447541
  - # 4
    frequency:   -0.6675818312
  - # 5
    frequency:    0.7081687118
  - # 6
    frequency:    1.1892873968
  - # 7
    frequency:    1.1943774890
  - # 8
    frequency:    1.8239157099
  - # 9
    frequency:    3.6292285651
  - # 10
    frequency:    4.1613729759
  - # 11
    frequency:    6.3638304669
  - # 12
    frequency:    6.5955035161
  - # 13
    frequency:    7.0472071858
  - # 14
    frequency:    7.9968555881
  - # 15
    frequency:    8.1003678405
  - # 16
    frequency:   11.0516814857
  - # 17
    frequency:   15.0836865468
  - # 18
    frequency:   15.5508568918
  - # 19
    frequency:   16.0950111617
  - # 20
    frequency:   17.1833634979
  - # 21
    frequency:   17.2890499994
  - # 22
    frequency:   19.3495463415
  - # 23
    frequency:   38.5837804018
  - # 24
    frequency:   68.8576246961

- q-position: [    0.1111111,    0.0000000,    0.0000000 ]
  distance:    0.0413892
  band:
  - # 1
    frequency:   -3.6586823304
  - # 2
    frequency:   -2.4193740457
  - # 3
    frequency:   -0.9989290504
  - # 4
    frequency:   -0.6332816656
  - # 5
    frequency:    0.7524377124
  - # 6
    frequency:    1.1690626034
  - # 7
    frequency:    1.2821195955
  - # 8
    frequency:    1.7215256749
  - # 9
    frequency:    3.6582168823
  - # 10
    frequency:    4.2499186762
  - # 11
    frequency:    6.3561335302
  - # 12
    frequency:    6.5968428671
  - # 13
    frequency:    7.0544043543
  - # 14
    frequency:    8.0122547223
  - # 15
    frequency:    8.1047348743
  - # 16
    frequency:   11.0147615902
  - # 17
    frequency:   15.0488892712
  - # 18
    frequency:   15.5349763166
  - # 19
    frequency:   16.0795730948
  - # 20
    frequency:   17.1866284949
  - # 21
    frequency:   17.3015422484
  - # 22
    frequency:   19.3261815474
  - # 23
    frequency:   38.5829850260
  - # 24
    frequency:   68.8012192901

- q-position: [    0.1161616,    0.0000000,    0.0000000 ]
  distance:    0.0432706
  band:
  - # 1
    frequency:   -3.7847032783
  - # 2
    frequency:   -2.5053049776
  - # 3
    frequency:   -0.9605687714
  - # 4
    frequency:   -0.6736515353
  - # 5
    frequency:    0.7970281815
  - # 6
    frequency:    1.1306886169
  - # 7
    frequency:    1.3324658430
  - # 8
    frequency:    1.6486344600
  - # 9
    frequency:    3.6911213580
  - # 10
    frequency:    4.3397910825
  - # 11
    frequency:    6.3511243403
  - # 12
    frequency:    6.6006802583
  - # 13
    frequency:    7.0614073735
  - # 14
    frequency:    8.0308019572
  - # 15
    frequency:    8.1087661012
  - # 16
    frequency:   10.9767527867
  - # 17
    frequency:   15.0153638213
  - # 18
    frequency:   15.5189967429
  - # 19
    frequency:   16.0626958868
  - # 20
    frequency:   17.1899781686
  - # 21
    frequency:   17.3143605696
  - # 22
    frequency:   19.3023833125
  - # 23
    frequency:   38.5821799677
  - # 24
    frequency:   68.7434381035

- q-position: [    0.1212121,    0.0000000,    0.0000000 ]
  distance:    0.0451519
  band:
  - # 1
    frequency:   -3.9057125061
  - # 2
    frequency:   -2.5882316550
  - # 3
    frequency:   -0.9202911647
  - # 4
    frequency:   -0.8333767564
  - # 5
    frequency:    0.8419144282
  - # 6
    frequency:    1.0786613479
  - # 7
    frequency:    1.3221418410
  - # 8
    frequency:    1.6571024172
  - # 9
    frequency:    3.7278237054
  - # 10
    frequency:    4.4294208935
  - # 11
    frequency:    6.3489653592
  - # 12
    frequency:    6.6076354716
  - # 13
    frequency:    7.0684271646
  - # 14
    frequency:    8.0524799544
  - # 15
    frequency:    8.1124573392
  - # 16
    frequency:   10.9377325732
  - # 17
    frequency:   14.9832091518
  - # 18
    frequency:   15.5029902246
  - # 19
    frequency:   16.0444636730
  - # 20
    frequency:   17.1934037505
  - # 21
    frequency:   17.3274790495
  - # 22
    frequency:   19.2782037489
  - # 23
    frequency:   38.5813682313
  - # 24
    frequency:   68.6844200789

- q-position: [    0.1262626,    0.0000000,    0.0000000 ]
  distance:    0.0470332
  band:
  - # 1
    frequency:   -4.0215702239
  - # 2
    frequency:   -2.6680707702
  - # 3
    frequency:   -1.0933822095
  - # 4
    frequency:   -0.8782848653
  - # 5
    frequency:    0.8870636981
  - # 6
    frequency:    1.0123297701
  - # 7
    frequency:    1.3108930625
  - # 8
    frequency:    1.7228543759
  - # 9
    frequency:    3.7681201665
  - # 10
    frequency:    4.5173737029
  - # 11
    frequency:    6.3497879447
  - # 12
    frequency:    6.6183340715
  - # 13
    frequency:    7.0757296782
  - # 14
    frequency:    8.0772088109
  - # 15
    frequency:    8.1158114121
  - # 16
    frequency:   10.8977803993
  - # 17
    frequency:   14.9525106052
  - # 18
    frequency:   15.4870289431
  - # 19
    frequency:   16.0249652944
  - # 20
    frequency:   17.1968961464
  - # 21
    frequency:   17.3408725569
  - # 22
    frequency:   19.2536914053
  - # 23
    frequency:   38.5805528135
  - # 24
    frequency:   68.6243041438

- q-position: [    0.1313131,    0.0000000,    0.0000000 ]
  distance:    0.0489146
  band:
  - # 1
    frequency:   -4.1321454463
  - # 2
    frequency:   -2.7447442816
  - # 3
    frequency:   -1.3931919313
  - # 4
    frequency:   -0.8350949357
  - # 5
    frequency:    0.9309364641
  - # 6
    frequency:    0.9325154106
  - # 7
    frequency:    1.3407550292
  - # 8
    frequency:    1.8065560703
  - # 9
    frequency:    3.8117421845
  - # 10
    frequency:    4.6023706902
  - # 11
    frequency:    6.3536926434
  - # 12
    frequency:    6.6333532005
  - # 13
    frequency:    7.0836419165
  - # 14
    frequency:    8.1048574200
  - # 15
    frequency:    8.1188381673
  - # 16
    frequency:   10.8569777327
  - # 17
    frequency:   14.9233405186
  - # 18
    frequency:   15.4711848818
  - # 19
    frequency:   16.0042939318
  - # 20
    frequency:   17.2004459660
  - # 21
    frequency:   17.3545167900
  - # 22
    frequency:   19.2288910788
  - # 23
    frequency:   38.5797366892
  - # 24
    frequency:   68.5632286164

- q-position: [    0.1363636,    0.0000000,    0.0000000 ]
  distance:    0.0507959
  band:
  - # 1
    frequency:   -4.2373161649
  - # 2
    frequency:   -2.8181795405
  - # 3
    frequency:   -1.6936532979
  - # 4
    frequency:   -0.7920711762
  - # 5
    frequency:    0.8336714353
  - # 6
    frequency:    0.9783319992
  - # 7