nqpoint: 300    
npath: 3      
segment_nqpoint:
- 100
- 100
- 100
labels:
- [ 'G', 'M' ]
- [ 'M', 'K' ]
- [ 'K', 'G' ]
reciprocal_lattice:
- [   0.32259725,   0.18625161,   0.00000000 ] # a*
- [   0.00000000,   0.37250322,   0.00000000 ] # b*
- [   0.00000000,   0.00000000,   0.03303018 ] # c*
natom: 8      
lattice:
- [     3.099840444947878,     0.000000000000000,     0.000000000000000 ] # a
- [    -1.549920222473939,     2.684540573003202,     0.000000000000000 ] # b
- [     0.000000000000000,     0.000000000000000,    30.275339237483472 ] # c
points:
- symbol: C # 1
  coordinates: [  0.000000000000000,  0.000000000000000,  0.460284320755347 ]
  mass: 12.010700
- symbol: C # 2
  coordinates: [  0.666666984744048,  0.333332985985145,  0.337005533588535 ]
  mass: 12.010700
- symbol: Cl # 3
  coordinates: [  0.333332985432215,  0.666666983183674,  0.702728351632895 ]
  mass: 35.453000
- symbol: N # 4
  coordinates: [  0.666666984744048,  0.333332985985145,  0.378174340587119 ]
  mass: 14.006700
- symbol: O # 5
  coordinates: [  0.333332985432215,  0.666666983183674,  0.533851275989311 ]
  mass: 15.999400
- symbol: O # 6
  coordinates: [  0.666666984744048,  0.333332985985145,  0.297271648367105 ]
  mass: 15.999400
- symbol: Ti # 7
  coordinates: [  0.333332985432215,  0.666666983183674,  0.422722360596420 ]
  mass: 47.867000
- symbol: Ti # 8
  coordinates: [  0.666666984744048,  0.333332985985145,  0.504450176234784 ]
  mass: 47.867000

phonon:
- q-position: [    0.0000000,    0.0000000,    0.0000000 ]
  distance:    0.0000000
  band:
  - # 1
    frequency:   -1.9775691996
  - # 2
    frequency:   -1.9775691996
  - # 3
    frequency:   -1.5794162121
  - # 4
    frequency:   -1.5794162121
  - # 5
    frequency:   -0.0000026165
  - # 6
    frequency:   -0.0000004996
  - # 7
    frequency:    0.0000015997
  - # 8
    frequency:    0.5053175492
  - # 9
    frequency:    3.3294585203
  - # 10
    frequency:    3.3294585203
  - # 11
    frequency:    6.4108337415
  - # 12
    frequency:    6.4108337415
  - # 13
    frequency:    7.1983943915
  - # 14
    frequency:    8.6013010861
  - # 15
    frequency:    8.6013010861
  - # 16
    frequency:   11.4697651837
  - # 17
    frequency:   15.6554506387
  - # 18
    frequency:   15.6554506387
  - # 19
    frequency:   16.1579096270
  - # 20
    frequency:   17.1449915879
  - # 21
    frequency:   17.1449915879
  - # 22
    frequency:   19.6245407167
  - # 23
    frequency:   38.5891990079
  - # 24
    frequency:   69.3658269443

- q-position: [    0.0050505,    0.0000000,    0.0000000 ]
  distance:    0.0018813
  band:
  - # 1
    frequency:   -1.9771995533
  - # 2
    frequency:   -1.9758637797
  - # 3
    frequency:   -1.5850052065
  - # 4
    frequency:   -1.5814049299
  - # 5
    frequency:   -0.0883184736
  - # 6
    frequency:   -0.0197522430
  - # 7
    frequency:    0.0096864957
  - # 8
    frequency:    0.5170353504
  - # 9
    frequency:    3.3304195346
  - # 10
    frequency:    3.3312556605
  - # 11
    frequency:    6.4102558059
  - # 12
    frequency:    6.4118376595
  - # 13
    frequency:    7.1975813411
  - # 14
    frequency:    8.5994964525
  - # 15
    frequency:    8.6004505713
  - # 16
    frequency:   11.4687511878
  - # 17
    frequency:   15.6530999027
  - # 18
    frequency:   15.6550117536
  - # 19
    frequency:   16.1584541729
  - # 20
    frequency:   17.1450734219
  - # 21
    frequency:   17.1453333826
  - # 22
    frequency:   19.6238425856
  - # 23
    frequency:   38.5891744401
  - # 24
    frequency:   69.3645121590

- q-position: [    0.0101010,    0.0000000,    0.0000000 ]
  distance:    0.0037627
  band:
  - # 1
    frequency:   -1.9761296680
  - # 2
    frequency:   -1.9710008693
  - # 3
    frequency:   -1.6014832512
  - # 4
    frequency:   -1.5873455841
  - # 5
    frequency:   -0.1666763778
  - # 6
    frequency:   -0.0381105999
  - # 7
    frequency:    0.0380848379
  - # 8
    frequency:    0.5469161907
  - # 9
    frequency:    3.3333070030
  - # 10
    frequency:    3.3366482987
  - # 11
    frequency:    6.4085264757
  - # 12
    frequency:    6.4148255906
  - # 13
    frequency:    7.1951503385
  - # 14
    frequency:    8.5941096317
  - # 15
    frequency:    8.5979038468
  - # 16
    frequency:   11.4657113377
  - # 17
    frequency:   15.6461151579
  - # 18
    frequency:   15.6536974575
  - # 19
    frequency:   16.1600286886
  - # 20
    frequency:   17.1453187114
  - # 21
    frequency:   17.1463577528
  - # 22
    frequency:   19.6217508306
  - # 23
    frequency:   38.5891008449
  - # 24
    frequency:   69.3605703947

- q-position: [    0.0151515,    0.0000000,    0.0000000 ]
  distance:    0.0056440
  band:
  - # 1
    frequency:   -1.9744838996
  - # 2
    frequency:   -1.9638807411
  - # 3
    frequency:   -1.6277958877
  - # 4
    frequency:   -1.5971487986
  - # 5
    frequency:   -0.2334982657
  - # 6
    frequency:   -0.0536482111
  - # 7
    frequency:    0.0829771902
  - # 8
    frequency:    0.5859466695
  - # 9
    frequency:    3.3381340243
  - # 10
    frequency:    3.3456414386
  - # 11
    frequency:    6.4056591991
  - # 12
    frequency:    6.4197261157
  - # 13
    frequency:    7.1911262113
  - # 14
    frequency:    8.5852221185
  - # 15
    frequency:    8.5936753639
  - # 16
    frequency:   11.4606520413
  - # 17
    frequency:   15.6346884313
  - # 18
    frequency:   15.6515148111
  - # 19
    frequency:   16.1624660978
  - # 20
    frequency:   17.1457268209
  - # 21
    frequency:   17.1480616773
  - # 22
    frequency:   19.6182733447
  - # 23
    frequency:   38.5889785458
  - # 24
    frequency:   69.3540094192

- q-position: [    0.0202020,    0.0000000,    0.0000000 ]
  distance:    0.0075253
  band:
  - # 1
    frequency:   -1.9724952575
  - # 2
    frequency:   -1.9565907491
  - # 3
    frequency:   -1.6614807919
  - # 4
    frequency:   -1.6106220604
  - # 5
    frequency:   -0.2918567093
  - # 6
    frequency:   -0.0648349745
  - # 7
    frequency:    0.1404816723
  - # 8
    frequency:    0.6282286534
  - # 9
    frequency:    3.3449218406
  - # 10
    frequency:    3.3582477721
  - # 11
    frequency:    6.4016764528
  - # 12
    frequency:    6.4264203793
  - # 13
    frequency:    7.1855516137
  - # 14
    frequency:    8.5729705571
  - # 15
    frequency:    8.5877891815
  - # 16
    frequency:   11.4535839613
  - # 17
    frequency:   15.6191090598
  - # 18
    frequency:   15.6484755211
  - # 19
    frequency:   16.1655184045
  - # 20
    frequency:   17.1462966970
  - # 21
    frequency:   17.1504401867
  - # 22
    frequency:   19.6134232089
  - # 23
    frequency:   38.5888080805
  - # 24
    frequency:   69.3448421552

- q-position: [    0.0252525,    0.0000000,    0.0000000 ]
  distance:    0.0094066
  band:
  - # 1
    frequency:   -1.9705503031
  - # 2
    frequency:   -1.9537019042
  - # 3
    frequency:   -1.6972994551
  - # 4
    frequency:   -1.6274019377
  - # 5
    frequency:   -0.3446842822
  - # 6
    frequency:   -0.0698453368
  - # 7
    frequency:    0.2057750127
  - # 8
    frequency:    0.6709831010
  - # 9
    frequency:    3.3536989683
  - # 10
    frequency:    3.3744936829
  - # 11
    frequency:    6.3966098365
  - # 12
    frequency:    6.4347423954
  - # 13
    frequency:    7.1784889546
  - # 14
    frequency:    8.5575478555
  - # 15
    frequency:    8.5802789209
  - # 16
    frequency:   11.4445219894
  - # 17
    frequency:   15.5997286715
  - # 18
    frequency:   15.6445958514
  - # 19
    frequency:   16.1688913560
  - # 20
    frequency:   17.1470268768
  - # 21
    frequency:   17.1534864577
  - # 22
    frequency:   19.6072185830
  - # 23
    frequency:   38.5885901970
  - # 24
    frequency:   69.3330866459

- q-position: [    0.0303030,    0.0000000,    0.0000000 ]
  distance:    0.0112880
  band:
  - # 1
    frequency:   -1.9692639800
  - # 2
    frequency:   -1.9640194093
  - # 3
    frequency:   -1.7255047100
  - # 4
    frequency:   -1.6468542060
  - # 5
    frequency:   -0.3934343372
  - # 6
    frequency:   -0.0659271961
  - # 7
    frequency:    0.2741846377
  - # 8
    frequency:    0.7130391156
  - # 9
    frequency:    3.3645000072
  - # 10
    frequency:    3.3944265846
  - # 11
    frequency:    6.3905002066
  - # 12
    frequency:    6.4444795832
  - # 13
    frequency:    7.1700231039
  - # 14
    frequency:    8.5392045082
  - # 15
    frequency:    8.5711876960
  - # 16
    frequency:   11.4334852094
  - # 17
    frequency:   15.5769277916
  - # 18
    frequency:   15.6398964985
  - # 19
    frequency:   16.1722773515
  - # 20
    frequency:   17.1479154999
  - # 21
    frequency:   17.1571919366
  - # 22
    frequency:   19.5996825541
  - # 23
    frequency:   38.5883258502
  - # 24
    frequency:   69.3187660055

- q-position: [    0.0353535,    0.0000000,    0.0000000 ]
  distance:    0.0131693
  band:
  - # 1
    frequency:   -1.9976694441
  - # 2
    frequency:   -1.9695899409
  - # 3
    frequency:   -1.7348563596
  - # 4
    frequency:   -1.6679416757
  - # 5
    frequency:   -0.4383799411
  - # 6
    frequency:   -0.0461133169
  - # 7
    frequency:    0.3418655008
  - # 8
    frequency:    0.7538191544
  - # 9
    frequency:    3.3773641598
  - # 10
    frequency:    3.4181224815
  - # 11
    frequency:    6.3833978504
  - # 12
    frequency:    6.4553737070
  - # 13
    frequency:    7.1602648342
  - # 14
    frequency:    8.5182498701
  - # 15
    frequency:    8.5605680098
  - # 16
    frequency:   11.4204968493
  - # 17
    frequency:   15.5510899658
  - # 18
    frequency:   15.6344024356
  - # 19
    frequency:   16.1753807202
  - # 20
    frequency:   17.1489603225
  - # 21
    frequency:   17.1615464839
  - # 22
    frequency:   19.5908429438
  - # 23
    frequency:   38.5880161960
  - # 24
    frequency:   69.3019083572

- q-position: [    0.0404040,    0.0000000,    0.0000000 ]
  distance:    0.0150506
  band:
  - # 1
    frequency:   -2.0558468869
  - # 2
    frequency:   -1.9729453016
  - # 3
    frequency:   -1.7230119881
  - # 4
    frequency:   -1.6890853540
  - # 5
    frequency:   -0.4791157381
  - # 6
    frequency:    0.0460431288
  - # 7
    frequency:    0.4059780020
  - # 8
    frequency:    0.7927494204
  - # 9
    frequency:    3.3923334971
  - # 10
    frequency:    3.4456922811
  - # 11
    frequency:    6.3753626981
  - # 12
    frequency:    6.4671225393
  - # 13
    frequency:    7.1493548543
  - # 14
    frequency:    8.4950530279
  - # 15
    frequency:    8.5484816093
  - # 16
    frequency:   11.4055842222
  - # 17
    frequency:   15.5225850644
  - # 18
    frequency:   15.6281427250
  - # 19
    frequency:   16.1779337201
  - # 20
    frequency:   17.1501587340
  - # 21
    frequency:   17.1665385314
  - # 22
    frequency:   19.5807320783
  - # 23
    frequency:   38.5876625855
  - # 24
    frequency:   69.2825467568

- q-position: [    0.0454545,    0.0000000,    0.0000000 ]
  distance:    0.0169320
  band:
  - # 1
    frequency:   -2.1316585660
  - # 2
    frequency:   -1.9812425975
  - # 3
    frequency:   -1.7081287175
  - # 4
    frequency:   -1.6958137590
  - # 5
    frequency:   -0.5148516838
  - # 6
    frequency:    0.0924289653
  - # 7
    frequency:    0.4646187614
  - # 8
    frequency:    0.8289042354
  - # 9
    frequency:    3.4094510218
  - # 10
    frequency:    3.4772850421
  - # 11
    frequency:    6.3664645741
  - # 12
    frequency:    6.4793828011
  - # 13
    frequency:    7.1374681102
  - # 14
    frequency:    8.4700428068
  - # 15
    frequency:    8.5349992881
  - # 16
    frequency:   11.3887786550
  - # 17
    frequency:   15.4917605739
  - # 18
    frequency:   15.6211503037
  - # 19
    frequency:   16.1797044710
  - # 20
    frequency:   17.1515077761
  - # 21
    frequency:   17.1721552421
  - # 22
    frequency:   19.5693865218
  - # 23
    frequency:   38.5872665570
  - # 24
    frequency:   69.2607191032

- q-position: [    0.0505051,    0.0000000,    0.0000000 ]
  distance:    0.0188133
  band:
  - # 1
    frequency:   -2.2187662878
  - # 2
    frequency:   -1.9965912262
  - # 3
    frequency:   -1.7226427681
  - # 4
    frequency:   -1.6587508945
  - # 5
    frequency:   -0.5445141398
  - # 6
    frequency:    0.1307147781
  - # 7
    frequency:    0.5166323970
  - # 8
    frequency:    0.8608338712
  - # 9
    frequency:    3.4287585886
  - # 10
    frequency:    3.5130860965
  - # 11
    frequency:    6.3567834813
  - # 12
    frequency:    6.4917752574
  - # 13
    frequency:    7.1248177353
  - # 14
    frequency:    8.4437063437
  - # 15
    frequency:    8.5202006272
  - # 16
    frequency:   11.3701154053
  - # 17
    frequency:   15.4589385711
  - # 18
    frequency:   15.6134617425
  - # 19
    frequency:   16.1804991450
  - # 20
    frequency:   17.1530041626
  - # 21
    frequency:   17.1783826648
  - # 22
    frequency:   19.5568467770
  - # 23
    frequency:   38.5868298279
  - # 24
    frequency:   69.2364680359

- q-position: [    0.0555556,    0.0000000,    0.0000000 ]
  distance:    0.0206946
  band:
  - # 1
    frequency:   -2.3132989694
  - # 2
    frequency:   -2.0205348016
  - # 3
    frequency:   -1.7307031546
  - # 4
    frequency:   -1.6151372489
  - # 5
    frequency:   -0.5667336991
  - # 6
    frequency:    0.1658096005
  - # 7
    frequency:    0.5612865778
  - # 8
    frequency:    0.8866053061
  - # 9
    frequency:    3.4502947515
  - # 10
    frequency:    3.5533080178
  - # 11
    frequency:    6.3464099139
  - # 12
    frequency:    6.5038932687
  - # 13
    frequency:    7.1116576217
  - # 14
    frequency:    8.4165855628
  - # 15
    frequency:    8.5041736624
  - # 16
    frequency:   11.3496335673
  - # 17
    frequency:   15.4244161391
  - # 18
    frequency:   15.6051169831
  - # 19
    frequency:   16.1801606739
  - # 20
    frequency:   17.1546443008
  - # 21
    frequency:   17.1852058746
  - # 22
    frequency:   19.5431569562
  - # 23
    frequency:   38.5863542855
  - # 24
    frequency:   69.2098408195

- q-position: [    0.0606061,    0.0000000,    0.0000000 ]
  distance:    0.0225760
  band:
  - # 1
    frequency:   -2.4129042862
  - # 2
    frequency:   -2.0533205514
  - # 3
    frequency:   -1.7316397145
  - # 4
    frequency:   -1.5671515592
  - # 5
    frequency:   -0.5797862689
  - # 6
    frequency:    0.1983233255
  - # 7
    frequency:    0.5977326698
  - # 8
    frequency:    0.9041170843
  - # 9
    frequency:    3.4740926164
  - # 10
    frequency:    3.5981729308
  - # 11
    frequency:    6.3354451863
  - # 12
    frequency:    6.5153165183
  - # 13
    frequency:    7.0982821091
  - # 14
    frequency:    8.3892708403
  - # 15
    frequency:    8.4870144701
  - # 16
    frequency:   11.3273759659
  - # 17
    frequency:   15.3884675331
  - # 18
    frequency:   15.5961590558
  - # 19
    frequency:   16.1785656864
  - # 20
    frequency:   17.1564243139
  - # 21
    frequency:   17.1926090943
  - # 22
    frequency:   19.5283644259
  - # 23
    frequency:   38.5858419765
  - # 24
    frequency:   69.1808892151

- q-position: [    0.0656566,    0.0000000,    0.0000000 ]
  distance:    0.0244573
  band:
  - # 1
    frequency:   -2.5160183566
  - # 2
    frequency:   -2.0939613434
  - # 3
    frequency:   -1.7259943201
  - # 4
    frequency:   -1.5166725437
  - # 5
    frequency:   -0.5815917628
  - # 6
    frequency:    0.2281223845
  - # 7
    frequency:    0.6241059999
  - # 8
    frequency:    0.9118345272
  - # 9
    frequency:    3.5001777824
  - # 10
    frequency:    3.6478858661
  - # 11
    frequency:    6.3240017652
  - # 12
    frequency:    6.5256318576
  - # 13
    frequency:    7.0850209245
  - # 14
    frequency:    8.3623911778
  - # 15
    frequency:    8.4688266625
  - # 16
    frequency:   11.3033890409
  - # 17
    frequency:   15.3513469995
  - # 18
    frequency:   15.5866337809
  - # 19
    frequency:   16.1756207856
  - # 20
    frequency:   17.1583400625
  - # 21
    frequency:   17.2005757937
  - # 22
    frequency:   19.5125194293
  - # 23
    frequency:   38.5852950965
  - # 24
    frequency:   69.1496693407

- q-position: [    0.0707071,    0.0000000,    0.0000000 ]
  distance:    0.0263386
  band:
  - # 1
    frequency:   -2.6215077972
  - # 2
    frequency:   -2.1409225516
  - # 3
    frequency:   -1.7148521273
  - # 4
    frequency:   -1.4657392592
  - # 5
    frequency:   -0.5701071256
  - # 6
    frequency:    0.2548773102
  - # 7
    frequency:    0.6360512692
  - # 8
    frequency:    0.9102857243
  - # 9
    frequency:    3.5285664547
  - # 10
    frequency:    3.7026007616
  - # 11
    frequency:    6.3122035835
  - # 12
    frequency:    6.5344628168
  - # 13
    frequency:    7.0722276333
  - # 14
    frequency:    8.3366003605
  - # 15
    frequency:    8.4497207869
  - # 16
    frequency:   11.2777227223
  - # 17
    frequency:   15.3132916298
  - # 18
    frequency:   15.5765894567
  - # 19
    frequency:   16.1712588030
  - # 20
    frequency:   17.1603871673
  - # 21
    frequency:   17.2090887646
  - # 22
    frequency:   19.4956746900
  - # 23
    frequency:   38.5847159781
  - # 24
    frequency:   69.1162415188

- q-position: [    0.0757576,    0.0000000,    0.0000000 ]
  distance:    0.0282199
  band:
  - # 1
    frequency:   -2.7284971048
  - # 2
    frequency:   -2.1927005444
  - # 3
    frequency:   -1.6992779322
  - # 4
    frequency:   -1.4167661347
  - # 5
    frequency:   -0.5454454562
  - # 6
    frequency:    0.2782143708
  - # 7
    frequency:    0.6255232136
  - # 8
    frequency:    0.9042502479
  - # 9
    frequency:    3.5592638084
  - # 10
    frequency:    3.7623829292
  - # 11
    frequency:    6.3001863105
  - # 12
    frequency:    6.5415077635
  - # 13
    frequency:    7.0602610131
  - # 14
    frequency:    8.3125589140
  - # 15
    frequency:    8.4298136275
  - # 16
    frequency:   11.2504302991
  - # 17
    frequency:   15.2745239413
  - # 18
    frequency:   15.5660765385
  - # 19
    frequency:   16.1654353474
  - # 20
    frequency:   17.1625610308
  - # 21
    frequency:   17.2181301727
  - # 22
    frequency:   19.4778850020
  - # 23
    frequency:   38.5841070791
  - # 24
    frequency:   69.0806701123

- q-position: [    0.0808081,    0.0000000,    0.0000000 ]
  distance:    0.0301013
  band:
  - # 1
    frequency:   -2.8362791406
  - # 2
    frequency:   -2.2480429766
  - # 3
    frequency:   -1.6801070195
  - # 4
    frequency:   -1.3725475514
  - # 5
    frequency:   -0.5190886765
  - # 6
    frequency:    0.2977664321
  - # 7
    frequency:    0.5874513925
  - # 8
    frequency:    0.9022578859
  - # 9
    frequency:    3.5922626699
  - # 10
    frequency:    3.8271735777
  - # 11
    frequency:    6.2880975481
  - # 12
    frequency:    6.5465835748
  - # 13
    frequency:    7.0494613318
  - # 14
    frequency:    8.2909121986
  - # 15
    frequency:    8.4092274092
  - # 16
    frequency:   11.2215682830
  - # 17
    frequency:   15.2352540717
  - # 18
    frequency:   15.5551473101
  - # 19
    frequency:   16.1581257744
  - # 20
    frequency:   17.1648568583
  - # 21
    frequency:   17.2276815909
  - # 22
    frequency:   19.4592068088
  - # 23
    frequency:   38.5834709697
  - # 24
    frequency:   69.0430233505

- q-position: [    0.0858586,    0.0000000,    0.0000000 ]
  distance:    0.0319826
  band:
  - # 1
    frequency:   -2.9442644626
  - # 2
    frequency:   -2.3059581494
  - # 3
    frequency:   -1.6579435534
  - # 4
    frequency:   -1.3362172859
  - # 5
    frequency:   -0.5395525362
  - # 6
    frequency:    0.3131897250
  - # 7
    frequency:    0.5518400889
  - # 8
    frequency:    0.9097339579
  - # 9
    frequency:    3.6275425667
  - # 10
    frequency:    3.8967624426
  - # 11
    frequency:    6.2760969140
  - # 12
    frequency:    6.5496674362
  - # 13
    frequency:    7.0401271301
  - # 14
    frequency:    8.2722656917
  - # 15
    frequency:    8.3880889111
  - # 16
    frequency:   11.1911962711
  - # 17
    frequency:   15.1956815731
  - # 18
    frequency:   15.5438555527
  - # 19
    frequency:   16.1493225965
  - # 20
    frequency:   17.1672696790
  - # 21
    frequency:   17.2377240163
  - # 22
    frequency:   19.4396977786
  - # 23
    frequency:   38.5828103196
  - # 24
    frequency:   69.0033731439

- q-position: [    0.0909091,    0.0000000,    0.0000000 ]
  distance:    0.0338639
  band:
  - # 1
    frequency:   -3.0519502581
  - # 2
    frequency:   -2.3656618618
  - # 3
    frequency:   -1.6332188179
  - # 4
    frequency:   -1.3119907285
  - # 5
    frequency:   -0.6630349139
  - # 6
    frequency:    0.3241673908
  - # 7
    frequency:    0.5910495350
  - # 8
    frequency:    0.9257727909
  - # 9
    frequency:    3.6650691743
  - # 10
    frequency:    3.9707732415
  - # 11
    frequency:    6.2643559730
  - # 12
    frequency:    6.5509258336
  - # 13
    frequency:    7.0325010794
  - # 14
    frequency:    8.2571592890
  - # 15
    frequency:    8.3665284978
  - # 16
    frequency:   11.1593768105
  - # 17
    frequency:   15.1559968434
  - # 18
    frequency:   15.5322562123
  - # 19
    frequency:   16.1390333053
  - # 20
    frequency:   17.1697943652
  - # 21
    frequency:   17.2482378773
  - # 22
    frequency:   19.4194163763
  - # 23
    frequency:   38.5821278845
  - # 24
    frequency:   68.9617948887

- q-position: [    0.0959596,    0.0000000,    0.0000000 ]
  distance:    0.0357453
  band:
  - # 1
    frequency:   -3.1588999926
  - # 2
    frequency:   -2.4265230749
  - # 3
    frequency:   -1.6062488638
  - # 4
    frequency:   -1.3093950802
  - # 5
    frequency:   -0.8390211032
  - # 6
    frequency:    0.3304078063
  - # 7
    frequency:    0.6996913862
  - # 8
    frequency:    0.9476356161
  - # 9
    frequency:    3.7047941671
  - # 10
    frequency:    4.0486638968
  - # 11
    frequency:    6.2530579695
  - # 12
    frequency:    6.5507197134
  - # 13
    frequency:    7.0267732425
  - # 14
    frequency:    8.2460431473
  - # 15
    frequency:    8.3446790864
  - # 16
    frequency:   11.1261752700
  - # 17
    frequency:   15.1163822480
  - # 18
    frequency:   15.5204050704
  - # 19
    frequency:   16.1272785545
  - # 20
    frequency:   17.1724256513
  - # 21
    frequency:   17.2592030358
  - # 22
    frequency:   19.3984214401
  - # 23
    frequency:   38.5814264929
  - # 24
    frequency:   68.9183672626

- q-position: [    0.1010101,    0.0000000,    0.0000000 ]
  distance:    0.0376266
  band:
  - # 1
    frequency:   -3.2647293643
  - # 2
    frequency:   -2.4880226636
  - # 3
    frequency:   -1.5772781682
  - # 4
    frequency:   -1.3561977088
  - # 5
    frequency:   -0.9882290307
  - # 6
    frequency:    0.3316412495
  - # 7
    frequency:    0.8300993626
  - # 8
    frequency:    0.9739512086
  - # 9
    frequency:    3.7466554527
  - # 10
    frequency:    4.1297403378
  - # 11
    frequency:    6.2423973184
  - # 12
    frequency:    6.5495797401
  - # 13
    frequency:    7.0231052228
  - # 14
    frequency:    8.2392579305
  - # 15
    frequency:    8.3226750655
  - # 16
    frequency:   11.0916597217
  - # 17
    frequency:   15.0770129916
  - # 18
    frequency:   15.5083584188
  - # 19
    frequency:   16.1140906510
  - # 20
    frequency:   17.1751581518
  - # 21
    frequency:   17.2705987881
  - # 22
    frequency:   19.3767717650
  - # 23
    frequency:   38.5807090321
  - # 24
    frequency:   68.8731720111

- q-position: [    0.1060606,    0.0000000,    0.0000000 ]
  distance:    0.0395079
  band:
  - # 1
    frequency:   -3.3690962133
  - # 2
    frequency:   -2.5497245692
  - # 3
    frequency:   -1.5465108080
  - # 4
    frequency:   -1.4875337296
  - # 5
    frequency:   -1.0583802300
  - # 6
    frequency:    0.3276167747
  - # 7
    frequency:    0.9553723621
  - # 8
    frequency:    1.0103771718
  - # 9
    frequency:    3.7905777523
  - # 10
    frequency:    4.2131804241
  - # 11
    frequency:    6.2325788082
  - # 12
    frequency:    6.5481539601
  - # 13
    frequency:    7.0216710237
  - # 14
    frequency:    8.2370221041
  - # 15
    frequency:    8.3006511943
  - # 16
    frequency:   11.0559008416
  - # 17
    frequency:   15.0380577873
  - # 18
    frequency:   15.4961727422
  - # 19
    frequency:   16.0995123031
  - # 20
    frequency:   17.1779863780
  - # 21
    frequency:   17.2824038706
  - # 22
    frequency:   19.3545256978
  - # 23
    frequency:   38.5799784345
  - # 24
    frequency:   68.8262937260

- q-position: [    0.1111111,    0.0000000,    0.0000000 ]
  distance:    0.0413892
  band:
  - # 1
    frequency:   -3.4716930428
  - # 2
    frequency:   -2.6112559214
  - # 3
    frequency:   -1.6779111034
  - # 4
    frequency:   -1.5141333297
  - # 5
    frequency:   -1.0692729705
  - # 6
    frequency:    0.3181006382
  - # 7
    frequency:    1.0180692835
  - # 8
    frequency:    1.1078560363
  - # 9
    frequency:    3.8364734702
  - # 10
    frequency:    4.2980638175
  - # 11
    frequency:    6.2238164799
  - # 12
    frequency:    6.5471377495
  - # 13
    frequency:    7.0227041385
  - # 14
    frequency:    8.2394280486
  - # 15
    frequency:    8.2787415063
  - # 16
    frequency:   11.0189718316
  - # 17
    frequency:   14.9996793684
  - # 18
    frequency:   15.4839044107
  - # 19
    frequency:   16.0835955870
  - # 20
    frequency:   17.1809047544
  - # 21
    frequency:   17.2945964704
  - # 22
    frequency:   19.3317407480
  - # 23
    frequency:   38.5792376645
  - # 24
    frequency:   68.7778196162

- q-position: [    0.1161616,    0.0000000,    0.0000000 ]
  distance:    0.0432706
  band:
  - # 1
    frequency:   -3.5722413462
  - # 2
    frequency:   -2.6722931675
  - # 3
    frequency:   -1.8898952705
  - # 4
    frequency:   -1.4803329713
  - # 5
    frequency:   -1.0552194280
  - # 6
    frequency:    0.3028778279
  - # 7
    frequency:    1.0512019672
  - # 8
    frequency:    1.2315002201
  - # 9
    frequency:    3.8842437866
  - # 10
    frequency:    4.3834043445
  - # 11
    frequency:    6.2163321512
  - # 12
    frequency:    6.5471992444
  - # 13
    frequency:    7.0265386263
  - # 14
    frequency:    8.2464473813
  - # 15
    frequency:    8.2570782489
  - # 16
    frequency:   10.9809483737
  - # 17
    frequency:   14.9620348714
  - # 18
    frequency:   15.4716093840
  - # 19
    frequency:   16.0664010970
  - # 20
    frequency:   17.1839076339
  - # 21
    frequency:   17.3071542460
  - # 22
    frequency:   19.3084732171
  - # 23
    frequency:   38.5784897041
  - # 24
    frequency:   68.7278392710

- q-position: [    0.1212121,    0.0000000,    0.0000000 ]
  distance:    0.0451519
  band:
  - # 1
    frequency:   -3.6704872249
  - # 2
    frequency:   -2.7325521694
  - # 3
    frequency:   -2.1088180717
  - # 4
    frequency:   -1.4453139155
  - # 5
    frequency:   -1.0282976219
  - # 6
    frequency:    0.2817593677
  - # 7
    frequency:    1.0828147193
  - # 8
    frequency:    1.3528921831
  - # 9
    frequency:    3.9337799069
  - # 10
    frequency:    4.4681828715
  - # 11
    frequency:    6.2103535664
  - # 12
    frequency:    6.5489124231
  - # 13
    frequency:    7.0336343764
  - # 14
    frequency:    8.2357908914
  - # 15
    frequency:    8.2579443509
  - # 16
    frequency:   10.9419086222
  - # 17
    frequency:   14.9252761134
  - # 18
    frequency:   15.4593429299
  - # 19
    frequency:   16.0479972564
  - # 20
    frequency:   17.1869893128
  - # 21
    frequency:   17.3200543564
  - # 22
    frequency:   19.2847778521
  - # 23
    frequency:   38.5777375404
  - # 24
    frequency:   68.6764444183

- q-position: [    0.1262626,    0.0000000,    0.0000000 ]
  distance:    0.0470332
  band:
  - # 1
    frequency:   -3.7661979634
  - # 2
    frequency:   -2.7917809465
  - # 3
    frequency:   -2.3292545103
  - # 4
    frequency:   -1.4093133944
  - # 5
    frequency:   -0.9913350614
  - # 6
    frequency:    0.2546011153
  - # 7
    frequency:    1.1147780283
  - # 8
    frequency:    1.4703064470
  - # 9
    frequency:    3.9849644034
  - # 10
    frequency:    4.5513801505
  - # 11
    frequency:    6.2061121705
  - # 12
    frequency:    6.5527070057
  - # 13
    frequency:    7.0445806535
  - # 14
    frequency:    8.2150052307
  - # 15
    frequency:    8.2736949468
  - # 16
    frequency:   10.9019332452
  - # 17
    frequency:   14.8895497741
  - # 18
    frequency:   15.4471593582
  - # 19
    frequency:   16.0284597727
  - # 20
    frequency:   17.1901440442
  - # 21
    frequency:   17.3332734997
  - # 22
    frequency:   19.2607075241
  - # 23
    frequency:   38.5769841518
  - # 24
    frequency:   68.6237286764

- q-position: [    0.1313131,    0.0000000,    0.0000000 ]
  distance:    0.0489146
  band:
  - # 1
    frequency:   -3.8591593326
  - # 2
    frequency:   -2.8497542254
  - # 3
    frequency:   -2.5485719943
  - # 4
    frequency:   -1.3726186171
  - # 5
    frequency:   -0.9441063646
  - # 6
    frequency:    0.2213484670
  - # 7
    frequency:    1.1473834117
  - # 8
    frequency:    1.5837656168
  - # 9
    frequency:    4.0376725963
  - # 10
    frequency:    4.6320099044
  - # 11
    frequency:    6.2038405174
  - # 12
    frequency:    6.5588415580
  - # 13
    frequency:    7.0600750240
  - # 14
    frequency:    8.1948426277
  - # 15
    frequency:    8.2934087767
  - # 16
    frequency:   10.8611055250
  - # 17
    frequency:   14.8549974873
  - # 18
    frequency:   15.4351117725
  - # 19
    frequency:   16.0078712271
  - # 20
    frequency:   17.1933660523
  - # 21
    frequency:   17.3467879610
  - # 22
    frequency:   19.2363129361
  - # 23
    frequency:   38.5762324957
  - # 24
    frequency:   68.5697873011

- q-position: [    0.1363636,    0.0000000,    0.0000000 ]
  distance:    0.0507959
  band:
  - # 1
    frequency:   -3.9491734724
  - # 2
    frequency:   -2.9062692562
  - # 3
    frequency:   -2.7651052543
  - # 4
    frequency:   -1.3355842761
  - # 5
    frequency:   -0.8848804770
  - # 6
    frequency:    0.1821509271
  - # 7