nqpoint: 300    
npath: 3      
segment_nqpoint:
- 100
- 100
- 100
labels:
- [ 'G', 'M' ]
- [ 'M', 'K' ]
- [ 'K', 'G' ]
reciprocal_lattice:
- [   0.27232769,   0.15722847,   0.00000000 ] # a*
- [   0.00000000,   0.31445693,   0.00000000 ] # b*
- [   0.00000000,   0.00000000,   0.03669095 ] # c*
natom: 8      
lattice:
- [     3.672046691415118,     0.000000000000000,     0.000000000000000 ] # a
- [    -1.836023345707559,     3.180085718665906,     0.000000000000000 ] # b
- [     0.000000000000000,     0.000000000000000,    27.254676669361366 ] # c
points:
- symbol: C # 1
  coordinates: [  0.000000000000000,  0.000000000000000,  0.521423054419336 ]
  mass: 12.010700
- symbol: C # 2
  coordinates: [  0.333332985432215,  0.666666983183674,  0.625772799116534 ]
  mass: 12.010700
- symbol: C # 3
  coordinates: [  0.666666984744047,  0.333332985985145,  0.374469439909228 ]
  mass: 12.010700
- symbol: N # 4
  coordinates: [  0.333332985432215,  0.666666983183674,  0.669781443046160 ]
  mass: 14.006700
- symbol: N # 5
  coordinates: [  0.666666984744047,  0.333332985985145,  0.420231790626201 ]
  mass: 14.006700
- symbol: O # 6
  coordinates: [  0.666666984744047,  0.333332985985145,  0.330218556953840 ]
  mass: 15.999400
- symbol: Y # 7
  coordinates: [  0.333332985432215,  0.666666983183674,  0.471367499206627 ]
  mass: 88.905850
- symbol: Y # 8
  coordinates: [  0.666666984744047,  0.333332985985145,  0.571391104183490 ]
  mass: 88.905850

phonon:
- q-position: [    0.0000000,    0.0000000,    0.0000000 ]
  distance:    0.0000000
  band:
  - # 1
    frequency:   -2.6811136061
  - # 2
    frequency:   -2.6811136061
  - # 3
    frequency:   -0.0000174952
  - # 4
    frequency:   -0.0000001160
  - # 5
    frequency:    0.0000198215
  - # 6
    frequency:    0.3878486144
  - # 7
    frequency:    0.3878486145
  - # 8
    frequency:    3.4782404746
  - # 9
    frequency:    3.4782404747
  - # 10
    frequency:    4.8805316400
  - # 11
    frequency:    5.3582797113
  - # 12
    frequency:    5.3582797114
  - # 13
    frequency:    7.1390335303
  - # 14
    frequency:    7.1390335303
  - # 15
    frequency:    7.1708515961
  - # 16
    frequency:    8.3739206217
  - # 17
    frequency:    9.4631722302
  - # 18
    frequency:    9.4631722303
  - # 19
    frequency:   16.2501220373
  - # 20
    frequency:   17.8008352190
  - # 21
    frequency:   17.8008352192
  - # 22
    frequency:   38.5508939389
  - # 23
    frequency:   62.5831085296
  - # 24
    frequency:   68.7034625205

- q-position: [    0.0050505,    0.0000000,    0.0000000 ]
  distance:    0.0015882
  band:
  - # 1
    frequency:   -2.6811536794
  - # 2
    frequency:   -2.6809286406
  - # 3
    frequency:    0.0012645593
  - # 4
    frequency:    0.0558653159
  - # 5
    frequency:    0.0939989234
  - # 6
    frequency:    0.3883582756
  - # 7
    frequency:    0.3908085803
  - # 8
    frequency:    3.4782721560
  - # 9
    frequency:    3.4788645893
  - # 10
    frequency:    4.8803573887
  - # 11
    frequency:    5.3582655784
  - # 12
    frequency:    5.3612088670
  - # 13
    frequency:    7.1390541858
  - # 14
    frequency:    7.1410549494
  - # 15
    frequency:    7.1706725060
  - # 16
    frequency:    8.3729535569
  - # 17
    frequency:    9.4629027285
  - # 18
    frequency:    9.4677438739
  - # 19
    frequency:   16.2488380415
  - # 20
    frequency:   17.8008538622
  - # 21
    frequency:   17.8011299462
  - # 22
    frequency:   38.5508649790
  - # 23
    frequency:   62.5830570469
  - # 24
    frequency:   68.7024232310

- q-position: [    0.0101010,    0.0000000,    0.0000000 ]
  distance:    0.0031763
  band:
  - # 1
    frequency:   -2.6812739007
  - # 2
    frequency:   -2.6803762117
  - # 3
    frequency:    0.0050631763
  - # 4
    frequency:    0.1113423573
  - # 5
    frequency:    0.1859795937
  - # 6
    frequency:    0.3899882452
  - # 7
    frequency:    0.4004912317
  - # 8
    frequency:    3.4783672667
  - # 9
    frequency:    3.4807348956
  - # 10
    frequency:    4.8798452739
  - # 11
    frequency:    5.3582236583
  - # 12
    frequency:    5.3698906264
  - # 13
    frequency:    7.1391165303
  - # 14
    frequency:    7.1470881849
  - # 15
    frequency:    7.1701357157
  - # 16
    frequency:    8.3700686391
  - # 17
    frequency:    9.4620951107
  - # 18
    frequency:    9.4814775888
  - # 19
    frequency:   16.2449892099
  - # 20
    frequency:   17.8009097875
  - # 21
    frequency:   17.8020124364
  - # 22
    frequency:   38.5507781528
  - # 23
    frequency:   62.5829026989
  - # 24
    frequency:   68.6993075548

- q-position: [    0.0151515,    0.0000000,    0.0000000 ]
  distance:    0.0047645
  band:
  - # 1
    frequency:   -2.6814742672
  - # 2
    frequency:   -2.6794635894
  - # 3
    frequency:    0.0114046116
  - # 4
    frequency:    0.1658862778
  - # 5
    frequency:    0.2715226867
  - # 6
    frequency:    0.3931013337
  - # 7
    frequency:    0.4206222176
  - # 8
    frequency:    3.4785260066
  - # 9
    frequency:    3.4838452747
  - # 10
    frequency:    4.8790246993
  - # 11
    frequency:    5.3581553846
  - # 12
    frequency:    5.3840171066
  - # 13
    frequency:    7.1392216948
  - # 14
    frequency:    7.1570387822
  - # 15
    frequency:    7.1692432135
  - # 16
    frequency:    8.3653129256
  - # 17
    frequency:    9.4607520349
  - # 18
    frequency:    9.5044289796
  - # 19
    frequency:   16.2385849636
  - # 20
    frequency:   17.8010029829
  - # 21
    frequency:   17.8034776636
  - # 22
    frequency:   38.5506336217
  - # 23
    frequency:   62.5826457856
  - # 24
    frequency:   68.6941220624

- q-position: [    0.0202020,    0.0000000,    0.0000000 ]
  distance:    0.0063527
  band:
  - # 1
    frequency:   -2.6817547546
  - # 2
    frequency:   -2.6782024603
  - # 3
    frequency:    0.0202962369
  - # 4
    frequency:    0.2185141433
  - # 5
    frequency:    0.3395388415
  - # 6
    frequency:    0.3985571056
  - # 7
    frequency:    0.4617788483
  - # 8
    frequency:    3.4787487074
  - # 9
    frequency:    3.4881855157
  - # 10
    frequency:    4.8779374178
  - # 11
    frequency:    5.3580631409
  - # 12
    frequency:    5.4031042034
  - # 13
    frequency:    7.1393715551
  - # 14
    frequency:    7.1679765419
  - # 15
    frequency:    7.1707686419
  - # 16
    frequency:    8.3587593545
  - # 17
    frequency:    9.4588779225
  - # 18
    frequency:    9.5366878022
  - # 19
    frequency:   16.2296408490
  - # 20
    frequency:   17.8011334277
  - # 21
    frequency:   17.8055174038
  - # 22
    frequency:   38.5504316541
  - # 23
    frequency:   62.5822868064
  - # 24
    frequency:   68.6868776831

- q-position: [    0.0252525,    0.0000000,    0.0000000 ]
  distance:    0.0079408
  band:
  - # 1
    frequency:   -2.6821152870
  - # 2
    frequency:   -2.6766083276
  - # 3
    frequency:    0.0317360412
  - # 4
    frequency:    0.2671872553
  - # 5
    frequency:    0.3816798003
  - # 6
    frequency:    0.4083054946
  - # 7
    frequency:    0.5318663478
  - # 8
    frequency:    3.4790358304
  - # 9
    frequency:    3.4937413286
  - # 10
    frequency:    4.8766298315
  - # 11
    frequency:    5.3579502506
  - # 12
    frequency:    5.4265297802
  - # 13
    frequency:    7.1395687164
  - # 14
    frequency:    7.1663876331
  - # 15
    frequency:    7.1880027102
  - # 16
    frequency:    8.3504997995
  - # 17
    frequency:    9.4564789433
  - # 18
    frequency:    9.5783722868
  - # 19
    frequency:   16.2181783166
  - # 20
    frequency:   17.8013010930
  - # 21
    frequency:   17.8081204542
  - # 22
    frequency:   38.5501726246
  - # 23
    frequency:   62.5818264581
  - # 24
    frequency:   68.6775896734

- q-position: [    0.0303030,    0.0000000,    0.0000000 ]
  distance:    0.0095290
  band:
  - # 1
    frequency:   -2.6825556976
  - # 2
    frequency:   -2.6746997539
  - # 3
    frequency:    0.0457069977
  - # 4
    frequency:    0.3078943033
  - # 5
    frequency:    0.4096863572
  - # 6
    frequency:    0.4262904527
  - # 7
    frequency:    0.6187361187
  - # 8
    frequency:    3.4793879645
  - # 9
    frequency:    3.5004944168
  - # 10
    frequency:    4.8751465310
  - # 11
    frequency:    5.3578209642
  - # 12
    frequency:    5.4535786377
  - # 13
    frequency:    7.1398164944
  - # 14
    frequency:    7.1644380939
  - # 15
    frequency:    7.2084884405
  - # 16
    frequency:    8.3406374481
  - # 17
    frequency:    9.4535629963
  - # 18
    frequency:    9.6296192298
  - # 19
    frequency:   16.2042244296
  - # 20
    frequency:   17.8015059406
  - # 21
    frequency:   17.8112729209
  - # 22
    frequency:   38.5498570132
  - # 23
    frequency:   62.5812656331
  - # 24
    frequency:   68.6662775727

- q-position: [    0.0353535,    0.0000000,    0.0000000 ]
  distance:    0.0111172
  band:
  - # 1
    frequency:   -2.6830756810
  - # 2
    frequency:   -2.6724975116
  - # 3
    frequency:    0.0621745557
  - # 4
    frequency:    0.3361123797
  - # 5
    frequency:    0.4338298955
  - # 6
    frequency:    0.4569813047
  - # 7
    frequency:    0.7117384346
  - # 8
    frequency:    3.4798058236
  - # 9
    frequency:    3.5084226380
  - # 10
    frequency:    4.8735263841
  - # 11
    frequency:    5.3576804406
  - # 12
    frequency:    5.4834892362
  - # 13
    frequency:    7.1401188886
  - # 14
    frequency:    7.1621429471
  - # 15
    frequency:    7.2318537572
  - # 16
    frequency:    8.3292797414
  - # 17
    frequency:    9.4501396840
  - # 18
    frequency:    9.6905690961
  - # 19
    frequency:   16.1878115216
  - # 20
    frequency:   17.8017479228
  - # 21
    frequency:   17.8149585580
  - # 22
    frequency:   38.5494854037
  - # 23
    frequency:   62.5806054170
  - # 24
    frequency:   68.6529651459

- q-position: [    0.0404040,    0.0000000,    0.0000000 ]
  distance:    0.0127053
  band:
  - # 1
    frequency:   -2.6836747391
  - # 2
    frequency:   -2.6700237070
  - # 3
    frequency:    0.0810867838
  - # 4
    frequency:    0.3526662208
  - # 5
    frequency:    0.4575307380
  - # 6
    frequency:    0.4995088949
  - # 7
    frequency:    0.8071065746
  - # 8
    frequency:    3.4802902448
  - # 9
    frequency:    3.5175002760
  - # 10
    frequency:    4.8718011859
  - # 11
    frequency:    5.3575347260
  - # 12
    frequency:    5.5154980687
  - # 13
    frequency:    7.1404805510
  - # 14
    frequency:    7.1595073848
  - # 15
    frequency:    7.2576765275
  - # 16
    frequency:    8.3165327093
  - # 17
    frequency:    9.4462202819
  - # 18
    frequency:    9.7613462963
  - # 19
    frequency:   16.1689768207
  - # 20
    frequency:   17.8020269820
  - # 21
    frequency:   17.8191591401
  - # 22
    frequency:   38.5490584828
  - # 23
    frequency:   62.5798470854
  - # 24
    frequency:   68.6376803142

- q-position: [    0.0454545,    0.0000000,    0.0000000 ]
  distance:    0.0142935
  band:
  - # 1
    frequency:   -2.6843521227
  - # 2
    frequency:   -2.6673009345
  - # 3
    frequency:    0.1023760574
  - # 4
    frequency:    0.3625008355
  - # 5
    frequency:    0.4818074430
  - # 6
    frequency:    0.5488900617
  - # 7
    frequency:    0.9035104902
  - # 8
    frequency:    3.4808421869
  - # 9
    frequency:    3.5276984227
  - # 10
    frequency:    4.8699961378
  - # 11
    frequency:    5.3573907256
  - # 12
    frequency:    5.5488784608
  - # 13
    frequency:    7.1409067496
  - # 14
    frequency:    7.1565369422
  - # 15
    frequency:    7.2854860384
  - # 16
    frequency:    8.3024970620
  - # 17
    frequency:    9.4418177014
  - # 18
    frequency:    9.8420359164
  - # 19
    frequency:   16.1477620617
  - # 20
    frequency:   17.8023430495
  - # 21
    frequency:   17.8238548487
  - # 22
    frequency:   38.5485770377
  - # 23
    frequency:   62.5789921000
  - # 24
    frequency:   68.6204550745

- q-position: [    0.0505051,    0.0000000,    0.0000000 ]
  distance:    0.0158817
  band:
  - # 1
    frequency:   -2.6851067713
  - # 2
    frequency:   -2.6643515053
  - # 3
    frequency:    0.1259612820
  - # 4
    frequency:    0.3691683789
  - # 5
    frequency:    0.5069497973
  - # 6
    frequency:    0.6015388841
  - # 7
    frequency:    1.0003847667
  - # 8
    frequency:    3.4814627318
  - # 9
    frequency:    3.5389854599
  - # 10
    frequency:    4.8681312845
  - # 11
    frequency:    5.3572561722
  - # 12
    frequency:    5.5829713945
  - # 13
    frequency:    7.1414033254
  - # 14
    frequency:    7.1532377540
  - # 15
    frequency:    7.3147796864
  - # 16
    frequency:    8.2872660143
  - # 17
    frequency:    9.4369464488
  - # 18
    frequency:    9.9326591719
  - # 19
    frequency:   16.1242131034
  - # 20
    frequency:   17.8026960450
  - # 21
    frequency:   17.8290246557
  - # 22
    frequency:   38.5480419544
  - # 23
    frequency:   62.5780421044
  - # 24
    frequency:   68.6013254050

- q-position: [    0.0555556,    0.0000000,    0.0000000 ]
  distance:    0.0174698
  band:
  - # 1
    frequency:   -2.6859372538
  - # 2
    frequency:   -2.6611967801
  - # 3
    frequency:    0.1517500337
  - # 4
    frequency:    0.3743612161
  - # 5
    frequency:    0.5330039658
  - # 6
    frequency:    0.6557323675
  - # 7
    frequency:    1.0974422340
  - # 8
    frequency:    3.4821530862
  - # 9
    frequency:    3.5513276154
  - # 10
    frequency:    4.8662232357
  - # 11
    frequency:    5.3571395876
  - # 12
    frequency:    5.6172068827
  - # 13
    frequency:    7.1419766450
  - # 14
    frequency:    7.1496165779
  - # 15
    frequency:    7.3450438698
  - # 16
    frequency:    8.2709245855
  - # 17
    frequency:    9.4316225771
  - # 18
    frequency:   10.0331504656
  - # 19
    frequency:   16.0983795689
  - # 20
    frequency:   17.8030858757
  - # 21
    frequency:   17.8346466891
  - # 22
    frequency:   38.5474542153
  - # 23
    frequency:   62.5769989199
  - # 24
    frequency:   68.5803311615

- q-position: [    0.0606061,    0.0000000,    0.0000000 ]
  distance:    0.0190580
  band:
  - # 1
    frequency:   -2.6868417106
  - # 2
    frequency:   -2.6578566196
  - # 3
    frequency:    0.1796403418
  - # 4
    frequency:    0.3788593518
  - # 5
    frequency:    0.5599312772
  - # 6
    frequency:    0.7106621622
  - # 7
    frequency:    1.1945123904
  - # 8
    frequency:    3.4829145878
  - # 9
    frequency:    3.5646895638
  - # 10
    frequency:    4.8642867793
  - # 11
    frequency:    5.3570502389
  - # 12
    frequency:    5.6511155180
  - # 13
    frequency:    7.1426335476
  - # 14
    frequency:    7.1456807841
  - # 15
    frequency:    7.3757765433
  - # 16
    frequency:    8.2535500288
  - # 17
    frequency:    9.4258636340
  - # 18
    frequency:   10.1433389758
  - # 19
    frequency:   16.0703145222
  - # 20
    frequency:   17.8035124352
  - # 21
    frequency:   17.8406985676
  - # 22
    frequency:   38.5468148972
  - # 23
    frequency:   62.5758645395
  - # 24
    frequency:   68.5575159611

- q-position: [    0.0656566,    0.0000000,    0.0000000 ]
  distance:    0.0206462
  band:
  - # 1
    frequency:   -2.6878178019
  - # 2
    frequency:   -2.6543489577
  - # 3
    frequency:    0.2095220506
  - # 4
    frequency:    0.3830487538
  - # 5
    frequency:    0.5876671741
  - # 6
    frequency:    0.7659156551
  - # 7
    frequency:    1.2914788742
  - # 8
    frequency:    3.4837487138
  - # 9
    frequency:    3.5790350424
  - # 10
    frequency:    4.8623362193
  - # 11
    frequency:    5.3569980879
  - # 12
    frequency:    5.6843309304
  - # 13
    frequency:    7.1414383343
  - # 14
    frequency:    7.1433812868
  - # 15
    frequency:    7.4065085665
  - # 16
    frequency:    8.2352130645
  - # 17
    frequency:    9.4196886040
  - # 18
    frequency:   10.2629371384
  - # 19
    frequency:   16.0400741926
  - # 20
    frequency:   17.8039756022
  - # 21
    frequency:   17.8471576977
  - # 22
    frequency:   38.5461251683
  - # 23
    frequency:   62.5746411227
  - # 24
    frequency:   68.5329270550

- q-position: [    0.0707071,    0.0000000,    0.0000000 ]
  distance:    0.0222343
  band:
  - # 1
    frequency:   -2.6888626610
  - # 2
    frequency:   -2.6506894915
  - # 3
    frequency:    0.2412777912
  - # 4
    frequency:    0.3871371005
  - # 5
    frequency:    0.6161449423
  - # 6
    frequency:    0.8212598141
  - # 7
    frequency:    1.3882519827
  - # 8
    frequency:    3.4846570940
  - # 9
    frequency:    3.5943274551
  - # 10
    frequency:    4.8603864076
  - # 11
    frequency:    5.3569937343
  - # 12
    frequency:    5.7165847902
  - # 13
    frequency:    7.1368977589
  - # 14
    frequency:    7.1442274683
  - # 15
    frequency:    7.4368211598
  - # 16
    frequency:    8.2159796606
  - # 17
    frequency:    9.4131178453
  - # 18
    frequency:   10.3915373429
  - # 19
    frequency:   16.0077177573
  - # 20
    frequency:   17.8044752400
  - # 21
    frequency:   17.8540015262
  - # 22
    frequency:   38.5453862857
  - # 23
    frequency:   62.5733309893
  - # 24
    frequency:   68.5066151916

- q-position: [    0.0757576,    0.0000000,    0.0000000 ]
  distance:    0.0238225
  band:
  - # 1
    frequency:   -2.6899728561
  - # 2
    frequency:   -2.6468914773
  - # 3
    frequency:    0.2747836176
  - # 4
    frequency:    0.3912448510
  - # 5
    frequency:    0.6453055781
  - # 6
    frequency:    0.8765498365
  - # 7
    frequency:    1.4847552830
  - # 8
    frequency:    3.4856415282
  - # 9
    frequency:    3.6105304425
  - # 10
    frequency:    4.8584535087
  - # 11
    frequency:    5.3570483506
  - # 12
    frequency:    5.7476965091
  - # 13
    frequency:    7.1320681320
  - # 14
    frequency:    7.1451799821
  - # 15
    frequency:    7.4663575488
  - # 16
    frequency:    8.1959132055
  - # 17
    frequency:    9.4061730228
  - # 18
    frequency:   10.5286168865
  - # 19
    frequency:   15.9733071870
  - # 20
    frequency:   17.8050111946
  - # 21
    frequency:   17.8612077475
  - # 22
    frequency:   38.5445995923
  - # 23
    frequency:   62.5719366124
  - # 24
    frequency:   68.4786344689

- q-position: [    0.0808081,    0.0000000,    0.0000000 ]
  distance:    0.0254107
  band:
  - # 1
    frequency:   -2.6911443603
  - # 2
    frequency:   -2.6429656202
  - # 3
    frequency:    0.3099093557
  - # 4
    frequency:    0.3954464486
  - # 5
    frequency:    0.6751018278
  - # 6
    frequency:    0.9316877527
  - # 7
    frequency:    1.5809185073
  - # 8
    frequency:    3.4867040084
  - # 9
    frequency:    3.6276084042
  - # 10
    frequency:    4.8565555586
  - # 11
    frequency:    5.3571736115
  - # 12
    frequency:    5.7775598814
  - # 13
    frequency:    7.1269590472
  - # 14
    frequency:    7.1462469309
  - # 15
    frequency:    7.4948279529
  - # 16
    frequency:    8.1750770212
  - # 17
    frequency:    9.3988770355
  - # 18
    frequency:   10.6735500515
  - # 19
    frequency:   15.9369071634
  - # 20
    frequency:   17.8055832937
  - # 21
    frequency:   17.8687544645
  - # 22
    frequency:   38.5437665143
  - # 23
    frequency:   62.5704606119
  - # 24
    frequency:   68.4490421774

- q-position: [    0.0858586,    0.0000000,    0.0000000 ]
  distance:    0.0269988
  band:
  - # 1
    frequency:   -2.6923725316
  - # 2
    frequency:   -2.6389200442
  - # 3
    frequency:    0.3465187027
  - # 4
    frequency:    0.3997903822
  - # 5
    frequency:    0.7054997358
  - # 6
    frequency:    0.9866022367
  - # 7
    frequency:    1.6766734908
  - # 8
    frequency:    3.4878467468
  - # 9
    frequency:    3.6455269635
  - # 10
    frequency:    4.8547128759
  - # 11
    frequency:    5.3573816137
  - # 12
    frequency:    5.8061286422
  - # 13
    frequency:    7.1215805925
  - # 14
    frequency:    7.1474365546
  - # 15
    frequency:    7.5220081124
  - # 16
    frequency:    8.1535372725
  - # 17
    frequency:    9.3912539403
  - # 18
    frequency:   10.8256253414
  - # 19
    frequency:   15.8985850744
  - # 20
    frequency:   17.8061913455
  - # 21
    frequency:   17.8766203077
  - # 22
    frequency:   38.5428885576
  - # 23
    frequency:   62.5689057467
  - # 24
    frequency:   68.4178986342

- q-position: [    0.0909091,    0.0000000,    0.0000000 ]
  distance:    0.0285870
  band:
  - # 1
    frequency:   -2.6936521026
  - # 2
    frequency:   -2.6347603283
  - # 3
    frequency:    0.3844691013
  - # 4
    frequency:    0.4043096177
  - # 5
    frequency:    0.7364791815
  - # 6
    frequency:    1.0412380937
  - # 7
    frequency:    1.7719516841
  - # 8
    frequency:    3.4890722081
  - # 9
    frequency:    3.6642533695
  - # 10
    frequency:    4.8529483797
  - # 11
    frequency:    5.3576847903
  - # 12
    frequency:    5.8334024496
  - # 13
    frequency:    7.1159433270
  - # 14
    frequency:    7.1487571506
  - # 15
    frequency:    7.5477322755
  - # 16
    frequency:    8.1313664515
  - # 17
    frequency:    9.3833288711
  - # 18
    frequency:   10.9840655595
  - # 19
    frequency:   15.8584110967
  - # 20
    frequency:   17.8068351371
  - # 21
    frequency:   17.8847845141
  - # 22
    frequency:   38.5419673048
  - # 23
    frequency:   62.5672749071
  - # 24
    frequency:   68.3852670081

- q-position: [    0.0959596,    0.0000000,    0.0000000 ]
  distance:    0.0301752
  band:
  - # 1
    frequency:   -2.6949771794
  - # 2
    frequency:   -2.6304895987
  - # 3
    frequency:    0.4090273353
  - # 4
    frequency:    0.4236114183
  - # 5
    frequency:    0.7680340843
  - # 6
    frequency:    1.0955504774
  - # 7
    frequency:    1.8666825179
  - # 8
    frequency:    3.4903831481
  - # 9
    frequency:    3.6837568363
  - # 10
    frequency:    4.8512878514
  - # 11
    frequency:    5.3580958157
  - # 12
    frequency:    5.8594142716
  - # 13
    frequency:    7.1100582581
  - # 14
    frequency:    7.1502169914
  - # 15
    frequency:    7.5718818270
  - # 16
    frequency:    8.1086477687
  - # 17
    frequency:    9.3751279552
  - # 18
    frequency:   11.1480485175
  - # 19
    frequency:   15.8164583796
  - # 20
    frequency:   17.8075144330
  - # 21
    frequency:   17.8932269715
  - # 22
    frequency:   38.5410044120
  - # 23
    frequency:   62.5655711066
  - # 24
    frequency:   68.3512131366

- q-position: [    0.1010101,    0.0000000,    0.0000000 ]
  distance:    0.0317633
  band:
  - # 1
    frequency:   -2.6963412514
  - # 2
    frequency:   -2.6261086664
  - # 3
    frequency:    0.4139602373
  - # 4
    frequency:    0.4637894660
  - # 5
    frequency:    0.8001725651
  - # 6
    frequency:    1.1495015629
  - # 7
    frequency:    1.9607922468
  - # 8
    frequency:    3.4917826565
  - # 9
    frequency:    3.7040088199
  - # 10
    frequency:    4.8497601728
  - # 11
    frequency:    5.3586275050
  - # 12
    frequency:    5.8842196817
  - # 13
    frequency:    7.1039368205
  - # 14
    frequency:    7.1518242393
  - # 15
    frequency:    7.5943705664
  - # 16
    frequency:    8.0854809954
  - # 17
    frequency:    9.3666782251
  - # 18
    frequency:   11.3167265766
  - # 19
    frequency:   15.7728033485
  - # 20
    frequency:   17.8082289742
  - # 21
    frequency:   17.9019282336
  - # 22
    frequency:   38.5400016054
  - # 23
    frequency:   62.5637974732
  - # 24
    frequency:   68.3158053362

- q-position: [    0.1060606,    0.0000000,    0.0000000 ]
  distance:    0.0333515
  band:
  - # 1
    frequency:   -2.6977372089
  - # 2
    frequency:   -2.6216162014
  - # 3
    frequency:    0.4191205342
  - # 4
    frequency:    0.5048394377
  - # 5
    frequency:    0.8329171504
  - # 6
    frequency:    1.2030585607
  - # 7
    frequency:    2.0542030669
  - # 8
    frequency:    3.4932742041
  - # 9
    frequency:    3.7249832333
  - # 10
    frequency:    4.8483975628
  - # 11
    frequency:    5.3592927057
  - # 12
    frequency:    5.9078882038
  - # 13
    frequency:    7.0975908559
  - # 14
    frequency:    7.1535868584
  - # 15
    frequency:    7.6151270842
  - # 16
    frequency:    8.0619906239
  - # 17
    frequency:    9.3580075287
  - # 18
    frequency:   11.4892437794
  - # 19
    frequency:   15.7275261620
  - # 20
    frequency:   17.8089784762
  - # 21
    frequency:   17.9108695089
  - # 22
    frequency:   38.5389606776
  - # 23
    frequency:   62.5619572413
  - # 24
    frequency:   68.2791142049

- q-position: [    0.1111111,    0.0000000,    0.0000000 ]
  distance:    0.0349397
  band:
  - # 1
    frequency:   -2.6991573700
  - # 2
    frequency:   -2.6170089366
  - # 3
    frequency:    0.4245171767
  - # 4
    frequency:    0.5465893770
  - # 5
    frequency:    0.8663049613
  - # 6
    frequency:    1.2561924978
  - # 7
    frequency:    2.1468323889
  - # 8
    frequency:    3.4948616940
  - # 9
    frequency:    3.7466566026
  - # 10
    frequency:    4.8472358304
  - # 11
    frequency:    5.3601041841
  - # 12
    frequency:    5.9304966049
  - # 13
    frequency:    7.0910325940
  - # 14
    frequency:    7.1555125252
  - # 15
    frequency:    7.6340738607
  - # 16
    frequency:    8.0383376822
  - # 17
    frequency:    9.3491444360
  - # 18
    frequency:   11.6647498824
  - # 19
    frequency:   15.6807113652
  - # 20
    frequency:   17.8097626277
  - # 21
    frequency:   17.9200326307
  - # 22
    frequency:   38.5378834845
  - # 23
    frequency:   62.5600537420
  - # 24
    frequency:   68.2412124187

- q-position: [    0.1161616,    0.0000000,    0.0000000 ]
  distance:    0.0365278
  band:
  - # 1
    frequency:   -2.7005935152
  - # 2
    frequency:   -2.6122818950
  - # 3
    frequency:    0.4301566444
  - # 4
    frequency:    0.5888588792
  - # 5
    frequency:    0.9003877145
  - # 6
    frequency:    1.3088774528
  - # 7
    frequency:    2.2385922024
  - # 8
    frequency:    3.4965495143
  - # 9
    frequency:    3.7690081597
  - # 10
    frequency:    4.8463146581
  - # 11
    frequency:    5.3610745058
  - # 12
    frequency:    5.9521238972
  - # 13
    frequency:    7.0842746340
  - # 14
    frequency:    7.1576085384
  - # 15
    frequency:    7.6511016998
  - # 16
    frequency:    8.0147371845
  - # 17
    frequency:    9.3401181445
  - # 18
    frequency:   11.8424110340
  - # 19
    frequency:   15.6324488126
  - # 20
    frequency:   17.8105810892
  - # 21
    frequency:   17.9294000090
  - # 22
    frequency:   38.5367719415
  - # 23
    frequency:   62.5580903946
  - # 24
    frequency:   68.2021745233

- q-position: [    0.1212121,    0.0000000,    0.0000000 ]
  distance:    0.0381160
  band:
  - # 1
    frequency:   -2.7020369276
  - # 2
    frequency:   -2.6074286338
  - # 3
    frequency:    0.4360434623
  - # 4
    frequency:    0.6314593140
  - # 5
    frequency:    0.9352312461
  - # 6
    frequency:    1.3610900677
  - # 7
    frequency:    2.3293884951
  - # 8
    frequency:    3.4983425925
  - # 9
    frequency:    3.7920198677
  - # 10
    frequency:    4.8456779287
  - # 11
    frequency:    5.3622159125
  - # 12
    frequency:    5.9728477593
  - # 13
    frequency:    7.0773299268
  - # 14
    frequency:    7.1598817277
  - # 15
    frequency:    7.6660371693
  - # 16
    frequency:    7.9914838342
  - # 17
    frequency:    9.3309583822
  - # 18
    frequency:   12.0214171398
  - # 19
    frequency:   15.5828349655
  - # 20
    frequency:   17.8114334916
  - # 21
    frequency:   17.9389545712
  - # 22
    frequency:   38.5356280198
  - # 23
    frequency:   62.5560706964
  - # 24
    frequency:   68.1620767198

- q-position: [    0.1262626,    0.0000000,    0.0000000 ]
  distance:    0.0397042
  band:
  - # 1
    frequency:   -2.7034784410
  - # 2
    frequency:   -2.6024415001
  - # 3
    frequency:    0.4421805494
  - # 4
    frequency:    0.6741949642
  - # 5
    frequency:    0.9709141565
  - # 6
    frequency:    1.4128092325
  - # 7
    frequency:    2.4191207129
  - # 8
    frequency:    3.5002464486
  - # 9
    frequency:    3.8156763659
  - # 10
    frequency:    4.8453741053
  - # 11
    frequency:    5.3635401962
  - # 12
    frequency:    5.9927420830
  - # 13
    frequency:    7.0702117553
  - # 14
    frequency:    7.1623383631
  - # 15
    frequency:    7.6786007579
  - # 16
    frequency:    7.9689883315
  - # 17
    frequency:    9.3216953107
  - # 18
    frequency:   12.2009860916
  - # 19
    frequency:   15.5319747277
  - # 20
    frequency:   17.8123194344
  - # 21
    frequency:   17.9486796917
  - # 22
    frequency:   38.5344537427
  - # 23
    frequency:   62.5539982140
  - # 24
    frequency:   68.1209966467

- q-position: [    0.1313131,    0.0000000,    0.0000000 ]
  distance:    0.0412923
  band:
  - # 1
    frequency:   -2.7049084905
  - # 2
    frequency:   -2.5973118940
  - # 3
    frequency:    0.4485694574
  - # 4
    frequency:    0.7168655403
  - # 5
    frequency:    1.0075251067
  - # 6
    frequency:    1.4640158784
  - # 7
    frequency:    2.5076812642
  - # 8
    frequency:    3.5022672455
  - # 9
    frequency:    3.8399648156
  - # 10
    frequency:    4.8454566748
  - # 11
    frequency:    5.3650585719
  - # 12
    frequency:    6.0118753775
  - # 13
    frequency:    7.0629337147
  - # 14
    frequency:    7.1649840656
  - # 15
    frequency:    7.6883574797
  - # 16
    frequency:    7.9478224790
  - # 17
    frequency:    9.3123594266
  - # 18
    frequency:   12.3803650354
  - # 19
    frequency:   15.4799840735
  - # 20
    frequency:   17.8132384850
  - # 21
    frequency:   17.9585591143
  - # 22
    frequency:   38.5332511817
  - # 23
    frequency:   62.5518765730
  - # 24
    frequency:   68.0790131589

- q-position: [    0.1363636,    0.0000000,    0.0000000 ]
  distance:    0.0428805
  band:
  - # 1
    frequency:   -2.7063171690
  - # 2
    frequency:   -2.5920305318
  - # 3
    frequency:    0.4552105401
  - # 4
    frequency:    0.7592704989
  - # 5
    frequency:    1.0451583300
  - # 6
    frequency:    1.5146928407
  - # 7