nqpoint: 300    
npath: 3      
segment_nqpoint:
- 100
- 100
- 100
labels:
- [ 'G', 'M' ]
- [ 'M', 'K' ]
- [ 'K', 'G' ]
reciprocal_lattice:
- [   0.31804628,   0.18362410,   0.00000000 ] # a*
- [   0.00000000,   0.36724821,   0.00000000 ] # b*
- [   0.00000000,   0.00000000,   0.03419011 ] # c*
natom: 8      
lattice:
- [     3.144196522912101,     0.000000000000000,     0.000000000000000 ] # a
- [    -1.572098261456050,     2.722954063333443,     0.000000000000000 ] # b
- [     0.000000000000000,     0.000000000000000,    29.248222928539860 ] # c
points:
- symbol: C # 1
  coordinates: [  0.666666984744047,  0.333332985985145,  0.348430004375071 ]
  mass: 12.010700
- symbol: Cl # 2
  coordinates: [  0.333332985432215,  0.666666983183674,  0.692288997455022 ]
  mass: 35.453000
- symbol: N # 3
  coordinates: [  0.000000000000000,  0.000000000000000,  0.500351056703285 ]
  mass: 14.006700
- symbol: N # 4
  coordinates: [  0.666666984744047,  0.333332985985145,  0.307711002544978 ]
  mass: 14.006700
- symbol: O # 5
  coordinates: [  0.333332985432215,  0.666666983183674,  0.571834097836915 ]
  mass: 15.999400
- symbol: S # 6
  coordinates: [  0.666666984744047,  0.333332985985145,  0.406074553669045 ]
  mass: 32.065000
- symbol: Ti # 7
  coordinates: [  0.333332985432215,  0.666666983183674,  0.459887261842574 ]
  mass: 47.867000
- symbol: Ti # 8
  coordinates: [  0.666666984744047,  0.333332985985145,  0.542707757454339 ]
  mass: 47.867000

phonon:
- q-position: [    0.0000000,    0.0000000,    0.0000000 ]
  distance:    0.0000000
  band:
  - # 1
    frequency:   -2.7468201693
  - # 2
    frequency:   -2.7468201693
  - # 3
    frequency:   -1.5896157839
  - # 4
    frequency:   -1.5896157839
  - # 5
    frequency:   -0.0000041373
  - # 6
    frequency:    0.0000002608
  - # 7
    frequency:    0.0000065640
  - # 8
    frequency:    1.3164469071
  - # 9
    frequency:    1.3480531787
  - # 10
    frequency:    1.3480531788
  - # 11
    frequency:    6.1593888239
  - # 12
    frequency:    6.5095799835
  - # 13
    frequency:    6.5095799835
  - # 14
    frequency:    9.3390908152
  - # 15
    frequency:    9.3390908152
  - # 16
    frequency:    9.6379338645
  - # 17
    frequency:   11.2137175237
  - # 18
    frequency:   11.2137175237
  - # 19
    frequency:   13.3357544873
  - # 20
    frequency:   13.4275555046
  - # 21
    frequency:   13.4275555046
  - # 22
    frequency:   15.2771551295
  - # 23
    frequency:   19.2986581872
  - # 24
    frequency:   64.4691579143

- q-position: [    0.0050505,    0.0000000,    0.0000000 ]
  distance:    0.0018548
  band:
  - # 1
    frequency:   -2.7463936704
  - # 2
    frequency:   -2.7439173855
  - # 3
    frequency:   -1.5952097557
  - # 4
    frequency:   -1.5921400877
  - # 5
    frequency:   -0.1192210262
  - # 6
    frequency:   -0.0990744512
  - # 7
    frequency:   -0.0046049099
  - # 8
    frequency:    1.3151918975
  - # 9
    frequency:    1.3550195386
  - # 10
    frequency:    1.3595957683
  - # 11
    frequency:    6.1583993618
  - # 12
    frequency:    6.5107316515
  - # 13
    frequency:    6.5117513940
  - # 14
    frequency:    9.3374760513
  - # 15
    frequency:    9.3383957142
  - # 16
    frequency:    9.6384961612
  - # 17
    frequency:   11.2146166155
  - # 18
    frequency:   11.2151588969
  - # 19
    frequency:   13.3379639426
  - # 20
    frequency:   13.4279728622
  - # 21
    frequency:   13.4282637957
  - # 22
    frequency:   15.2769816483
  - # 23
    frequency:   19.2984149698
  - # 24
    frequency:   64.4690478823

- q-position: [    0.0101010,    0.0000000,    0.0000000 ]
  distance:    0.0037096
  band:
  - # 1
    frequency:   -2.7451276530
  - # 2
    frequency:   -2.7352453388
  - # 3
    frequency:   -1.6118371997
  - # 4
    frequency:   -1.5996582852
  - # 5
    frequency:   -0.2343365246
  - # 6
    frequency:   -0.1916959516
  - # 7
    frequency:   -0.0179966296
  - # 8
    frequency:    1.3138469054
  - # 9
    frequency:    1.3750162876
  - # 10
    frequency:    1.3906658408
  - # 11
    frequency:    6.1554984072
  - # 12
    frequency:    6.5141825107
  - # 13
    frequency:    6.5181893296
  - # 14
    frequency:    9.3326629934
  - # 15
    frequency:    9.3363201113
  - # 16
    frequency:    9.6401791446
  - # 17
    frequency:   11.2173048629
  - # 18
    frequency:   11.2194628861
  - # 19
    frequency:   13.3445226727
  - # 20
    frequency:   13.4292750204
  - # 21
    frequency:   13.4303853066
  - # 22
    frequency:   15.2764608055
  - # 23
    frequency:   19.2976857801
  - # 24
    frequency:   64.4687180078

- q-position: [    0.0151515,    0.0000000,    0.0000000 ]
  distance:    0.0055644
  band:
  - # 1
    frequency:   -2.7430624056
  - # 2
    frequency:   -2.7209187822
  - # 3
    frequency:   -1.6390623528
  - # 4
    frequency:   -1.6120116857
  - # 5
    frequency:   -0.3422386248
  - # 6
    frequency:   -0.2725067028
  - # 7
    frequency:   -0.0389147877
  - # 8
    frequency:    1.3135699076
  - # 9
    frequency:    1.4057671581
  - # 10
    frequency:    1.4372581294
  - # 11
    frequency:    6.1508714597
  - # 12
    frequency:    6.5199201708
  - # 13
    frequency:    6.5286818543
  - # 14
    frequency:    9.3247440425
  - # 15
    frequency:    9.3328927792
  - # 16
    frequency:    9.6429708284
  - # 17
    frequency:   11.2217554786
  - # 18
    frequency:   11.2265704745
  - # 19
    frequency:   13.3551872815
  - # 20
    frequency:   13.4316470334
  - # 21
    frequency:   13.4339099841
  - # 22
    frequency:   15.2755914195
  - # 23
    frequency:   19.2964720047
  - # 24
    frequency:   64.4681689553

- q-position: [    0.0202020,    0.0000000,    0.0000000 ]
  distance:    0.0074192
  band:
  - # 1
    frequency:   -2.7402645380
  - # 2
    frequency:   -2.7011497600
  - # 3
    frequency:   -1.6762271019
  - # 4
    frequency:   -1.6289531508
  - # 5
    frequency:   -0.4411640057
  - # 6
    frequency:   -0.3375035559
  - # 7
    frequency:   -0.0653596456
  - # 8
    frequency:    1.3141829218
  - # 9
    frequency:    1.4445159565
  - # 10
    frequency:    1.4961404559
  - # 11
    frequency:    6.1447803488
  - # 12
    frequency:    6.5279241284
  - # 13
    frequency:    6.5429235991
  - # 14
    frequency:    9.3138688983
  - # 15
    frequency:    9.3281606034
  - # 16
    frequency:    9.6468505138
  - # 17
    frequency:   11.2279247842
  - # 18
    frequency:   11.2363876816
  - # 19
    frequency:   13.3693998717
  - # 20
    frequency:   13.4355505866
  - # 21
    frequency:   13.4388211869
  - # 22
    frequency:   15.2743715725
  - # 23
    frequency:   19.2947759527
  - # 24
    frequency:   64.4674018295

- q-position: [    0.0252525,    0.0000000,    0.0000000 ]
  distance:    0.0092739
  band:
  - # 1
    frequency:   -2.7368260345
  - # 2
    frequency:   -2.6762840987
  - # 3
    frequency:   -1.7224899303
  - # 4
    frequency:   -1.6501703387
  - # 5
    frequency:   -0.5304263095
  - # 6
    frequency:   -0.3835745530
  - # 7
    frequency:   -0.0945119128
  - # 8
    frequency:    1.3155700705
  - # 9
    frequency:    1.4887363991
  - # 10
    frequency:    1.5643238853
  - # 11
    frequency:    6.1375154024
  - # 12
    frequency:    6.5381659829
  - # 13
    frequency:    6.5605643704
  - # 14
    frequency:    9.3002382900
  - # 15
    frequency:    9.3221870574
  - # 16
    frequency:    9.6517881883
  - # 17
    frequency:   11.2357535859
  - # 18
    frequency:   11.2487914838
  - # 19
    frequency:   13.3859051609
  - # 20
    frequency:   13.4421083872
  - # 21
    frequency:   13.4450958540
  - # 22
    frequency:   15.2727986903
  - # 23
    frequency:   19.2926008523
  - # 24
    frequency:   64.4664181728

- q-position: [    0.0303030,    0.0000000,    0.0000000 ]
  distance:    0.0111287
  band:
  - # 1
    frequency:   -2.7328626642
  - # 2
    frequency:   -2.6468660340
  - # 3
    frequency:   -1.7768044861
  - # 4
    frequency:   -1.6753130784
  - # 5
    frequency:   -0.6099523677
  - # 6
    frequency:   -0.4079596407
  - # 7
    frequency:   -0.1219955892
  - # 8
    frequency:    1.3177429200
  - # 9
    frequency:    1.5364301146
  - # 10
    frequency:    1.6393314071
  - # 11
    frequency:    6.1293573865
  - # 12
    frequency:    6.5506097311
  - # 13
    frequency:    6.5812482904
  - # 14
    frequency:    9.2840957258
  - # 15
    frequency:    9.3150502143
  - # 16
    frequency:    9.6577443325
  - # 17
    frequency:   11.2451689596
  - # 18
    frequency:   11.2636369555
  - # 19
    frequency:   13.4020886927
  - # 20
    frequency:   13.4527047363
  - # 21
    frequency:   13.4537680035
  - # 22
    frequency:   15.2708696530
  - # 23
    frequency:   19.2899508467
  - # 24
    frequency:   64.4652199600

- q-position: [    0.0353535,    0.0000000,    0.0000000 ]
  distance:    0.0129835
  band:
  - # 1
    frequency:   -2.7285115120
  - # 2
    frequency:   -2.6137539323
  - # 3
    frequency:   -1.8378206870
  - # 4
    frequency:   -1.7040205810
  - # 5
    frequency:   -0.6799053813
  - # 6
    frequency:   -0.4085647180
  - # 7
    frequency:   -0.1384254242
  - # 8
    frequency:    1.3207758924
  - # 9
    frequency:    1.5861392624
  - # 10
    frequency:    1.7192575467
  - # 11
    frequency:    6.1205553241
  - # 12
    frequency:    6.5652121316
  - # 13
    frequency:    6.6046373525
  - # 14
    frequency:    9.2657179512
  - # 15
    frequency:    9.3068404217
  - # 16
    frequency:    9.6646703190
  - # 17
    frequency:   11.2560863288
  - # 18
    frequency:   11.2807647875
  - # 19
    frequency:   13.4147165834
  - # 20
    frequency:   13.4616126862
  - # 21
    frequency:   13.4735646488
  - # 22
    frequency:   15.2685809423
  - # 23
    frequency:   19.2868309887
  - # 24
    frequency:   64.4638095924

- q-position: [    0.0404040,    0.0000000,    0.0000000 ]
  distance:    0.0148383
  band:
  - # 1
    frequency:   -2.7239273909
  - # 2
    frequency:   -2.5783391324
  - # 3
    frequency:   -1.9036824926
  - # 4
    frequency:   -1.7359441870
  - # 5
    frequency:   -0.7404584767
  - # 6
    frequency:   -0.3884956028
  - # 7
    frequency:   -0.1088088142
  - # 8
    frequency:    1.3247707492
  - # 9
    frequency:    1.6368467764
  - # 10
    frequency:    1.8026816749
  - # 11
    frequency:    6.1113183999
  - # 12
    frequency:    6.5819231308
  - # 13
    frequency:    6.6304211773
  - # 14
    frequency:    9.2454049541
  - # 15
    frequency:    9.2976577726
  - # 16
    frequency:    9.6725093655
  - # 17
    frequency:   11.2684117060
  - # 18
    frequency:   11.3000084280
  - # 19
    frequency:   13.4233305377
  - # 20
    frequency:   13.4717790005
  - # 21
    frequency:   13.5017291009
  - # 22
    frequency:   15.2659288233
  - # 23
    frequency:   19.2832472337
  - # 24
    frequency:   64.4621898911

- q-position: [    0.0454545,    0.0000000,    0.0000000 ]
  distance:    0.0166931
  band:
  - # 1
    frequency:   -2.7192779480
  - # 2
    frequency:   -2.5429878581
  - # 3
    frequency:   -1.9716202013
  - # 4
    frequency:   -1.7707621245
  - # 5
    frequency:   -0.7916849599
  - # 6
    frequency:   -0.3689604726
  - # 7
    frequency:    0.1793992565
  - # 8
    frequency:    1.3298454676
  - # 9
    frequency:    1.6878618436
  - # 10
    frequency:    1.8885532007
  - # 11
    frequency:    6.1018170973
  - # 12
    frequency:    6.6006863384
  - # 13
    frequency:    6.6583178128
  - # 14
    frequency:    9.2234703110
  - # 15
    frequency:    9.2876095064
  - # 16
    frequency:    9.6811978688
  - # 17
    frequency:   11.2820439778
  - # 18
    frequency:   11.3212002779
  - # 19
    frequency:   13.4296478203
  - # 20
    frequency:   13.4831578092
  - # 21
    frequency:   13.5362909733
  - # 22
    frequency:   15.2629095668
  - # 23
    frequency:   19.2792064325
  - # 24
    frequency:   64.4603640878

- q-position: [    0.0505051,    0.0000000,    0.0000000 ]
  distance:    0.0185479
  band:
  - # 1
    frequency:   -2.7147374205
  - # 2
    frequency:   -2.5119531111
  - # 3
    frequency:   -2.0370849898
  - # 4
    frequency:   -1.8081842960
  - # 5
    frequency:   -0.8335197317
  - # 6
    frequency:   -0.3706876353
  - # 7
    frequency:    0.3674047641
  - # 8
    frequency:    1.3361422406
  - # 9
    frequency:    1.7387252839
  - # 10
    frequency:    1.9760929009
  - # 11
    frequency:    6.0921890275
  - # 12
    frequency:    6.6214395418
  - # 13
    frequency:    6.6880701067
  - # 14
    frequency:    9.2002324767
  - # 15
    frequency:    9.2768074564
  - # 16
    frequency:    9.6906669178
  - # 17
    frequency:   11.2968771243
  - # 18
    frequency:   11.3441766066
  - # 19
    frequency:   13.4349325901
  - # 20
    frequency:   13.4956985040
  - # 21
    frequency:   13.5757108281
  - # 22
    frequency:   15.2595197136
  - # 23
    frequency:   19.2747163227
  - # 24
    frequency:   64.4583358156

- q-position: [    0.0555556,    0.0000000,    0.0000000 ]
  distance:    0.0204027
  band:
  - # 1
    frequency:   -2.7104792429
  - # 2
    frequency:   -2.4929381480
  - # 3
    frequency:   -2.0922217079
  - # 4
    frequency:   -1.8479471960
  - # 5
    frequency:   -0.8657586237
  - # 6
    frequency:   -0.3846688084
  - # 7
    frequency:    0.5446376926
  - # 8
    frequency:    1.3438610931
  - # 9
    frequency:    1.7891401207
  - # 10
    frequency:    2.0647181427
  - # 11
    frequency:    6.0825463914
  - # 12
    frequency:    6.6441152456
  - # 13
    frequency:    6.7194407012
  - # 14
    frequency:    9.1760073700
  - # 15
    frequency:    9.2653656428
  - # 16
    frequency:    9.7008438115
  - # 17
    frequency:   11.3128022879
  - # 18
    frequency:   11.3687810772
  - # 19
    frequency:   13.4397658689
  - # 20
    frequency:   13.5093461972
  - # 21
    frequency:   13.6191137463
  - # 22
    frequency:   15.2557563866
  - # 23
    frequency:   19.2697855191
  - # 24
    frequency:   64.4561090977

- q-position: [    0.0606061,    0.0000000,    0.0000000 ]
  distance:    0.0222575
  band:
  - # 1
    frequency:   -2.7066680484
  - # 2
    frequency:   -2.4974148444
  - # 3
    frequency:   -2.1255530434
  - # 4
    frequency:   -1.8898012013
  - # 5
    frequency:   -0.8880737832
  - # 6
    frequency:   -0.3999729254
  - # 7
    frequency:    0.7178880320
  - # 8
    frequency:    1.3533508884
  - # 9
    frequency:    1.8389231434
  - # 10
    frequency:    2.1539886139
  - # 11
    frequency:    6.0729834067
  - # 12
    frequency:    6.6686412250
  - # 13
    frequency:    6.7522073048
  - # 14
    frequency:    9.1511023802
  - # 15
    frequency:    9.2533980836
  - # 16
    frequency:    9.7116534683
  - # 17
    frequency:   11.3297096293
  - # 18
    frequency:   11.3948669466
  - # 19
    frequency:   13.4443936398
  - # 20
    frequency:   13.5240422042
  - # 21
    frequency:   13.6659447508
  - # 22
    frequency:   15.2516176558
  - # 23
    frequency:   19.2644235033
  - # 24
    frequency:   64.4536883357

- q-position: [    0.0656566,    0.0000000,    0.0000000 ]
  distance:    0.0241123
  band:
  - # 1
    frequency:   -2.7034520116
  - # 2
    frequency:   -2.5332987102
  - # 3
    frequency:   -2.1292616449
  - # 4
    frequency:   -1.9334939910
  - # 5
    frequency:   -0.9000294641
  - # 6
    frequency:   -0.4109891883
  - # 7
    frequency:    0.8893291168
  - # 8
    frequency:    1.3653797888
  - # 9
    frequency:    1.8879718095
  - # 10
    frequency:    2.2435674570
  - # 11
    frequency:    6.0635829705
  - # 12
    frequency:    6.6949410808
  - # 13
    frequency:    6.7861589579
  - # 14
    frequency:    9.1258117451
  - # 15
    frequency:    9.2410168749
  - # 16
    frequency:    9.7230196537
  - # 17
    frequency:   11.3474899329
  - # 18
    frequency:   11.4222981225
  - # 19
    frequency:   13.4489149177
  - # 20
    frequency:   13.5397245400
  - # 21
    frequency:   13.7157841338
  - # 22
    frequency:   15.2471029657
  - # 23
    frequency:   19.2586406128
  - # 24
    frequency:   64.4510782962

- q-position: [    0.0707071,    0.0000000,    0.0000000 ]
  distance:    0.0259670
  band:
  - # 1
    frequency:   -2.7009568504
  - # 2
    frequency:   -2.5959971826
  - # 3
    frequency:   -2.1080601826
  - # 4
    frequency:   -1.9787541203
  - # 5
    frequency:   -0.9010851669
  - # 6
    frequency:   -0.4141670000
  - # 7
    frequency:    1.0578980063
  - # 8
    frequency:    1.3821510071
  - # 9
    frequency:    1.9362417838
  - # 10
    frequency:    2.3331935419
  - # 11
    frequency:    6.0544223518
  - # 12
    frequency:    6.7229347827
  - # 13
    frequency:    6.8210934848
  - # 14
    frequency:    9.1004131534
  - # 15
    frequency:    9.2283305673
  - # 16
    frequency:    9.7348659973
  - # 17
    frequency:   11.3660359449
  - # 18
    frequency:   11.4509493221
  - # 19
    frequency:   13.4533608619
  - # 20
    frequency:   13.5563284221
  - # 21
    frequency:   13.7682715241
  - # 22
    frequency:   15.2422136364
  - # 23
    frequency:   19.2524480289
  - # 24
    frequency:   64.4482840966

- q-position: [    0.0757576,    0.0000000,    0.0000000 ]
  distance:    0.0278218
  band:
  - # 1
    frequency:   -2.6992830731
  - # 2
    frequency:   -2.6752565918
  - # 3
    frequency:   -2.0722474948
  - # 4
    frequency:   -2.0252776238
  - # 5
    frequency:   -0.8905732296
  - # 6
    frequency:   -0.4062634177
  - # 7
    frequency:    1.2148831140
  - # 8
    frequency:    1.4124899543
  - # 9
    frequency:    1.9837317143
  - # 10
    frequency:    2.4226618079
  - # 11
    frequency:    6.0455779568
  - # 12
    frequency:    6.7525391923
  - # 13
    frequency:    6.8568160720
  - # 14
    frequency:    9.0751653720
  - # 15
    frequency:    9.2154428483
  - # 16
    frequency:    9.7471167881
  - # 17
    frequency:   11.3852434475
  - # 18
    frequency:   11.4807055840
  - # 19
    frequency:   13.4577289515
  - # 20
    frequency:   13.5737867707
  - # 21
    frequency:   13.8230745898
  - # 22
    frequency:   15.2369534535
  - # 23
    frequency:   19.2458577644
  - # 24
    frequency:   64.4453111901

- q-position: [    0.0808081,    0.0000000,    0.0000000 ]
  distance:    0.0296766
  band:
  - # 1
    frequency:   -2.7635911267
  - # 2
    frequency:   -2.6985081314
  - # 3
    frequency:   -2.0727184227
  - # 4
    frequency:   -2.0291981592
  - # 5
    frequency:   -0.8676346707
  - # 6
    frequency:   -0.3832279821
  - # 7
    frequency:    1.3242616175
  - # 8
    frequency:    1.4919690108
  - # 9
    frequency:    2.0304729146
  - # 10
    frequency:    2.5118096085
  - # 11
    frequency:    6.0371293038
  - # 12
    frequency:    6.7836685529
  - # 13
    frequency:    6.8931388191
  - # 14
    frequency:    9.0503066948
  - # 15
    frequency:    9.2024515267
  - # 16
    frequency:    9.7596975581
  - # 17
    frequency:   11.4050120817
  - # 18
    frequency:   11.5114613700
  - # 19
    frequency:   13.4619989688
  - # 20
    frequency:   13.5920306993
  - # 21
    frequency:   13.8798755612
  - # 22
    frequency:   15.2313293720
  - # 23
    frequency:   19.2388826497
  - # 24
    frequency:   64.4421653494

- q-position: [    0.0858586,    0.0000000,    0.0000000 ]
  distance:    0.0315314
  band:
  - # 1
    frequency:   -2.8568002873
  - # 2
    frequency:   -2.6986950369
  - # 3
    frequency:   -2.1206811001
  - # 4
    frequency:   -1.9828017082
  - # 5
    frequency:   -0.8310855315
  - # 6
    frequency:   -0.3384303289
  - # 7
    frequency:    1.3693120746
  - # 8
    frequency:    1.6365803801
  - # 9
    frequency:    2.0765223949
  - # 10
    frequency:    2.6005077793
  - # 11
    frequency:    6.0291623638
  - # 12
    frequency:    6.8162349403
  - # 13
    frequency:    6.9298810821
  - # 14
    frequency:    9.0260540226
  - # 15
    frequency:    9.1894478043
  - # 16
    frequency:    9.7725354729
  - # 17
    frequency:   11.4252459445
  - # 18
    frequency:   11.5431194496
  - # 19
    frequency:   13.4661411505
  - # 20
    frequency:   13.6109899893
  - # 21
    frequency:   13.9383651489
  - # 22
    frequency:   15.2253523659
  - # 23
    frequency:   19.2315363189
  - # 24
    frequency:   64.4388526496

- q-position: [    0.0909091,    0.0000000,    0.0000000 ]
  distance:    0.0333862
  band:
  - # 1
    frequency:   -2.9525333201
  - # 2
    frequency:   -2.6999087870
  - # 3
    frequency:   -2.1687130384
  - # 4
    frequency:   -1.9348970001
  - # 5
    frequency:   -0.7791524583
  - # 6
    frequency:   -0.2565300505
  - # 7
    frequency:    1.3934348445
  - # 8
    frequency:    1.8020986218
  - # 9
    frequency:    2.1219581913
  - # 10
    frequency:    2.6886557931
  - # 11
    frequency:    6.0217724058
  - # 12
    frequency:    6.8501486643
  - # 13
    frequency:    6.9668704459
  - # 14
    frequency:    9.0026024119
  - # 15
    frequency:    9.1765158145
  - # 16
    frequency:    9.7855595584
  - # 17
    frequency:   11.4458539879
  - # 18
    frequency:   11.5755897191
  - # 19
    frequency:   13.4701207125
  - # 20
    frequency:   13.6305935404
  - # 21
    frequency:   13.9982395875
  - # 22
    frequency:   15.2190384722
  - # 23
    frequency:   19.2238331946
  - # 24
    frequency:   64.4353794506

- q-position: [    0.0959596,    0.0000000,    0.0000000 ]
  distance:    0.0352410
  band:
  - # 1
    frequency:   -3.0493687482
  - # 2
    frequency:   -2.7022416847
  - # 3
    frequency:   -2.2162922923
  - # 4
    frequency:   -1.8862202747
  - # 5
    frequency:   -0.7089162712
  - # 6
    frequency:    0.0364838405
  - # 7
    frequency:    1.4129538766
  - # 8
    frequency:    1.9713868449
  - # 9
    frequency:    2.1668762855
  - # 10
    frequency:    2.7761809739
  - # 11
    frequency:    6.0150664579
  - # 12
    frequency:    6.8853186156
  - # 13
    frequency:    7.0039441798
  - # 14
    frequency:    8.9801249607
  - # 15
    frequency:    9.1637324027
  - # 16
    frequency:    9.7987007976
  - # 17
    frequency:   11.4667502513
  - # 18
    frequency:   11.6087880586
  - # 19
    frequency:   13.4739005707
  - # 20
    frequency:   13.6507697937
  - # 21
    frequency:   14.0591989103
  - # 22
    frequency:   15.2124101022
  - # 23
    frequency:   19.2157884713
  - # 24
    frequency:   64.4317523781

- q-position: [    0.1010101,    0.0000000,    0.0000000 ]
  distance:    0.0370958
  band:
  - # 1
    frequency:   -3.1463670349
  - # 2
    frequency:   -2.7058481145
  - # 3
    frequency:   -2.2628080420
  - # 4
    frequency:   -1.8368889572
  - # 5
    frequency:   -0.6149516214
  - # 6
    frequency:    0.2976202017
  - # 7
    frequency:    1.4315064915
  - # 8
    frequency:    2.1400547484
  - # 9
    frequency:    2.2113886156
  - # 10
    frequency:    2.8630424521
  - # 11
    frequency:    6.0091654665
  - # 12
    frequency:    6.9216525527
  - # 13
    frequency:    7.0409510527
  - # 14
    frequency:    8.9587729324
  - # 15
    frequency:    9.1511671243
  - # 16
    frequency:    9.8118921358
  - # 17
    frequency:   11.4878539578
  - # 18
    frequency:   11.6426352929
  - # 19
    frequency:   13.4774431053
  - # 20
    frequency:   13.6714471226
  - # 21
    frequency:   14.1209455109
  - # 22
    frequency:   15.2054977254
  - # 23
    frequency:   19.2074180983
  - # 24
    frequency:   64.4279783046

- q-position: [    0.1060606,    0.0000000,    0.0000000 ]
  distance:    0.0389506
  band:
  - # 1
    frequency:   -3.2428563660
  - # 2
    frequency:   -2.7109875745
  - # 3
    frequency:   -2.3075327072
  - # 4
    frequency:   -1.7866456323
  - # 5
    frequency:   -0.4849710771
  - # 6
    frequency:    0.4441213583
  - # 7
    frequency:    1.4502059069
  - # 8
    frequency:    2.2556218134
  - # 9
    frequency:    2.3062981408
  - # 10
    frequency:    2.9492415233
  - # 11
    frequency:    6.0042062108
  - # 12
    frequency:    6.9590573245
  - # 13
    frequency:    7.0777533983
  - # 14
    frequency:    8.9386760453
  - # 15
    frequency:    9.1388824337
  - # 16
    frequency:    9.8250684344
  - # 17
    frequency:   11.5090895016
  - # 18
    frequency:   11.6770562900
  - # 19
    frequency:   13.4807113843
  - # 20
    frequency:   13.6925541882
  - # 21
    frequency:   14.1831824280
  - # 22
    frequency:   15.1983420879
  - # 23
    frequency:   19.1987387601
  - # 24
    frequency:   64.4240643294

- q-position: [    0.1111111,    0.0000000,    0.0000000 ]
  distance:    0.0408054
  band:
  - # 1
    frequency:   -3.3383249418
  - # 2
    frequency:   -2.7180691864
  - # 3
    frequency:   -2.3495910485
  - # 4
    frequency:   -1.7349818705
  - # 5
    frequency:   -0.2742236465
  - # 6
    frequency:    0.5728873100
  - # 7
    frequency:    1.4695006148
  - # 8
    frequency:    2.2997163782
  - # 9
    frequency:    2.4690088939
  - # 10
    frequency:    3.0348415836
  - # 11
    frequency:    6.0003430042
  - # 12
    frequency:    6.9974390246
  - # 13
    frequency:    7.1142293280
  - # 14
    frequency:    8.9199428817
  - # 15
    frequency:    9.1269340421
  - # 16
    frequency:    9.8381664108
  - # 17
    frequency:   11.5303863543
  - # 18
    frequency:   11.7119792071
  - # 19
    frequency:   13.4836700629
  - # 20
    frequency:   13.7140202577
  - # 21
    frequency:   14.2456109157
  - # 22
    frequency:   15.1909972088
  - # 23
    frequency:   19.1897678556
  - # 24
    frequency:   64.4200177582

- q-position: [    0.1161616,    0.0000000,    0.0000000 ]
  distance:    0.0426601
  band:
  - # 1
    frequency:   -3.4323633025
  - # 2
    frequency:   -2.7276772010
  - # 3
    frequency:   -2.3879459399
  - # 4
    frequency:   -1.6811982807
  - # 5
    frequency:    0.3164031393
  - # 6
    frequency:    0.6941500581
  - # 7
    frequency:    1.4896140581
  - # 8
    frequency:    2.3438260350
  - # 9
    frequency:    2.6272798045
  - # 10
    frequency:    3.1200031005
  - # 11
    frequency:    5.9977491935
  - # 12
    frequency:    7.0367030768
  - # 13
    frequency:    7.1502749897
  - # 14
    frequency:    8.9026613953
  - # 15
    frequency:    9.1153714212
  - # 16
    frequency:    9.8511246014
  - # 17
    frequency:   11.5516789103
  - # 18
    frequency:   11.7473348794
  - # 19
    frequency:   13.4862860806
  - # 20
    frequency:   13.7357754852
  - # 21
    frequency:   14.3079268264
  - # 22
    frequency:   15.1835345277
  - # 23
    frequency:   19.1805234745
  - # 24
    frequency:   64.4158460821

- q-position: [    0.1212121,    0.0000000,    0.0000000 ]
  distance:    0.0445149
  band:
  - # 1
    frequency:   -3.5246314616
  - # 2
    frequency:   -2.7405340864
  - # 3
    frequency:   -2.4214439624
  - # 4
    frequency:   -1.6244283364
  - # 5
    frequency:    0.5374789073
  - # 6
    frequency:    0.8112311686
  - # 7
    frequency:    1.5106839879
  - # 8
    frequency:    2.3881170389
  - # 9
    frequency:    2.7801860316
  - # 10
    frequency:    3.2050418991
  - # 11
    frequency:    5.9966184419
  - # 12
    frequency:    7.0767542483
  - # 13
    frequency:    7.1858067603
  - # 14
    frequency:    8.8868995131
  - # 15
    frequency:    9.1042384325
  - # 16
    frequency:    9.8638833753
  - # 17
    frequency:   11.5729062911
  - # 18
    frequency:   11.7830563353
  - # 19
    frequency:   13.4885292209
  - # 20
    frequency:   13.7577511540
  - # 21
    frequency:   14.3698151872
  - # 22
    frequency:   15.1760487777
  - # 23
    frequency:   19.1710243711
  - # 24
    frequency:   64.4115569560

- q-position: [    0.1262626,    0.0000000,    0.0000000 ]
  distance:    0.0463697
  band:
  - # 1
    frequency:   -3.6148390806
  - # 2
    frequency:   -2.7573461374
  - # 3
    frequency:   -2.4489759750
  - # 4
    frequency:   -1.5636384895
  - # 5
    frequency:    0.6994134509
  - # 6
    frequency:    0.9254220222
  - # 7
    frequency:    1.5328207056
  - # 8
    frequency:    2.4327671848
  - # 9
    frequency:    2.9266217181
  - # 10
    frequency:    3.2905191273
  - # 11
    frequency:    5.9971657531
  - # 12
    frequency:    7.1174965917
  - # 13
    frequency:    7.2207632507
  - # 14
    frequency:    8.8727058504
  - # 15
    frequency:    9.0935740664
  - # 16
    frequency:    9.8763850232
  - # 17
    frequency:   11.5940121238
  - # 18
    frequency:   11.8190784206
  - # 19
    frequency:   13.4903725785
  - # 20
    frequency:   13.7798798834
  - # 21
    frequency:   14.4309420671
  - # 22
    frequency:   15.1686664674
  - # 23
    frequency:   19.1612899350
  - # 24
    frequency:   64.4071581775

- q-position: [    0.1313131,    0.0000000,    0.0000000 ]
  distance:    0.0482245
  band:
  - # 1
    frequency:   -3.7027328917
  - # 2
    frequency:   -2.7785332793
  - # 3
    frequency:   -2.4697513073
  - # 4
    frequency:   -1.4976068746
  - # 5
    frequency:    0.8360596272
  - # 6
    frequency:    1.0371918982
  - # 7
    frequency:    1.5561431829
  - # 8
    frequency:    2.4779642736
  - # 9
    frequency:    3.0651473149
  - # 10
    frequency:    3.3773536954
  - # 11
    frequency:    5.9996281462
  - # 12
    frequency:    7.1588333143
  - # 13
    frequency:    7.2551069781
  - # 14
    frequency:    8.8601105686
  - # 15
    frequency:    9.0834132731
  - # 16
    frequency:    9.8885739350
  - # 17
    frequency:   11.6149443053
  - # 18
    frequency:   11.8553375085
  - # 19
    frequency:   13.4917929581
  - # 20
    frequency:   13.8020957998
  - # 21
    frequency:   14.4909423846
  - # 22
    frequency:   15.1615583125
  - # 23
    frequency:   19.1513401575
  - # 24
    frequency:   64.4026576646

- q-position: [    0.1363636,    0.0000000,    0.0000000 ]
  distance:    0.0500793
  band:
  - # 1
    frequency:   -3.7880883652
  - # 2
    frequency:   -2.8039857652
  - # 3
    frequency:   -2.4835432839
  - # 4
    frequency:   -1.4248737812
  - # 5
    frequency:    0.9572326388
  - # 6
    frequency:    1.1465973237
  - # 7