nqpoint: 300    
npath: 3      
segment_nqpoint:
- 100
- 100
- 100
labels:
- [ 'G', 'M' ]
- [ 'M', 'K' ]
- [ 'K', 'G' ]
reciprocal_lattice:
- [   0.31804628,   0.18362410,   0.00000000 ] # a*
- [   0.00000000,   0.36724821,   0.00000000 ] # b*
- [   0.00000000,   0.00000000,   0.03419011 ] # c*
natom: 8      
lattice:
- [     3.144196522912101,     0.000000000000000,     0.000000000000000 ] # a
- [    -1.572098261456050,     2.722954063333443,     0.000000000000000 ] # b
- [     0.000000000000000,     0.000000000000000,    29.248222928539860 ] # c
points:
- symbol: C # 1
  coordinates: [  0.666666984744047,  0.333332985985145,  0.348430004375071 ]
  mass: 12.010700
- symbol: Cl # 2
  coordinates: [  0.333332985432215,  0.666666983183674,  0.692288997455022 ]
  mass: 35.453000
- symbol: N # 3
  coordinates: [  0.000000000000000,  0.000000000000000,  0.500351056703285 ]
  mass: 14.006700
- symbol: N # 4
  coordinates: [  0.666666984744047,  0.333332985985145,  0.307711002544978 ]
  mass: 14.006700
- symbol: O # 5
  coordinates: [  0.333332985432215,  0.666666983183674,  0.571834097836915 ]
  mass: 15.999400
- symbol: S # 6
  coordinates: [  0.666666984744047,  0.333332985985145,  0.406074553669045 ]
  mass: 32.065000
- symbol: Ti # 7
  coordinates: [  0.333332985432215,  0.666666983183674,  0.459887261842574 ]
  mass: 47.867000
- symbol: Ti # 8
  coordinates: [  0.666666984744047,  0.333332985985145,  0.542707757454339 ]
  mass: 47.867000

phonon:
- q-position: [    0.0000000,    0.0000000,    0.0000000 ]
  distance:    0.0000000
  band:
  - # 1
    frequency:   -2.9677876755
  - # 2
    frequency:   -2.9677876755
  - # 3
    frequency:   -0.4325061598
  - # 4
    frequency:   -0.4325061598
  - # 5
    frequency:   -0.0000009529
  - # 6
    frequency:   -0.0000008384
  - # 7
    frequency:    0.0000005449
  - # 8
    frequency:    1.0042714308
  - # 9
    frequency:    1.0042714308
  - # 10
    frequency:    1.1451007053
  - # 11
    frequency:    5.8779158397
  - # 12
    frequency:    6.8819887820
  - # 13
    frequency:    6.8819887820
  - # 14
    frequency:    8.7461827575
  - # 15
    frequency:    8.7461827575
  - # 16
    frequency:    9.2061770868
  - # 17
    frequency:   10.6012460492
  - # 18
    frequency:   10.6012460492
  - # 19
    frequency:   13.1582771063
  - # 20
    frequency:   13.1582771063
  - # 21
    frequency:   13.3739703896
  - # 22
    frequency:   15.2207822382
  - # 23
    frequency:   19.2137817279
  - # 24
    frequency:   64.4752176204

- q-position: [    0.0050505,    0.0000000,    0.0000000 ]
  distance:    0.0018548
  band:
  - # 1
    frequency:   -2.9649761948
  - # 2
    frequency:   -2.9621567774
  - # 3
    frequency:   -0.4628793204
  - # 4
    frequency:   -0.4432178344
  - # 5
    frequency:   -0.1990503739
  - # 6
    frequency:    0.0859634289
  - # 7
    frequency:    0.2493200340
  - # 8
    frequency:    1.0061000817
  - # 9
    frequency:    1.0100052595
  - # 10
    frequency:    1.1468179663
  - # 11
    frequency:    5.8780096698
  - # 12
    frequency:    6.8823987756
  - # 13
    frequency:    6.8833369453
  - # 14
    frequency:    8.7446738003
  - # 15
    frequency:    8.7457197203
  - # 16
    frequency:    9.2076708066
  - # 17
    frequency:   10.6020107302
  - # 18
    frequency:   10.6020921571
  - # 19
    frequency:   13.1587106894
  - # 20
    frequency:   13.1592892603
  - # 21
    frequency:   13.3762015007
  - # 22
    frequency:   15.2207198634
  - # 23
    frequency:   19.2136569114
  - # 24
    frequency:   64.4751059715

- q-position: [    0.0101010,    0.0000000,    0.0000000 ]
  distance:    0.0037096
  band:
  - # 1
    frequency:   -2.9565544722
  - # 2
    frequency:   -2.9452317239
  - # 3
    frequency:   -0.5474166219
  - # 4
    frequency:   -0.4773793359
  - # 5
    frequency:   -0.2498434341
  - # 6
    frequency:    0.1811582014
  - # 7
    frequency:    0.3948947295
  - # 8
    frequency:    1.0116225944
  - # 9
    frequency:    1.0266868704
  - # 10
    frequency:    1.1524768525
  - # 11
    frequency:    5.8782891518
  - # 12
    frequency:    6.8836288597
  - # 13
    frequency:    6.8873684192
  - # 14
    frequency:    8.7401629613
  - # 15
    frequency:    8.7443412820
  - # 16
    frequency:    9.2121344093
  - # 17
    frequency:   10.6043020713
  - # 18
    frequency:   10.6046192803
  - # 19
    frequency:   13.1600545333
  - # 20
    frequency:   13.1623217493
  - # 21
    frequency:   13.3828429856
  - # 22
    frequency:   15.2205310681
  - # 23
    frequency:   19.2132824224
  - # 24
    frequency:   64.4747712357

- q-position: [    0.0151515,    0.0000000,    0.0000000 ]
  distance:    0.0055644
  band:
  - # 1
    frequency:   -2.9425606331
  - # 2
    frequency:   -2.9169134447
  - # 3
    frequency:   -0.6706421144
  - # 4
    frequency:   -0.5346496680
  - # 5
    frequency:   -0.2552546678
  - # 6
    frequency:    0.2838245148
  - # 7
    frequency:    0.5320266771
  - # 8
    frequency:    1.0209591673
  - # 9
    frequency:    1.0523373007
  - # 10
    frequency:    1.1640882476
  - # 11
    frequency:    5.8787485362
  - # 12
    frequency:    6.8856793233
  - # 13
    frequency:    6.8940442416
  - # 14
    frequency:    8.7326967571
  - # 15
    frequency:    8.7420790873
  - # 16
    frequency:    9.2195172026
  - # 17
    frequency:   10.6081119595
  - # 18
    frequency:   10.6087942316
  - # 19
    frequency:   13.1624245827
  - # 20
    frequency:   13.1673626411
  - # 21
    frequency:   13.3937523630
  - # 22
    frequency:   15.2202108667
  - # 23
    frequency:   19.2126581429
  - # 24
    frequency:   64.4742140452

- q-position: [    0.0202020,    0.0000000,    0.0000000 ]
  distance:    0.0074192
  band:
  - # 1
    frequency:   -2.9230580999
  - # 2
    frequency:   -2.8770299787
  - # 3
    frequency:   -0.8151065883
  - # 4
    frequency:   -0.6092415480
  - # 5
    frequency:   -0.2215743608
  - # 6
    frequency:    0.3886849152
  - # 7
    frequency:    0.6645142714
  - # 8
    frequency:    1.0343483273
  - # 9
    frequency:    1.0821511597
  - # 10
    frequency:    1.1867324992
  - # 11
    frequency:    5.8793791276
  - # 12
    frequency:    6.8885505788
  - # 13
    frequency:    6.9032997814
  - # 14
    frequency:    8.7223480980
  - # 15
    frequency:    8.7389846566
  - # 16
    frequency:    9.2297405982
  - # 17
    frequency:   10.6134268541
  - # 18
    frequency:   10.6145630469
  - # 19
    frequency:   13.1659761079
  - # 20
    frequency:   13.1743920100
  - # 21
    frequency:   13.4087292512
  - # 22
    frequency:   15.2197510403
  - # 23
    frequency:   19.2117838770
  - # 24
    frequency:   64.4734354519

- q-position: [    0.0252525,    0.0000000,    0.0000000 ]
  distance:    0.0092739
  band:
  - # 1
    frequency:   -2.8981353740
  - # 2
    frequency:   -2.8253254732
  - # 3
    frequency:   -0.9700693970
  - # 4
    frequency:   -0.6949037320
  - # 5
    frequency:   -0.1310886797
  - # 6
    frequency:    0.4925707369
  - # 7
    frequency:    0.7916078028
  - # 8
    frequency:    1.0522154178
  - # 9
    frequency:    1.1086963412
  - # 10
    frequency:    1.2286077207
  - # 11
    frequency:    5.8801705159
  - # 12
    frequency:    6.8922430575
  - # 13
    frequency:    6.9150452536
  - # 14
    frequency:    8.7092112774
  - # 15
    frequency:    8.7351276510
  - # 16
    frequency:    9.2427049188
  - # 17
    frequency:   10.6202277784
  - # 18
    frequency:   10.6218529029
  - # 19
    frequency:   13.1708642861
  - # 20
    frequency:   13.1833818871
  - # 21
    frequency:   13.4275535610
  - # 22
    frequency:   15.2191402735
  - # 23
    frequency:   19.2106593529
  - # 24
    frequency:   64.4724369245

- q-position: [    0.0303030,    0.0000000,    0.0000000 ]
  distance:    0.0111287
  band:
  - # 1
    frequency:   -2.8679056581
  - # 2
    frequency:   -2.7614431846
  - # 3
    frequency:   -1.1301855297
  - # 4
    frequency:   -0.7872840673
  - # 5
    frequency:    0.1690136878
  - # 6
    frequency:    0.5937436283
  - # 7
    frequency:    0.9109592919
  - # 8
    frequency:    1.0752899177
  - # 9
    frequency:    1.1290382653
  - # 10
    frequency:    1.2939876812
  - # 11
    frequency:    5.8811121204
  - # 12
    frequency:    6.8967570622
  - # 13
    frequency:    6.9291665436
  - # 14
    frequency:    8.6933977204
  - # 15
    frequency:    8.7305936274
  - # 16
    frequency:    9.2582959220
  - # 17
    frequency:   10.6284903463
  - # 18
    frequency:   10.6305746042
  - # 19
    frequency:   13.1772113201
  - # 20
    frequency:   13.1942962061
  - # 21
    frequency:   13.4500168534
  - # 22
    frequency:   15.2183643474
  - # 23
    frequency:   19.2092842248
  - # 24
    frequency:   64.4712203451

- q-position: [    0.0353535,    0.0000000,    0.0000000 ]
  distance:    0.0129835
  band:
  - # 1
    frequency:   -2.8325062442
  - # 2
    frequency:   -2.6849005560
  - # 3
    frequency:   -1.2926781641
  - # 4
    frequency:   -0.8836639293
  - # 5
    frequency:    0.2948553238
  - # 6
    frequency:    0.6906312880
  - # 7
    frequency:    1.0195162498
  - # 8
    frequency:    1.1047791914
  - # 9
    frequency:    1.1469969101
  - # 10
    frequency:    1.3808321420
  - # 11
    frequency:    5.8821949034
  - # 12
    frequency:    6.9020925768
  - # 13
    frequency:    6.9455264082
  - # 14
    frequency:    8.6750335595
  - # 15
    frequency:    8.7254814351
  - # 16
    frequency:    9.2763897668
  - # 17
    frequency:   10.6381848554
  - # 18
    frequency:   10.6406254749
  - # 19
    frequency:   13.1850855960
  - # 20
    frequency:   13.2070907589
  - # 21
    frequency:   13.4759415243
  - # 22
    frequency:   15.2174063911
  - # 23
    frequency:   19.2076580771
  - # 24
    frequency:   64.4697880043

- q-position: [    0.0404040,    0.0000000,    0.0000000 ]
  distance:    0.0148383
  band:
  - # 1
    frequency:   -2.7920975800
  - # 2
    frequency:   -2.5950534292
  - # 3
    frequency:   -1.4559474497
  - # 4
    frequency:   -0.9823359900
  - # 5
    frequency:    0.3964825429
  - # 6
    frequency:    0.7811967904
  - # 7
    frequency:    1.1102429099
  - # 8
    frequency:    1.1425387334
  - # 9
    frequency:    1.1720490290
  - # 10
    frequency:    1.4854568939
  - # 11
    frequency:    5.8834131114
  - # 12
    frequency:    6.9082490317
  - # 13
    frequency:    6.9639661092
  - # 14
    frequency:    8.6542592598
  - # 15
    frequency:    8.7199004190
  - # 16
    frequency:    9.2968559714
  - # 17
    frequency:   10.6492764786
  - # 18
    frequency:   10.6518924732
  - # 19
    frequency:   13.1944926001
  - # 20
    frequency:   13.2217131784
  - # 21
    frequency:   13.5051882773
  - # 22
    frequency:   15.2162471943
  - # 23
    frequency:   19.2057804284
  - # 24
    frequency:   64.4681425951

- q-position: [    0.0454545,    0.0000000,    0.0000000 ]
  distance:    0.0166931
  band:
  - # 1
    frequency:   -2.7468619116
  - # 2
    frequency:   -2.4910454470
  - # 3
    frequency:   -1.6189669177
  - # 4
    frequency:   -1.0821822952
  - # 5
    frequency:    0.4887601953
  - # 6
    frequency:    0.8629043778
  - # 7
    frequency:    1.1569103824
  - # 8
    frequency:    1.1909571447
  - # 9
    frequency:    1.2336178719
  - # 10
    frequency:    1.6035756832
  - # 11
    frequency:    5.8847659243
  - # 12
    frequency:    6.9152250258
  - # 13
    frequency:    6.9843075052
  - # 14
    frequency:    8.6312308751
  - # 15
    frequency:    8.7139675877
  - # 16
    frequency:    9.3195585585
  - # 17
    frequency:   10.6617255837
  - # 18
    frequency:   10.6642553554
  - # 19
    frequency:   13.2053748542
  - # 20
    frequency:   13.2381029644
  - # 21
    frequency:   13.5376548025
  - # 22
    frequency:   15.2148655832
  - # 23
    frequency:   19.2036507389
  - # 24
    frequency:   64.4662872067

- q-position: [    0.0505051,    0.0000000,    0.0000000 ]
  distance:    0.0185479
  band:
  - # 1
    frequency:   -2.6970014019
  - # 2
    frequency:   -2.3717414982
  - # 3
    frequency:   -1.7809980475
  - # 4
    frequency:   -1.1824323037
  - # 5
    frequency:    0.5759647680
  - # 6
    frequency:    0.9335967083
  - # 7
    frequency:    1.1784917825
  - # 8
    frequency:    1.2520351287
  - # 9
    frequency:    1.3161687974
  - # 10
    frequency:    1.7308622793
  - # 11
    frequency:    5.8862589241
  - # 12
    frequency:    6.9230180050
  - # 13
    frequency:    7.0063555907
  - # 14
    frequency:    8.6061222203
  - # 15
    frequency:    8.7078048843
  - # 16
    frequency:    9.3443559055
  - # 17
    frequency:   10.6754882013
  - # 18
    frequency:   10.6775897349
  - # 19
    frequency:   13.2176179746
  - # 20
    frequency:   13.2561915711
  - # 21
    frequency:   13.5732687089
  - # 22
    frequency:   15.2132388648
  - # 23
    frequency:   19.2012684182
  - # 24
    frequency:   64.4642253161

- q-position: [    0.0555556,    0.0000000,    0.0000000 ]
  distance:    0.0204027
  band:
  - # 1
    frequency:   -2.6427356355
  - # 2
    frequency:   -2.2357069343
  - # 3
    frequency:   -1.9413556586
  - # 4
    frequency:   -1.2825269942
  - # 5
    frequency:    0.6600180297
  - # 6
    frequency:    0.9930092637
  - # 7
    frequency:    1.1977779400
  - # 8
    frequency:    1.3258600704
  - # 9
    frequency:    1.3997793930
  - # 10
    frequency:    1.8637989779
  - # 11
    frequency:    5.8879053333
  - # 12
    frequency:    6.9316239007
  - # 13
    frequency:    7.0299014386
  - # 14
    frequency:    8.5791272522
  - # 15
    frequency:    8.7015366691
  - # 16
    frequency:    9.3710998514
  - # 17
    frequency:   10.6905166500
  - # 18
    frequency:   10.6917699082
  - # 19
    frequency:   13.2310605910
  - # 20
    frequency:   13.2759025707
  - # 21
    frequency:   13.6119770970
  - # 22
    frequency:   15.2113433433
  - # 23
    frequency:   19.1986328369
  - # 24
    frequency:   64.4619607798

- q-position: [    0.0606061,    0.0000000,    0.0000000 ]
  distance:    0.0222575
  band:
  - # 1
    frequency:   -2.5842984571
  - # 2
    frequency:   -2.1069105090
  - # 3
    frequency:   -2.0734395636
  - # 4
    frequency:   -1.3820410317
  - # 5
    frequency:    0.7420086757
  - # 6
    frequency:    1.0431416917
  - # 7
    frequency:    1.2185197387
  - # 8
    frequency:    1.4102334296
  - # 9
    frequency:    1.4828333799
  - # 10
    frequency:    1.9998910321
  - # 11
    frequency:    5.8897270065
  - # 12
    frequency:    6.9410367308
  - # 13
    frequency:    7.0547254748
  - # 14
    frequency:    8.5504621022
  - # 15
    frequency:    8.6952874933
  - # 16
    frequency:    9.3996345108
  - # 17
    frequency:   10.7066713577
  - # 18
    frequency:   10.7067603135
  - # 19
    frequency:   13.2455064313
  - # 20
    frequency:   13.2971519060
  - # 21
    frequency:   13.6537345369
  - # 22
    frequency:   15.2091549152
  - # 23
    frequency:   19.1957433399
  - # 24
    frequency:   64.4594978240

- q-position: [    0.0656566,    0.0000000,    0.0000000 ]
  distance:    0.0241123
  band:
  - # 1
    frequency:   -2.5219341515
  - # 2
    frequency:   -2.2576343994
  - # 3
    frequency:   -1.9014559230
  - # 4
    frequency:   -1.4806367574
  - # 5
    frequency:    0.8226719809
  - # 6
    frequency:    1.0868826229
  - # 7
    frequency:    1.2422072319
  - # 8
    frequency:    1.5020473715
  - # 9
    frequency:    1.5655685808
  - # 10
    frequency:    2.1374472593
  - # 11
    frequency:    5.8917551849
  - # 12
    frequency:    6.9512481684
  - # 13
    frequency:    7.0806010004
  - # 14
    frequency:    8.5203664064
  - # 15
    frequency:    8.6891802091
  - # 16
    frequency:    9.4297950984
  - # 17
    frequency:   10.7221728704
  - # 18
    frequency:   10.7241665508
  - # 19
    frequency:   13.2607372033
  - # 20
    frequency:   13.3198482411
  - # 21
    frequency:   13.6984908456
  - # 22
    frequency:   15.2066497525
  - # 23
    frequency:   19.1925992636
  - # 24
    frequency:   64.4568410343

- q-position: [    0.0707071,    0.0000000,    0.0000000 ]
  distance:    0.0259670
  band:
  - # 1
    frequency:   -2.4558930816
  - # 2
    frequency:   -2.4112975547
  - # 3
    frequency:   -1.6969725879
  - # 4
    frequency:   -1.5780359909
  - # 5
    frequency:    0.9025732258
  - # 6
    frequency:    1.1266833502
  - # 7
    frequency:    1.2704106232
  - # 8
    frequency:    1.5986132643
  - # 9
    frequency:    1.6482506264
  - # 10
    frequency:    2.2753050852
  - # 11
    frequency:    5.8940310411
  - # 12
    frequency:    6.9622470878
  - # 13
    frequency:    7.1072978831
  - # 14
    frequency:    8.4891037384
  - # 15
    frequency:    8.6833344325
  - # 16
    frequency:    9.4614069463
  - # 17
    frequency:   10.7381582479
  - # 18
    frequency:   10.7426817067
  - # 19
    frequency:   13.2765250905
  - # 20
    frequency:   13.3438934145
  - # 21
    frequency:   13.7461798221
  - # 22
    frequency:   15.2038050847
  - # 23
    frequency:   19.1891999562
  - # 24
    frequency:   64.4539953443

- q-position: [    0.0757576,    0.0000000,    0.0000000 ]
  distance:    0.0278218
  band:
  - # 1
    frequency:   -2.5622595633
  - # 2
    frequency:   -2.3864271044
  - # 3
    frequency:   -1.6740019193
  - # 4
    frequency:   -1.4578791684
  - # 5
    frequency:    0.9821240362
  - # 6
    frequency:    1.1642007499
  - # 7
    frequency:    1.3056539851
  - # 8
    frequency:    1.6980212697
  - # 9
    frequency:    1.7310377484
  - # 10
    frequency:    2.4126296197
  - # 11
    frequency:    5.8966060446
  - # 12
    frequency:    6.9740190954
  - # 13
    frequency:    7.1345863580
  - # 14
    frequency:    8.4569610693
  - # 15
    frequency:    8.6778653514
  - # 16
    frequency:    9.4942848150
  - # 17
    frequency:   10.7545176064
  - # 18
    frequency:   10.7622521774
  - # 19
    frequency:   13.2926438637
  - # 20
    frequency:   13.3691829956
  - # 21
    frequency:   13.7967098660
  - # 22
    frequency:   15.2006000967
  - # 23
    frequency:   19.1855448028
  - # 24
    frequency:   64.4509660234

- q-position: [    0.0808081,    0.0000000,    0.0000000 ]
  distance:    0.0296766
  band:
  - # 1
    frequency:   -2.7101510719
  - # 2
    frequency:   -2.3137856469
  - # 3
    frequency:   -1.7683262135
  - # 4
    frequency:   -1.1709467810
  - # 5
    frequency:    1.0613326071
  - # 6
    frequency:    1.2004516142
  - # 7
    frequency:    1.3526785260
  - # 8
    frequency:    1.7989889275
  - # 9
    frequency:    1.8140201589
  - # 10
    frequency:    2.5487881333
  - # 11
    frequency:    5.8995421738
  - # 12
    frequency:    6.9865460617
  - # 13
    frequency:    7.1622409155
  - # 14
    frequency:    8.4242472369
  - # 15
    frequency:    8.6728828532
  - # 16
    frequency:    9.5282325485
  - # 17
    frequency:   10.7711482875
  - # 18
    frequency:   10.7828254785
  - # 19
    frequency:   13.3088778851
  - # 20
    frequency:   13.3956069381
  - # 21
    frequency:   13.8499570929
  - # 22
    frequency:   15.1970169679
  - # 23
    frequency:   19.1816332532
  - # 24
    frequency:   64.4477586639

- q-position: [    0.0858586,    0.0000000,    0.0000000 ]
  distance:    0.0315314
  band:
  - # 1
    frequency:   -2.8547133181
  - # 2
    frequency:   -2.2382158369
  - # 3
    frequency:   -1.8608158407
  - # 4
    frequency:   -0.8046627798
  - # 5
    frequency:    1.1390621007
  - # 6
    frequency:    1.2360362807
  - # 7
    frequency:    1.4205627027
  - # 8
    frequency:    1.8972767434
  - # 9
    frequency:    1.9006409962
  - # 10
    frequency:    2.6832758078
  - # 11
    frequency:    5.9029119937
  - # 12
    frequency:    6.9998056667
  - # 13
    frequency:    7.1900443016
  - # 14
    frequency:    8.3912904180
  - # 15
    frequency:    8.6684909321
  - # 16
    frequency:    9.5630431061
  - # 17
    frequency:   10.7879554163
  - # 18
    frequency:   10.8043512541
  - # 19
    frequency:   13.3250286346
  - # 20
    frequency:   13.4230503237
  - # 21
    frequency:   13.9057611728
  - # 22
    frequency:   15.1930420876
  - # 23
    frequency:   19.1774648553
  - # 24
    frequency:   64.4443791675

- q-position: [    0.0909091,    0.0000000,    0.0000000 ]
  distance:    0.0333862
  band:
  - # 1
    frequency:   -2.9957200121
  - # 2
    frequency:   -2.1599904712
  - # 3
    frequency:   -1.9512546440
  - # 4
    frequency:   -0.0566499740
  - # 5
    frequency:    1.2124507503
  - # 6
    frequency:    1.2713019077
  - # 7
    frequency:    1.5234593819
  - # 8
    frequency:    1.9809471916
  - # 9
    frequency:    2.0023502642
  - # 10
    frequency:    2.8156729454
  - # 11
    frequency:    5.9067986014
  - # 12
    frequency:    7.0137709803
  - # 13
    frequency:    7.2177917126
  - # 14
    frequency:    8.3584345804
  - # 15
    frequency:    8.6647873276
  - # 16
    frequency:    9.5984989918
  - # 17
    frequency:   10.8048521535
  - # 18
    frequency:   10.8267821648
  - # 19
    frequency:   13.3409187451
  - # 20
    frequency:   13.4513941829
  - # 21
    frequency:   13.9639237316
  - # 22
    frequency:   15.1886675032
  - # 23
    frequency:   19.1730392923
  - # 24
    frequency:   64.4408337312

- q-position: [    0.0959596,    0.0000000,    0.0000000 ]
  distance:    0.0352410
  band:
  - # 1
    frequency:   -3.1329637682
  - # 2
    frequency:   -2.0802629163
  - # 3
    frequency:   -2.0385399718
  - # 4
    frequency:    0.7132039736
  - # 5
    frequency:    1.2792841403
  - # 6
    frequency:    1.3064438229
  - # 7
    frequency:    1.6712343404
  - # 8
    frequency:    2.0653725975
  - # 9
    frequency:    2.1036408513
  - # 10
    frequency:    2.9456212213
  - # 11
    frequency:    5.9112954385
  - # 12
    frequency:    7.0284100971
  - # 13
    frequency:    7.2452953169
  - # 14
    frequency:    8.3260348473
  - # 15
    frequency:    8.6618633423
  - # 16
    frequency:    9.6343731047
  - # 17
    frequency:   10.8217596904
  - # 18
    frequency:   10.8500745897
  - # 19
    frequency:   13.3563938337
  - # 20
    frequency:   13.4805163767
  - # 21
    frequency:   14.0242088240
  - # 22
    frequency:   15.1838926835
  - # 23
    frequency:   19.1683564241
  - # 24
    frequency:   64.4371288316

- q-position: [    0.1010101,    0.0000000,    0.0000000 ]
  distance:    0.0370958
  band:
  - # 1
    frequency:   -3.2662516860
  - # 2
    frequency:   -2.1266016181
  - # 3
    frequency:   -1.9951412776
  - # 4
    frequency:    0.9356138549
  - # 5
    frequency:    1.3412940123
  - # 6
    frequency:    1.3415657544
  - # 7
    frequency:    1.8535708116
  - # 8
    frequency:    2.1515031860
  - # 9
    frequency:    2.2041330142
  - # 10
    frequency:    3.0728117517
  - # 11
    frequency:    5.9165059692
  - # 12
    frequency:    7.0436858483
  - # 13
    frequency:    7.2723892797
  - # 14
    frequency:    8.2944516650
  - # 15
    frequency:    8.6598037851
  - # 16
    frequency:    9.6704300290
  - # 17
    frequency:   10.8386070408
  - # 18
    frequency:   10.8741890821
  - # 19
    frequency:   13.3713225930
  - # 20
    frequency:   13.5102925248
  - # 21
    frequency:   14.0863447719
  - # 22
    frequency:   15.1787267274
  - # 23
    frequency:   19.1634163329
  - # 24
    frequency:   64.4332712101

- q-position: [    0.1060606,    0.0000000,    0.0000000 ]
  distance:    0.0389506
  band:
  - # 1
    frequency:   -3.3954033457
  - # 2
    frequency:   -2.2101618824
  - # 3
    frequency:   -1.9099226695
  - # 4
    frequency:    1.0642879101
  - # 5
    frequency:    1.3767155933
  - # 6
    frequency:    1.4020307427
  - # 7
    frequency:    2.0456921570
  - # 8
    frequency:    2.2425009655
  - # 9
    frequency:    2.3035125391
  - # 10
    frequency:    3.1969807603
  - # 11
    frequency:    5.9225432386
  - # 12
    frequency:    7.0595556158
  - # 13
    frequency:    7.2989354739
  - # 14
    frequency:    8.2640436322
  - # 15
    frequency:    8.6586869875
  - # 16
    frequency:    9.7064277806
  - # 17
    frequency:   10.8553306803
  - # 18
    frequency:   10.8990905227
  - # 19
    frequency:   13.3855956677
  - # 20
    frequency:   13.5405969592
  - # 21
    frequency:   14.1500265334
  - # 22
    frequency:   15.1731912218
  - # 23
    frequency:   19.1582193726
  - # 24
    frequency:   64.4292678562

- q-position: [    0.1111111,    0.0000000,    0.0000000 ]
  distance:    0.0408054
  band:
  - # 1
    frequency:   -3.5202497209
  - # 2
    frequency:   -2.2914091000
  - # 3
    frequency:   -1.8224148004
  - # 4
    frequency:    1.1500853239
  - # 5
    frequency:    1.4119069638
  - # 6
    frequency:    1.4637021233
  - # 7
    frequency:    2.2195834221
  - # 8
    frequency:    2.3506401369
  - # 9
    frequency:    2.4015141357
  - # 10
    frequency:    3.3179101822
  - # 11
    frequency:    5.9295293694
  - # 12
    frequency:    7.0759712717
  - # 13
    frequency:    7.3248300074
  - # 14
    frequency:    8.2351588721
  - # 15
    frequency:    8.6585848444
  - # 16
    frequency:    9.7421200207
  - # 17
    frequency:   10.8718740786
  - # 18
    frequency:   10.9247479274
  - # 19
    frequency:   13.3991238068
  - # 20
    frequency:   13.5713036886
  - # 21
    frequency:   14.2149177051
  - # 22
    frequency:   15.1673240706
  - # 23
    frequency:   19.1527662205
  - # 24
    frequency:   64.4251259907

- q-position: [    0.1161616,    0.0000000,    0.0000000 ]
  distance:    0.0426601
  band:
  - # 1
    frequency:   -3.6406325342
  - # 2
    frequency:   -2.3700959902
  - # 3
    frequency:   -1.7328329235
  - # 4
    frequency:    1.2138480795
  - # 5
    frequency:    1.4471325227
  - # 6
    frequency:    1.5268292414
  - # 7
    frequency:    2.3465274826
  - # 8
    frequency:    2.4974966917
  - # 9
    frequency:    2.4979126139
  - # 10
    frequency:    3.4354311556
  - # 11
    frequency:    5.9375951223
  - # 12
    frequency:    7.0928792664
  - # 13
    frequency:    7.3500105612
  - # 14
    frequency:    8.2081249215
  - # 15
    frequency:    8.6595628348
  - # 16
    frequency:    9.7772587281
  - # 17
    frequency:   10.8881871680
  - # 18
    frequency:   10.9511338808
  - # 19
    frequency:   13.4118356900
  - # 20
    frequency:   13.6022873535
  - # 21
    frequency:   14.2806511608
  - # 22
    frequency:   15.1611848171
  - # 23
    frequency:   19.1470579326
  - # 24
    frequency:   64.4208530488

- q-position: [    0.1212121,    0.0000000,    0.0000000 ]
  distance:    0.0445149
  band:
  - # 1
    frequency:   -3.7564038595
  - # 2
    frequency:   -2.4461025155
  - # 3
    frequency:   -1.6412316257
  - # 4
    frequency:    1.2655048705
  - # 5
    frequency:    1.4823723554
  - # 6
    frequency:    1.5910940253
  - # 7
    frequency:    2.4419449665
  - # 8
    frequency:    2.5925182299
  - # 9
    frequency:    2.6650547157
  - # 10
    frequency:    3.5494282738
  - # 11
    frequency:    5.9468797445
  - # 12
    frequency:    7.1102208848
  - # 13
    frequency:    7.3744642669
  - # 14
    frequency:    8.1832373256
  - # 15
    frequency:    8.6616799875
  - # 16
    frequency:    9.8115973043
  - # 17
    frequency:   10.9042257831
  - # 18
    frequency:   10.9782235913
  - # 19
    frequency:   13.4236757190
  - # 20
    frequency:   13.6334241581
  - # 21
    frequency:   14.3468271276
  - # 22
    frequency:   15.1548623134
  - # 23
    frequency:   19.1410959994
  - # 24
    frequency:   64.4164566614

- q-position: [    0.1262626,    0.0000000,    0.0000000 ]
  distance:    0.0463697
  band:
  - # 1
    frequency:   -3.8674258719
  - # 2
    frequency:   -2.5193322758
  - # 3
    frequency:   -1.5476012528
  - # 4
    frequency:    1.3102476136
  - # 5
    frequency:    1.5175994037
  - # 6
    frequency:    1.6560055716
  - # 7
    frequency:    2.5277253173
  - # 8
    frequency:    2.6851741053
  - # 9
    frequency:    2.8306078398
  - # 10
    frequency:    3.6598418331
  - # 11
    frequency:    5.9575314557
  - # 12
    frequency:    7.1279326860
  - # 13
    frequency:    7.3982354666
  - # 14
    frequency:    8.1607474659
  - # 15
    frequency:    8.6649887609
  - # 16
    frequency:    9.8448940570
  - # 17
    frequency:   10.9199511001
  - # 18
    frequency:   11.0059935913
  - # 19
    frequency:   13.4346019623
  - # 20
    frequency:   13.6645927642
  - # 21
    frequency:   14.4130070536
  - # 22
    frequency:   15.1484861508
  - # 23
    frequency:   19.1348824032
  - # 24
    frequency:   64.4119446377

- q-position: [    0.1313131,    0.0000000,    0.0000000 ]
  distance:    0.0482245
  band:
  - # 1
    frequency:   -3.9735706923
  - # 2
    frequency:   -2.5897003433
  - # 3
    frequency:   -1.4518693535
  - # 4
    frequency:    1.3509656425
  - # 5
    frequency:    1.5527830538
  - # 6
    frequency:    1.7211588333
  - # 7
    frequency:    2.6099554924
  - # 8
    frequency:    2.7757545168
  - # 9
    frequency:    2.9878379629
  - # 10
    frequency:    3.7666642541
  - # 11
    frequency:    5.9697090357
  - # 12
    frequency:    7.1459471342
  - # 13
    frequency:    7.4214322245
  - # 14
    frequency:    8.1408505874
  - # 15
    frequency:    8.6695348189
  - # 16
    frequency:    9.8769159741
  - # 17
    frequency:   10.9353291015
  - # 18
    frequency:   11.0344201429
  - # 19
    frequency:   13.4445843597
  - # 20
    frequency:   13.6956751340
  - # 21
    frequency:   14.4787007721
  - # 22
    frequency:   15.1422442087
  - # 23
    frequency:   19.1284196749
  - # 24
    frequency:   64.4073249456

- q-position: [    0.1363636,    0.0000000,    0.0000000 ]
  distance:    0.0500793
  band:
  - # 1
    frequency:   -4.0747202903
  - # 2
    frequency:   -2.6571303088
  - # 3
    frequency:   -1.3538867200
  - # 4
    frequency:    1.3893403368
  - # 5
    frequency:    1.5878915505
  - # 6
    frequency:    1.7862696771
  - # 7