nqpoint: 300    
npath: 3      
segment_nqpoint:
- 100
- 100
- 100
labels:
- [ 'G', 'M' ]
- [ 'M', 'K' ]
- [ 'K', 'G' ]
reciprocal_lattice:
- [   0.32127132,   0.18548608,   0.00000000 ] # a*
- [   0.00000000,   0.37097217,   0.00000000 ] # b*
- [   0.00000000,   0.00000000,   0.04036839 ] # c*
natom: 7      
lattice:
- [     3.112633898835962,     0.000000000000000,     0.000000000000000 ] # a
- [    -1.556316949417981,     2.695620029058567,     0.000000000000000 ] # b
- [     0.000000000000000,     0.000000000000000,    24.771857749604834 ] # c
points:
- symbol: C # 1
  coordinates: [  0.000000000000000,  0.000000000000000,  0.500000038923223 ]
  mass: 12.010700
- symbol: H # 2
  coordinates: [  0.333332985432215,  0.666666983183674,  0.636684495326412 ]
  mass: 1.007940
- symbol: H # 3
  coordinates: [  0.666666984744047,  0.333332985985145,  0.363315504673588 ]
  mass: 1.007940
- symbol: O # 4
  coordinates: [  0.333332985432215,  0.666666983183674,  0.596834179619685 ]
  mass: 15.999400
- symbol: O # 5
  coordinates: [  0.666666984744047,  0.333332985985145,  0.403165820380325 ]
  mass: 15.999400
- symbol: Ti # 6
  coordinates: [  0.333332985432215,  0.666666983183674,  0.454092489366124 ]
  mass: 47.867000
- symbol: Ti # 7
  coordinates: [  0.666666984744047,  0.333332985985145,  0.545907510052932 ]
  mass: 47.867000

phonon:
- q-position: [    0.0000000,    0.0000000,    0.0000000 ]
  distance:    0.0000000
  band:
  - # 1
    frequency:   -0.0000040813
  - # 2
    frequency:   -0.0000012527
  - # 3
    frequency:    0.0000041685
  - # 4
    frequency:    5.8055891410
  - # 5
    frequency:    5.8055891410
  - # 6
    frequency:    8.1888207716
  - # 7
    frequency:    8.1888207716
  - # 8
    frequency:    8.4229276091
  - # 9
    frequency:    8.4229276091
  - # 10
    frequency:    8.7224281365
  - # 11
    frequency:   13.1607180198
  - # 12
    frequency:   13.1607180198
  - # 13
    frequency:   13.1646505871
  - # 14
    frequency:   13.1646505871
  - # 15
    frequency:   14.0023615759
  - # 16
    frequency:   15.7112523692
  - # 17
    frequency:   18.2886136583
  - # 18
    frequency:   19.1196813945
  - # 19
    frequency:   19.1196813945
  - # 20
    frequency:  111.5350250128
  - # 21
    frequency:  111.7413016584

- q-position: [    0.0050505,    0.0000000,    0.0000000 ]
  distance:    0.0018736
  band:
  - # 1
    frequency:    0.0289952102
  - # 2
    frequency:    0.0953016311
  - # 3
    frequency:    0.1449951622
  - # 4
    frequency:    5.8059054856
  - # 5
    frequency:    5.8068718569
  - # 6
    frequency:    8.1892076312
  - # 7
    frequency:    8.1893302081
  - # 8
    frequency:    8.4208311612
  - # 9
    frequency:    8.4227286224
  - # 10
    frequency:    8.7249482522
  - # 11
    frequency:   13.1580914791
  - # 12
    frequency:   13.1605439885
  - # 13
    frequency:   13.1651315212
  - # 14
    frequency:   13.1655419587
  - # 15
    frequency:   14.0049774904
  - # 16
    frequency:   15.7107378561
  - # 17
    frequency:   18.2886416973
  - # 18
    frequency:   19.1203571122
  - # 19
    frequency:   19.1210033366
  - # 20
    frequency:  111.5342498855
  - # 21
    frequency:  111.7403282678

- q-position: [    0.0101010,    0.0000000,    0.0000000 ]
  distance:    0.0037472
  band:
  - # 1
    frequency:    0.0583765562
  - # 2
    frequency:    0.1905950102
  - # 3
    frequency:    0.2899719737
  - # 4
    frequency:    5.8068535799
  - # 5
    frequency:    5.8107143689
  - # 6
    frequency:    8.1903645554
  - # 7
    frequency:    8.1908585128
  - # 8
    frequency:    8.4147419409
  - # 9
    frequency:    8.4221332061
  - # 10
    frequency:    8.7323088032
  - # 11
    frequency:   13.1510159808
  - # 12
    frequency:   13.1604693073
  - # 13
    frequency:   13.1658604399
  - # 14
    frequency:   13.1677689452
  - # 15
    frequency:   14.0127364743
  - # 16
    frequency:   15.7092005296
  - # 17
    frequency:   18.2887236849
  - # 18
    frequency:   19.1223790992
  - # 19
    frequency:   19.1249607966
  - # 20
    frequency:  111.5319291719
  - # 21
    frequency:  111.7374109252

- q-position: [    0.0151515,    0.0000000,    0.0000000 ]
  distance:    0.0056208
  band:
  - # 1
    frequency:    0.0885178387
  - # 2
    frequency:    0.2858718934
  - # 3
    frequency:    0.4349119063
  - # 4
    frequency:    5.8084306153
  - # 5
    frequency:    5.8170998641
  - # 6
    frequency:    8.1922804908
  - # 7
    frequency:    8.1934056469
  - # 8
    frequency:    8.4051822522
  - # 9
    frequency:    8.4211461146
  - # 10
    frequency:    8.7439884636
  - # 11
    frequency:   13.1398734627
  - # 12
    frequency:   13.1609215932
  - # 13
    frequency:   13.1667111642
  - # 14
    frequency:   13.1709047564
  - # 15
    frequency:   14.0253871510
  - # 16
    frequency:   15.7066590437
  - # 17
    frequency:   18.2888533617
  - # 18
    frequency:   19.1257319040
  - # 19
    frequency:   19.1315286200
  - # 20
    frequency:  111.5280768204
  - # 21
    frequency:  111.7325581340

- q-position: [    0.0202020,    0.0000000,    0.0000000 ]
  distance:    0.0074944
  band:
  - # 1
    frequency:    0.1197693913
  - # 2
    frequency:    0.3811240489
  - # 3
    frequency:    0.5797960752
  - # 4
    frequency:    5.8106319398
  - # 5
    frequency:    5.8260006291
  - # 6
    frequency:    8.1949367055
  - # 7
    frequency:    8.1969714584
  - # 8
    frequency:    8.3928241018
  - # 9
    frequency:    8.4197756928
  - # 10
    frequency:    8.7593168469
  - # 11
    frequency:   13.1249702001
  - # 12
    frequency:   13.1620437135
  - # 13
    frequency:   13.1677592315
  - # 14
    frequency:   13.1748078184
  - # 15
    frequency:   14.0425548208
  - # 16
    frequency:   15.7031445381
  - # 17
    frequency:   18.2890207105
  - # 18
    frequency:   19.1303899281
  - # 19
    frequency:   19.1406647081
  - # 20
    frequency:  111.5227158915
  - # 21
    frequency:  111.7257841189

- q-position: [    0.0252525,    0.0000000,    0.0000000 ]
  distance:    0.0093680
  band:
  - # 1
    frequency:    0.1524491172
  - # 2
    frequency:    0.4763432530
  - # 3
    frequency:    0.7246050554
  - # 4
    frequency:    5.8134511024
  - # 5
    frequency:    5.8373784990
  - # 6
    frequency:    8.1983062823
  - # 7
    frequency:    8.2015555444
  - # 8
    frequency:    8.3783328982
  - # 9
    frequency:    8.4180345478
  - # 10
    frequency:    8.7776308034
  - # 11
    frequency:   13.1067473112
  - # 12
    frequency:   13.1638893120
  - # 13
    frequency:   13.1690203877
  - # 14
    frequency:   13.1794261213
  - # 15
    frequency:   14.0637921731
  - # 16
    frequency:   15.6987007111
  - # 17
    frequency:   18.2892125310
  - # 18
    frequency:   19.1363176557
  - # 19
    frequency:   19.1523098054
  - # 20
    frequency:  111.5158782815
  - # 21
    frequency:  111.7171089013

- q-position: [    0.0303030,    0.0000000,    0.0000000 ]
  distance:    0.0112416
  band:
  - # 1
    frequency:    0.1868362516
  - # 2
    frequency:    0.5715212751
  - # 3
    frequency:    0.8693186919
  - # 4
    frequency:    5.8168799130
  - # 5
    frequency:    5.8511854625
  - # 6
    frequency:    8.2023533171
  - # 7
    frequency:    8.2071570289
  - # 8
    frequency:    8.3622822559
  - # 9
    frequency:    8.4159405730
  - # 10
    frequency:    8.7983596396
  - # 11
    frequency:   13.0857029673
  - # 12
    frequency:   13.1664866529
  - # 13
    frequency:   13.1704793702
  - # 14
    frequency:   13.1847332031
  - # 15
    frequency:   14.0886278839
  - # 16
    frequency:   15.6933839146
  - # 17
    frequency:   18.2894131561
  - # 18
    frequency:   19.1434699727
  - # 19
    frequency:   19.1663872884
  - # 20
    frequency:  111.5076043419
  - # 21
    frequency:  111.7065584001

- q-position: [    0.0353535,    0.0000000,    0.0000000 ]
  distance:    0.0131152
  band:
  - # 1
    frequency:    0.2231679706
  - # 2
    frequency:    0.6666498485
  - # 3
    frequency:    1.0139159025
  - # 4
    frequency:    5.8209085192
  - # 5
    frequency:    5.8673643990
  - # 6
    frequency:    8.2070317194
  - # 7
    frequency:    8.2137741935
  - # 8
    frequency:    8.3451310140
  - # 9
    frequency:    8.4135184261
  - # 10
    frequency:    8.8210482210
  - # 11
    frequency:   13.0623388143
  - # 12
    frequency:   13.1698553955
  - # 13
    frequency:   13.1721051832
  - # 14
    frequency:   13.1907111589
  - # 15
    frequency:   14.1166043901
  - # 16
    frequency:   15.6872632672
  - # 17
    frequency:   18.2896052396
  - # 18
    frequency:   19.1517925725
  - # 19
    frequency:   19.1828030263
  - # 20
    frequency:  111.4979424016
  - # 21
    frequency:  111.6941645527

- q-position: [    0.0404040,    0.0000000,    0.0000000 ]
  distance:    0.0149888
  band:
  - # 1
    frequency:    0.2616385906
  - # 2
    frequency:    0.7617206234
  - # 3
    frequency:    1.1583744705
  - # 4
    frequency:    5.8255254964
  - # 5
    frequency:    5.8858499218
  - # 6
    frequency:    8.2122834556
  - # 7
    frequency:    8.2214037423
  - # 8
    frequency:    8.3272335215
  - # 9
    frequency:    8.4108016096
  - # 10
    frequency:    8.8453471254
  - # 11
    frequency:   13.0371298535
  - # 12
    frequency:   13.1738562959
  - # 13
    frequency:   13.1740117789
  - # 14
    frequency:   13.1973452025
  - # 15
    frequency:   14.1473021576
  - # 16
    frequency:   15.6804207747
  - # 17
    frequency:   18.2897705428
  - # 18
    frequency:   19.1612224458
  - # 19
    frequency:   19.2014453834
  - # 20
    frequency:  111.4869481978
  - # 21
    frequency:  111.6799654533

- q-position: [    0.0454545,    0.0000000,    0.0000000 ]
  distance:    0.0168624
  band:
  - # 1
    frequency:    0.3024008671
  - # 2
    frequency:    0.8567251032
  - # 3
    frequency:    1.3026708275
  - # 4
    frequency:    5.8307179523
  - # 5
    frequency:    5.9065692979
  - # 6
    frequency:    8.2180360142
  - # 7
    frequency:    8.2300388311
  - # 8
    frequency:    8.3088620319
  - # 9
    frequency:    8.4078353681
  - # 10
    frequency:    8.8709918786
  - # 11
    frequency:   13.0105095730
  - # 12
    frequency:   13.1756824294
  - # 13
    frequency:   13.1789704498
  - # 14
    frequency:   13.2046215498
  - # 15
    frequency:   14.1803519941
  - # 16
    frequency:   15.6729514468
  - # 17
    frequency:   18.2898906590
  - # 18
    frequency:   19.1716884483
  - # 19
    frequency:   19.2221854230
  - # 20
    frequency:  111.4746842201
  - # 21
    frequency:  111.6640055043

- q-position: [    0.0505051,    0.0000000,    0.0000000 ]
  distance:    0.0187360
  band:
  - # 1
    frequency:    0.3455688061
  - # 2
    frequency:    0.9516545596
  - # 3
    frequency:    1.4467798239
  - # 4
    frequency:    5.8364716431
  - # 5
    frequency:    5.9294434155
  - # 6
    frequency:    8.2241987908
  - # 7
    frequency:    8.2396608686
  - # 8
    frequency:    8.2902353869
  - # 9
    frequency:    8.4046806950
  - # 10
    frequency:    8.8977820925
  - # 11
    frequency:   12.9828648024
  - # 12
    frequency:   13.1775251698
  - # 13
    frequency:   13.1847451204
  - # 14
    frequency:   13.2125264451
  - # 15
    frequency:   14.2154387008
  - # 16
    frequency:   15.6649633933
  - # 17
    frequency:   18.2899476273
  - # 18
    frequency:   19.1831119449
  - # 19
    frequency:   19.2448773552
  - # 20
    frequency:  111.4612189741
  - # 21
    frequency:  111.6463355808

- q-position: [    0.0555556,    0.0000000,    0.0000000 ]
  distance:    0.0206096
  band:
  - # 1
    frequency:    0.3912214197
  - # 2
    frequency:    1.0464999297
  - # 3
    frequency:    1.5906744870
  - # 4
    frequency:    5.8427710990
  - # 5
    frequency:    5.9543877684
  - # 6
    frequency:    8.2306580290
  - # 7
    frequency:    8.2501638858
  - # 8
    frequency:    8.2716114890
  - # 9
    frequency:    8.4014198037
  - # 10
    frequency:    8.9255642126
  - # 11
    frequency:   12.9545362472
  - # 12
    frequency:   13.1793181468
  - # 13
    frequency:   13.1913487449
  - # 14
    frequency:   13.2210456472
  - # 15
    frequency:   14.2522993819
  - # 16
    frequency:   15.6565778792
  - # 17
    frequency:   18.2899244080
  - # 18
    frequency:   19.1954075215
  - # 19
    frequency:   19.2693592540
  - # 20
    frequency:  111.4466261623
  - # 21
    frequency:  111.6270132105

- q-position: [    0.0606061,    0.0000000,    0.0000000 ]
  distance:    0.0224832
  band:
  - # 1
    frequency:    0.4394069437
  - # 2
    frequency:    1.1412516936
  - # 3
    frequency:    1.7343257667
  - # 4
    frequency:    5.8495997591
  - # 5
    frequency:    5.9813134306
  - # 6
    frequency:    8.2372699724
  - # 7
    frequency:    8.2519239588
  - # 8
    frequency:    8.2627305994
  - # 9
    frequency:    8.3981633970
  - # 10
    frequency:    8.9542183616
  - # 11
    frequency:   12.9258218822
  - # 12
    frequency:   13.1809870575
  - # 13
    frequency:   13.1987934681
  - # 14
    frequency:   13.2301641276
  - # 15
    frequency:   14.2907189767
  - # 16
    frequency:   15.6479293137
  - # 17
    frequency:   18.2898052064
  - # 18
    frequency:   19.2084837604
  - # 19
    frequency:   19.2954540461
  - # 20
    frequency:  111.4309837797
  - # 21
    frequency:  111.6061027781

- q-position: [    0.0656566,    0.0000000,    0.0000000 ]
  distance:    0.0243568
  band:
  - # 1
    frequency:    0.4901471515
  - # 2
    frequency:    1.2358997355
  - # 3
    frequency:    1.8777022681
  - # 4
    frequency:    5.8569401120
  - # 5
    frequency:    6.0101279966
  - # 6
    frequency:    8.2336829809
  - # 7
    frequency:    8.2438521995
  - # 8
    frequency:    8.2749407925
  - # 9
    frequency:    8.3950597542
  - # 10
    frequency:    8.9836486595
  - # 11
    frequency:   12.8969814093
  - # 12
    frequency:   13.1824496618
  - # 13
    frequency:   13.2070904511
  - # 14
    frequency:   13.2398658856
  - # 15
    frequency:   14.3305247086
  - # 16
    frequency:   15.6391651413
  - # 17
    frequency:   18.2895756518
  - # 18
    frequency:   19.2222440714
  - # 19
    frequency:   19.3229707603
  - # 20
    frequency:  111.4143731097
  - # 21
    frequency:  111.5836757722

- q-position: [    0.0707071,    0.0000000,    0.0000000 ]
  distance:    0.0262304
  band:
  - # 1
    frequency:    0.5434415086
  - # 2
    frequency:    1.3304331900
  - # 3
    frequency:    2.0207699719
  - # 4
    frequency:    5.8647738413
  - # 5
    frequency:    6.0407364665
  - # 6
    frequency:    8.2152320527
  - # 7
    frequency:    8.2501741433
  - # 8
    frequency:    8.2885211264
  - # 9
    frequency:    8.3923046246
  - # 10
    frequency:    9.0137761986
  - # 11
    frequency:   12.8682407570
  - # 12
    frequency:   13.1836158289
  - # 13
    frequency:   13.2162496229
  - # 14
    frequency:   13.2501338356
  - # 15
    frequency:   14.3715804382
  - # 16
    frequency:   15.6304456001
  - # 17
    frequency:   18.2892228453
  - # 18
    frequency:   19.2365875709
  - # 19
    frequency:   19.3517060096
  - # 20
    frequency:  111.3968775944
  - # 21
    frequency:  111.5598111039

- q-position: [    0.0757576,    0.0000000,    0.0000000 ]
  distance:    0.0281040
  band:
  - # 1
    frequency:    0.5992710107
  - # 2
    frequency:    1.4248402765
  - # 3
    frequency:    2.1634919436
  - # 4
    frequency:    5.8730819727
  - # 5
    frequency:    6.0730420594
  - # 6
    frequency:    8.1969867865
  - # 7
    frequency:    8.2559502639
  - # 8
    frequency:    8.3031109649
  - # 9
    frequency:    8.3901484505
  - # 10
    frequency:    9.0445339495
  - # 11
    frequency:   12.8397961106
  - # 12
    frequency:   13.1843876954
  - # 13
    frequency:   13.2262793825
  - # 14
    frequency:   13.2609497505
  - # 15
    frequency:   14.4137814152
  - # 16
    frequency:   15.6219433053
  - # 17
    frequency:   18.2887353003
  - # 18
    frequency:   19.2514100026
  - # 19
    frequency:   19.3814456738
  - # 20
    frequency:  111.3785815342
  - # 21
    frequency:  111.5345955487

- q-position: [    0.0808081,    0.0000000,    0.0000000 ]
  distance:    0.0299775
  band:
  - # 1
    frequency:    0.6576016198
  - # 2
    frequency:    1.5191081260
  - # 3
    frequency:    2.3058280314
  - # 4
    frequency:    5.8818450219
  - # 5
    frequency:    6.1069469437
  - # 6
    frequency:    8.1790322753
  - # 7
    frequency:    8.2608436968
  - # 8
    frequency:    8.3186682653
  - # 9
    frequency:    8.3888930889
  - # 10
    frequency:    9.0758630433
  - # 11
    frequency:   12.8118172731
  - # 12
    frequency:   13.1846599952
  - # 13
    frequency:   13.2371862677
  - # 14
    frequency:   13.2722942529
  - # 15
    frequency:   14.4570496263
  - # 16
    frequency:   15.6138426157
  - # 17
    frequency:   18.2881028001
  - # 18
    frequency:   19.2666046882
  - # 19
    frequency:   19.4119667408
  - # 20
    frequency:  111.3595685392
  - # 21
    frequency:  111.5081243940

- q-position: [    0.0858586,    0.0000000,    0.0000000 ]
  distance:    0.0318511
  band:
  - # 1
    frequency:    0.7183872650
  - # 2
    frequency:    1.6132226040
  - # 3
    frequency:    2.4477345559
  - # 4
    frequency:    5.8910431395
  - # 5
    frequency:    6.1423528761
  - # 6
    frequency:    8.1614258716
  - # 7
    frequency:    8.2644924589
  - # 8
    frequency:    8.3351690963
  - # 9
    frequency:    8.3888659427
  - # 10
    frequency:    9.1077100258
  - # 11
    frequency:   12.7844503315
  - # 12
    frequency:   13.1843206173
  - # 13
    frequency:   13.2489745934
  - # 14
    frequency:   13.2841468555
  - # 15
    frequency:   14.5013297680
  - # 16
    frequency:   15.6063387381
  - # 17
    frequency:   18.2873161996
  - # 18
    frequency:   19.2820635018
  - # 19
    frequency:   19.4430392697
  - # 20
    frequency:  111.3399196062
  - # 21
    frequency:  111.4805024241

- q-position: [    0.0909091,    0.0000000,    0.0000000 ]
  distance:    0.0337247
  band:
  - # 1
    frequency:    0.7815724087
  - # 2
    frequency:    1.7071681339
  - # 3
    frequency:    2.5891639925
  - # 4
    frequency:    5.9006562526
  - # 5
    frequency:    6.1791617475
  - # 6
    frequency:    8.1442152952
  - # 7
    frequency:    8.2665667205
  - # 8
    frequency:    8.3525911644
  - # 9
    frequency:    8.3903629905
  - # 10
    frequency:    9.1400247957
  - # 11
    frequency:   12.7578196923
  - # 12
    frequency:   13.1832514471
  - # 13
    frequency:   13.2616460604
  - # 14
    frequency:   13.2964860592
  - # 15
    frequency:   14.5465857885
  - # 16
    frequency:   15.5996365272
  - # 17
    frequency:   18.2863671918
  - # 18
    frequency:   19.2976778580
  - # 19
    frequency:   19.4744284350
  - # 20
    frequency:  111.3197106104
  - # 21
    frequency:  111.4518454580

- q-position: [    0.0959596,    0.0000000,    0.0000000 ]
  distance:    0.0355983
  band:
  - # 1
    frequency:    0.8470941993
  - # 2
    frequency:    1.8009275253
  - # 3
    frequency:    2.7300646476
  - # 4
    frequency:    5.9106641996
  - # 5
    frequency:    6.2172760361
  - # 6
    frequency:    8.1274428744
  - # 7
    frequency:    8.2668447885
  - # 8
    frequency:    8.3709107493
  - # 9
    frequency:    8.3935730603
  - # 10
    frequency:    9.1727590286
  - # 11
    frequency:   12.7320295870
  - # 12
    frequency:   13.1813295386
  - # 13
    frequency:   13.2751993207
  - # 14
    frequency:   13.3092895261
  - # 15
    frequency:   14.5927979070
  - # 16
    frequency:   15.5939489456
  - # 17
    frequency:   18.2852480611
  - # 18
    frequency:   19.3133397027
  - # 19
    frequency:   19.5058966180
  - # 20
    frequency:  111.2990088670
  - # 21
    frequency:  111.4222827929

- q-position: [    0.1010101,    0.0000000,    0.0000000 ]
  distance:    0.0374719
  band:
  - # 1
    frequency:    0.9148842447
  - # 2
    frequency:    1.8944818123
  - # 3
    frequency:    2.8703803330
  - # 4
    frequency:    5.9210468555
  - # 5
    frequency:    6.2565991728
  - # 6
    frequency:    8.1111473134
  - # 7
    frequency:    8.2652677342
  - # 8
    frequency:    8.3901018028
  - # 9
    frequency:    8.3985234176
  - # 10
    frequency:    9.2058649456
  - # 11
    frequency:   12.7071651604
  - # 12
    frequency:   13.1784286547
  - # 13
    frequency:   13.2896294668
  - # 14
    frequency:   13.3225343654
  - # 15
    frequency:   14.6399600098
  - # 16
    frequency:   15.5894951629
  - # 17
    frequency:   18.2839514356
  - # 18
    frequency:   19.3289424996
  - # 19
    frequency:   19.5372055135
  - # 20
    frequency:  111.2778681956
  - # 21
    frequency:  111.3919611250

- q-position: [    0.1060606,    0.0000000,    0.0000000 ]
  distance:    0.0393455
  band:
  - # 1
    frequency:    0.9848700423
  - # 2
    frequency:    1.9878101061
  - # 3
    frequency:    3.0100500382
  - # 4
    frequency:    5.9317842481
  - # 5
    frequency:    6.2970358278
  - # 6
    frequency:    8.0953646852
  - # 7
    frequency:    8.2619356574
  - # 8
    frequency:    8.4050836695
  - # 9
    frequency:    8.4101356122
  - # 10
    frequency:    9.2392943305
  - # 11
    frequency:   12.6832932541
  - # 12
    frequency:   13.1744211925
  - # 13
    frequency:   13.3049273732
  - # 14
    frequency:   13.3361976096
  - # 15
    frequency:   14.6880773292
  - # 16
    frequency:   15.5864982866
  - # 17
    frequency:   18.2824700529
  - # 18
    frequency:   19.3443822001
  - # 19
    frequency:   19.5681182236
  - # 20
    frequency:  111.2563215752
  - # 21
    frequency:  111.3610508664

- q-position: [    0.1111111,    0.0000000,    0.0000000 ]
  distance:    0.0412191
  band:
  - # 1
    frequency:    1.0569761082
  - # 2
    frequency:    2.0808894654
  - # 3
    frequency:    3.1490076053
  - # 4
    frequency:    5.9428566609
  - # 5
    frequency:    6.3384921278
  - # 6
    frequency:    8.0801290831
  - # 7
    frequency:    8.2570522058
  - # 8
    frequency:    8.4130213695
  - # 9
    frequency:    8.4309806679
  - # 10
    frequency:    9.2729977308
  - # 11
    frequency:   12.6604629842
  - # 12
    frequency:   13.1691804869
  - # 13
    frequency:   13.3210787290
  - # 14
    frequency:   13.3502570449
  - # 15
    frequency:   14.7371643173
  - # 16
    frequency:   15.5851827469
  - # 17
    frequency:   18.2807965454
  - # 18
    frequency:   19.3595581889
  - # 19
    frequency:   19.5984013161
  - # 20
    frequency:  111.2343700240
  - # 21
    frequency:  111.3297562306

- q-position: [    0.1161616,    0.0000000,    0.0000000 ]
  distance:    0.0430927
  band:
  - # 1
    frequency:    1.1311248428
  - # 2
    frequency:    2.1736947897
  - # 3
    frequency:    3.2871814071
  - # 4
    frequency:    5.9542447211
  - # 5
    frequency:    6.3808758171
  - # 6
    frequency:    8.0654730845
  - # 7
    frequency:    8.2508578600
  - # 8
    frequency:    8.4220688130
  - # 9
    frequency:    8.4526026296
  - # 10
    frequency:    9.3069237949
  - # 11
    frequency:   12.6387062054
  - # 12
    frequency:   13.1625834545
  - # 13
    frequency:   13.3380623895
  - # 14
    frequency:   13.3646927699
  - # 15
    frequency:   14.7872426475
  - # 16
    frequency:   15.5857713833
  - # 17
    frequency:   18.2789232516
  - # 18
    frequency:   19.3743741962
  - # 19
    frequency:   19.6278268255
  - # 20
    frequency:  111.2119660425
  - # 21
    frequency:  111.2983307533

- q-position: [    0.1212121,    0.0000000,    0.0000000 ]
  distance:    0.0449663
  band:
  - # 1
    frequency:    1.2072371734
  - # 2
    frequency:    2.2661987374
  - # 3
    frequency:    3.4244940319
  - # 4
    frequency:    5.9659294734
  - # 5
    frequency:    6.4240963774
  - # 6
    frequency:    8.0514280974
  - # 7
    frequency:    8.2435834367
  - # 8
    frequency:    8.4319695738
  - # 9
    frequency:    8.4749643525
  - # 10
    frequency:    9.3410187170
  - # 11
    frequency:   12.6180379361
  - # 12
    frequency:   13.1545135057
  - # 13
    frequency:   13.3558471246
  - # 14
    frequency:   13.3794904079
  - # 15
    frequency:   14.8383392816
  - # 16
    frequency:   15.5884823139
  - # 17
    frequency:   18.2768420563
  - # 18
    frequency:   19.3887391657
  - # 19
    frequency:   19.6561741806
  - # 20
    frequency:  111.1889910794
  - # 21
    frequency:  111.2670987969

- q-position: [    0.1262626,    0.0000000,    0.0000000 ]
  distance:    0.0468399
  band:
  - # 1
    frequency:    1.2852330078
  - # 2
    frequency:    2.3583716726
  - # 3
    frequency:    3.5608619768
  - # 4
    frequency:    5.9778924346
  - # 5
    frequency:    6.4680651199
  - # 6
    frequency:    8.0380246286
  - # 7
    frequency:    8.2354292081
  - # 8
    frequency:    8.4424993879
  - # 9
    frequency:    8.4980259584
  - # 10
    frequency:    9.3752257681
  - # 11
    frequency:   12.5984568105
  - # 12
    frequency:   13.1448636218
  - # 13
    frequency:   13.3743842274
  - # 14
    frequency:   13.3946485102
  - # 15
    frequency:   14.8904845638
  - # 16
    frequency:   15.5935256998
  - # 17
    frequency:   18.2745442614
  - # 18
    frequency:   19.4025680723
  - # 19
    frequency:   19.6832320431
  - # 20
    frequency:  111.1652328634
  - # 21
    frequency:  111.2364772008

- q-position: [    0.1313131,    0.0000000,    0.0000000 ]
  distance:    0.0487135
  band:
  - # 1
    frequency:    1.3650315334
  - # 2
    frequency:    2.4501816411
  - # 3
    frequency:    3.6961953520
  - # 4
    frequency:    5.9901156318
  - # 5
    frequency:    6.5126952661
  - # 6
    frequency:    8.0252924956
  - # 7
    frequency:    8.2265610579
  - # 8
    frequency:    8.4534699697
  - # 9
    frequency:    8.5217449419
  - # 10
    frequency:    9.4094849013
  - # 11
    frequency:   12.5799456057
  - # 12
    frequency:   13.1335394617
  - # 13
    frequency:   13.3935882062
  - # 14
    frequency:   13.4101979262
  - # 15
    frequency:   14.9437103065
  - # 16
    frequency:   15.6011005418
  - # 17
    frequency:   18.2720204879
  - # 18
    frequency:   19.4157826800
  - # 19
    frequency:   19.7088000441
  - # 20
    frequency:  111.1403868133
  - # 21
    frequency:  111.2069728705

- q-position: [    0.1363636,    0.0000000,    0.0000000 ]
  distance:    0.0505871
  band:
  - # 1
    frequency:    1.4465513941
  - # 2
    frequency:    2.5415943791
  - # 3
    frequency:    3.8303975970
  - # 4
    frequency:    6.0025816204
  - # 5
    frequency:    6.5579020313
  - # 6
    frequency:    8.0132609945
  - # 7
    frequency:    8.2171143865
  - # 8
    frequency:    8.4647250525
  - # 9
    frequency:    8.5460763077
  - # 10
    frequency:    9.4437324231
  - # 11
    frequency:   12.5624718829
  - # 12
    frequency:   13.1204623496
  - # 13
    frequency:   13.4132794657
  - # 14
    frequency:   13.4262592355
  - # 15
    frequency:   14.9980478539
  - # 16
    frequency:   15.6113916645
  - # 17
    frequency:   18.2692606096
  - # 18
    frequency:   19.4283122333
  - # 19
    frequency:   19.7326904080
  - # 20
    frequency:  111.1141299648
  - # 21
    frequency:  111.1791078751

- q-position: [    0.1414141,    0.0000000,    0.0000000 ]
  distance:    0.0524607
  band:
  - # 1
    frequency:    1.5297107727
  - # 2
    frequency:    2.6325733525
  - # 3
    frequency:    3.9633652134
  - # 4
    frequency:    6.0152734829
  - # 5
    frequency:    6.6036027245
  - # 6
    frequency:    8.0019590334
  - # 7
    frequency:    8.2072001690
  - # 8
    frequency:    8.4761342564
  - # 9
    frequency:    8.5709727341
  - # 10
    frequency:    9.4779007259
  - # 11
    frequency:   12.5459887651
  - # 12
    frequency:   13.1055719854
  - # 13
    frequency:   13.4330151087
  - # 14
    frequency:   13.4432121075
  - # 15
    frequency:   15.0535261141
  - # 16
    frequency:   15.6245670447
  - # 17
    frequency:   18.2662537170
  - # 18
    frequency:   19.4400940759
  - # 19
    frequency:   19.7547294542
  - # 20
    frequency:  111.0862856983
  - # 21
    frequency:  111.1532537731

- q-position: [    0.1464646,    0.0000000,    0.0000000 ]
  distance:    0.0543343
  band:
  - # 1
    frequency:    1.6144274052
  - # 2
    frequency:    2.7230798285
  - # 3
    frequency:    4.0949875134
  - # 4
    frequency:    6.0281748084
  - # 5
    frequency:    6.6497168785
  - # 6
    frequency:    7.9914152359
  - # 7
    frequency:    8.1969107011
  - # 8
    frequency:    8.4875872562
  - # 9
    frequency:    8.5963847599
  - # 10
    frequency:    9.5119180802
  - # 11
    frequency:   12.5304358604
  - # 12
    frequency:   13.0888287356
  - # 13
    frequency:   13.4519027174
  - # 14
    frequency:   13.4618817287
  - # 15
    frequency:   15.1101695687
  - # 16
    frequency:   15.6407756262
  - # 17
    frequency:   18.2629881120
  - # 18
    frequency:   19.4510741895
  - # 19
    frequency:   19.7747589676
  - # 20
    frequency:  111.0569637501
  - # 21
    frequency:  111.1294906898

- q-position: [    0.1515152,    0.0000000,    0.0000000 ]
  distance:    0.0562079
  band:
  - # 1
    frequency:    1.7006185526
  - # 2
    frequency:    2.8130729782
  - # 3
    frequency:    4.2251463882
  - # 4
    frequency:    6.0412696538
  - # 5
    frequency:    6.6961664172
  - # 6
    frequency:    7.9816580172
  - # 7
    frequency:    8.1863242629
  - # 8
    frequency:    8.4989890234
  - # 9
    frequency:    8.6222609904
  - # 10
    frequency:    9.5457084857
  - # 11
    frequency:   12.5157403267
  - # 12
    frequency:   13.0702153896
  - # 13
    frequency:   13.4694775606
  - # 14
    frequency:   13.4826618483
  - # 15
    frequency:   15.1679962744
  - # 16
    frequency:   15.6601457328
  - # 17
    frequency:   18.2594513312
  - # 18
    frequency:   19.4612076496
  - # 19
    frequency:   19.7926374304
  - # 20
    frequency:  111.0265220435
  - # 21
    frequency:  111.1076446160
