nqpoint: 300    
npath: 3      
segment_nqpoint:
- 100
- 100
- 100
labels:
- [ 'G', 'M' ]
- [ 'M', 'K' ]
- [ 'K', 'G' ]
reciprocal_lattice:
- [   0.28841642,   0.16651730,   0.00000000 ] # a*
- [   0.00000000,   0.33303459,   0.00000000 ] # b*
- [   0.00000000,   0.00000000,   0.03785630 ] # c*
natom: 7      
lattice:
- [     3.467208985581958,     0.000000000000000,     0.000000000000000 ] # a
- [    -1.733604492790979,     3.002691061733071,     0.000000000000000 ] # b
- [     0.000000000000000,     0.000000000000000,    26.415683665396202 ] # c
points:
- symbol: Br # 1
  coordinates: [  0.666666984744047,  0.333332985985145,  0.340706684483421 ]
  mass: 79.904000
- symbol: C # 2
  coordinates: [  0.333332985432215,  0.666666983183674,  0.600425779472755 ]
  mass: 12.010700
- symbol: N # 3
  coordinates: [  0.000000000000000,  0.000000000000000,  0.458205361183339 ]
  mass: 14.006700
- symbol: N # 4
  coordinates: [  0.333332985432215,  0.666666983183674,  0.552968550772767 ]
  mass: 14.006700
- symbol: S # 5
  coordinates: [  0.333332985432215,  0.666666983183674,  0.659293315516579 ]
  mass: 32.065000
- symbol: Zr # 6
  coordinates: [  0.333332985432215,  0.666666983183674,  0.415096466786575 ]
  mass: 91.224000
- symbol: Zr # 7
  coordinates: [  0.666666984744047,  0.333332985985145,  0.501205521479539 ]
  mass: 91.224000

phonon:
- q-position: [    0.0000000,    0.0000000,    0.0000000 ]
  distance:    0.0000000
  band:
  - # 1
    frequency:   -0.0000162109
  - # 2
    frequency:    0.0000003700
  - # 3
    frequency:    0.0000141167
  - # 4
    frequency:    1.1240376049
  - # 5
    frequency:    1.1240376050
  - # 6
    frequency:    2.7034730170
  - # 7
    frequency:    2.7034730170
  - # 8
    frequency:    4.3726164476
  - # 9
    frequency:    4.9091395810
  - # 10
    frequency:    4.9091395811
  - # 11
    frequency:    6.6525355243
  - # 12
    frequency:    6.9167717332
  - # 13
    frequency:    6.9167717332
  - # 14
    frequency:    8.5539949322
  - # 15
    frequency:   13.1785181601
  - # 16
    frequency:   13.9326486683
  - # 17
    frequency:   13.9326486683
  - # 18
    frequency:   14.9740298796
  - # 19
    frequency:   14.9740298797
  - # 20
    frequency:   26.9010405837
  - # 21
    frequency:   56.8284657374

- q-position: [    0.0050505,    0.0000000,    0.0000000 ]
  distance:    0.0016820
  band:
  - # 1
    frequency:    0.0019378146
  - # 2
    frequency:    0.0613514252
  - # 3
    frequency:    0.0901410933
  - # 4
    frequency:    1.1247986312
  - # 5
    frequency:    1.1268441439
  - # 6
    frequency:    2.7038497393
  - # 7
    frequency:    2.7044666606
  - # 8
    frequency:    4.3719554433
  - # 9
    frequency:    4.9086706873
  - # 10
    frequency:    4.9097856007
  - # 11
    frequency:    6.6520211817
  - # 12
    frequency:    6.9166136645
  - # 13
    frequency:    6.9172442642
  - # 14
    frequency:    8.5531185025
  - # 15
    frequency:   13.1781843387
  - # 16
    frequency:   13.9326726680
  - # 17
    frequency:   13.9328646729
  - # 18
    frequency:   14.9741882176
  - # 19
    frequency:   14.9741883964
  - # 20
    frequency:   26.9009494417
  - # 21
    frequency:   56.8279691579

- q-position: [    0.0101010,    0.0000000,    0.0000000 ]
  distance:    0.0033640
  band:
  - # 1
    frequency:    0.0077095488
  - # 2
    frequency:    0.1226340560
  - # 3
    frequency:    0.1802048916
  - # 4
    frequency:    1.1270776691
  - # 5
    frequency:    1.1352059300
  - # 6
    frequency:    2.7049787981
  - # 7
    frequency:    2.7074426781
  - # 8
    frequency:    4.3699861382
  - # 9
    frequency:    4.9072654560
  - # 10
    frequency:    4.9117140747
  - # 11
    frequency:    6.6504836344
  - # 12
    frequency:    6.9161393553
  - # 13
    frequency:    6.9186547430
  - # 14
    frequency:    8.5504909886
  - # 15
    frequency:   13.1771828986
  - # 16
    frequency:   13.9327445794
  - # 17
    frequency:   13.9335122238
  - # 18
    frequency:   14.9746621225
  - # 19
    frequency:   14.9746628759
  - # 20
    frequency:   26.9006761266
  - # 21
    frequency:   56.8264799183

- q-position: [    0.0151515,    0.0000000,    0.0000000 ]
  distance:    0.0050460
  band:
  - # 1
    frequency:    0.0171931931
  - # 2
    frequency:    0.1837793093
  - # 3
    frequency:    0.2701143833
  - # 4
    frequency:    1.1308626792
  - # 5
    frequency:    1.1489556110
  - # 6
    frequency:    2.7068568720
  - # 7
    frequency:    2.7123864164
  - # 8
    frequency:    4.3667488246
  - # 9
    frequency:    4.9049282331
  - # 10
    frequency:    4.9148970225
  - # 11
    frequency:    6.6479387831
  - # 12
    frequency:    6.9153485039
  - # 13
    frequency:    6.9209823857
  - # 14
    frequency:    8.5461177173
  - # 15
    frequency:   13.1755139244
  - # 16
    frequency:   13.9328641392
  - # 17
    frequency:   13.9345899340
  - # 18
    frequency:   14.9754482687
  - # 19
    frequency:   14.9754501075
  - # 20
    frequency:   26.9002209703
  - # 21
    frequency:   56.8239995144

- q-position: [    0.0202020,    0.0000000,    0.0000000 ]
  distance:    0.0067280
  band:
  - # 1
    frequency:    0.0302026106
  - # 2
    frequency:    0.2447190171
  - # 3
    frequency:    0.3597931294
  - # 4
    frequency:    1.1361338674
  - # 5
    frequency:    1.1678331857
  - # 6
    frequency:    2.7094784362
  - # 7
    frequency:    2.7192737418
  - # 8
    frequency:    4.3623080243
  - # 9
    frequency:    4.9016662508
  - # 10
    frequency:    4.9192902558
  - # 11
    frequency:    6.6444114483
  - # 12
    frequency:    6.9142406324
  - # 13
    frequency:    6.9241942893
  - # 14
    frequency:    8.5400075660
  - # 15
    frequency:   13.1731775943
  - # 16
    frequency:   13.9330309117
  - # 17
    frequency:   13.9360954989
  - # 18
    frequency:   14.9765411184
  - # 19
    frequency:   14.9765447419
  - # 20
    frequency:   26.8995845263
  - # 21
    frequency:   56.8205304379

- q-position: [    0.0252525,    0.0000000,    0.0000000 ]
  distance:    0.0084100
  band:
  - # 1
    frequency:    0.0465079829
  - # 2
    frequency:    0.3053856344
  - # 3
    frequency:    0.4491655421
  - # 4
    frequency:    1.1428640791
  - # 5
    frequency:    1.1915096387
  - # 6
    frequency:    2.7128357786
  - # 7
    frequency:    2.7280714546
  - # 8
    frequency:    4.3567489815
  - # 9
    frequency:    4.8974896111
  - # 10
    frequency:    4.9248366093
  - # 11
    frequency:    6.6399332380
  - # 12
    frequency:    6.9128151245
  - # 13
    frequency:    6.9282476512
  - # 14
    frequency:    8.5321729632
  - # 15
    frequency:   13.1701742343
  - # 16
    frequency:   13.9332442924
  - # 17
    frequency:   13.9380257069
  - # 18
    frequency:   14.9779329286
  - # 19
    frequency:   14.9779392958
  - # 20
    frequency:   26.8987675698
  - # 21
    frequency:   56.8160761729

- q-position: [    0.0303030,    0.0000000,    0.0000000 ]
  distance:    0.0100920
  band:
  - # 1
    frequency:    0.0658576431
  - # 2
    frequency:    0.3657124432
  - # 3
    frequency:    0.5381571598
  - # 4
    frequency:    1.1510193257
  - # 5
    frequency:    1.2196125357
  - # 6
    frequency:    2.7169190224
  - # 7
    frequency:    2.7387378393
  - # 8
    frequency:    4.3501735077
  - # 9
    frequency:    4.8924112640
  - # 10
    frequency:    4.9314697145
  - # 11
    frequency:    6.6345401974
  - # 12
    frequency:    6.9110712757
  - # 13
    frequency:    6.9330922409
  - # 14
    frequency:    8.5226298884
  - # 15
    frequency:   13.1665043890
  - # 16
    frequency:   13.9335035133
  - # 17
    frequency:   13.9403764559
  - # 18
    frequency:   14.9796137638
  - # 19
    frequency:   14.9796241565
  - # 20
    frequency:   26.8977710975
  - # 21
    frequency:   56.8106411923

- q-position: [    0.0353535,    0.0000000,    0.0000000 ]
  distance:    0.0117740
  band:
  - # 1
    frequency:    0.0879973038
  - # 2
    frequency:    0.4256337512
  - # 3
    frequency:    0.6266949137
  - # 4
    frequency:    1.1605594192
  - # 5
    frequency:    1.2517495225
  - # 6
    frequency:    2.7217161561
  - # 7
    frequency:    2.7512233220
  - # 8
    frequency:    4.3426956929
  - # 9
    frequency:    4.8864469813
  - # 10
    frequency:    4.9391178085
  - # 11
    frequency:    6.6282706195
  - # 12
    frequency:    6.9090083570
  - # 13
    frequency:    6.9386727484
  - # 14
    frequency:    8.5113978723
  - # 15
    frequency:   13.1621689055
  - # 16
    frequency:   13.9338076502
  - # 17
    frequency:   13.9431427766
  - # 18
    frequency:   14.9815715137
  - # 19
    frequency:   14.9815875896
  - # 20
    frequency:   26.8965963277
  - # 21
    frequency:   56.8042309529

- q-position: [    0.0404040,    0.0000000,    0.0000000 ]
  distance:    0.0134559
  band:
  - # 1
    frequency:    0.1126845396
  - # 2
    frequency:    0.4850850873
  - # 3
    frequency:    0.7147073859
  - # 4
    frequency:    1.1714386897
  - # 5
    frequency:    1.2875272763
  - # 6
    frequency:    2.7272130702
  - # 7
    frequency:    2.7654712029
  - # 8
    frequency:    4.3344379059
  - # 9
    frequency:    4.8796153271
  - # 10
    frequency:    4.9477071621
  - # 11
    frequency:    6.6211632792
  - # 12
    frequency:    6.9066256883
  - # 13
    frequency:    6.9449307483
  - # 14
    frequency:    8.4984999973
  - # 15
    frequency:   13.1571690260
  - # 16
    frequency:   13.9341556304
  - # 17
    frequency:   13.9463188633
  - # 18
    frequency:   14.9837919180
  - # 19
    frequency:   14.9838157475
  - # 20
    frequency:   26.8952447010
  - # 21
    frequency:   56.7968518892

- q-position: [    0.0454545,    0.0000000,    0.0000000 ]
  distance:    0.0151379
  band:
  - # 1
    frequency:    0.1396979951
  - # 2
    frequency:    0.5440033881
  - # 3
    frequency:    0.8021250541
  - # 4
    frequency:    1.1836067591
  - # 5
    frequency:    1.3265651042
  - # 6
    frequency:    2.7333936019
  - # 7
    frequency:    2.7814184304
  - # 8
    frequency:    4.3255273640
  - # 9
    frequency:    4.8719376262
  - # 10
    frequency:    4.9571648554
  - # 11
    frequency:    6.6132562080
  - # 12
    frequency:    6.9039227222
  - # 13
    frequency:    6.9518061610
  - # 14
    frequency:    8.4839628977
  - # 15
    frequency:   13.1515064836
  - # 16
    frequency:   13.9345462425
  - # 17
    frequency:   13.9498981129
  - # 18
    frequency:   14.9862586004
  - # 19
    frequency:   14.9862926814
  - # 20
    frequency:   26.8937178795
  - # 21
    frequency:   56.7885114061

- q-position: [    0.0505051,    0.0000000,    0.0000000 ]
  distance:    0.0168199
  band:
  - # 1
    frequency:    0.1688419158
  - # 2
    frequency:    0.6023271764
  - # 3
    frequency:    0.8888805225
  - # 4
    frequency:    1.1970093438
  - # 5
    frequency:    1.3685035550
  - # 6
    frequency:    2.7402395870
  - # 7
    frequency:    2.7989963842
  - # 8
    frequency:    4.3160934021
  - # 9
    frequency:    4.8634379321
  - # 10
    frequency:    4.9674207834
  - # 11
    frequency:    6.6045860070
  - # 12
    frequency:    6.9008991337
  - # 13
    frequency:    6.9592382166
  - # 14
    frequency:    8.4678167617
  - # 15
    frequency:   13.1451835968
  - # 16
    frequency:   13.9349781468
  - # 17
    frequency:   13.9538731731
  - # 18
    frequency:   14.9889531126
  - # 19
    frequency:   14.9890003540
  - # 20
    frequency:   26.8920177475
  - # 21
    frequency:   56.7792178711

- q-position: [    0.0555556,    0.0000000,    0.0000000 ]
  distance:    0.0185019
  band:
  - # 1
    frequency:    0.1999471237
  - # 2
    frequency:    0.6599967271
  - # 3
    frequency:    0.9749087349
  - # 4
    frequency:    1.2115890641
  - # 5
    frequency:    1.4130090113
  - # 6
    frequency:    2.7477309216
  - # 7
    frequency:    2.8181316368
  - # 8
    frequency:    4.3062654518
  - # 9
    frequency:    4.8541429951
  - # 10
    frequency:    4.9784088892
  - # 11
    frequency:    6.5951876194
  - # 12
    frequency:    6.8975549161
  - # 13
    frequency:    6.9671659967
  - # 14
    frequency:    8.4500953335
  - # 15
    frequency:   13.1382033591
  - # 16
    frequency:   13.9354498866
  - # 17
    frequency:   13.9582360000
  - # 18
    frequency:   14.9918549902
  - # 19
    frequency:   14.9919186570
  - # 20
    frequency:   26.8901464113
  - # 21
    frequency:   56.7689806046

- q-position: [    0.0606061,    0.0000000,    0.0000000 ]
  distance:    0.0201839
  band:
  - # 1
    frequency:    0.2328696341
  - # 2
    frequency:    0.7169542175
  - # 3
    frequency:    1.0601471643
  - # 4
    frequency:    1.2272862402
  - # 5
    frequency:    1.4597753650
  - # 6
    frequency:    2.7558456326
  - # 7
    frequency:    2.8387466675
  - # 8
    frequency:    4.2961716595
  - # 9
    frequency:    4.8440822319
  - # 10
    frequency:    4.9900677123
  - # 11
    frequency:    6.5850944524
  - # 12
    frequency:    6.8938904788
  - # 13
    frequency:    6.9755286670
  - # 14
    frequency:    8.4308359166
  - # 15
    frequency:   13.1305695191
  - # 16
    frequency:   13.9359599006
  - # 17
    frequency:   13.9629779237
  - # 18
    frequency:   14.9949418213
  - # 19
    frequency:   14.9950254299
  - # 20
    frequency:   26.8881061986
  - # 21
    frequency:   56.7578098701

- q-position: [    0.0656566,    0.0000000,    0.0000000 ]
  distance:    0.0218659
  band:
  - # 1
    frequency:    0.2674879365
  - # 2
    frequency:    0.7731438568
  - # 3
    frequency:    1.1445359738
  - # 4
    frequency:    1.2440396611
  - # 5
    frequency:    1.5085237707
  - # 6
    frequency:    2.7645599587
  - # 7
    frequency:    2.8607605088
  - # 8
    frequency:    4.2859380320
  - # 9
    frequency:    4.8332876985
  - # 10
    frequency:    5.0023403730
  - # 11
    frequency:    6.5743387330
  - # 12
    frequency:    6.8899067468
  - # 13
    frequency:    6.9842655094
  - # 14
    frequency:    8.4100793796
  - # 15
    frequency:   13.1222866487
  - # 16
    frequency:   13.9365065356
  - # 17
    frequency:   13.9680897224
  - # 18
    frequency:   14.9981893290
  - # 19
    frequency:   14.9982964842
  - # 20
    frequency:   26.8858996588
  - # 21
    frequency:   56.7457168626

- q-position: [    0.0707071,    0.0000000,    0.0000000 ]
  distance:    0.0235479
  band:
  - # 1
    frequency:    0.3036996919
  - # 2
    frequency:    0.8285119901
  - # 3
    frequency:    1.2280181375
  - # 4
    frequency:    1.2617873182
  - # 5
    frequency:    1.5590012543
  - # 6
    frequency:    2.7738484427
  - # 7
    frequency:    2.8840893101
  - # 8
    frequency:    4.2756879871
  - # 9
    frequency:    4.8217940644
  - # 10
    frequency:    5.0151741299
  - # 11
    frequency:    6.5629520051
  - # 12
    frequency:    6.8856052581
  - # 13
    frequency:    6.9933158474
  - # 14
    frequency:    8.3878701642
  - # 15
    frequency:   13.1133601981
  - # 16
    frequency:   13.9370880598
  - # 17
    frequency:   13.9735617015
  - # 18
    frequency:   15.0015714687
  - # 19
    frequency:   15.0017056302
  - # 20
    frequency:   26.8835295619
  - # 21
    frequency:   56.7327136962

- q-position: [    0.0757576,    0.0000000,    0.0000000 ]
  distance:    0.0252299
  band:
  - # 1
    frequency:    0.3414183463
  - # 2
    frequency:    0.8830071664
  - # 3
    frequency:    1.2804671006
  - # 4
    frequency:    1.3105395067
  - # 5
    frequency:    1.6109787353
  - # 6
    frequency:    2.7836840370
  - # 7
    frequency:    2.9086468124
  - # 8
    frequency:    4.2655421931
  - # 9
    frequency:    4.8096385909
  - # 10
    frequency:    5.0285196378
  - # 11
    frequency:    6.5509656915
  - # 12
    frequency:    6.8809882585
  - # 13
    frequency:    7.0026189339
  - # 14
    frequency:    8.3642562974
  - # 15
    frequency:   13.1037965369
  - # 16
    frequency:   13.9377026760
  - # 17
    frequency:   13.9793837779
  - # 18
    frequency:   15.0050605388
  - # 19
    frequency:   15.0052247093
  - # 20
    frequency:   26.8809988984
  - # 21
    frequency:   56.7188133917

- q-position: [    0.0808081,    0.0000000,    0.0000000 ]
  distance:    0.0269119
  band:
  - # 1
    frequency:    0.3805699548
  - # 2
    frequency:    0.9365801629
  - # 3
    frequency:    1.3000174581
  - # 4
    frequency:    1.3920487981
  - # 5
    frequency:    1.6642488481
  - # 6
    frequency:    2.7940382226
  - # 7
    frequency:    2.9343447311
  - # 8
    frequency:    4.2556185993
  - # 9
    frequency:    4.7968611109
  - # 10
    frequency:    5.0423300150
  - # 11
    frequency:    6.5384116729
  - # 12
    frequency:    6.8760587899
  - # 13
    frequency:    7.0121138449
  - # 14
    frequency:    8.3392894075
  - # 15
    frequency:   13.0936029811
  - # 16
    frequency:   13.9383485353
  - # 17
    frequency:   13.9855455654
  - # 18
    frequency:   15.0086273066
  - # 19
    frequency:   15.0088236319
  - # 20
    frequency:   26.8783108776
  - # 21
    frequency:   56.7040298616

- q-position: [    0.0858586,    0.0000000,    0.0000000 ]
  distance:    0.0285939
  band:
  - # 1
    frequency:    0.4210903592
  - # 2
    frequency:    0.9891839486
  - # 3
    frequency:    1.3203780420
  - # 4
    frequency:    1.4724974687
  - # 5
    frequency:    1.7186238164
  - # 6
    frequency:    2.8048811438
  - # 7
    frequency:    2.9610930554
  - # 8
    frequency:    4.2460325748
  - # 9
    frequency:    4.7835040101
  - # 10
    frequency:    5.0565598074
  - # 11
    frequency:    6.5253228505
  - # 12
    frequency:    6.8708207726
  - # 13
    frequency:    7.0217394075
  - # 14
    frequency:    8.3130247474
  - # 15
    frequency:   13.0827878077
  - # 16
    frequency:   13.9390237496
  - # 17
    frequency:   13.9920364601
  - # 18
    frequency:   15.0122411473
  - # 19
    frequency:   15.0124704211
  - # 20
    frequency:   26.8754689271
  - # 21
    frequency:   56.6883778959

- q-position: [    0.0909091,    0.0000000,    0.0000000 ]
  distance:    0.0302759
  band:
  - # 1
    frequency:    0.4629227745
  - # 2
    frequency:    1.0407735687
  - # 3
    frequency:    1.3414903459
  - # 4
    frequency:    1.5518394270
  - # 5
    frequency:    1.7739335604
  - # 6
    frequency:    2.8161817606
  - # 7
    frequency:    2.9888002731
  - # 8
    frequency:    4.2368970953
  - # 9
    frequency:    4.7696122068
  - # 10
    frequency:    5.0711639188
  - # 11
    frequency:    6.5117336752
  - # 12
    frequency:    6.8652790780
  - # 13
    frequency:    7.0314341705
  - # 14
    frequency:    8.2855212257
  - # 15
    frequency:   13.0713602586
  - # 16
    frequency:   13.9397264053
  - # 17
    frequency:   13.9988457212
  - # 18
    frequency:   15.0158701957
  - # 19
    frequency:   15.0161312623
  - # 20
    frequency:   26.8724766908
  - # 21
    frequency:   56.6718731456

- q-position: [    0.0959596,    0.0000000,    0.0000000 ]
  distance:    0.0319579
  band:
  - # 1
    frequency:    0.5060157759
  - # 2
    frequency:    1.0913059223
  - # 3
    frequency:    1.3632983746
  - # 4
    frequency:    1.6300305014
  - # 5
    frequency:    1.8300241792
  - # 6
    frequency:    2.8279080187
  - # 7
    frequency:    3.0173735423
  - # 8
    frequency:    4.2283229254
  - # 9
    frequency:    4.7552331297
  - # 10
    frequency:    5.0860965550
  - # 11
    frequency:    6.4976806337
  - # 12
    frequency:    6.8594395914
  - # 13
    frequency:    7.0411364186
  - # 14
    frequency:    8.2568414475
  - # 15
    frequency:   13.0593305360
  - # 16
    frequency:   13.9404545743
  - # 17
    frequency:   14.0059625467
  - # 18
    frequency:   15.0194815089
  - # 19
    frequency:   15.0197705620
  - # 20
    frequency:   26.8693380270
  - # 21
    frequency:   56.6545321066

- q-position: [    0.1010101,    0.0000000,    0.0000000 ]
  distance:    0.0336399
  band:
  - # 1
    frequency:    0.5503216550
  - # 2
    frequency:    1.1407393964
  - # 3
    frequency:    1.3857493851
  - # 4
    frequency:    1.7070275579
  - # 5
    frequency:    1.8867569469
  - # 6
    frequency:    2.8400270412
  - # 7
    frequency:    3.0467188319
  - # 8
    frequency:    4.2204187563
  - # 9
    frequency:    4.7404166884
  - # 10
    frequency:    5.1013102200
  - # 11
    frequency:    6.4832026903
  - # 12
    frequency:    6.8533092638
  - # 13
    frequency:    7.0507842252
  - # 14
    frequency:    8.2270517693
  - # 15
    frequency:   13.0467097926
  - # 16
    frequency:   13.9412063259
  - # 17
    frequency:   14.0133761406
  - # 18
    frequency:   15.0230412401
  - # 19
    frequency:   15.0233510133
  - # 20
    frequency:   26.8660570064
  - # 21
    frequency:   56.6363721021

- q-position: [    0.1060606,    0.0000000,    0.0000000 ]
  distance:    0.0353219
  band:
  - # 1
    frequency:    0.5957950967
  - # 2
    frequency:    1.1890333046
  - # 3
    frequency:    1.4087947543
  - # 4
    frequency:    1.7827871094
  - # 5
    frequency:    1.9440079834
  - # 6
    frequency:    2.8525053406
  - # 7
    frequency:    3.0767410606
  - # 8
    frequency:    4.2132912653
  - # 9
    frequency:    4.7252152339
  - # 10
    frequency:    5.1167547874
  - # 11
    frequency:    6.4683416834
  - # 12
    frequency:    6.8468961505
  - # 13
    frequency:    7.0603155304
  - # 14
    frequency:    8.1962223695
  - # 15
    frequency:   13.0335101181
  - # 16
    frequency:   13.9419797365
  - # 17
    frequency:   14.0210757688
  - # 18
    frequency:   15.0265148194
  - # 19
    frequency:   15.0268336712
  - # 20
    frequency:   26.8626379092
  - # 21
    frequency:   56.6174112640

- q-position: [    0.1111111,    0.0000000,    0.0000000 ]
  distance:    0.0370038
  band:
  - # 1
    frequency:    0.6423921298
  - # 2
    frequency:    1.2361470624
  - # 3
    frequency:    1.4323910513
  - # 4
    frequency:    1.8572632110
  - # 5
    frequency:    2.0016688034
  - # 6
    frequency:    2.8653090545
  - # 7
    frequency:    3.1073442700
  - # 8
    frequency:    4.2070450624
  - # 9
    frequency:    4.7096835043
  - # 10
    frequency:    5.1323766649
  - # 11
    frequency:    6.4531426762
  - # 12
    frequency:    6.8402094371
  - # 13
    frequency:    7.0696682345
  - # 14
    frequency:    8.1644273395
  - # 15
    frequency:   13.0197445255
  - # 16
    frequency:   13.9427728985
  - # 17
    frequency:   14.0290508031
  - # 18
    frequency:   15.0298671425
  - # 19
    frequency:   15.0301780377
  - # 20
    frequency:   26.8590852219
  - # 21
    frequency:   56.5976685148

- q-position: [    0.1161616,    0.0000000,    0.0000000 ]
  distance:    0.0386858
  band:
  - # 1
    frequency:    0.6900693064
  - # 2
    frequency:    1.2820390130
  - # 3
    frequency:    1.4565014052
  - # 4
    frequency:    1.9304043934
  - # 5
    frequency:    2.0596479805
  - # 6
    frequency:    2.8784042049
  - # 7
    frequency:    3.1384318686
  - # 8
    frequency:    4.2017824921
  - # 9
    frequency:    4.6938785505
  - # 10
    frequency:    5.1481180649
  - # 11
    frequency:    6.4376542624
  - # 12
    frequency:    6.8332594523
  - # 13
    frequency:    7.0787802924
  - # 14
    frequency:    8.1317447991
  - # 15
    frequency:   13.0054269387
  - # 16
    frequency:   13.9435839277
  - # 17
    frequency:   14.0372907508
  - # 18
    frequency:   15.0330627654
  - # 19
    frequency:   15.0333421572
  - # 20
    frequency:   26.8554036341
  - # 21
    frequency:   56.5771635470

- q-position: [    0.1212121,    0.0000000,    0.0000000 ]
  distance:    0.0403678
  band:
  - # 1
    frequency:    0.7387830681
  - # 2
    frequency:    1.3266648074
  - # 3
    frequency:    1.4810972741
  - # 4
    frequency:    2.0021494067
  - # 5
    frequency:    2.1178741436
  - # 6
    frequency:    2.8917569808
  - # 7
    frequency:    3.1699069879
  - # 8
    frequency:    4.1976032566
  - # 9
    frequency:    4.6778596373
  - # 10
    frequency:    5.1639163880
  - # 11
    frequency:    6.4219288228
  - # 12
    frequency:    6.8260576659
  - # 13
    frequency:    7.0875897933
  - # 14
    frequency:    8.0982570429
  - # 15
    frequency:   12.9905721836
  - # 16
    frequency:   13.9444109688
  - # 17
    frequency:   14.0457852699
  - # 18
    frequency:   15.0360661020
  - # 19
    frequency:   15.0362827233
  - # 20
    frequency:   26.8515980337
  - # 21
    frequency:   56.5559168036

- q-position: [    0.1262626,    0.0000000,    0.0000000 ]
  distance:    0.0420498
  band:
  - # 1
    frequency:    0.7884892692
  - # 2
    frequency:    1.3699752707
  - # 3
    frequency:    1.5061606915
  - # 4
    frequency:    2.0724217666
  - # 5
    frequency:    2.1763003060
  - # 6
    frequency:    2.9053340453
  - # 7
    frequency:    3.2016729934
  - # 8
    frequency:    4.1946038249
  - # 9
    frequency:    4.6616881121
  - # 10
    frequency:    5.1797037324
  - # 11
    frequency:    6.4060227253
  - # 12
    frequency:    6.8186166735
  - # 13
    frequency:    7.0960350152
  - # 14
    frequency:    8.0640507231
  - # 15
    frequency:   12.9751959826
  - # 16
    frequency:   13.9452521993
  - # 17
    frequency:   14.0545241685
  - # 18
    frequency:   15.0388416263
  - # 19
    frequency:   15.0389551974
  - # 20
    frequency:   26.8476735029
  - # 21
    frequency:   56.5339494569

- q-position: [    0.1313131,    0.0000000,    0.0000000 ]
  distance:    0.0437318
  band:
  - # 1
    frequency:    0.8391428254
  - # 2
    frequency:    1.4119138153
  - # 3
    frequency:    1.5316869350
  - # 4
    frequency:    2.1411237694
  - # 5
    frequency:    2.2349088550
  - # 6
    frequency:    2.9191028636
  - # 7
    frequency:    3.2336341862
  - # 8
    frequency:    4.1928765935
  - # 9
    frequency:    4.6454272373
  - # 10
    frequency:    5.1954065361
  - # 11
    frequency:    6.3899964571
  - # 12
    frequency:    6.8109501675
  - # 13
    frequency:    7.1040544372
  - # 14
    frequency:    8.0292170756
  - # 15
    frequency:   12.9593149546
  - # 16
    frequency:   13.9461058316
  - # 17
    frequency:   14.0634973883
  - # 18
    frequency:   15.0413139397
  - # 19
    frequency:   15.0413540768
  - # 20
    frequency:   26.8436353124
  - # 21
    frequency:   56.5112833868

- q-position: [    0.1363636,    0.0000000,    0.0000000 ]
  distance:    0.0454138
  band:
  - # 1
    frequency:    0.8906974694
  - # 2
    frequency:    1.4524138386
  - # 3
    frequency:    1.5576871905
  - # 4
    frequency:    2.2081321899
  - # 5
    frequency:    2.2937149878
  - # 6
    frequency:    2.9330320520
  - # 7
    frequency:    3.2656967267
  - # 8
    frequency:    4.1925087695
  - # 9
    frequency:    4.6291419798
  - # 10
    frequency:    5.2109453688
  - # 11
    frequency:    6.3739146719
  - # 12
    frequency:    6.8030728939
  - # 13
    frequency:    7.1115866979
  - # 14
    frequency:    7.9938521994
  - # 15
    frequency:   12.9429466178
  - # 16
    frequency:   13.9469701126
  - # 17
    frequency:   14.0726949736
  - # 18
    frequency:   15.0433123534
  - # 19
    frequency:   15.0435686624
  - # 20
    frequency:   26.8394889159
  - # 21
    frequency:   56.4879411591

- q-position: [    0.1414141,    0.0000000,    0.0000000 ]
  distance:    0.0470958
  band:
  - # 1
    frequency:    0.9431055912
  - # 2
    frequency:    1.4913974146
  - # 3
    frequency:    1.5841899061
  - # 4
    frequency:    2.2733003587
  - # 5
    frequency:    2.3527639012
  - # 6
    frequency:    2.9470917430
  - # 7
    frequency:    3.2977697962
  - # 8
    frequency:    4.1935809574
  - # 9
    frequency:    4.6128987527
  - # 10
    frequency:    5.2262348918
  - # 11
    frequency:    6.3578461262
  - # 12
    frequency:    6.7950005972
  - # 13
    frequency:    7.1185704857
  - # 14
    frequency:    7.9580573957
  - # 15
    frequency:   12.9261093958
  - # 16
    frequency:   13.9478433213
  - # 17
    frequency:   14.0821070246
  - # 18
    frequency:   15.0449030415
  - # 19
    frequency:   15.0454512707
  - # 20
    frequency:   26.8352399434
  - # 21
    frequency:   56.4639460027

- q-position: [    0.1464646,    0.0000000,    0.0000000 ]
  distance:    0.0487778
  band:
  - # 1
    frequency:    0.9963181519
  - # 2
    frequency:    1.5287781639
  - # 3
    frequency:    1.6112379612
  - # 4
    frequency:    2.3364730827
  - # 5
    frequency:    2.4121152781
  - # 6
    frequency:    2.9612539618
  - # 7
    frequency:    3.3297669856
  - # 8
    frequency:    4.1961654495
  - # 9
    frequency:    4.5967651048
  - # 10
    frequency:    5.2411840133
  - # 11
    frequency:    6.3418634749
  - # 12
    frequency:    6.7867499523
  - # 13
    frequency:    7.1249443481
  - # 14
    frequency:    7.9219395772
  - # 15
    frequency:   12.9088226242
  - # 16
    frequency:   13.9487237645
  - # 17
    frequency:   14.0917236367
  - # 18
    frequency:   15.0460379781
  - # 19
    frequency:   15.0469686783
  - # 20
    frequency:   26.8308941941
  - # 21
    frequency:   56.4393217867

- q-position: [    0.1515152,    0.0000000,    0.0000000 ]
  distance:    0.0504598
  band:
  - # 1
    frequency:    1.0502846562
  - # 2
    frequency:    1.5644729540
  - # 3
    frequency:    1.6388770030
  - # 4
    frequency:    2.3975170213
  - # 5
    frequency:    2.4718124749
  - # 6
    frequency:    2.9754930087
  - # 7
    frequency:    3.3616078725
  - # 8
    frequency:    4.2003242482
  - # 9
    frequency:    4.5808093551
  - # 10
    frequency:    5.2556962719
  - # 11
    frequency:    6.3260428858
  - # 12
    frequency:    6.7783384855
  - # 13
    frequency:    7.1306464090
  - # 14
    frequency:    7.8856117539
  - # 15
    frequency:   12.8911065556
  - # 16
    frequency:   13.9496097694
  - # 17
    frequency:   14.1015348279
  - # 18
    frequency:   15.0466686923
  - # 19
    frequency:   15.0480887631
  - # 20
    frequency:   26.8264576282
  - # 21