nqpoint: 300    
npath: 3      
segment_nqpoint:
- 100
- 100
- 100
labels:
- [ 'G', 'M' ]
- [ 'M', 'K' ]
- [ 'K', 'G' ]
reciprocal_lattice:
- [   0.32015869,   0.18484371,   0.00000000 ] # a*
- [   0.00000000,   0.36968741,   0.00000000 ] # b*
- [   0.00000000,   0.00000000,   0.04192605 ] # c*
natom: 6      
lattice:
- [     3.123451055565853,     0.000000000000000,     0.000000000000000 ] # a
- [    -1.561725527782927,     2.704987961605873,     0.000000000000000 ] # b
- [     0.000000000000000,     0.000000000000000,    23.851520563955496 ] # c
points:
- symbol: C # 1
  coordinates: [  0.000000000000000,  0.000000000000000,  0.464792535979149 ]
  mass: 12.010700
- symbol: C # 2
  coordinates: [  0.333332985432215,  0.666666983183674,  0.572241353105220 ]
  mass: 12.010700
- symbol: H # 3
  coordinates: [  0.666666984744048,  0.333332985985145,  0.377334433495231 ]
  mass: 1.007940
- symbol: N # 4
  coordinates: [  0.333332985432215,  0.666666983183674,  0.622665566504769 ]
  mass: 14.006700
- symbol: Ti # 5
  coordinates: [  0.333332985432215,  0.666666983183674,  0.417446068526413 ]
  mass: 47.867000
- symbol: Ti # 6
  coordinates: [  0.666666984744048,  0.333332985985145,  0.512918068605150 ]
  mass: 47.867000

phonon:
- q-position: [    0.0000000,    0.0000000,    0.0000000 ]
  distance:    0.0000000
  band:
  - # 1
    frequency:   -3.8705174371
  - # 2
    frequency:   -3.8705174371
  - # 3
    frequency:   -0.0000033410
  - # 4
    frequency:   -0.0000005225
  - # 5
    frequency:    0.0000032353
  - # 6
    frequency:    5.5419306978
  - # 7
    frequency:    5.5419306978
  - # 8
    frequency:    6.8912091371
  - # 9
    frequency:    6.8912091371
  - # 10
    frequency:    8.1637483534
  - # 11
    frequency:   10.2566627561
  - # 12
    frequency:   17.0050291289
  - # 13
    frequency:   17.0050291289
  - # 14
    frequency:   18.6377522593
  - # 15
    frequency:   26.9372000824
  - # 16
    frequency:   26.9372000824
  - # 17
    frequency:   28.3125056997
  - # 18
    frequency:   60.9720629660

- q-position: [    0.0050505,    0.0000000,    0.0000000 ]
  distance:    0.0018671
  band:
  - # 1
    frequency:   -3.8654006453
  - # 2
    frequency:   -3.8643676323
  - # 3
    frequency:   -0.0928692457
  - # 4
    frequency:    0.1186338121
  - # 5
    frequency:    0.1951467895
  - # 6
    frequency:    5.5451648072
  - # 7
    frequency:    5.5456658016
  - # 8
    frequency:    6.8922295413
  - # 9
    frequency:    6.8929428767
  - # 10
    frequency:    8.1639605656
  - # 11
    frequency:   10.2578392736
  - # 12
    frequency:   17.0071189376
  - # 13
    frequency:   17.0074292677
  - # 14
    frequency:   18.6372444336
  - # 15
    frequency:   26.9387369104
  - # 16
    frequency:   26.9392621917
  - # 17
    frequency:   28.3133582682
  - # 18
    frequency:   60.9720825725

- q-position: [    0.0101010,    0.0000000,    0.0000000 ]
  distance:    0.0037342
  band:
  - # 1
    frequency:   -3.8500870575
  - # 2
    frequency:   -3.8459665307
  - # 3
    frequency:   -0.1247564894
  - # 4
    frequency:    0.2371949847
  - # 5
    frequency:    0.3652771475
  - # 6
    frequency:    5.5548509347
  - # 7
    frequency:    5.5568418900
  - # 8
    frequency:    6.8952960733
  - # 9
    frequency:    6.8981561473
  - # 10
    frequency:    8.1646005780
  - # 11
    frequency:   10.2613582738
  - # 12
    frequency:   17.0133722930
  - # 13
    frequency:   17.0146101427
  - # 14
    frequency:   18.6357232573
  - # 15
    frequency:   26.9433396578
  - # 16
    frequency:   26.9454381730
  - # 17
    frequency:   28.3159074779
  - # 18
    frequency:   60.9721409971

- q-position: [    0.0151515,    0.0000000,    0.0000000 ]
  distance:    0.0056013
  band:
  - # 1
    frequency:   -3.8246869813
  - # 2
    frequency:   -3.8154589861
  - # 3
    frequency:   -0.1599690909
  - # 4
    frequency:    0.3556125342
  - # 5
    frequency:    0.5393560991
  - # 6
    frequency:    5.5709394663
  - # 7
    frequency:    5.5753701438
  - # 8
    frequency:    6.9004251794
  - # 9
    frequency:    6.9068854919
  - # 10
    frequency:    8.1656786195
  - # 11
    frequency:   10.2671882311
  - # 12
    frequency:   17.0237411500
  - # 13
    frequency:   17.0265133594
  - # 14
    frequency:   18.6331956053
  - # 15
    frequency:   26.9509851411
  - # 16
    frequency:   26.9556969881
  - # 17
    frequency:   28.3201279752
  - # 18
    frequency:   60.9722370590

- q-position: [    0.0202020,    0.0000000,    0.0000000 ]
  distance:    0.0074684
  band:
  - # 1
    frequency:   -3.7893840454
  - # 2
    frequency:   -3.7730860247
  - # 3
    frequency:   -0.1969096530
  - # 4
    frequency:    0.4738186829
  - # 5
    frequency:    0.7146650000
  - # 6
    frequency:    5.5933443409
  - # 7
    frequency:    5.6010987585
  - # 8
    frequency:    6.9076459133
  - # 9
    frequency:    6.9191930648
  - # 10
    frequency:    8.1672120875
  - # 11
    frequency:   10.2752770423
  - # 12
    frequency:   17.0381459893
  - # 13
    frequency:   17.0430423577
  - # 14
    frequency:   18.6296728453
  - # 15
    frequency:   26.9616348113
  - # 16
    frequency:   26.9699869121
  - # 17
    frequency:   28.3259779473
  - # 18
    frequency:   60.9723687991

- q-position: [    0.0252525,    0.0000000,    0.0000000 ]
  distance:    0.0093355
  band:
  - # 1
    frequency:   -3.7444347419
  - # 2
    frequency:   -3.7191838468
  - # 3
    frequency:   -0.2336410616
  - # 4
    frequency:    0.5917501914
  - # 5
    frequency:    0.8903032395
  - # 6
    frequency:    5.6219380091
  - # 7
    frequency:    5.6338075146
  - # 8
    frequency:    6.9170024471
  - # 9
    frequency:    6.9351683356
  - # 10
    frequency:    8.1692261089
  - # 11
    frequency:   10.2855526767
  - # 12
    frequency:   17.0564766403
  - # 13
    frequency:   17.0640635414
  - # 14
    frequency:   18.6251707048
  - # 15
    frequency:   26.9752348890
  - # 16
    frequency:   26.9882355426
  - # 17
    frequency:   28.3333997815
  - # 18
    frequency:   60.9725334945

- q-position: [    0.0303030,    0.0000000,    0.0000000 ]
  distance:    0.0112026
  band:
  - # 1
    frequency:   -3.6901675318
  - # 2
    frequency:   -3.6541816245
  - # 3
    frequency:   -0.2688500339
  - # 4
    frequency:    0.7093493547
  - # 5
    frequency:    1.0658749004
  - # 6
    frequency:    5.6565444239
  - # 7
    frequency:    5.6732006917
  - # 8
    frequency:    6.9285576743
  - # 9
    frequency:    6.9549300892
  - # 10
    frequency:    8.1717544049
  - # 11
    frequency:   10.2979240738
  - # 12
    frequency:   17.0785934128
  - # 13
    frequency:   17.0894078295
  - # 14
    frequency:   18.6197090895
  - # 15
    frequency:   26.9917165568
  - # 16
    frequency:   27.0103498168
  - # 17
    frequency:   28.3423209797
  - # 18
    frequency:   60.9727276784

- q-position: [    0.0353535,    0.0000000,    0.0000000 ]
  distance:    0.0130698
  band:
  - # 1
    frequency:   -3.6269812684
  - # 2
    frequency:   -3.5785973072
  - # 3
    frequency:   -0.3015452220
  - # 4
    frequency:    0.8265645315
  - # 5
    frequency:    1.2411482501
  - # 6
    frequency:    5.6969301535
  - # 7
    frequency:    5.7188989737
  - # 8
    frequency:    6.9423979669
  - # 9
    frequency:    6.9786282176
  - # 10
    frequency:    8.1748405507
  - # 11
    frequency:   10.3122822720
  - # 12
    frequency:   17.1043285192
  - # 13
    frequency:   17.1188725977
  - # 14
    frequency:   18.6133118605
  - # 15
    frequency:   27.0109962104
  - # 16
    frequency:   27.0362160383
  - # 17
    frequency:   28.3526553180
  - # 18
    frequency:   60.9729471649

- q-position: [    0.0404040,    0.0000000,    0.0000000 ]
  distance:    0.0149369
  band:
  - # 1
    frequency:   -3.5553426442
  - # 2
    frequency:   -3.4930304865
  - # 3
    frequency:   -0.3308653492
  - # 4
    frequency:    0.9433500691
  - # 5
    frequency:    1.4159489689
  - # 6
    frequency:    5.7427938039
  - # 7
    frequency:    5.7704313551
  - # 8
    frequency:    6.9586391222
  - # 9
    frequency:    7.0064444796
  - # 10
    frequency:    8.1785397699
  - # 11
    frequency:   10.3285017509
  - # 12
    frequency:   17.1334877607
  - # 13
    frequency:   17.1522239746
  - # 14
    frequency:   18.6060065737
  - # 15
    frequency:   27.0329757711
  - # 16
    frequency:   27.0656999151
  - # 17
    frequency:   28.3643042430
  - # 18
    frequency:   60.9731870801

- q-position: [    0.0454545,    0.0000000,    0.0000000 ]
  distance:    0.0168040
  band:
  - # 1
    frequency:   -3.4757823294
  - # 2
    frequency:   -3.3981513123
  - # 3
    frequency:   -0.3559722394
  - # 4
    frequency:    1.0596654902
  - # 5
    frequency:    1.5901166187
  - # 6
    frequency:    5.7937541011
  - # 7
    frequency:    5.8272285494
  - # 8
    frequency:    6.9774334436
  - # 9
    frequency:    7.0385909552
  - # 10
    frequency:    8.1829214675
  - # 11
    frequency:   10.3464419675
  - # 12
    frequency:   17.1658524524
  - # 13
    frequency:   17.1891994507
  - # 14
    frequency:   18.5978241929
  - # 15
    frequency:   27.0575430616
  - # 16
    frequency:   27.0986466089
  - # 17
    frequency:   28.3771584946
  - # 18
    frequency:   60.9734418979

- q-position: [    0.0505051,    0.0000000,    0.0000000 ]
  distance:    0.0186711
  band:
  - # 1
    frequency:   -3.3888894627
  - # 2
    frequency:   -3.2946845780
  - # 3
    frequency:   -0.3759757943
  - # 4
    frequency:    1.1754738236
  - # 5
    frequency:    1.7634818077
  - # 6
    frequency:    5.8493372556
  - # 7
    frequency:    5.8886199680
  - # 8
    frequency:    6.9989777022
  - # 9
    frequency:    7.0753043345
  - # 10
    frequency:    8.1880728056
  - # 11
    frequency:   10.3659490589
  - # 12
    frequency:   17.2011815541
  - # 13
    frequency:   17.2295107520
  - # 14
    frequency:   18.5887987828
  - # 15
    frequency:   27.0845722505
  - # 16
    frequency:   27.1348807934
  - # 17
    frequency:   28.3910999465
  - # 18
    frequency:   60.9737054813

- q-position: [    0.0555556,    0.0000000,    0.0000000 ]
  distance:    0.0205382
  band:
  - # 1
    frequency:   -3.2953041641
  - # 2
    frequency:   -3.1833884776
  - # 3
    frequency:   -0.3898592338
  - # 4
    frequency:    1.2907390106
  - # 5
    frequency:    1.9358519370
  - # 6
    frequency:    5.9089646696
  - # 7
    frequency:    5.9538369137
  - # 8
    frequency:    7.0235213460
  - # 9
    frequency:    7.1168335275
  - # 10
    frequency:    8.1941037669
  - # 11
    frequency:   10.3868576885
  - # 12
    frequency:   17.2392139733
  - # 13
    frequency:   17.2728469295
  - # 14
    frequency:   18.5789671952
  - # 15
    frequency:   27.1139243657
  - # 16
    frequency:   27.1742067141
  - # 17
    frequency:   28.4060036588
  - # 18
    frequency:   60.9739711291

- q-position: [    0.0606061,    0.0000000,    0.0000000 ]
  distance:    0.0224053
  band:
  - # 1
    frequency:   -3.1957077976
  - # 2
    frequency:   -3.0650282131
  - # 3
    frequency:   -0.3963776423
  - # 4
    frequency:    1.4054224039
  - # 5
    frequency:    2.1070022508
  - # 6
    frequency:    5.9719427314
  - # 7
    frequency:    6.0220249602
  - # 8
    frequency:    7.0513736720
  - # 9
    frequency:    7.1634175443
  - # 10
    frequency:    8.2011543634
  - # 11
    frequency:   10.4089930040
  - # 12
    frequency:   17.2796710054
  - # 13
    frequency:   17.3188776139
  - # 14
    frequency:   18.5683687589
  - # 15
    frequency:   27.1454478820
  - # 16
    frequency:   27.2164082379
  - # 17
    frequency:   28.4217401393
  - # 18
    frequency:   60.9742316265

- q-position: [    0.0656566,    0.0000000,    0.0000000 ]
  distance:    0.0242724
  band:
  - # 1
    frequency:   -3.0908108039
  - # 2
    frequency:   -2.9403455585
  - # 3
    frequency:   -0.3938889770
  - # 4
    frequency:    1.5194785062
  - # 5
    frequency:    2.2766718117
  - # 6
    frequency:    6.0374574281
  - # 7
    frequency:    6.0922682012
  - # 8
    frequency:    7.0829076728
  - # 9
    frequency:    7.2152505095
  - # 10
    frequency:    8.2094049600
  - # 11
    frequency:   10.4321726817
  - # 12
    frequency:   17.3222588713
  - # 13
    frequency:   17.3672563830
  - # 14
    frequency:   18.5570449885
  - # 15
    frequency:   27.1789793837
  - # 16
    frequency:   27.2612488719
  - # 17
    frequency:   28.4381778169
  - # 18
    frequency:   60.9744793014

- q-position: [    0.0707071,    0.0000000,    0.0000000 ]
  distance:    0.0261395
  band:
  - # 1
    frequency:   -2.9813380680
  - # 2
    frequency:   -2.8100265013
  - # 3
    frequency:   -0.3800263760
  - # 4
    frequency:    1.6328502655
  - # 5
    frequency:    2.4445647861
  - # 6
    frequency:    6.1045777580
  - # 7
    frequency:    6.1636266557
  - # 8
    frequency:    7.1185569562
  - # 9
    frequency:    7.2724314932
  - # 10
    frequency:    8.2190911147
  - # 11
    frequency:   10.4562090260
  - # 12
    frequency:   17.3666713125
  - # 13
    frequency:   17.4176241922
  - # 14
    frequency:   18.5450393286
  - # 15
    frequency:   27.2143443042
  - # 16
    frequency:   27.3084717259
  - # 17
    frequency:   28.4551857346
  - # 18
    frequency:   60.9747060843

- q-position: [    0.0757576,    0.0000000,    0.0000000 ]
  distance:    0.0280066
  band:
  - # 1
    frequency:   -2.8680119928
  - # 2
    frequency:   -2.6746699310
  - # 3
    frequency:   -0.3509504270
  - # 4
    frequency:    1.7454644408
  - # 5
    frequency:    2.6103571438
  - # 6
    frequency:    6.1722730969
  - # 7
    frequency:    6.2351852947
  - # 8
    frequency:    7.1588008388
  - # 9
    frequency:    7.3348988801
  - # 10
    frequency:    8.2305249149
  - # 11
    frequency:   10.4809110988
  - # 12
    frequency:   17.4125922000
  - # 13
    frequency:   17.4696128203
  - # 14
    frequency:   18.5323969535
  - # 15
    frequency:   27.2513577443
  - # 16
    frequency:   27.3577993796
  - # 17
    frequency:   28.4726364806
  - # 18
    frequency:   60.9749035728

- q-position: [    0.0808081,    0.0000000,    0.0000000 ]
  distance:    0.0298737
  band:
  - # 1
    frequency:   -2.7515337021
  - # 2
    frequency:   -2.5347607898
  - # 3
    frequency:   -0.2991831648
  - # 4
    frequency:    1.8572277177
  - # 5
    frequency:    2.7737080773
  - # 6
    frequency:    6.2394498783
  - # 7
    frequency:    6.3061092229
  - # 8
    frequency:    7.2041323381
  - # 9
    frequency:    7.4023520835
  - # 10
    frequency:    8.2441253695
  - # 11
    frequency:   10.5060868514
  - # 12
    frequency:   17.4596981086
  - # 13
    frequency:   17.5228482856
  - # 14
    frequency:   18.5191646483
  - # 15
    frequency:   27.2898253688
  - # 16
    frequency:   27.4089336119
  - # 17
    frequency:   28.4904093794
  - # 18
    frequency:   60.9750630993

- q-position: [    0.0858586,    0.0000000,    0.0000000 ]
  distance:    0.0317408
  band:
  - # 1
    frequency:   -2.6325630817
  - # 2
    frequency:   -2.3906510427
  - # 3
    frequency:   -0.2035406272
  - # 4
    frequency:    1.9680243488
  - # 5
    frequency:    2.9342745444
  - # 6
    frequency:    6.3050107077
  - # 7
    frequency:    6.3756958469
  - # 8
    frequency:    7.2550058385
  - # 9
    frequency:    7.4741667183
  - # 10
    frequency:    8.2604605600
  - # 11
    frequency:   10.5315452395
  - # 12
    frequency:   17.5076608015
  - # 13
    frequency:   17.5769541912
  - # 14
    frequency:   18.5053908036
  - # 15
    frequency:   27.3295443799
  - # 16
    frequency:   27.4615549347
  - # 17
    frequency:   28.5083939748
  - # 18
    frequency:   60.9751758017

- q-position: [    0.0909091,    0.0000000,    0.0000000 ]
  distance:    0.0336079
  band:
  - # 1
    frequency:   -2.5116986301
  - # 2
    frequency:   -2.2425513757
  - # 3
    frequency:    0.1526671002
  - # 4
    frequency:    2.0777160269
  - # 5
    frequency:    3.0917267435
  - # 6
    frequency:    6.3679329625
  - # 7
    frequency:    6.4434134513
  - # 8
    frequency:    7.3117670783
  - # 9
    frequency:    7.5493123092
  - # 10
    frequency:    8.2803024640
  - # 11
    frequency:   10.5570982997
  - # 12
    frequency:   17.5561495587
  - # 13
    frequency:   17.6315549659
  - # 14
    frequency:   18.4911255709
  - # 15
    frequency:   27.3703045656
  - # 16
    frequency:   27.5153218773
  - # 17
    frequency:   28.5264938371
  - # 18
    frequency:   60.9752326980

- q-position: [    0.0959596,    0.0000000,    0.0000000 ]
  distance:    0.0354751
  band:
  - # 1
    frequency:   -2.3894582392
  - # 2
    frequency:   -2.0905358532
  - # 3
    frequency:    0.3274291595
  - # 4
    frequency:    2.1861444620
  - # 5
    frequency:    3.2457622661
  - # 6
    frequency:    6.4273545915
  - # 7
    frequency:    6.5089180412
  - # 8
    frequency:    7.3745772879
  - # 9
    frequency:    7.6262863748
  - # 10
    frequency:    8.3046880253
  - # 11
    frequency:   10.5825631756
  - # 12
    frequency:   17.6048332656
  - # 13
    frequency:   17.6862789659
  - # 14
    frequency:   18.4764212410
  - # 15
    frequency:   27.4118894181
  - # 16
    frequency:   27.5698699675
  - # 17
    frequency:   28.5446307209
  - # 18
    frequency:   60.9752247616

- q-position: [    0.1010101,    0.0000000,    0.0000000 ]
  distance:    0.0373422
  band:
  - # 1
    frequency:   -2.2662619623
  - # 2
    frequency:   -1.9345604583
  - # 3
    frequency:    0.4617124945
  - # 4
    frequency:    2.2931367090
  - # 5
    frequency:    3.3961171573
  - # 6
    frequency:    6.4826465245
  - # 7
    frequency:    6.5720461148
  - # 8
    frequency:    7.4433515067
  - # 9
    frequency:    7.7030926834
  - # 10
    frequency:    8.3349602185
  - # 11
    frequency:   10.6077640806
  - # 12
    frequency:   17.6533821474
  - # 13
    frequency:   17.7407614166
  - # 14
    frequency:   18.4613329394
  - # 15
    frequency:   27.4540773196
  - # 16
    frequency:   27.6248103811
  - # 17
    frequency:   28.5627490772
  - # 18
    frequency:   60.9751429994

- q-position: [    0.1060606,    0.0000000,    0.0000000 ]
  distance:    0.0392093
  band:
  - # 1
    frequency:   -2.1424174657
  - # 2
    frequency:   -1.7744921199
  - # 3
    frequency:    0.5870294199
  - # 4
    frequency:    2.3985127972
  - # 5
    frequency:    3.5425729365
  - # 6
    frequency:    6.5334505781
  - # 7
    frequency:    6.6327875967
  - # 8
    frequency:    7.5177315967
  - # 9
    frequency:    7.7773231744
  - # 10
    frequency:    8.3727246428
  - # 11
    frequency:   10.6325341941
  - # 12
    frequency:   17.7014689909
  - # 13
    frequency:   17.7946471691
  - # 14
    frequency:   18.4459197811
  - # 15
    frequency:   27.4966427844
  - # 16
    frequency:   27.6797282844
  - # 17
    frequency:   28.5808208658
  - # 18
    frequency:   60.9749785304

- q-position: [    0.1111111,    0.0000000,    0.0000000 ]
  distance:    0.0410764
  band:
  - # 1
    frequency:   -2.0181081586
  - # 2
    frequency:   -1.6101302180
  - # 3
    frequency:    0.7109200532
  - # 4
    frequency:    2.5020947650
  - # 5
    frequency:    3.6849594952
  - # 6
    frequency:    6.5796723134
  - # 7
    frequency:    6.6912474333
  - # 8
    frequency:    7.5971039357
  - # 9
    frequency:    7.8464365084
  - # 10
    frequency:    8.4196195605
  - # 11
    frequency:   10.6567174867
  - # 12
    frequency:   17.7487696159
  - # 13
    frequency:   17.8475932605
  - # 14
    frequency:   18.4302467019
  - # 15
    frequency:   27.5393577546
  - # 16
    frequency:   27.7341810029
  - # 17
    frequency:   28.5988505111
  - # 18
    frequency:   60.9747226645

- q-position: [    0.1161616,    0.0000000,    0.0000000 ]
  distance:    0.0429435
  band:
  - # 1
    frequency:   -1.8933829811
  - # 2
    frequency:   -1.4411615965
  - # 3
    frequency:    0.8365867316
  - # 4
    frequency:    2.6037159445
  - # 5
    frequency:    3.8231544661
  - # 6
    frequency:    6.6214348591
  - # 7
    frequency:    6.7476049251
  - # 8
    frequency:    7.6806552974
  - # 9
    frequency:    7.9082784079
  - # 10
    frequency:    8.4768447011
  - # 11
    frequency:   10.6801704778
  - # 12
    frequency:   17.7949622339
  - # 13
    frequency:   17.8992712639
  - # 14
    frequency:   18.4143873118
  - # 15
    frequency:   27.5819929348
  - # 16
    frequency:   27.7876963329
  - # 17
    frequency:   28.6168796563
  - # 18
    frequency:   60.9743669817

- q-position: [    0.1212121,    0.0000000,    0.0000000 ]
  distance:    0.0448106
  band:
  - # 1
    frequency:   -1.7681455065
  - # 2
    frequency:   -1.2668986176
  - # 3
    frequency:    0.9654425396
  - # 4
    frequency:    2.7032293484
  - # 5
    frequency:    3.9570800196
  - # 6
    frequency:    6.6590120077
  - # 7
    frequency:    6.8020775519
  - # 8
    frequency:    7.7674482610
  - # 9
    frequency:    7.9616687433
  - # 10
    frequency:    8.5446168678
  - # 11
    frequency:   10.7027639289
  - # 12
    frequency:   17.8397251192
  - # 13
    frequency:   17.9493694240
  - # 14
    frequency:   18.3984283291
  - # 15
    frequency:   27.6243191592
  - # 16
    frequency:   27.8397716081
  - # 17
    frequency:   28.6349910775
  - # 18
    frequency:   60.9739034091

- q-position: [    0.1262626,    0.0000000,    0.0000000 ]
  distance:    0.0466777
  band:
  - # 1
    frequency:   -1.6421382884
  - # 2
    frequency:   -1.0854854253
  - # 3
    frequency:    1.0976004734
  - # 4
    frequency:    2.8005142645
  - # 5
    frequency:    4.0866981255
  - # 6
    frequency:    6.6927606661
  - # 7
    frequency:    6.8548926894
  - # 8
    frequency:    7.8564958471
  - # 9
    frequency:    8.0066635357
  - # 10
    frequency:    8.6219407149
  - # 11
    frequency:   10.7243844776
  - # 12
    frequency:   17.8827316679
  - # 13
    frequency:   17.9975945735
  - # 14
    frequency:   18.3824765028
  - # 15
    frequency:   27.6661087774
  - # 16
    frequency:   27.8898745584
  - # 17
    frequency:   28.6533106978
  - # 18
    frequency:   60.9733242975

- q-position: [    0.1313131,    0.0000000,    0.0000000 ]
  distance:    0.0485448
  band:
  - # 1
    frequency:   -1.5149157856
  - # 2
    frequency:   -0.8919180462
  - # 3
    frequency:    1.2320108067
  - # 4
    frequency:    2.8954805607
  - # 5
    frequency:    4.2120051831
  - # 6
    frequency:    6.7230661221
  - # 7
    frequency:    6.9062677780
  - # 8
    frequency:    7.9468218311
  - # 9
    frequency:    8.0442875928
  - # 10
    frequency:    8.7068985029
  - # 11
    frequency:   10.7449362161
  - # 12
    frequency:   17.9236413374
  - # 13
    frequency:   18.0436738330
  - # 14
    frequency:   18.3666695133
  - # 15
    frequency:   27.7071370471
  - # 16
    frequency:   27.9374475014
  - # 17
    frequency:   28.6720061340
  - # 18
    frequency:   60.9726224937

- q-position: [    0.1363636,    0.0000000,    0.0000000 ]
  distance:    0.0504119
  band:
  - # 1
    frequency:   -1.3857944701
  - # 2
    frequency:   -0.6725737856
  - # 3
    frequency:    1.3668152652
  - # 4
    frequency:    2.9880706309
  - # 5
    frequency:    4.3330266967
  - # 6
    frequency:    6.7503048624
  - # 7
    frequency:    6.9563978079
  - # 8
    frequency:    8.0375020163
  - # 9
    frequency:    8.0759908050
  - # 10
    frequency:    8.7972071486
  - # 11
    frequency:   10.7643422149
  - # 12
    frequency:   17.9620840613
  - # 13
    frequency:   18.0873560949
  - # 14
    frequency:   18.3511932437
  - # 15
    frequency:   27.7471835209
  - # 16
    frequency:   27.9819168605
  - # 17
    frequency:   28.6912797640
  - # 18
    frequency:   60.9717914111

- q-position: [    0.1414141,    0.0000000,    0.0000000 ]
  distance:    0.0522790
  band:
  - # 1
    frequency:   -1.2537586658
  - # 2
    frequency:   -0.3768365757
  - # 3
    frequency:    1.4999850130
  - # 4
    frequency:    3.0782592422
  - # 5
    frequency:    4.4498124208
  - # 6
    frequency:    6.7748234588
  - # 7
    frequency:    7.0054483475
  - # 8
    frequency:    8.1032034291
  - # 9
    frequency:    8.1276880512
  - # 10
    frequency:    8.8906692941
  - # 11
    frequency:   10.7825459796
  - # 12
    frequency:   17.9976345438
  - # 13
    frequency:   18.1284132982
  - # 14
    frequency:   18.3363089993
  - # 15
    frequency:   27.7860334139
  - # 16
    frequency:   28.0227100316
  - # 17
    frequency:   28.7113542692
  - # 18
    frequency:   60.9708250951

- q-position: [    0.1464646,    0.0000000,    0.0000000 ]
  distance:    0.0541461
  band:
  - # 1
    frequency:   -1.1172764616
  - # 2
    frequency:    0.3780825925
  - # 3
    frequency:    1.6299151574
  - # 4
    frequency:    3.1660517526
  - # 5
    frequency:    4.5624321842
  - # 6
    frequency:    6.7969293642
  - # 7
    frequency:    7.0535523729
  - # 8
    frequency:    8.1271257847
  - # 9
    frequency:    8.2166181055
  - # 10
    frequency:    8.9853850445
  - # 11
    frequency:   10.7995128211
  - # 12
    frequency:   18.0297721911
  - # 13
    frequency:   18.1666414985
  - # 14
    frequency:   18.3223949080
  - # 15
    frequency:   27.8234789391
  - # 16
    frequency:   28.0592807387
  - # 17
    frequency:   28.7324494976
  - # 18
    frequency:   60.9697182840

- q-position: [    0.1515152,    0.0000000,    0.0000000 ]
  distance:    0.0560132
  band:
  - # 1
    frequency:   -0.9739141589
  - # 2
    frequency:    0.6395140909
  - # 3
    frequency:    1.7556859991
  - # 4
    frequency:    3.2514812278
  - # 5
    frequency:    4.6709724403
  - # 6
    frequency:    6.8168892814
  - # 7
    frequency:    7.1008094974
  - # 8
    frequency:    8.1486887486
  - # 9
    frequency:    8.3036189242
  - # 10
    frequency:    9.0797897427
  - # 11
    frequency:   10.8152310893
  - # 12
    frequency:   18.0578261415
  - # 13
    frequency:   18.2018617415
  - # 14
    frequency:   18.3100020212
  - # 15
    frequency:   27.8593205974
  - # 16
    frequency:   28.0911417542
  - # 17
    frequency:   28.7547517525
  - # 18
    frequency:   60.9684664646

- q-position: [    0.1565657,    0.0000000,    0.0000000 ]
  distance:    0.0578804
  band:
  - # 1
    frequency:   -0.8194255744
  - # 2
    frequency:    0.8129401918
  - # 3
    frequency:    1.8770096633
  - # 4
    frequency:    3.3346049493
  - # 5
    frequency:    4.7755334843
  - # 6
    frequency:    6.8349316898
  - # 7
    frequency:    7.1472866058
  - # 8
    frequency:    8.1685897355
  - # 9
    frequency:    8.3881028680
  - # 10
    frequency:    9.1726144571
  - # 11
    frequency:   10.8297131922
  - # 12
    frequency:   18.0809252205
  - # 13
    frequency:   18.2339207470
  - # 14
    frequency:   18.2999052813
  - # 15
    frequency:   27.8933684091
  - # 16
    frequency:   28.1179004391
  - # 17
    frequency:   28.7783800429
  - # 18
    frequency:   60.9670659211

- q-position: [    0.1616162,    0.0000000,    0.0000000 ]
  distance:    0.0597475
  band:
  - # 1
    frequency:   -0.6451083070
  - # 2
    frequency:    0.9495549351
  - # 3
    frequency:    1.9940404235
  - # 4
    frequency:    3.4155007088
  - # 5
    frequency:    4.8762272195
  - # 6
    frequency:    6.8512512401
  - # 7
    frequency:    7.1930192640
  - # 8
    frequency:    8.1873466357
  - # 9
    frequency:    8.4695624127
  - # 10
    frequency:    9.2628277266
  - # 11
    frequency:   10.8429962760
  - # 12
    frequency:   18.0980322096
  - # 13
    frequency:   18.2626914099
  - # 14
    frequency:   18.2930699540
  - # 15
    frequency:   27.9254430766
  - # 16
    frequency:   28.1392893566
  - # 17
    frequency:   28.8033570270
  - # 18
    frequency:   60.9655137779

- q-position: [    0.1666667,    0.0000000,    0.0000000 ]
  distance:    0.0616146
  band:
  - # 1
    frequency:   -0.4262840591
  - # 2
    frequency:    1.0643705244
  - # 3
    frequency:    2.1071845008
  - # 4
    frequency:    3.4942631689
  - # 5
    frequency:    4.9731753336
  - # 6
    frequency:    6.8660136517
  - # 7
    frequency:    7.2380135465
  - # 8
    frequency:    8.2053465723
  - # 9
    frequency:    8.5475636456
  - # 10
    frequency:    9.3495824563
  - # 11
    frequency:   10.8551423827
  - # 12
    frequency:   18.1082182915
  - # 13
    frequency:   18.2880731256
  - # 14
    frequency:   18.2903776535
  - # 15
    frequency:   27.9553770656
  - # 16
    frequency:   28.1551835091
  - # 17
    frequency:   28.8295930950
  - # 18
    frequency:   60.9638080343

- q-position: [    0.1717172,    0.0000000,    0.0000000 ]
  distance:    0.0634817
  band:
  - # 1
    frequency:    0.1808498832
  - # 2
    frequency:    1.1640543749
  - # 3
    frequency:    2.2169590940
  - # 4
    frequency:    3.5710004594
  - # 5
    frequency:    5.0665077438
  - # 6
    frequency:    6.8793603862
  - # 7
    frequency:    7.2822481241
  - # 8
    frequency:    8.2228836913
  - # 9
    frequency:    8.6217396311
  - # 10
    frequency:    9.4321743416
  - # 11
    frequency:   10.8662378329
  - # 12
    frequency:   18.1112045180
  - # 13
    frequency:   18.2920851065
  - # 14
    frequency:   18.3099919458
  - # 15
    frequency:   27.9830155961
  - # 16
    frequency:   28.1655989877
  - # 17
    frequency:   28.8568887932
  - # 18
    frequency:   60.9619475923

- q-position: [    0.1767677,    0.0000000,    0.0000000 ]
  distance:    0.0653488
  band:
  - # 1
    frequency:    0.4773364851
  - # 2
    frequency:    1.2521089713
  - # 3
    frequency:    2.3239018636
  - # 4
    frequency:    3.6458310953
  - # 5
    frequency:    5.1563611924
  - # 6
    frequency:    6.8914127687
  - # 7
    frequency:    7.3256765768
  - # 8
    frequency:    8.2401865908
  - # 9
    frequency:    8.6917841030
  - # 10
    frequency:    9.5100117033
  - # 11
    frequency:   10.8763915100
  - # 12
    frequency:   18.1077080927
  - # 13
    frequency:   18.2974778596
  - # 14