nqpoint: 300    
npath: 3      
segment_nqpoint:
- 100
- 100
- 100
labels:
- [ 'G', 'M' ]
- [ 'M', 'K' ]
- [ 'K', 'G' ]
reciprocal_lattice:
- [   0.29556194,   0.17064277,   0.00000000 ] # a*
- [   0.00000000,   0.34128553,   0.00000000 ] # b*
- [   0.00000000,   0.00000000,   0.03714061 ] # c*
natom: 8      
lattice:
- [     3.383385535436151,     0.000000000000000,     0.000000000000000 ] # a
- [    -1.691692767718075,     2.930097824481741,     0.000000000000000 ] # b
- [     0.000000000000000,     0.000000000000000,    26.924709060932297 ] # c
points:
- symbol: C # 1
  coordinates: [  0.333332985432215,  0.666666983183674,  0.620996793278408 ]
  mass: 12.010700
- symbol: C # 2
  coordinates: [  0.666666984744047,  0.333332985985144,  0.379000929688968 ]
  mass: 12.010700
- symbol: N # 3
  coordinates: [  0.000000000000000,  0.000000000000000,  0.521605956164483 ]
  mass: 14.006700
- symbol: N # 4
  coordinates: [  0.333332985432215,  0.666666983183674,  0.665734549642396 ]
  mass: 14.006700
- symbol: N # 5
  coordinates: [  0.666666984744047,  0.333332985985144,  0.425359132605149 ]
  mass: 14.006700
- symbol: O # 6
  coordinates: [  0.666666984744047,  0.333332985985144,  0.334265450357604 ]
  mass: 15.999400
- symbol: Zr # 7
  coordinates: [  0.333332985432215,  0.666666983183674,  0.478842410996729 ]
  mass: 91.224000
- symbol: Zr # 8
  coordinates: [  0.666666984744047,  0.333332985985144,  0.565488797273090 ]
  mass: 91.224000

phonon:
- q-position: [    0.0000000,    0.0000000,    0.0000000 ]
  distance:    0.0000000
  band:
  - # 1
    frequency:   -2.9945936391
  - # 2
    frequency:   -2.9945936391
  - # 3
    frequency:   -0.0000105188
  - # 4
    frequency:   -0.0000004793
  - # 5
    frequency:    0.0000062029
  - # 6
    frequency:    1.3584061532
  - # 7
    frequency:    1.3584061532
  - # 8
    frequency:    3.4325956969
  - # 9
    frequency:    3.4325956970
  - # 10
    frequency:    5.3836583537
  - # 11
    frequency:    6.6461657455
  - # 12
    frequency:    6.6461657455
  - # 13
    frequency:    7.4166960217
  - # 14
    frequency:    7.4166960217
  - # 15
    frequency:    8.5539888202
  - # 16
    frequency:    9.3216181145
  - # 17
    frequency:   14.0884367048
  - # 18
    frequency:   15.7133596705
  - # 19
    frequency:   15.7133596705
  - # 20
    frequency:   17.0698190337
  - # 21
    frequency:   17.0698190338
  - # 22
    frequency:   38.2928577799
  - # 23
    frequency:   60.1719766344
  - # 24
    frequency:   68.9276007722

- q-position: [    0.0050505,    0.0000000,    0.0000000 ]
  distance:    0.0017237
  band:
  - # 1
    frequency:   -2.9952181103
  - # 2
    frequency:   -2.9951415551
  - # 3
    frequency:   -0.0006161856
  - # 4
    frequency:    0.0541321484
  - # 5
    frequency:    0.0978975458
  - # 6
    frequency:    1.3580500312
  - # 7
    frequency:    1.3582100969
  - # 8
    frequency:    3.4314391747
  - # 9
    frequency:    3.4314478575
  - # 10
    frequency:    5.3835741481
  - # 11
    frequency:    6.6461255482
  - # 12
    frequency:    6.6470544824
  - # 13
    frequency:    7.4171164239
  - # 14
    frequency:    7.4175054437
  - # 15
    frequency:    8.5537066869
  - # 16
    frequency:    9.3207020291
  - # 17
    frequency:   14.0881362296
  - # 18
    frequency:   15.7132937213
  - # 19
    frequency:   15.7136915936
  - # 20
    frequency:   17.0697999012
  - # 21
    frequency:   17.0700950759
  - # 22
    frequency:   38.2928500819
  - # 23
    frequency:   60.1720121379
  - # 24
    frequency:   68.9264036040

- q-position: [    0.0101010,    0.0000000,    0.0000000 ]
  distance:    0.0034473
  band:
  - # 1
    frequency:   -2.9970879384
  - # 2
    frequency:   -2.9967776873
  - # 3
    frequency:   -0.0024550867
  - # 4
    frequency:    0.1081918472
  - # 5
    frequency:    0.1956043723
  - # 6
    frequency:    1.3569829525
  - # 7
    frequency:    1.3576445241
  - # 8
    frequency:    3.4279746135
  - # 9
    frequency:    3.4280253171
  - # 10
    frequency:    5.3833283530
  - # 11
    frequency:    6.6460055915
  - # 12
    frequency:    6.6497104479
  - # 13
    frequency:    7.4183729798
  - # 14
    frequency:    7.4199257096
  - # 15
    frequency:    8.5528607336
  - # 16
    frequency:    9.3179564935
  - # 17
    frequency:   14.0872351188
  - # 18
    frequency:   15.7130950461
  - # 19
    frequency:   15.7146835678
  - # 20
    frequency:   17.0697430422
  - # 21
    frequency:   17.0709228292
  - # 22
    frequency:   38.2928270136
  - # 23
    frequency:   60.1721184602
  - # 24
    frequency:   68.9228146492

- q-position: [    0.0151515,    0.0000000,    0.0000000 ]
  distance:    0.0051710
  band:
  - # 1
    frequency:   -3.0001924921
  - # 2
    frequency:   -2.9994795306
  - # 3
    frequency:   -0.0054877426
  - # 4
    frequency:    0.1621068290
  - # 5
    frequency:    0.2929276439
  - # 6
    frequency:    1.3552087929
  - # 7
    frequency:    1.3567773070
  - # 8
    frequency:    3.4222170793
  - # 9
    frequency:    3.4223911735
  - # 10
    frequency:    5.3829409559
  - # 11
    frequency:    6.6458077619
  - # 12
    frequency:    6.6541033407
  - # 13
    frequency:    7.4204518126
  - # 14
    frequency:    7.4239329610
  - # 15
    frequency:    8.5514522977
  - # 16
    frequency:    9.3133896767
  - # 17
    frequency:   14.0857343168
  - # 18
    frequency:   15.7127611631
  - # 19
    frequency:   15.7163242427
  - # 20
    frequency:   17.0696500670
  - # 21
    frequency:   17.0723011753
  - # 22
    frequency:   38.2927886519
  - # 23
    frequency:   60.1722950368
  - # 24
    frequency:   68.9168415506

- q-position: [    0.0202020,    0.0000000,    0.0000000 ]
  distance:    0.0068947
  band:
  - # 1
    frequency:   -3.0045144625
  - # 2
    frequency:   -3.0032106878
  - # 3
    frequency:   -0.0096628088
  - # 4
    frequency:    0.2158051274
  - # 5
    frequency:    0.3896694511
  - # 6
    frequency:    1.3527340593
  - # 7
    frequency:    1.3557220376
  - # 8
    frequency:    3.4141918460
  - # 9
    frequency:    3.4146510989
  - # 10
    frequency:    5.3824437435
  - # 11
    frequency:    6.6455351385
  - # 12
    frequency:    6.6601840503
  - # 13
    frequency:    7.4233300419
  - # 14
    frequency:    7.4294879053
  - # 15
    frequency:    8.5494836017
  - # 16
    frequency:    9.3070152195
  - # 17
    frequency:   14.0836353946
  - # 18
    frequency:   15.7122879426
  - # 19
    frequency:   15.7185948190
  - # 20
    frequency:   17.0695236382
  - # 21
    frequency:   17.0742282555
  - # 22
    frequency:   38.2927351245
  - # 23
    frequency:   60.1725409295
  - # 24
    frequency:   68.9084970216

- q-position: [    0.0252525,    0.0000000,    0.0000000 ]
  distance:    0.0086183
  band:
  - # 1
    frequency:   -3.0100304546
  - # 2
    frequency:   -3.0079224374
  - # 3
    frequency:   -0.0149022143
  - # 4
    frequency:    0.2692150750
  - # 5
    frequency:    0.4856219333
  - # 6
    frequency:    1.3495679657
  - # 7
    frequency:    1.3546394860
  - # 8
    frequency:    3.4039346470
  - # 9
    frequency:    3.4049539791
  - # 10
    frequency:    5.3818782233
  - # 11
    frequency:    6.6451919003
  - # 12
    frequency:    6.6678865710
  - # 13
    frequency:    7.4269761461
  - # 14
    frequency:    7.4365365289
  - # 15
    frequency:    8.5469577397
  - # 16
    frequency:    9.2988522726
  - # 17
    frequency:   14.0809405463
  - # 18
    frequency:   15.7116696162
  - # 19
    frequency:   15.7214692241
  - # 20
    frequency:   17.0693674402
  - # 21
    frequency:   17.0767014763
  - # 22
    frequency:   38.2926666089
  - # 23
    frequency:   60.1728548305
  - # 24
    frequency:   68.8977988098

- q-position: [    0.0303030,    0.0000000,    0.0000000 ]
  distance:    0.0103420
  band:
  - # 1
    frequency:   -3.0167117699
  - # 2
    frequency:   -3.0135557467
  - # 3
    frequency:   -0.0210948623
  - # 4
    frequency:    0.3222651222
  - # 5
    frequency:    0.5805588321
  - # 6
    frequency:    1.3457225487
  - # 7
    frequency:    1.3537414928
  - # 8
    frequency:    3.3914920367
  - # 9
    frequency:    3.3934925659
  - # 10
    frequency:    5.3812930945
  - # 11
    frequency:    6.6447832025
  - # 12
    frequency:    6.6771303607
  - # 13
    frequency:    7.4313504535
  - # 14
    frequency:    7.4450111040
  - # 15
    frequency:    8.5438786520
  - # 16
    frequency:    9.2889255511
  - # 17
    frequency:   14.0776525828
  - # 18
    frequency:   15.7108987906
  - # 19
    frequency:   15.7249143547
  - # 20
    frequency:   17.0691861362
  - # 21
    frequency:   17.0797175184
  - # 22
    frequency:   38.2925833318
  - # 23
    frequency:   60.1732350669
  - # 24
    frequency:   68.8847696464

- q-position: [    0.0353535,    0.0000000,    0.0000000 ]
  distance:    0.0120657
  band:
  - # 1
    frequency:   -3.0245253394
  - # 2
    frequency:   -3.0200435791
  - # 3
    frequency:   -0.0280882841
  - # 4
    frequency:    0.3748834282
  - # 5
    frequency:    0.6742205106
  - # 6
    frequency:    1.3412128361
  - # 7
    frequency:    1.3533001740
  - # 8
    frequency:    3.3769218726
  - # 9
    frequency:    3.3805039269
  - # 10
    frequency:    5.3807415671
  - # 11
    frequency:    6.6443150286
  - # 12
    frequency:    6.6878228983
  - # 13
    frequency:    7.4364057461
  - # 14
    frequency:    7.4548314891
  - # 15
    frequency:    8.5402510806
  - # 16
    frequency:    9.2772654035
  - # 17
    frequency:   14.0737749235
  - # 18
    frequency:   15.7099664642
  - # 19
    frequency:   15.7288903835
  - # 20
    frequency:   17.0689853139
  - # 21
    frequency:   17.0832723459
  - # 22
    frequency:   38.2924855672
  - # 23
    frequency:   60.1736796081
  - # 24
    frequency:   68.8694371808

- q-position: [    0.0404040,    0.0000000,    0.0000000 ]
  distance:    0.0137893
  band:
  - # 1
    frequency:   -3.0334347612
  - # 2
    frequency:   -3.0273133382
  - # 3
    frequency:   -0.0356778644
  - # 4
    frequency:    0.4269971774
  - # 5
    frequency:    0.7662865930
  - # 6
    frequency:    1.3360570856
  - # 7
    frequency:    1.3536683571
  - # 8
    frequency:    3.3602939272
  - # 9
    frequency:    3.3662694401
  - # 10
    frequency:    5.3802788163
  - # 11
    frequency:    6.6437940251
  - # 12
    frequency:    6.6998621912
  - # 13
    frequency:    7.4420879593
  - # 14
    frequency:    7.4659067185
  - # 15
    frequency:    8.5360804986
  - # 16
    frequency:    9.2639078985
  - # 17
    frequency:   14.0693115848
  - # 18
    frequency:   15.7088620477
  - # 19
    frequency:   15.7333511262
  - # 20
    frequency:   17.0687714212
  - # 21
    frequency:   17.0873612155
  - # 22
    frequency:   38.2923736352
  - # 23
    frequency:   60.1741860739
  - # 24
    frequency:   68.8518339014

- q-position: [    0.0454545,    0.0000000,    0.0000000 ]
  distance:    0.0155130
  band:
  - # 1
    frequency:   -3.0434013911
  - # 2
    frequency:   -3.0352893007
  - # 3
    frequency:   -0.0435928129
  - # 4
    frequency:    0.4785315748
  - # 5
    frequency:    0.8563238775
  - # 6
    frequency:    1.3302771248
  - # 7
    frequency:    1.3553238255
  - # 8
    frequency:    3.3416906426
  - # 9
    frequency:    3.3511140544
  - # 10
    frequency:    5.3799598081
  - # 11
    frequency:    6.6432273254
  - # 12
    frequency:    6.7131390310
  - # 13
    frequency:    7.4483369567
  - # 14
    frequency:    7.4781368593
  - # 15
    frequency:    8.5313730044
  - # 16
    frequency:    9.2488949279
  - # 17
    frequency:   14.0642671661
  - # 18
    frequency:   15.7075733880
  - # 19
    frequency:   15.7382444650
  - # 20
    frequency:   17.0685516906
  - # 21
    frequency:   17.0919786849
  - # 22
    frequency:   38.2922479001
  - # 23
    frequency:   60.1747517441
  - # 24
    frequency:   68.8319970421

- q-position: [    0.0505051,    0.0000000,    0.0000000 ]
  distance:    0.0172366
  band:
  - # 1
    frequency:   -3.0543854405
  - # 2
    frequency:   -3.0438949119
  - # 3
    frequency:   -0.0514771193
  - # 4
    frequency:    0.5294084738
  - # 5
    frequency:    0.9436823616
  - # 6
    frequency:    1.3238988343
  - # 7
    frequency:    1.3589649344
  - # 8
    frequency:    3.3212080380
  - # 9
    frequency:    3.3354045265
  - # 10
    frequency:    5.3798376573
  - # 11
    frequency:    6.6426223705
  - # 12
    frequency:    6.7275388505
  - # 13
    frequency:    7.4550873622
  - # 14
    frequency:    7.4914151091
  - # 15
    frequency:    8.5261351711
  - # 16
    frequency:    9.2322743282
  - # 17
    frequency:   14.0586468309
  - # 18
    frequency:   15.7060867953
  - # 19
    frequency:   15.7435128223
  - # 20
    frequency:   17.0683340559
  - # 21
    frequency:   17.0971186195
  - # 22
    frequency:   38.2921087678
  - # 23
    frequency:   60.1753735698
  - # 24
    frequency:   68.8099684759

- q-position: [    0.0555556,    0.0000000,    0.0000000 ]
  distance:    0.0189603
  band:
  - # 1
    frequency:   -3.0663470321
  - # 2
    frequency:   -3.0530548398
  - # 3
    frequency:   -0.0588616837
  - # 4
    frequency:    0.5795445692
  - # 5
    frequency:    1.0272800499
  - # 6
    frequency:    1.3169528475
  - # 7
    frequency:    1.3657174994
  - # 8
    frequency:    3.2989567791
  - # 9
    frequency:    3.3195463308
  - # 10
    frequency:    5.3799625912
  - # 11
    frequency:    6.6419867306
  - # 12
    frequency:    6.7429431054
  - # 13
    frequency:    7.4622694286
  - # 14
    frequency:    7.5056300854
  - # 15
    frequency:    8.5203738431
  - # 16
    frequency:    9.2141000232
  - # 17
    frequency:   14.0524562843
  - # 18
    frequency:   15.7043870735
  - # 19
    frequency:   15.7490936810
  - # 20
    frequency:   17.0681270604
  - # 21
    frequency:   17.1027741951
  - # 22
    frequency:   38.2919566844
  - # 23
    frequency:   60.1760481860
  - # 24
    frequency:   68.7857945940

- q-position: [    0.0606061,    0.0000000,    0.0000000 ]
  distance:    0.0206840
  band:
  - # 1
    frequency:   -3.0792471746
  - # 2
    frequency:   -3.0626967154
  - # 3
    frequency:   -0.0651190122
  - # 4
    frequency:    0.6288490653
  - # 5
    frequency:    1.1051685747
  - # 6
    frequency:    1.3094755759
  - # 7
    frequency:    1.3775616561
  - # 8
    frequency:    3.2750634155
  - # 9
    frequency:    3.3039789395
  - # 10
    frequency:    5.3803815125
  - # 11
    frequency:    6.6413279345
  - # 12
    frequency:    6.7592301710
  - # 13
    frequency:    7.4698099253
  - # 14
    frequency:    7.5206682528
  - # 15
    frequency:    8.5140958695
  - # 16
    frequency:    9.1944321897
  - # 17
    frequency:   14.0457017453
  - # 18
    frequency:   15.7024575532
  - # 19
    frequency:   15.7549201437
  - # 20
    frequency:   17.0679397585
  - # 21
    frequency:   17.1089378967
  - # 22
    frequency:   38.2917921329
  - # 23
    frequency:   60.1767719256
  - # 24
    frequency:   68.7595261730

- q-position: [    0.0656566,    0.0000000,    0.0000000 ]
  distance:    0.0224076
  band:
  - # 1
    frequency:   -3.0930486194
  - # 2
    frequency:   -3.0727525067
  - # 3
    frequency:   -0.0693793174
  - # 4
    frequency:    0.6772206627
  - # 5
    frequency:    1.1738678665
  - # 6
    frequency:    1.3015107406
  - # 7
    frequency:    1.3979912803
  - # 8
    frequency:    3.2496717821
  - # 9
    frequency:    3.2891691793
  - # 10
    frequency:    5.3811380893
  - # 11
    frequency:    6.6406533090
  - # 12
    frequency:    6.7762757946
  - # 13
    frequency:    7.4776330292
  - # 14
    frequency:    7.5364164193
  - # 15
    frequency:    8.5073077696
  - # 16
    frequency:    9.1733374495
  - # 17
    frequency:   14.0383899139
  - # 18
    frequency:   15.7002801276
  - # 19
    frequency:   15.7609215266
  - # 20
    frequency:   17.0677816112
  - # 21
    frequency:   17.1156015123
  - # 22
    frequency:   38.2916156311
  - # 23
    frequency:   60.1775408349
  - # 24
    frequency:   68.7312182286

- q-position: [    0.0707071,    0.0000000,    0.0000000 ]
  distance:    0.0241313
  band:
  - # 1
    frequency:   -3.1077165720
  - # 2
    frequency:   -3.0831594980
  - # 3
    frequency:   -0.0703478889
  - # 4
    frequency:    0.7245436124
  - # 5
    frequency:    1.2285549871
  - # 6
    frequency:    1.2931117088
  - # 7
    frequency:    1.4318217047
  - # 8
    frequency:    3.2229445540
  - # 9
    frequency:    3.2756024085
  - # 10
    frequency:    5.3822732598
  - # 11
    frequency:    6.6399698319
  - # 12
    frequency:    6.7939531894
  - # 13
    frequency:    7.4856612035
  - # 14
    frequency:    7.5527642280
  - # 15
    frequency:    8.5000153221
  - # 16
    frequency:    9.1508890940
  - # 17
    frequency:   14.0305279329
  - # 18
    frequency:   15.6978352910
  - # 19
    frequency:   15.7670239801
  - # 20
    frequency:   17.0676623786
  - # 21
    frequency:   17.1227561204
  - # 22
    frequency:   38.2914277288
  - # 23
    frequency:   60.1783506899
  - # 24
    frequency:   68.7009298573

- q-position: [    0.0757576,    0.0000000,    0.0000000 ]
  distance:    0.0258550
  band:
  - # 1
    frequency:   -3.1232192339
  - # 2
    frequency:   -3.0938608588
  - # 3
    frequency:   -0.0658057619
  - # 4
    frequency:    0.7706823857
  - # 5
    frequency:    1.2668223073
  - # 6
    frequency:    1.2843451345
  - # 7
    frequency:    1.4814312763
  - # 8
    frequency:    3.1950649255
  - # 9
    frequency:    3.2637713451
  - # 10
    frequency:    5.3838260150
  - # 11
    frequency:    6.6392839996
  - # 12
    frequency:    6.8121328728
  - # 13
    frequency:    7.4938160539
  - # 14
    frequency:    7.5696065639
  - # 15
    frequency:    8.4922230792
  - # 16
    frequency:    9.1271673449
  - # 17
    frequency:   14.0221233429
  - # 18
    frequency:   15.6951021800
  - # 19
    frequency:   15.7731511308
  - # 20
    frequency:   17.0675920090
  - # 21
    frequency:   17.1303920711
  - # 22
    frequency:   38.2912290048
  - # 23
    frequency:   60.1791970148
  - # 24
    frequency:   68.6687240665

- q-position: [    0.0808081,    0.0000000,    0.0000000 ]
  distance:    0.0275786
  band:
  - # 1
    frequency:   -3.1395281622
  - # 2
    frequency:   -3.1048058039
  - # 3
    frequency:   -0.0505301057
  - # 4
    frequency:    0.8154741713
  - # 5
    frequency:    1.2752967761
  - # 6
    frequency:    1.2922030863
  - # 7
    frequency:    1.5432391684
  - # 8
    frequency:    3.1662383626
  - # 9
    frequency:    3.2541625232
  - # 10
    frequency:    5.3858343221
  - # 11
    frequency:    6.6386017106
  - # 12
    frequency:    6.8306823709
  - # 13
    frequency:    7.5020191513
  - # 14
    frequency:    7.5868457920
  - # 15
    frequency:    8.4839338047
  - # 16
    frequency:    9.1022596584
  - # 17
    frequency:   14.0131840323
  - # 18
    frequency:   15.6920586162
  - # 19
    frequency:   15.7792247379
  - # 20
    frequency:   17.0675805265
  - # 21
    frequency:   17.1384989616
  - # 22
    frequency:   38.2910200640
  - # 23
    frequency:   60.1800751010
  - # 24
    frequency:   68.6346675927

- q-position: [    0.0858586,    0.0000000,    0.0000000 ]
  distance:    0.0293023
  band:
  - # 1
    frequency:   -3.1566184344
  - # 2
    frequency:   -3.1159493572
  - # 3
    frequency:    0.0296732823
  - # 4
    frequency:    0.8587177620
  - # 5
    frequency:    1.2660810260
  - # 6
    frequency:    1.3102905778
  - # 7
    frequency:    1.6115933795
  - # 8
    frequency:    3.1366943467
  - # 9
    frequency:    3.2472405981
  - # 10
    frequency:    5.3883360664
  - # 11
    frequency:    6.6379281646
  - # 12
    frequency:    6.8494659045
  - # 13
    frequency:    7.5101928133
  - # 14
    frequency:    7.6043937390
  - # 15
    frequency:    8.4751478445
  - # 16
    frequency:    9.0762610794
  - # 17
    frequency:   14.0037181800
  - # 18
    frequency:   15.6886811522
  - # 19
    frequency:   15.7851653570
  - # 20
    frequency:   17.0676379203
  - # 21
    frequency:   17.1470656047
  - # 22
    frequency:   38.2908015348
  - # 23
    frequency:   60.1809800273
  - # 24
    frequency:   68.5988307097

- q-position: [    0.0909091,    0.0000000,    0.0000000 ]
  distance:    0.0310260
  band:
  - # 1
    frequency:   -3.1744686153
  - # 2
    frequency:   -3.1272517431
  - # 3
    frequency:    0.0810083187
  - # 4
    frequency:    0.9001562113
  - # 5
    frequency:    1.2568569175
  - # 6
    frequency:    1.3248891093
  - # 7
    frequency:    1.6826300156
  - # 8
    frequency:    3.1066879854
  - # 9
    frequency:    3.2434310455
  - # 10
    frequency:    5.3913699047
  - # 11
    frequency:    6.6372677770
  - # 12
    frequency:    6.8683441733
  - # 13
    frequency:    7.5182608402
  - # 14
    frequency:    7.6221733283
  - # 15
    frequency:    8.4658624433
  - # 16
    frequency:    9.0492746517
  - # 17
    frequency:   13.9937341932
  - # 18
    frequency:   15.6849451187
  - # 19
    frequency:   15.7908930053
  - # 20
    frequency:   17.0677740347
  - # 21
    frequency:   17.1560799935
  - # 22
    frequency:   38.2905740658
  - # 23
    frequency:   60.1819066821
  - # 24
    frequency:   68.5612870254

- q-position: [    0.0959596,    0.0000000,    0.0000000 ]
  distance:    0.0327496
  band:
  - # 1
    frequency:   -3.1930605273
  - # 2
    frequency:   -3.1386774470
  - # 3
    frequency:    0.1231776961
  - # 4
    frequency:    0.9394485006
  - # 5
    frequency:    1.2478555574
  - # 6
    frequency:    1.3379951122
  - # 7
    frequency:    1.7543048678
  - # 8
    frequency:    3.0765013100
  - # 9
    frequency:    3.2431021978
  - # 10
    frequency:    5.3949759534
  - # 11
    frequency:    6.6366241072
  - # 12
    frequency:    6.8871743422
  - # 13
    frequency:    7.5261491996
  - # 14
    frequency:    7.6401197708
  - # 15
    frequency:    8.4560710305
  - # 16
    frequency:    9.0214118879
  - # 17
    frequency:   13.9832406384
  - # 18
    frequency:   15.6808246740
  - # 19
    frequency:   15.7963278209
  - # 20
    frequency:   17.0679984631
  - # 21
    frequency:   17.1655292613
  - # 22
    frequency:   38.2903383231
  - # 23
    frequency:   60.1828497849
  - # 24
    frequency:   68.5221132702

- q-position: [    0.1010101,    0.0000000,    0.0000000 ]
  distance:    0.0344733
  band:
  - # 1
    frequency:   -3.2123788282
  - # 2
    frequency:   -3.1501939989
  - # 3
    frequency:    0.1657481108
  - # 4
    frequency:    0.9761220756
  - # 5
    frequency:    1.2394273800
  - # 6
    frequency:    1.3506141285
  - # 7
    frequency:    1.8255897572
  - # 8
    frequency:    3.0464440119
  - # 9
    frequency:    3.2465479585
  - # 10
    frequency:    5.3991962547
  - # 11
    frequency:    6.6359998014
  - # 12
    frequency:    6.9058103264
  - # 13
    frequency:    7.5337866583
  - # 14
    frequency:    7.6581812120
  - # 15
    frequency:    8.4457625094
  - # 16
    frequency:    8.9927933009
  - # 17
    frequency:   13.9722461673
  - # 18
    frequency:   15.6762928562
  - # 19
    frequency:   15.8013907106
  - # 20
    frequency:   17.0683204476
  - # 21
    frequency:   17.1753996403
  - # 22
    frequency:   38.2900949874
  - # 23
    frequency:   60.1838039107
  - # 24
    frequency:   68.4813890752

- q-position: [    0.1060606,    0.0000000,    0.0000000 ]
  distance:    0.0361970
  band:
  - # 1
    frequency:   -3.2324104079
  - # 2
    frequency:   -3.1617705519
  - # 3
    frequency:    0.2104489722
  - # 4
    frequency:    1.0094952111
  - # 5
    frequency:    1.2321205894
  - # 6
    frequency:    1.3632709882
  - # 7
    frequency:    1.8959746304
  - # 8
    frequency:    3.0168532911
  - # 9
    frequency:    3.2539728437
  - # 10
    frequency:    5.4040749881
  - # 11
    frequency:    6.6353965467
  - # 12
    frequency:    6.9241034585
  - # 13
    frequency:    7.5411053597
  - # 14
    frequency:    7.6763187337
  - # 15
    frequency:    8.4349206001
  - # 16
    frequency:    8.9635489889
  - # 17
    frequency:   13.9607594377
  - # 18
    frequency:   15.6713216367
  - # 19
    frequency:   15.8060039788
  - # 20
    frequency:   17.0687487841
  - # 21
    frequency:   17.1856764209
  - # 22
    frequency:   38.2898447512
  - # 23
    frequency:   60.1847635142
  - # 24
    frequency:   68.4391967430

- q-position: [    0.1111111,    0.0000000,    0.0000000 ]
  distance:    0.0379206
  band:
  - # 1
    frequency:   -3.2531436195
  - # 2
    frequency:   -3.1733763444
  - # 3
    frequency:    0.2578711693
  - # 4
    frequency:    1.0385686027
  - # 5
    frequency:    1.2267917960
  - # 6
    frequency:    1.3762601087
  - # 7
    frequency:    1.9652265968
  - # 8
    frequency:    2.9880924068
  - # 9
    frequency:    3.2654810905
  - # 10
    frequency:    5.4096584105
  - # 11
    frequency:    6.6348150373
  - # 12
    frequency:    6.9419036031
  - # 13
    frequency:    7.5480413456
  - # 14
    frequency:    7.6945056069
  - # 15
    frequency:    8.4235233072
  - # 16
    frequency:    8.9338192560
  - # 17
    frequency:   13.9487890299
  - # 18
    frequency:   15.6658819768
  - # 19
    frequency:   15.8100919316
  - # 20
    frequency:   17.0692917361
  - # 21
    frequency:   17.1963439140
  - # 22
    frequency:   38.2895883159
  - # 23
    frequency:   60.1857229546
  - # 24
    frequency:   68.3956210101

- q-position: [    0.1161616,    0.0000000,    0.0000000 ]
  distance:    0.0396443
  band:
  - # 1
    frequency:   -3.2745673643
  - # 2
    frequency:   -3.1849791453
  - # 3
    frequency:    0.3082218647
  - # 4
    frequency:    1.0619594262
  - # 5
    frequency:    1.2246760695
  - # 6
    frequency:    1.3897667656
  - # 7
    frequency:    2.0332735062
  - # 8
    frequency:    2.9605474517
  - # 9
    frequency:    3.2810713488
  - # 10
    frequency:    5.4159945220
  - # 11
    frequency:    6.6342549509
  - # 12
    frequency:    6.9590607672
  - # 13
    frequency:    7.5545350236
  - # 14
    frequency:    7.7127257042
  - # 15
    frequency:    8.4115426079
  - # 16
    frequency:    8.9037552316
  - # 17
    frequency:   13.9363433588
  - # 18
    frequency:   15.6599438861
  - # 19
    frequency:   15.8135814517
  - # 20
    frequency:   17.0699569567
  - # 21
    frequency:   17.2073854190
  - # 22
    frequency:   38.2893263891
  - # 23
    frequency:   60.1866765215
  - # 24
    frequency:   68.3507488027

- q-position: [    0.1212121,    0.0000000,    0.0000000 ]
  distance:    0.0413679
  band:
  - # 1
    frequency:   -3.2966700583
  - # 2
    frequency:   -3.1965437915
  - # 3
    frequency:    0.3615255777
  - # 4
    frequency:    1.0781592060
  - # 5
    frequency:    1.2271355524
  - # 6
    frequency:    1.4039278295
  - # 7
    frequency:    2.1001426763
  - # 8
    frequency:    2.9346218457
  - # 9
    frequency:    3.3006379062
  - # 10
    frequency:    5.4231324656
  - # 11
    frequency:    6.6337149341
  - # 12
    frequency:    6.9754272183
  - # 13
    frequency:    7.5605315802
  - # 14
    frequency:    7.7309709961
  - # 15
    frequency:    8.3989444955
  - # 16
    frequency:    8.8735194270
  - # 17
    frequency:   13.9234305834
  - # 18
    frequency:   15.6534764848
  - # 19
    frequency:   15.8164025368
  - # 20
    frequency:   17.0707514216
  - # 21
    frequency:   17.2187832009
  - # 22
    frequency:   38.2890596826
  - # 23
    frequency:   60.1876184615
  - # 24
    frequency:   68.3046689866

- q-position: [    0.1262626,    0.0000000,    0.0000000 ]
  distance:    0.0430916
  band:
  - # 1
    frequency:   -3.3194385115
  - # 2
    frequency:   -3.2080309253
  - # 3
    frequency:    0.4176987889
  - # 4
    frequency:    1.0864239642
  - # 5
    frequency:    1.2347785852
  - # 6
    frequency:    1.4188627308
  - # 7
    frequency:    2.1659239951
  - # 8
    frequency:    2.9107280979
  - # 9
    frequency:    3.3239785567
  - # 10
    frequency:    5.4311216750
  - # 11
    frequency:    6.6331925973
  - # 12
    frequency:    6.9908600871
  - # 13
    frequency:    7.5659813400
  - # 14
    frequency:    7.7492380822
  - # 15
    frequency:    8.3856895524
  - # 16
    frequency:    8.8432861353
  - # 17
    frequency:   13.9100585142
  - # 18
    frequency:   15.6464480687
  - # 19
    frequency:   15.8184887987
  - # 20
    frequency:   17.0716813722
  - # 21
    frequency:   17.2305184797
  - # 22
    frequency:   38.2887889092
  - # 23
    frequency:   60.1885430048
  - # 24
    frequency:   68.2574721109

- q-position: [    0.1313131,    0.0000000,    0.0000000 ]
  distance:    0.0448153
  band:
  - # 1
    frequency:   -3.3428567584
  - # 2
    frequency:   -3.2193960295
  - # 3
    frequency:    0.4765842091
  - # 4
    frequency:    1.0875813444
  - # 5
    frequency:    1.2466648758
  - # 6
    frequency:    1.4346887585
  - # 7
    frequency:    2.2307442109
  - # 8
    frequency:    2.8892765700
  - # 9
    frequency:    3.3508083045
  - # 10
    frequency:    5.4400107911
  - # 11
    frequency:    6.6326845182
  - # 12
    frequency:    7.0052243771
  - # 13
    frequency:    7.5708400732
  - # 14
    frequency:    7.7675237434
  - # 15
    frequency:    8.3717342809
  - # 16
    frequency:    8.8132415448
  - # 17
    frequency:   13.8962345183
  - # 18
    frequency:   15.6388261781
  - # 19
    frequency:   15.8197779186
  - # 20
    frequency:   17.0727522703
  - # 21
    frequency:   17.2425714330
  - # 22
    frequency:   38.2885147809
  - # 23
    frequency:   60.1894443920
  - # 24
    frequency:   68.2092501483

- q-position: [    0.1363636,    0.0000000,    0.0000000 ]
  distance:    0.0465389
  band:
  - # 1
    frequency:   -3.3669048832
  - # 2
    frequency:   -3.2305888378
  - # 3
    frequency:    0.5379694650
  - # 4
    frequency:    1.0835069282
  - # 5
    frequency:    1.2608443569
  - # 6
    frequency:    1.4515277468
  - # 7