nqpoint: 300    
npath: 3      
segment_nqpoint:
- 100
- 100
- 100
labels:
- [ 'G', 'M' ]
- [ 'M', 'K' ]
- [ 'K', 'G' ]
reciprocal_lattice:
- [   0.29297782,   0.16915082,   0.00000000 ] # a*
- [   0.00000000,   0.33830165,   0.00000000 ] # b*
- [   0.00000000,   0.00000000,   0.03887637 ] # c*
natom: 7      
lattice:
- [     3.413227638566827,     0.000000000000000,     0.000000000000000 ] # a
- [    -1.706613819283414,     2.955941843895851,     0.000000000000000 ] # b
- [     0.000000000000000,     0.000000000000000,    25.722565815096626 ] # c
points:
- symbol: C # 1
  coordinates: [  0.000000000000000,  0.000000000000000,  0.500000031405635 ]
  mass: 12.010700
- symbol: C # 2
  coordinates: [  0.333332985432214,  0.666666983183674,  0.603502185114730 ]
  mass: 12.010700
- symbol: C # 3
  coordinates: [  0.666666984744047,  0.333332985985144,  0.396497815350538 ]
  mass: 12.010700
- symbol: N # 4
  coordinates: [  0.333332985432214,  0.666666983183674,  0.650112665093547 ]
  mass: 14.006700
- symbol: N # 5
  coordinates: [  0.666666984744047,  0.333332985985144,  0.349887334906453 ]
  mass: 14.006700
- symbol: Sc # 6
  coordinates: [  0.333332985432214,  0.666666983183674,  0.451683411697231 ]
  mass: 44.955912
- symbol: Sc # 7
  coordinates: [  0.666666984744047,  0.333332985985144,  0.548316588302761 ]
  mass: 44.955912

phonon:
- q-position: [    0.0000000,    0.0000000,    0.0000000 ]
  distance:    0.0000000
  band:
  - # 1
    frequency:   -3.0616582399
  - # 2
    frequency:   -3.0616582399
  - # 3
    frequency:   -2.6059919703
  - # 4
    frequency:   -2.6059919703
  - # 5
    frequency:   -0.0000011372
  - # 6
    frequency:    0.0000008258
  - # 7
    frequency:    0.0000013778
  - # 8
    frequency:    4.9443647526
  - # 9
    frequency:    4.9443647526
  - # 10
    frequency:    6.0406173177
  - # 11
    frequency:    7.3431894592
  - # 12
    frequency:    7.3431894592
  - # 13
    frequency:    7.9919504510
  - # 14
    frequency:    7.9919504510
  - # 15
    frequency:    8.6815720058
  - # 16
    frequency:   11.0960901048
  - # 17
    frequency:   11.0960901048
  - # 18
    frequency:   11.3501464666
  - # 19
    frequency:   18.3091910774
  - # 20
    frequency:   62.7666184574
  - # 21
    frequency:   62.7896111088

- q-position: [    0.0050505,    0.0000000,    0.0000000 ]
  distance:    0.0017086
  band:
  - # 1
    frequency:   -3.0613313231
  - # 2
    frequency:   -3.0606964336
  - # 3
    frequency:   -2.6059971557
  - # 4
    frequency:   -2.6059841668
  - # 5
    frequency:   -0.0161797473
  - # 6
    frequency:    0.0833721231
  - # 7
    frequency:    0.1272365017
  - # 8
    frequency:    4.9445918599
  - # 9
    frequency:    4.9451325910
  - # 10
    frequency:    6.0405961524
  - # 11
    frequency:    7.3434773408
  - # 12
    frequency:    7.3483723563
  - # 13
    frequency:    7.9919524181
  - # 14
    frequency:    7.9920014756
  - # 15
    frequency:    8.6815934809
  - # 16
    frequency:   11.0966367149
  - # 17
    frequency:   11.1020694455
  - # 18
    frequency:   11.3499600805
  - # 19
    frequency:   18.3076634344
  - # 20
    frequency:   62.7665228833
  - # 21
    frequency:   62.7894883855

- q-position: [    0.0101010,    0.0000000,    0.0000000 ]
  distance:    0.0034172
  band:
  - # 1
    frequency:   -3.0603529335
  - # 2
    frequency:   -3.0578236517
  - # 3
    frequency:   -2.6060166787
  - # 4
    frequency:   -2.6059607431
  - # 5
    frequency:   -0.0314691348
  - # 6
    frequency:    0.1667346899
  - # 7
    frequency:    0.2544857150
  - # 8
    frequency:    4.9452722327
  - # 9
    frequency:    4.9474331553
  - # 10
    frequency:    6.0405362533
  - # 11
    frequency:    7.3443383647
  - # 12
    frequency:    7.3637599333
  - # 13
    frequency:    7.9919581290
  - # 14
    frequency:    7.9921568704
  - # 15
    frequency:    8.6816586833
  - # 16
    frequency:   11.0982725334
  - # 17
    frequency:   11.1197608978
  - # 18
    frequency:   11.3496700489
  - # 19
    frequency:   18.3030837343
  - # 20
    frequency:   62.7662364242
  - # 21
    frequency:   62.7891206166

- q-position: [    0.0151515,    0.0000000,    0.0000000 ]
  distance:    0.0051258
  band:
  - # 1
    frequency:   -3.0587301085
  - # 2
    frequency:   -3.0530771284
  - # 3
    frequency:   -2.6060623574
  - # 4
    frequency:   -2.6059216615
  - # 5
    frequency:   -0.0449000443
  - # 6
    frequency:    0.2500777834
  - # 7
    frequency:    0.3817585109
  - # 8
    frequency:    4.9464030339
  - # 9
    frequency:    4.9512574835
  - # 10
    frequency:    6.0404479105
  - # 11
    frequency:    7.3457647090
  - # 12
    frequency:    7.3888783288
  - # 13
    frequency:    7.9919670141
  - # 14
    frequency:    7.9924239443
  - # 15
    frequency:    8.6817699673
  - # 16
    frequency:   11.1009855556
  - # 17
    frequency:   11.1481842918
  - # 18
    frequency:   11.3503199641
  - # 19
    frequency:   18.2954616547
  - # 20
    frequency:   62.7657598679
  - # 21
    frequency:   62.7885090024

- q-position: [    0.0202020,    0.0000000,    0.0000000 ]
  distance:    0.0068344
  band:
  - # 1
    frequency:   -3.0564744242
  - # 2
    frequency:   -3.0465167399
  - # 3
    frequency:   -2.6061536070
  - # 4
    frequency:   -2.6058668664
  - # 5
    frequency:   -0.0553124205
  - # 6
    frequency:    0.3333907764
  - # 7
    frequency:    0.5090621519
  - # 8
    frequency:    4.9479795640
  - # 9
    frequency:    4.9565903140
  - # 10
    frequency:    6.0403467677
  - # 11
    frequency:    7.3477434724
  - # 12
    frequency:    7.4229684029
  - # 13
    frequency:    7.9919781289
  - # 14
    frequency:    7.9928161424
  - # 15
    frequency:    8.6819313335
  - # 16
    frequency:   11.1047558799
  - # 17
    frequency:   11.1845800250
  - # 18
    frequency:   11.3547612022
  - # 19
    frequency:   18.2848132958
  - # 20
    frequency:   62.7650945235
  - # 21
    frequency:   62.7876555365

- q-position: [    0.0252525,    0.0000000,    0.0000000 ]
  distance:    0.0085430
  band:
  - # 1
    frequency:   -3.0536017726
  - # 2
    frequency:   -3.0382219897
  - # 3
    frequency:   -2.6063169919
  - # 4
    frequency:   -2.6057962957
  - # 5
    frequency:   -0.0611235554
  - # 6
    frequency:    0.4166620081
  - # 7
    frequency:    0.6363986666
  - # 8
    frequency:    4.9499953056
  - # 9
    frequency:    4.9634097210
  - # 10
    frequency:    6.0402520493
  - # 11
    frequency:    7.3502568728
  - # 12
    frequency:    7.4650283336
  - # 13
    frequency:    7.9919901607
  - # 14
    frequency:    7.9933553810
  - # 15
    frequency:    8.6821485439
  - # 16
    frequency:   11.1095558664
  - # 17
    frequency:   11.2216430072
  - # 18
    frequency:   11.3703989266
  - # 19
    frequency:   18.2711611376
  - # 20
    frequency:   62.7642422137
  - # 21
    frequency:   62.7865629941

- q-position: [    0.0303030,    0.0000000,    0.0000000 ]
  distance:    0.0102516
  band:
  - # 1
    frequency:   -3.0501320585
  - # 2
    frequency:   -3.0282882531
  - # 3
    frequency:   -2.6065855481
  - # 4
    frequency:   -2.6057098947
  - # 5
    frequency:   -0.0596904111
  - # 6
    frequency:    0.4998784940
  - # 7
    frequency:    0.7637634322
  - # 8
    frequency:    4.9524419844
  - # 9
    frequency:    4.9716868100
  - # 10
    frequency:    6.0401848155
  - # 11
    frequency:    7.3532825181
  - # 12
    frequency:    7.5138666663
  - # 13
    frequency:    7.9920014391
  - # 14
    frequency:    7.9940764463
  - # 15
    frequency:    8.6824292864
  - # 16
    frequency:   11.1153503586
  - # 17
    frequency:   11.2465043447
  - # 18
    frequency:   11.4101841645
  - # 19
    frequency:   18.2545339803
  - # 20
    frequency:   62.7632052665
  - # 21
    frequency:   62.7852349172

- q-position: [    0.0353535,    0.0000000,    0.0000000 ]
  distance:    0.0119602
  band:
  - # 1
    frequency:   -3.0460888266
  - # 2
    frequency:   -3.0168226565
  - # 3
    frequency:   -2.6069978341
  - # 4
    frequency:   -2.6056076328
  - # 5
    frequency:   -0.0443561038
  - # 6
    frequency:    0.5830256820
  - # 7
    frequency:    0.8911440186
  - # 8
    frequency:    4.9553096466
  - # 9
    frequency:    4.9813855927
  - # 10
    frequency:    6.0401665991
  - # 11
    frequency:    7.3567937421
  - # 12
    frequency:    7.5681591575
  - # 13
    frequency:    7.9920099493
  - # 14
    frequency:    7.9950353615
  - # 15
    frequency:    8.6827833910
  - # 16
    frequency:   11.1220969677
  - # 17
    frequency:   11.2539201524
  - # 18
    frequency:   11.4793946428
  - # 19
    frequency:   18.2349668718
  - # 20
    frequency:   62.7619865024
  - # 21
    frequency:   62.7836755947

- q-position: [    0.0404040,    0.0000000,    0.0000000 ]
  distance:    0.0136688
  band:
  - # 1
    frequency:   -3.0414988304
  - # 2
    frequency:   -3.0039399701
  - # 3
    frequency:   -2.6075966637
  - # 4
    frequency:   -2.6054895218
  - # 5
    frequency:    0.0412530164
  - # 6
    frequency:    0.6660872612
  - # 7
    frequency:    1.0185193361
  - # 8
    frequency:    4.9585867524
  - # 9
    frequency:    4.9924631254
  - # 10
    frequency:    6.0402185780
  - # 11
    frequency:    7.3607599970
  - # 12
    frequency:    7.6264997280
  - # 13
    frequency:    7.9920133490
  - # 14
    frequency:    7.9963260895
  - # 15
    frequency:    8.6832231055
  - # 16
    frequency:   11.1297464194
  - # 17
    frequency:   11.2500428611
  - # 18
    frequency:   11.5718318181
  - # 19
    frequency:   18.2125010214
  - # 20
    frequency:   62.7605892208
  - # 21
    frequency:   62.7818900390

- q-position: [    0.0454545,    0.0000000,    0.0000000 ]
  distance:    0.0153773
  band:
  - # 1
    frequency:   -3.0363915562
  - # 2
    frequency:   -2.9897588544
  - # 3
    frequency:   -2.6084274719
  - # 4
    frequency:   -2.6053556348
  - # 5
    frequency:    0.0903471377
  - # 6
    frequency:    0.7490450301
  - # 7
    frequency:    1.1458591062
  - # 8
    frequency:    4.9622602844
  - # 9
    frequency:    5.0048699333
  - # 10
    frequency:    6.0403612644
  - # 11
    frequency:    7.3651472920
  - # 12
    frequency:    7.6874292952
  - # 13
    frequency:    7.9920089896
  - # 14
    frequency:    7.9981163518
  - # 15
    frequency:    8.6837634435
  - # 16
    frequency:   11.1382429609
  - # 17
    frequency:   11.2400624750
  - # 18
    frequency:   11.6821499910
  - # 19
    frequency:   18.1871837052
  - # 20
    frequency:   62.7590171829
  - # 21
    frequency:   62.7798839584

- q-position: [    0.0505051,    0.0000000,    0.0000000 ]
  distance:    0.0170859
  band:
  - # 1
    frequency:   -3.0307987166
  - # 2
    frequency:   -2.9743987469
  - # 3
    frequency:   -2.6095362637
  - # 4
    frequency:   -2.6052061246
  - # 5
    frequency:    0.1348502720
  - # 6
    frequency:    0.8318788278
  - # 7
    frequency:    1.2731236534
  - # 8
    frequency:    4.9663158695
  - # 9
    frequency:    5.0185507015
  - # 10
    frequency:    6.0406145894
  - # 11
    frequency:    7.3699186693
  - # 12
    frequency:    7.7494081186
  - # 13
    frequency:    7.9919939412
  - # 14
    frequency:    8.0007318695
  - # 15
    frequency:    8.6844226238
  - # 16
    frequency:   11.1475248270
  - # 17
    frequency:   11.2263057700
  - # 18
    frequency:   11.8077329644
  - # 19
    frequency:   18.1590681644
  - # 20
    frequency:   62.7572745927
  - # 21
    frequency:   62.7776637264

- q-position: [    0.0555556,    0.0000000,    0.0000000 ]
  distance:    0.0187945
  band:
  - # 1
    frequency:   -3.0247537276
  - # 2
    frequency:   -2.9579776160
  - # 3
    frequency:   -2.6109670897
  - # 4
    frequency:   -2.6050412398
  - # 5
    frequency:    0.1804818591
  - # 6
    frequency:    0.9145665296
  - # 7
    frequency:    1.4002639929
  - # 8
    frequency:    4.9707379142
  - # 9
    frequency:    5.0334451761
  - # 10
    frequency:    6.0409982342
  - # 11
    frequency:    7.3750347044
  - # 12
    frequency:    7.8106396180
  - # 13
    frequency:    7.9919650222
  - # 14
    frequency:    8.0048769927
  - # 15
    frequency:    8.6852226326
  - # 16
    frequency:   11.1575247629
  - # 17
    frequency:   11.2097980298
  - # 18
    frequency:   11.9471166322
  - # 19
    frequency:   18.1282135038
  - # 20
    frequency:   62.7553660761
  - # 21
    frequency:   62.7752363466

- q-position: [    0.0606061,    0.0000000,    0.0000000 ]
  distance:    0.0205031
  band:
  - # 1
    frequency:   -3.0182911865
  - # 2
    frequency:   -2.9406107751
  - # 3
    frequency:   -2.6127589659
  - # 4
    frequency:   -2.6048613393
  - # 5
    frequency:    0.2283755081
  - # 6
    frequency:    0.9970841063
  - # 7
    frequency:    1.5272221672
  - # 8
    frequency:    4.9755097514
  - # 9
    frequency:    5.0494892047
  - # 10
    frequency:    6.0415320785
  - # 11
    frequency:    7.3804540215
  - # 12
    frequency:    7.8684682455
  - # 13
    frequency:    7.9919188332
  - # 14
    frequency:    8.0122665804
  - # 15
    frequency:    8.6861899541
  - # 16
    frequency:   11.1681706013
  - # 17
    frequency:   11.1910467077
  - # 18
    frequency:   12.0992000200
  - # 19
    frequency:   18.0946845942
  - # 20
    frequency:   62.7532966575
  - # 21
    frequency:   62.7726094154

- q-position: [    0.0656566,    0.0000000,    0.0000000 ]
  distance:    0.0222117
  band:
  - # 1
    frequency:   -3.0114463619
  - # 2
    frequency:   -2.9224109676
  - # 3
    frequency:   -2.6149420980
  - # 4
    frequency:   -2.6046669032
  - # 5
    frequency:    0.2788501288
  - # 6
    frequency:    1.0794057434
  - # 7
    frequency:    1.6539317691
  - # 8
    frequency:    4.9806137969
  - # 9
    frequency:    5.0666158474
  - # 10
    frequency:    6.0422366763
  - # 11
    frequency:    7.3861338131
  - # 12
    frequency:    7.9177946255
  - # 13
    frequency:    7.9918517963
  - # 14
    frequency:    8.0272251984
  - # 15
    frequency:    8.6873565355
  - # 16
    frequency:   11.1703388566
  - # 17
    frequency:   11.1793858891
  - # 18
    frequency:   12.2629533844
  - # 19
    frequency:   18.0585519900
  - # 20
    frequency:   62.7510717352
  - # 21
    frequency:   62.7697910810

- q-position: [    0.0707071,    0.0000000,    0.0000000 ]
  distance:    0.0239203
  band:
  - # 1
    frequency:   -3.0042547110
  - # 2
    frequency:   -2.9034900319
  - # 3
    frequency:   -2.6175331426
  - # 4
    frequency:   -2.6044585395
  - # 5
    frequency:    0.3319529931
  - # 6
    frequency:    1.1615040137
  - # 7
    frequency:    1.7803185795
  - # 8
    frequency:    4.9860317157
  - # 9
    frequency:    5.0847564986
  - # 10
    frequency:    6.0431337096
  - # 11
    frequency:    7.3920303538
  - # 12
    frequency:    7.9509641313
  - # 13
    frequency:    7.9917601987
  - # 14
    frequency:    8.0567985376
  - # 15
    frequency:    8.6887610839
  - # 16
    frequency:   11.1478592862
  - # 17
    frequency:   11.1910905594
  - # 18
    frequency:   12.4373153322
  - # 19
    frequency:   18.0198918712
  - # 20
    frequency:   62.7486970546
  - # 21
    frequency:   62.7667900007

- q-position: [    0.0757576,    0.0000000,    0.0000000 ]
  distance:    0.0256289
  band:
  - # 1
    frequency:   -2.9967514343
  - # 2
    frequency:   -2.8839627111
  - # 3
    frequency:   -2.6205289658
  - # 4
    frequency:   -2.6042369874
  - # 5
    frequency:    0.3876125305
  - # 6
    frequency:    1.2433500977
  - # 7
    frequency:    1.9063012465
  - # 8
    frequency:    4.9917445950
  - # 9
    frequency:    5.1038419726
  - # 10
    frequency:    6.0442463980
  - # 11
    frequency:    7.3980994998
  - # 12
    frequency:    7.9677807785
  - # 13
    frequency:    7.9916402413
  - # 14
    frequency:    8.1007276303
  - # 15
    frequency:    8.6904508315
  - # 16
    frequency:   11.1237419637
  - # 17
    frequency:   11.2032016440
  - # 18
    frequency:   12.6211641537
  - # 19
    frequency:   17.9787860263
  - # 20
    frequency:   62.7461786800
  - # 21
    frequency:   62.7636152947

- q-position: [    0.0808081,    0.0000000,    0.0000000 ]
  distance:    0.0273375
  band:
  - # 1
    frequency:   -2.9889710765
  - # 2
    frequency:   -2.8639537024
  - # 3
    frequency:   -2.6238978248
  - # 4
    frequency:   -2.6040031150
  - # 5
    frequency:    0.4456964422
  - # 6
    frequency:    1.3249140398
  - # 7
    frequency:    2.0317919387
  - # 8
    frequency:    4.9977331233
  - # 9
    frequency:    5.1238035221
  - # 10
    frequency:    6.0455998635
  - # 11
    frequency:    7.4042971673
  - # 12
    frequency:    7.9760614298
  - # 13
    frequency:    7.9914880911
  - # 14
    frequency:    8.1508740626
  - # 15
    frequency:    8.6924839633
  - # 16
    frequency:   11.0980943963
  - # 17
    frequency:   11.2156340195
  - # 18
    frequency:   12.8133206653
  - # 19
    frequency:   17.9353218988
  - # 20
    frequency:   62.7435229652
  - # 21
    frequency:   62.7602764991

- q-position: [    0.0858586,    0.0000000,    0.0000000 ]
  distance:    0.0290461
  band:
  - # 1
    frequency:   -2.9809471813
  - # 2
    frequency:   -2.8436101240
  - # 3
    frequency:   -2.6275658047
  - # 4
    frequency:   -2.6037579140
  - # 5
    frequency:    0.5060387835
  - # 6
    frequency:    1.4061650323
  - # 7
    frequency:    2.1566969139
  - # 8
    frequency:    5.0039777735
  - # 9
    frequency:    5.1445737718
  - # 10
    frequency:    6.0472214590
  - # 11
    frequency:    7.4105797823
  - # 12
    frequency:    7.9807984930
  - # 13
    frequency:    7.9912999381
  - # 14
    frequency:    8.2020312381
  - # 15
    frequency:    8.6949329737
  - # 16
    frequency:   11.0710100937
  - # 17
    frequency:   11.2283011804
  - # 18
    frequency:   13.0125644397
  - # 19
    frequency:   17.8895927258
  - # 20
    frequency:   62.7407365228
  - # 21
    frequency:   62.7567835167

- q-position: [    0.0909091,    0.0000000,    0.0000000 ]
  distance:    0.0307547
  band:
  - # 1
    frequency:   -2.9727120019
  - # 2
    frequency:   -2.8231237664
  - # 3
    frequency:   -2.6313941444
  - # 4
    frequency:   -2.6035024884
  - # 5
    frequency:    0.5684548399
  - # 6
    frequency:    1.4870717158
  - # 7
    frequency:    2.2809169602
  - # 8
    frequency:    5.0104589898
  - # 9
    frequency:    5.1660875549
  - # 10
    frequency:    6.0491410742
  - # 11
    frequency:    7.4169046987
  - # 12
    frequency:    7.9839551949
  - # 13
    frequency:    7.9910720548
  - # 14
    frequency:    8.2521003399
  - # 15
    frequency:    8.6978893006
  - # 16
    frequency:   11.0425753537
  - # 17
    frequency:   11.2411160316
  - # 18
    frequency:   13.2176545717
  - # 19
    frequency:   17.8416978134
  - # 20
    frequency:   62.7378261925
  - # 21
    frequency:   62.7531465667

- q-position: [    0.0959596,    0.0000000,    0.0000000 ]
  distance:    0.0324633
  band:
  - # 1
    frequency:   -2.9642962714
  - # 2
    frequency:   -2.8027718034
  - # 3
    frequency:   -2.6351387603
  - # 4
    frequency:   -2.6032380405
  - # 5
    frequency:    0.6327505164
  - # 6
    frequency:    1.5676024851
  - # 7
    frequency:    2.4043476785
  - # 8
    frequency:    5.0171573742
  - # 9
    frequency:    5.1882826523
  - # 10
    frequency:    6.0513914326
  - # 11
    frequency:    7.4232305812
  - # 12
    frequency:    7.9863210166
  - # 13
    frequency:    7.9908008583
  - # 14
    frequency:    8.3002053244
  - # 15
    frequency:    8.7014696511
  - # 16
    frequency:   11.0128731698
  - # 17
    frequency:   11.2539916920
  - # 18
    frequency:   13.4273502736
  - # 19
    frequency:   17.7917430127
  - # 20
    frequency:   62.7347990087
  - # 21
    frequency:   62.7493761340

- q-position: [    0.1010101,    0.0000000,    0.0000000 ]
  distance:    0.0341719
  band:
  - # 1
    frequency:   -2.9557290299
  - # 2
    frequency:   -2.7829920152
  - # 3
    frequency:   -2.6383758749
  - # 4
    frequency:   -2.6029658520
  - # 5
    frequency:    0.6987289313
  - # 6
    frequency:    1.6477257915
  - # 7
    frequency:    2.5268795922
  - # 8
    frequency:    5.0240538740
  - # 9
    frequency:    5.2111004336
  - # 10
    frequency:    6.0540083965
  - # 11
    frequency:    7.4295177511
  - # 12
    frequency:    7.9882544144
  - # 13
    frequency:    7.9904829725
  - # 14
    frequency:    8.3459209735
  - # 15
    frequency:    8.7058243820
  - # 16
    frequency:   10.9819856003
  - # 17
    frequency:   11.2668423011
  - # 18
    frequency:   13.6404287920
  - # 19
    frequency:   17.7398414907
  - # 20
    frequency:   62.7316621672
  - # 21
    frequency:   62.7454829169

- q-position: [    0.1060606,    0.0000000,    0.0000000 ]
  distance:    0.0358805
  band:
  - # 1
    frequency:   -2.9470375074
  - # 2
    frequency:   -2.7645139226
  - # 3
    frequency:   -2.6403722832
  - # 4
    frequency:   -2.6026872627
  - # 5
    frequency:    0.7661953751
  - # 6
    frequency:    1.7274104317
  - # 7
    frequency:    2.6483980786
  - # 8
    frequency:    5.0311299670
  - # 9
    frequency:    5.2344864031
  - # 10
    frequency:    6.0570312908
  - # 11
    frequency:    7.4357284951
  - # 12
    frequency:    7.9899376627
  - # 13
    frequency:    7.9901152909
  - # 14
    frequency:    8.3889899649
  - # 15
    frequency:    8.7111478987
  - # 16
    frequency:   10.9499952842
  - # 17
    frequency:   11.2795838189
  - # 18
    frequency:   13.8556994329
  - # 19
    frequency:   17.6861149391
  - # 20
    frequency:   62.7284229914
  - # 21
    frequency:   62.7414777768

- q-position: [    0.1111111,    0.0000000,    0.0000000 ]
  distance:    0.0375891
  band:
  - # 1
    frequency:   -2.9382470565
  - # 2
    frequency:   -2.7485280300
  - # 3
    frequency:   -2.6399179683
  - # 4
    frequency:   -2.6024036461
  - # 5
    frequency:    0.8349611540
  - # 6
    frequency:    1.8066258165
  - # 7
    frequency:    2.7687831322
  - # 8
    frequency:    5.0383678436
  - # 9
    frequency:    5.2583906502
  - # 10
    frequency:    6.0605032612
  - # 11
    frequency:    7.4418273381
  - # 12
    frequency:    7.9896950367
  - # 13
    frequency:    7.9914724763
  - # 14
    frequency:    8.4292018202
  - # 15
    frequency:    8.7176897488
  - # 16
    frequency:   10.9169864734
  - # 17
    frequency:   11.2921348115
  - # 18
    frequency:   14.0720132231
  - # 19
    frequency:   17.6306954487
  - # 20
    frequency:   62.7250888981
  - # 21
    frequency:   62.7373716864

- q-position: [    0.1161616,    0.0000000,    0.0000000 ]
  distance:    0.0392977
  band:
  - # 1
    frequency:   -2.9293811307
  - # 2
    frequency:   -2.7366525597
  - # 3
    frequency:   -2.6353615706
  - # 4
    frequency:   -2.6021163823
  - # 5
    frequency:    0.9048465560
  - # 6
    frequency:    1.8853422125
  - # 7
    frequency:    2.8879089742
  - # 8
    frequency:    5.0457505842
  - # 9
    frequency:    5.2827682039
  - # 10
    frequency:    6.0644716774
  - # 11
    frequency:    7.4477812810
  - # 12
    frequency:    7.9892198192
  - # 13
    frequency:    7.9929201969
  - # 14
    frequency:    8.4663341821
  - # 15
    frequency:    8.7257619876
  - # 16
    frequency:   10.8830457900
  - # 17
    frequency:   11.3044172129
  - # 18
    frequency:   14.2882680820
  - # 19
    frequency:   17.5737284069
  - # 20
    frequency:   62.7216673623
  - # 21
    frequency:   62.7331756805

- q-position: [    0.1212121,    0.0000000,    0.0000000 ]
  distance:    0.0410063
  band:
  - # 1
    frequency:   -2.9204613013
  - # 2
    frequency:   -2.7301596583
  - # 3
    frequency:   -2.6253866058
  - # 4
    frequency:   -2.6018268296
  - # 5
    frequency:    0.9756830660
  - # 6
    frequency:    1.9635309527
  - # 7
    frequency:    3.0056435324
  - # 8
    frequency:    5.0532623312
  - # 9
    frequency:    5.3075792821
  - # 10
    frequency:    6.0689885933
  - # 11
    frequency:    7.4535600082
  - # 12
    frequency:    7.9886876846
  - # 13
    frequency:    7.9943204676
  - # 14
    frequency:    8.5001322807
  - # 15
    frequency:    8.7357326252
  - # 16
    frequency:   10.8482628374
  - # 17
    frequency:   11.3163570543
  - # 18
    frequency:   14.5034093852
  - # 19
    frequency:   17.5153770162
  - # 20
    frequency:   62.7181658828
  - # 21
    frequency:   62.7289008075

- q-position: [    0.1262626,    0.0000000,    0.0000000 ]
  distance:    0.0427149
  band:
  - # 1
    frequency:   -2.9115073060
  - # 2
    frequency:   -2.7288759902
  - # 3
    frequency:   -2.6101133925
  - # 4
    frequency:   -2.6015362955
  - # 5
    frequency:    1.0473149085
  - # 6
    frequency:    2.0411646132
  - # 7
    frequency:    3.1218478252
  - # 8
    frequency:    5.0608884534
  - # 9
    frequency:    5.3327894229
  - # 10
    frequency:    6.0741112774
  - # 11
    frequency:    7.4591360651
  - # 12
    frequency:    7.9880971593
  - # 13
    frequency:    7.9957006740
  - # 14
    frequency:    8.5303306272
  - # 15
    frequency:    8.7479883533
  - # 16
    frequency:   10.8127307439
  - # 17
    frequency:   11.3278851536
  - # 18
    frequency:   14.7164254668
  - # 19
    frequency:   17.4558294466
  - # 20
    frequency:   62.7145919454
  - # 21
    frequency:   62.7245580837

- q-position: [    0.1313131,    0.0000000,    0.0000000 ]
  distance:    0.0444234
  band:
  - # 1
    frequency:   -2.9025371233
  - # 2
    frequency:   -2.7314541336
  - # 3
    frequency:   -2.6012460058
  - # 4
    frequency:   -2.5908301594
  - # 5
    frequency:    1.1195999906
  - # 6
    frequency:    2.1182171540
  - # 7
    frequency:    3.2363752894
  - # 8
    frequency:    5.0686157031
  - # 9
    frequency:    5.3583694737
  - # 10
    frequency:    6.0799028211
  - # 11
    frequency:    7.4644850109
  - # 12
    frequency:    7.9874472839
  - # 13
    frequency:    7.9970810612
  - # 14
    frequency:    8.5567259542
  - # 15
    frequency:    8.7628521274
  - # 16
    frequency:   10.7765466971
  - # 17
    frequency:   11.3389377561
  - # 18
    frequency:   14.9263368179
  - # 19
    frequency:   17.3953104181
  - # 20
    frequency:   62.7109529862
  - # 21
    frequency:   62.7201584506

- q-position: [    0.1363636,    0.0000000,    0.0000000 ]
  distance:    0.0461320
  band:
  - # 1
    frequency:   -2.8935670653
  - # 2
    frequency:   -2.7364970797
  - # 3
    frequency:   -2.6009570749
  - # 4
    frequency:   -2.5688709322
  - # 5
    frequency:    1.1924103200
  - # 6
    frequency:    2.1946640249
  - # 7
    frequency:    3.3490711035
  - # 8
    frequency:    5.0764323632
  - # 9
    frequency:    5.3842954016
  - # 10
    frequency:    6.0864328358
  - # 11
    frequency:    7.4695855496
  - # 12
    frequency:    7.9867376363
  - # 13
    frequency:    7.9984776725
  - # 14
    frequency:    8.5792853765
  - # 15
    frequency:    8.7804690353
  - # 16
    frequency:   10.7398125105
  - # 17
    frequency:   11.3494571216
  - # 18
    frequency:   15.1321761724
  - # 19
    frequency:   17.3341005137
  - # 20
    frequency:   62.7072563532
  - # 21
    frequency:   62.7157127364

- q-position: [    0.1414141,    0.0000000,    0.0000000 ]
  distance:    0.0478406
  band:
  - # 1
    frequency:   -2.8846118839
  - # 2
    frequency:   -2.7430305744
  - # 3
    frequency:   -2.6006704758
  - # 4
    frequency:   -2.5451453874
  - # 5
    frequency:    1.2656319805
  - # 6
    frequency:    2.2704822363
  - # 7
    frequency:    3.4597715756
  - # 8
    frequency:    5.0843283850
  - # 9
    frequency:    5.4105478798
  - # 10
    frequency:    6.0937782408
  - # 11
    frequency:    7.4744196411
  - # 12
    frequency:    7.9859683422
  - # 13
    frequency:    7.9999041146
  - # 14
    frequency:    8.5982280102
  - # 15
    frequency:    8.8007208221
  - # 16
    frequency:   10.7026352565
  - # 17
    frequency:   11.3593920493
  - # 18
    frequency:   15.3329535372
  - # 19
    frequency:   17.2725695762
  - # 20
    frequency:   62.7035092651
  - # 21
    frequency:   62.7112316237

- q-position: [    0.1464646,    0.0000000,    0.0000000 ]
  distance:    0.0495492
  band:
  - # 1
    frequency:   -2.8756848844
  - # 2
    frequency:   -2.7504439639
  - # 3
    frequency:   -2.6003870111
  - # 4
    frequency:   -2.5201999566
  - # 5
    frequency:    1.3391647485
  - # 6
    frequency:    2.3456503984
  - # 7
    frequency:    3.5683036788
  - # 8
    frequency:    5.0922955144
  - # 9
    frequency:    5.4371115858
  - # 10
    frequency:    6.1020241381
  - # 11
    frequency:    7.4789725959
  - # 12
    frequency:    7.9851400728
  - # 13
    frequency:    8.0013726530
  - # 14
    frequency:    8.6140115555
  - # 15
    frequency:    8.8232367416
  - # 16
    frequency:   10.6651279989
  - # 17
    frequency:   11.3686983366
  - # 18
    frequency:   15.5275936619
  - # 19
    frequency:   17.2112370216
  - # 20
    frequency:   62.6997187653
  - # 21
    frequency:   62.7067256245

- q-position: [    0.1515152,    0.0000000,    0.0000000 ]
  distance:    0.0512578
  band:
  - # 1
    frequency:   -2.8667980428
  - # 2
    frequency:   -2.7583493247
  - # 3
    frequency:   -2.6001072856
  - # 4
    frequency:   -2.4943603742
  - # 5
    frequency:    1.4129214355
  - # 6
    frequency:    2.4201487307
  - # 7
    frequency:    3.6744848451
  - # 8
    frequency:    5.1003274061
  - # 9
    frequency:    5.4639741414
  - # 10
    frequency:    6.1112647544
  - # 11
    frequency:    7.4832331544
  - # 12
    frequency:    7.9842540280
  - # 13
    frequency:    8.0028949031
  - # 14
    frequency:    8.6272259733
  - # 15
    frequency:    8.8474980860
  - # 16
    frequency:   10.6274106530
  - # 17
    frequency:   11.3773391675
  - # 18
    frequency:   15.7148189108
  - # 19
    frequency:   17.1508863556
  - # 20
    frequency:   62.6958916697
  - # 21
    frequency:   62.7022050662