nqpoint: 300    
npath: 3      
segment_nqpoint:
- 100
- 100
- 100
labels:
- [ 'G', 'M' ]
- [ 'M', 'K' ]
- [ 'K', 'G' ]
reciprocal_lattice:
- [   0.29297782,   0.16915082,   0.00000000 ] # a*
- [   0.00000000,   0.33830165,   0.00000000 ] # b*
- [   0.00000000,   0.00000000,   0.03887637 ] # c*
natom: 7      
lattice:
- [     3.413227638566827,     0.000000000000000,     0.000000000000000 ] # a
- [    -1.706613819283414,     2.955941843895851,     0.000000000000000 ] # b
- [     0.000000000000000,     0.000000000000000,    25.722565815096626 ] # c
points:
- symbol: C # 1
  coordinates: [  0.000000000000000,  0.000000000000000,  0.500000031405635 ]
  mass: 12.010700
- symbol: C # 2
  coordinates: [  0.333332985432214,  0.666666983183674,  0.603502185114730 ]
  mass: 12.010700
- symbol: C # 3
  coordinates: [  0.666666984744047,  0.333332985985144,  0.396497815350538 ]
  mass: 12.010700
- symbol: N # 4
  coordinates: [  0.333332985432214,  0.666666983183674,  0.650112665093547 ]
  mass: 14.006700
- symbol: N # 5
  coordinates: [  0.666666984744047,  0.333332985985144,  0.349887334906453 ]
  mass: 14.006700
- symbol: Sc # 6
  coordinates: [  0.333332985432214,  0.666666983183674,  0.451683411697231 ]
  mass: 44.955912
- symbol: Sc # 7
  coordinates: [  0.666666984744047,  0.333332985985144,  0.548316588302761 ]
  mass: 44.955912

phonon:
- q-position: [    0.0000000,    0.0000000,    0.0000000 ]
  distance:    0.0000000
  band:
  - # 1
    frequency:   -2.9069252185
  - # 2
    frequency:   -2.9069252185
  - # 3
    frequency:   -2.5941421710
  - # 4
    frequency:   -2.5941421710
  - # 5
    frequency:   -0.0000095990
  - # 6
    frequency:   -0.0000007391
  - # 7
    frequency:    0.0000095618
  - # 8
    frequency:    4.9854857721
  - # 9
    frequency:    4.9854857721
  - # 10
    frequency:    6.0198661512
  - # 11
    frequency:    7.7513916678
  - # 12
    frequency:    7.7513916678
  - # 13
    frequency:    7.9581428862
  - # 14
    frequency:    7.9581428862
  - # 15
    frequency:    8.6376547777
  - # 16
    frequency:   11.3067470490
  - # 17
    frequency:   11.6928908438
  - # 18
    frequency:   11.6928908438
  - # 19
    frequency:   18.2399164076
  - # 20
    frequency:   62.7651540027
  - # 21
    frequency:   62.7734909864

- q-position: [    0.0050505,    0.0000000,    0.0000000 ]
  distance:    0.0017086
  band:
  - # 1
    frequency:   -2.9067437380
  - # 2
    frequency:   -2.9062208787
  - # 3
    frequency:   -2.5942218702
  - # 4
    frequency:   -2.5941455642
  - # 5
    frequency:    0.0020781378
  - # 6
    frequency:    0.0778680316
  - # 7
    frequency:    0.1293786149
  - # 8
    frequency:    4.9855078863
  - # 9
    frequency:    4.9861297864
  - # 10
    frequency:    6.0198899153
  - # 11
    frequency:    7.7511120614
  - # 12
    frequency:    7.7539698416
  - # 13
    frequency:    7.9582156983
  - # 14
    frequency:    7.9583404589
  - # 15
    frequency:    8.6377710159
  - # 16
    frequency:   11.3054259131
  - # 17
    frequency:   11.6925283835
  - # 18
    frequency:   11.6984972737
  - # 19
    frequency:   18.2385445394
  - # 20
    frequency:   62.7650671614
  - # 21
    frequency:   62.7734019804

- q-position: [    0.0101010,    0.0000000,    0.0000000 ]
  distance:    0.0034172
  band:
  - # 1
    frequency:   -2.9062007557
  - # 2
    frequency:   -2.9041162663
  - # 3
    frequency:   -2.5944635828
  - # 4
    frequency:   -2.5941557074
  - # 5
    frequency:    0.0083050451
  - # 6
    frequency:    0.1557393510
  - # 7
    frequency:    0.2587824946
  - # 8
    frequency:    4.9855745631
  - # 9
    frequency:    4.9880598152
  - # 10
    frequency:    6.0199623450
  - # 11
    frequency:    7.7502757325
  - # 12
    frequency:    7.7616346413
  - # 13
    frequency:    7.9584325091
  - # 14
    frequency:    7.9589417213
  - # 15
    frequency:    8.6381196749
  - # 16
    frequency:   11.3015578583
  - # 17
    frequency:   11.6914423407
  - # 18
    frequency:   11.7152230455
  - # 19
    frequency:   18.2344311766
  - # 20
    frequency:   62.7648068185
  - # 21
    frequency:   62.7731351437

- q-position: [    0.0151515,    0.0000000,    0.0000000 ]
  distance:    0.0051258
  band:
  - # 1
    frequency:   -2.9053006173
  - # 2
    frequency:   -2.9006362485
  - # 3
    frequency:   -2.5948750486
  - # 4
    frequency:   -2.5941724917
  - # 5
    frequency:    0.0186575086
  - # 6
    frequency:    0.2336168542
  - # 7
    frequency:    0.3882343636
  - # 8
    frequency:    4.9856868029
  - # 9
    frequency:    4.9912698170
  - # 10
    frequency:    6.0200867903
  - # 11
    frequency:    7.7488900546
  - # 12
    frequency:    7.7741771719
  - # 13
    frequency:    7.9587885375
  - # 14
    frequency:    7.9599750086
  - # 15
    frequency:    8.6387006187
  - # 16
    frequency:   11.2953859524
  - # 17
    frequency:   11.6896367259
  - # 18
    frequency:   11.7428291232
  - # 19
    frequency:   18.2275830427
  - # 20
    frequency:   62.7643735165
  - # 21
    frequency:   62.7726910203

- q-position: [    0.0202020,    0.0000000,    0.0000000 ]
  distance:    0.0068344
  band:
  - # 1
    frequency:   -2.9040504643
  - # 2
    frequency:   -2.8958211241
  - # 3
    frequency:   -2.5954688122
  - # 4
    frequency:   -2.5941957335
  - # 5
    frequency:    0.0330968984
  - # 6
    frequency:    0.3115026613
  - # 7
    frequency:    0.5177519988
  - # 8
    frequency:    4.9858462657
  - # 9
    frequency:    4.9957497291
  - # 10
    frequency:    6.0202686406
  - # 11
    frequency:    7.7469670057
  - # 12
    frequency:    7.7912484164
  - # 13
    frequency:    7.9592761170
  - # 14
    frequency:    7.9614981057
  - # 15
    frequency:    8.6395137241
  - # 16
    frequency:   11.2872066055
  - # 17
    frequency:   11.6871182077
  - # 18
    frequency:   11.7810210149
  - # 19
    frequency:   18.2180113354
  - # 20
    frequency:   62.7637681576
  - # 21
    frequency:   62.7720705148

- q-position: [    0.0252525,    0.0000000,    0.0000000 ]
  distance:    0.0085430
  band:
  - # 1
    frequency:   -2.9024600840
  - # 2
    frequency:   -2.8897250087
  - # 3
    frequency:   -2.5962616749
  - # 4
    frequency:   -2.5942251722
  - # 5
    frequency:    0.0515690444
  - # 6
    frequency:    0.3893977570
  - # 7
    frequency:    0.6473460714
  - # 8
    frequency:    4.9860552593
  - # 9
    frequency:    5.0014854937
  - # 10
    frequency:    6.0205150723
  - # 11
    frequency:    7.7445227384
  - # 12
    frequency:    7.8123503690
  - # 13
    frequency:    7.9598851128
  - # 14
    frequency:    7.9636209527
  - # 15
    frequency:    8.6405590354
  - # 16
    frequency:   11.2772868412
  - # 17
    frequency:   11.6838960894
  - # 18
    frequency:   11.8295246771
  - # 19
    frequency:   18.2057317169
  - # 20
    frequency:   62.7629920010
  - # 21
    frequency:   62.7712748902

- q-position: [    0.0303030,    0.0000000,    0.0000000 ]
  distance:    0.0102516
  band:
  - # 1
    frequency:   -2.9005417066
  - # 2
    frequency:   -2.8824137776
  - # 3
    frequency:   -2.5972738953
  - # 4
    frequency:   -2.5942604666
  - # 5
    frequency:    0.0740042036
  - # 6
    frequency:    0.4673016609
  - # 7
    frequency:    0.7770183424
  - # 8
    frequency:    4.9863167249
  - # 9
    frequency:    5.0084591233
  - # 10
    frequency:    6.0208347600
  - # 11
    frequency:    7.7415770449
  - # 12
    frequency:    7.8368015864
  - # 13
    frequency:    7.9606034379
  - # 14
    frequency:    7.9665580959
  - # 15
    frequency:    8.6418369829
  - # 16
    frequency:   11.2658250950
  - # 17
    frequency:   11.6799822769
  - # 18
    frequency:   11.8881169097
  - # 19
    frequency:   18.1907642989
  - # 20
    frequency:   62.7620466592
  - # 21
    frequency:   62.7703057637

- q-position: [    0.0353535,    0.0000000,    0.0000000 ]
  distance:    0.0119602
  band:
  - # 1
    frequency:   -2.8983097566
  - # 2
    frequency:   -2.8739627518
  - # 3
    frequency:   -2.5985281118
  - # 4
    frequency:   -2.5943011905
  - # 5
    frequency:    0.1003170926
  - # 6
    frequency:    0.5452121388
  - # 7
    frequency:    0.9067602844
  - # 8
    frequency:    4.9866342172
  - # 9
    frequency:    5.0166488258
  - # 10
    frequency:    6.0212376007
  - # 11
    frequency:    7.7381527681
  - # 12
    frequency:    7.8636304619
  - # 13
    frequency:    7.9614176178
  - # 14
    frequency:    7.9707563295
  - # 15
    frequency:    8.6433486666
  - # 16
    frequency:   11.2529491503
  - # 17
    frequency:   11.6753912366
  - # 18
    frequency:   11.9566173410
  - # 19
    frequency:   18.1731336262
  - # 20
    frequency:   62.7609340924
  - # 21
    frequency:   62.7691651020

- q-position: [    0.0404040,    0.0000000,    0.0000000 ]
  distance:    0.0136688
  band:
  - # 1
    frequency:   -2.8957805636
  - # 2
    frequency:   -2.8644543446
  - # 3
    frequency:   -2.6000479444
  - # 4
    frequency:   -2.5943468275
  - # 5
    frequency:    0.1304070345
  - # 6
    frequency:    0.6231249602
  - # 7
    frequency:    1.0365521664
  - # 8
    frequency:    4.9870118828
  - # 9
    frequency:    5.0260292044
  - # 10
    frequency:    6.0217344870
  - # 11
    frequency:    7.7342752078
  - # 12
    frequency:    7.8912786094
  - # 13
    frequency:    7.9623133550
  - # 14
    frequency:    7.9772137093
  - # 15
    frequency:    8.6450962071
  - # 16
    frequency:   11.2387318769
  - # 17
    frequency:   11.6701399435
  - # 18
    frequency:   12.0348621909
  - # 19
    frequency:   18.1528686595
  - # 20
    frequency:   62.7596566034
  - # 21
    frequency:   62.7678552159

- q-position: [    0.0454545,    0.0000000,    0.0000000 ]
  distance:    0.0153773
  band:
  - # 1
    frequency:   -2.8929720440
  - # 2
    frequency:   -2.8539759131
  - # 3
    frequency:   -2.6018562241
  - # 4
    frequency:   -2.5943967658
  - # 5
    frequency:    0.1641582688
  - # 6
    frequency:    0.7010337099
  - # 7
    frequency:    1.1663626046
  - # 8
    frequency:    4.9874544354
  - # 9
    frequency:    5.0365715429
  - # 10
    frequency:    6.0223371584
  - # 11
    frequency:    7.7299715612
  - # 12
    frequency:    7.9169800992
  - # 13
    frequency:    7.9632760530
  - # 14
    frequency:    7.9881226954
  - # 15
    frequency:    8.6470831684
  - # 16
    frequency:   11.2232102599
  - # 17
    frequency:   11.6642478211
  - # 18
    frequency:   12.1226752474
  - # 19
    frequency:   18.1300027578
  - # 20
    frequency:   62.7582168298
  - # 21
    frequency:   62.7663787529

- q-position: [    0.0505051,    0.0000000,    0.0000000 ]
  distance:    0.0170859
  band:
  - # 1
    frequency:   -2.8899033622
  - # 2
    frequency:   -2.8426180801
  - # 3
    frequency:   -2.6039727657
  - # 4
    frequency:   -2.5944502918
  - # 5
    frequency:    0.2014404760
  - # 6
    frequency:    0.7789296555
  - # 7
    frequency:    1.2961485443
  - # 8
    frequency:    4.9879671289
  - # 9
    frequency:    5.0482441752
  - # 10
    frequency:    6.0230581425
  - # 11
    frequency:    7.7252704256
  - # 12
    frequency:    7.9368711264
  - # 13
    frequency:    7.9642912723
  - # 14
    frequency:    8.0067814057
  - # 15
    frequency:    8.6493150594
  - # 16
    frequency:   11.2064011626
  - # 17
    frequency:   11.6577366695
  - # 18
    frequency:   12.2198435173
  - # 19
    frequency:   18.1045736654
  - # 20
    frequency:   62.7566177358
  - # 21
    frequency:   62.7647386898

- q-position: [    0.0555556,    0.0000000,    0.0000000 ]
  distance:    0.0187945
  band:
  - # 1
    frequency:   -2.8865945810
  - # 2
    frequency:   -2.8304738378
  - # 3
    frequency:   -2.6064115436
  - # 4
    frequency:   -2.5945065843
  - # 5
    frequency:    0.2421095594
  - # 6
    frequency:    0.8568016740
  - # 7
    frequency:    1.4258556042
  - # 8
    frequency:    4.9885557295
  - # 9
    frequency:    5.0610129320
  - # 10
    frequency:    6.0239107863
  - # 11
    frequency:    7.7202013799
  - # 12
    frequency:    7.9496250569
  - # 13
    frequency:    7.9653451019
  - # 14
    frequency:    8.0339767936
  - # 15
    frequency:    8.6517999239
  - # 16
    frequency:   11.1883123454
  - # 17
    frequency:   11.6506305863
  - # 18
    frequency:   12.3260998181
  - # 19
    frequency:   18.0766235040
  - # 20
    frequency:   62.7548626041
  - # 21
    frequency:   62.7629383238

- q-position: [    0.0606061,    0.0000000,    0.0000000 ]
  distance:    0.0205031
  band:
  - # 1
    frequency:   -2.8830663122
  - # 2
    frequency:   -2.8176388362
  - # 3
    frequency:   -2.6091770125
  - # 4
    frequency:   -2.5945647079
  - # 5
    frequency:    0.2860087172
  - # 6
    frequency:    0.9346362365
  - # 7
    frequency:    1.5554186968
  - # 8
    frequency:    4.9892264874
  - # 9
    frequency:    5.0748416501
  - # 10
    frequency:    6.0249093681
  - # 11
    frequency:    7.7147946478
  - # 12
    frequency:    7.9577627633
  - # 13
    frequency:    7.9664244427
  - # 14
    frequency:    8.0666888896
  - # 15
    frequency:    8.6545490324
  - # 16
    frequency:   11.1689493989
  - # 17
    frequency:   11.6429558755
  - # 18
    frequency:   12.4411122256
  - # 19
    frequency:   18.0461987763
  - # 20
    frequency:   62.7529550245
  - # 21
    frequency:   62.7609812628

- q-position: [    0.0656566,    0.0000000,    0.0000000 ]
  distance:    0.0222117
  band:
  - # 1
    frequency:   -2.8793393756
  - # 2
    frequency:   -2.8042134680
  - # 3
    frequency:   -2.6122590776
  - # 4
    frequency:   -2.5946236077
  - # 5
    frequency:    0.3329698234
  - # 6
    frequency:    1.0124174488
  - # 7
    frequency:    1.6847628238
  - # 8
    frequency:    4.9899861082
  - # 9
    frequency:    5.0896927238
  - # 10
    frequency:    6.0260692796
  - # 11
    frequency:    7.7090808388
  - # 12
    frequency:    7.9637114261
  - # 13
    frequency:    7.9675172068
  - # 14
    frequency:    8.1020423607
  - # 15
    frequency:    8.6575776951
  - # 16
    frequency:   11.1483197574
  - # 17
    frequency:   11.6347409482
  - # 18
    frequency:   12.5644795079
  - # 19
    frequency:   18.0133503853
  - # 20
    frequency:   62.7508988842
  - # 21
    frequency:   62.7588714148

- q-position: [    0.0707071,    0.0000000,    0.0000000 ]
  distance:    0.0239203
  band:
  - # 1
    frequency:   -2.8754344767
  - # 2
    frequency:   -2.7903078141
  - # 3
    frequency:   -2.6156257375
  - # 4
    frequency:   -2.5946821031
  - # 5
    frequency:    0.3828151171
  - # 6
    frequency:    1.0901271449
  - # 7
    frequency:    1.8138039443
  - # 8
    frequency:    4.9908417263
  - # 9
    frequency:    5.1055276807
  - # 10
    frequency:    6.0274072614
  - # 11
    frequency:    7.7030907585
  - # 12
    frequency:    7.9686124406
  - # 13
    frequency:    7.9686725850
  - # 14
    frequency:    8.1384444220
  - # 15
    frequency:    8.6609062226
  - # 16
    frequency:   11.1264348293
  - # 17
    frequency:   11.6260162131
  - # 18
    frequency:   12.6957314942
  - # 19
    frequency:   17.9781336774
  - # 20
    frequency:   62.7486983550
  - # 21
    frequency:   62.7566129765

- q-position: [    0.0757576,    0.0000000,    0.0000000 ]
  distance:    0.0256289
  band:
  - # 1
    frequency:   -2.8713719098
  - # 2
    frequency:   -2.7760514662
  - # 3
    frequency:   -2.6192114388
  - # 4
    frequency:   -2.5947388832
  - # 5
    frequency:    0.4353591753
  - # 6
    frequency:    1.1677450264
  - # 7
    frequency:    1.9424498275
  - # 8
    frequency:    4.9918008792
  - # 9
    frequency:    5.1223077591
  - # 10
    frequency:    6.0289416820
  - # 11
    frequency:    7.6968552754
  - # 12
    frequency:    7.9697003853
  - # 13
    frequency:    7.9731828378
  - # 14
    frequency:    8.1750258818
  - # 15
    frequency:    8.6645610631
  - # 16
    frequency:   11.1033109956
  - # 17
    frequency:   11.6168139574
  - # 18
    frequency:   12.8343333234
  - # 19
    frequency:   17.9406085188
  - # 20
    frequency:   62.7463578815
  - # 21
    frequency:   62.7542104211

- q-position: [    0.0808081,    0.0000000,    0.0000000 ]
  distance:    0.0273375
  band:
  - # 1
    frequency:   -2.8671712926
  - # 2
    frequency:   -2.7616122458
  - # 3
    frequency:   -2.6228971510
  - # 4
    frequency:   -2.5947925027
  - # 5
    frequency:    0.4904111245
  - # 6
    frequency:    1.2452488422
  - # 7
    frequency:    2.0706008117
  - # 8
    frequency:    4.9928714845
  - # 9
    frequency:    5.1399944730
  - # 10
    frequency:    6.0306928489
  - # 11
    frequency:    7.6904052305
  - # 12
    frequency:    7.9707724868
  - # 13
    frequency:    7.9774933531
  - # 14
    frequency:    8.2112596249
  - # 15
    frequency:    8.6685761561
  - # 16
    frequency:   11.0789699724
  - # 17
    frequency:   11.6071682182
  - # 18
    frequency:   12.9796925494
  - # 19
    frequency:   17.9008394193
  - # 20
    frequency:   62.7438821668
  - # 21
    frequency:   62.7516684850

- q-position: [    0.0858586,    0.0000000,    0.0000000 ]
  distance:    0.0290461
  band:
  - # 1
    frequency:   -2.8628513371
  - # 2
    frequency:   -2.7472318607
  - # 3
    frequency:   -2.6264741241
  - # 4
    frequency:   -2.5948413782
  - # 5
    frequency:    0.5477770209
  - # 6
    frequency:    1.3226146007
  - # 7
    frequency:    2.1981504179
  - # 8
    frequency:    4.9940618208
  - # 9
    frequency:    5.1585501468
  - # 10
    frequency:    6.0326833476
  - # 11
    frequency:    7.6837713787
  - # 12
    frequency:    7.9718213671
  - # 13
    frequency:    7.9817288188
  - # 14
    frequency:    8.2467965707
  - # 15
    frequency:    8.6729945351
  - # 16
    frequency:   11.0534388399
  - # 17
    frequency:   11.5971146456
  - # 18
    frequency:   13.1311681227
  - # 19
    frequency:   17.8588957215
  - # 20
    frequency:   62.7412761591
  - # 21
    frequency:   62.7489921545

- q-position: [    0.0909091,    0.0000000,    0.0000000 ]
  distance:    0.0307547
  band:
  - # 1
    frequency:   -2.8584296606
  - # 2
    frequency:   -2.7332933421
  - # 3
    frequency:   -2.6295764605
  - # 4
    frequency:   -2.5948837863
  - # 5
    frequency:    0.6072623134
  - # 6
    frequency:    1.3998168058
  - # 7
    frequency:    2.3249857816
  - # 8
    frequency:    4.9953805113
  - # 9
    frequency:    5.1779384117
  - # 10
    frequency:    6.0349384042
  - # 11
    frequency:    7.6769843495
  - # 12
    frequency:    7.9728407689
  - # 13
    frequency:    7.9859530472
  - # 14
    frequency:    8.2813926388
  - # 15
    frequency:    8.6778702042
  - # 16
    frequency:   11.0267499207
  - # 17
    frequency:   11.5866903559
  - # 18
    frequency:   13.2880803458
  - # 19
    frequency:   17.8148518815
  - # 20
    frequency:   62.7385450365
  - # 21
    frequency:   62.7461866509

- q-position: [    0.0959596,    0.0000000,    0.0000000 ]
  distance:    0.0324633
  band:
  - # 1
    frequency:   -2.8539226360
  - # 2
    frequency:   -2.7204381540
  - # 3
    frequency:   -2.6315645671
  - # 4
    frequency:   -2.5949178628
  - # 5
    frequency:    0.6686742928
  - # 6
    frequency:    1.4768287097
  - # 7
    frequency:    2.4509878901
  - # 8
    frequency:    4.9968365118
  - # 9
    frequency:    5.1981246535
  - # 10
    frequency:    6.0374862738
  - # 11
    frequency:    7.6700746191
  - # 12
    frequency:    7.9738254809
  - # 13
    frequency:    7.9901979925
  - # 14
    frequency:    8.3148707400
  - # 15
    frequency:    8.6832702727
  - # 16
    frequency:   10.9989406104
  - # 17
    frequency:   11.5759337778
  - # 18
    frequency:   13.4497210054
  - # 19
    frequency:   17.7687878765
  - # 20
    frequency:   62.7356941915
  - # 21
    frequency:   62.7432574156

- q-position: [    0.1010101,    0.0000000,    0.0000000 ]
  distance:    0.0341719
  band:
  - # 1
    frequency:   -2.8493452842
  - # 2
    frequency:   -2.7097009465
  - # 3
    frequency:   -2.6313914470
  - # 4
    frequency:   -2.5949416023
  - # 5
    frequency:    0.7318244281
  - # 6
    frequency:    1.5536225732
  - # 7
    frequency:    2.5760316246
  - # 8
    frequency:    4.9984391028
  - # 9
    frequency:    5.2190764058
  - # 10
    frequency:    6.0403586566
  - # 11
    frequency:    7.6630724851
  - # 12
    frequency:    7.9747712532
  - # 13
    frequency:    7.9944776560
  - # 14
    frequency:    8.3470970930
  - # 15
    frequency:    8.6892772454
  - # 16
    frequency:   10.9700532174
  - # 17
    frequency:   11.5648844896
  - # 18
    frequency:   13.6153630176
  - # 19
    frequency:   17.7207897929
  - # 20
    frequency:   62.7327292151
  - # 21
    frequency:   62.7402100946

- q-position: [    0.1060606,    0.0000000,    0.0000000 ]
  distance:    0.0358805
  band:
  - # 1
    frequency:   -2.8447112036
  - # 2
    frequency:   -2.7023940304
  - # 3
    frequency:   -2.6277196735
  - # 4
    frequency:   -2.5949528607
  - # 5
    frequency:    0.7965304967
  - # 6
    frequency:    1.6301699272
  - # 7
    frequency:    2.6999856225
  - # 8
    frequency:    5.0001978869
  - # 9
    frequency:    5.2407636819
  - # 10
    frequency:    6.0435911483
  - # 11
    frequency:    7.6560080399
  - # 12
    frequency:    7.9756747068
  - # 13
    frequency:    7.9987952710
  - # 14
    frequency:    8.3779642814
  - # 15
    frequency:    8.6959912049
  - # 16
    frequency:   10.9401348432
  - # 17
    frequency:   11.5535830504
  - # 18
    frequency:   13.7842690585
  - # 19
    frequency:   17.6709506684
  - # 20
    frequency:   62.7296558801
  - # 21
    frequency:   62.7370505220

- q-position: [    0.1111111,    0.0000000,    0.0000000 ]
  distance:    0.0375891
  band:
  - # 1
    frequency:   -2.8400325375
  - # 2
    frequency:   -2.6993179507
  - # 3
    frequency:   -2.6197125714
  - # 4
    frequency:   -2.5949493578
  - # 5
    frequency:    0.8626184339
  - # 6
    frequency:    1.7064418290
  - # 7
    frequency:    2.8227119820
  - # 8
    frequency:    5.0021227889
  - # 9
    frequency:    5.2631592367
  - # 10
    frequency:    6.0472237328
  - # 11
    frequency:    7.6489111366
  - # 12
    frequency:    7.9765332418
  - # 13
    frequency:    8.0031472863
  - # 14
    frequency:    8.4073784767
  - # 15
    frequency:    8.7035313361
  - # 16
    frequency:   10.9092373213
  - # 17
    frequency:   11.5420708248
  - # 18
    frequency:   13.9556987759
  - # 19
    frequency:   17.6193716998
  - # 20
    frequency:   62.7264801243
  - # 21
    frequency:   62.7337847036

- q-position: [    0.1161616,    0.0000000,    0.0000000 ]
  distance:    0.0392977
  band:
  - # 1
    frequency:   -2.8353199729
  - # 2
    frequency:   -2.7000206733
  - # 3
    frequency:   -2.6077769918
  - # 4
    frequency:   -2.5949286822
  - # 5
    frequency:    0.9299238434
  - # 6
    frequency:    1.7824091064
  - # 7
    frequency:    2.9440658399
  - # 8
    frequency:    5.0042240608
  - # 9
    frequency:    5.2862387473
  - # 10
    frequency:    6.0513013276
  - # 11
    frequency:    7.6418113468
  - # 12
    frequency:    7.9773449480
  - # 13
    frequency:    8.0075257276
  - # 14
    frequency:    8.4352504716
  - # 15
    frequency:    8.7120358294
  - # 16
    frequency:   10.8774172238
  - # 17
    frequency:   11.5303898021
  - # 18
    frequency:   14.1289142582
  - # 19
    frequency:   17.5661639860
  - # 20
    frequency:   62.7232080332
  - # 21
    frequency:   62.7304187997

- q-position: [    0.1212121,    0.0000000,    0.0000000 ]
  distance:    0.0410063
  band:
  - # 1
    frequency:   -2.8305827684
  - # 2
    frequency:   -2.7033444581
  - # 3
    frequency:   -2.5948882973
  - # 4
    frequency:   -2.5930185062
  - # 5
    frequency:    0.9982931404
  - # 6
    frequency:    1.8580425866
  - # 7
    frequency:    3.0638948583
  - # 8
    frequency:    5.0065122901
  - # 9
    frequency:    5.3099808940
  - # 10
    frequency:    6.0558743925
  - # 11
    frequency:    7.6347379065
  - # 12
    frequency:    7.9781085186
  - # 13
    frequency:    8.0119196960
  - # 14
    frequency:    8.4614913540
  - # 15
    frequency:    8.7216587088
  - # 16
    frequency:   10.8447359426
  - # 17
    frequency:   11.5185824112
  - # 18
    frequency:   14.3031834603
  - # 19
    frequency:   17.5114510628
  - # 20
    frequency:   62.7198458218
  - # 21
    frequency:   62.7269591077

- q-position: [    0.1262626,    0.0000000,    0.0000000 ]
  distance:    0.0427149
  band:
  - # 1
    frequency:   -2.8258288068
  - # 2
    frequency:   -2.7082702295
  - # 3
    frequency:   -2.5948255491
  - # 4
    frequency:   -2.5763991144
  - # 5
    frequency:    1.0675843191
  - # 6
    frequency:    1.9333133062
  - # 7
    frequency:    3.1820386661
  - # 8
    frequency:    5.0089984102
  - # 9
    frequency:    5.3343673129
  - # 10
    frequency:    6.0609996177
  - # 11
    frequency:    7.6277196512
  - # 12
    frequency:    7.9788231693
  - # 13
    frequency:    8.0163163867
  - # 14
    frequency:    8.4860142381
  - # 15
    frequency:    8.7325618311
  - # 16
    frequency:   10.8112598543
  - # 17
    frequency:   11.5066913328
  - # 18
    frequency:   14.4777812204
  - # 19
    frequency:   17.4553726401
  - # 20
    frequency:   62.7163998173
  - # 21
    frequency:   62.7234120443

- q-position: [    0.1313131,    0.0000000,    0.0000000 ]
  distance:    0.0444234
  band:
  - # 1
    frequency:   -2.8210646663
  - # 2
    frequency:   -2.7141278533
  - # 3
    frequency:   -2.5947376751
  - # 4
    frequency:   -2.5585289763
  - # 5
    frequency:    1.1376673608
  - # 6
    frequency:    2.0081926981
  - # 7
    frequency:    3.2983283055
  - # 8
    frequency:    5.0116937117
  - # 9
    frequency:    5.3593823817
  - # 10
    frequency:    6.0667407035
  - # 11
    frequency:    7.6207849382
  - # 12
    frequency:    7.9794885636
  - # 13
    frequency:    8.0207018310
  - # 14
    frequency:    8.5087431543
  - # 15
    frequency:    8.7449007258
  - # 16
    frequency:   10.7770605745
  - # 17
    frequency:   11.4947593089
  - # 18
    frequency:   14.6519873015
  - # 19
    frequency:   17.3980902011
  - # 20
    frequency:   62.7128764405
  - # 21
    frequency:   62.7197841278

- q-position: [    0.1363636,    0.0000000,    0.0000000 ]
  distance:    0.0461320
  band:
  - # 1
    frequency:   -2.8162957078
  - # 2
    frequency:   -2.7205000173
  - # 3
    frequency:   -2.5946218152
  - # 4
    frequency:   -2.5397644036
  - # 5
    frequency:    1.2084243147
  - # 6
    frequency:    2.0826527568
  - # 7
    frequency:    3.4125857516
  - # 8
    frequency:    5.0146098553
  - # 9
    frequency:    5.3850127827
  - # 10
    frequency:    6.0731692470
  - # 11
    frequency:    7.6139615584
  - # 12
    frequency:    7.9801047433
  - # 13
    frequency:    8.0250614726
  - # 14
    frequency:    8.5296284629
  - # 15
    frequency:    8.7588047299
  - # 16
    frequency:   10.7422153150
  - # 17
    frequency:   11.4828289524
  - # 18
    frequency:   14.8250804899
  - # 19
    frequency:   17.3397955618
  - # 20
    frequency:   62.7092821875
  - # 21
    frequency:   62.7160819595

- q-position: [    0.1414141,    0.0000000,    0.0000000 ]
  distance:    0.0478406
  band:
  - # 1
    frequency:   -2.8115261731
  - # 2
    frequency:   -2.7271161160
  - # 3
    frequency:   -2.5944750232
  - # 4
    frequency:   -2.5203156633
  - # 5
    frequency:    1.2797490986
  - # 6
    frequency:    2.1566661783
  - # 7
    frequency:    3.5246235862
  - # 8
    frequency:    5.0177588814
  - # 9
    frequency:    5.4112467700
  - # 10
    frequency:    6.0803657465
  - # 11
    frequency:    7.6072766377
  - # 12
    frequency:    7.9806720657
  - # 13
    frequency:    8.0293806405
  - # 14
    frequency:    8.5486650230
  - # 15
    frequency:    8.7743550258
  - # 16
    frequency:   10.7068073551
  - # 17
    frequency:   11.4709425571
  - # 18
    frequency:   14.9963270080
  - # 19
    frequency:   17.2807242754
  - # 20
    frequency:   62.7056236117
  - # 21
    frequency:   62.7123122059

- q-position: [    0.1464646,    0.0000000,    0.0000000 ]
  distance:    0.0495492
  band:
  - # 1
    frequency:   -2.8067592905
  - # 2
    frequency:   -2.7337882060
  - # 3
    frequency:   -2.5942942807
  - # 4
    frequency:   -2.5003124931
  - # 5
    frequency:    1.3515470680
  - # 6
    frequency:    2.2302064773
  - # 7
    frequency:    3.6342449330
  - # 8
    frequency:    5.0211532179
  - # 9
    frequency:    5.4380730509
  - # 10
    frequency:    6.0884207263
  - # 11
    frequency:    7.6007565284
  - # 12
    frequency:    7.9811911465
  - # 13
    frequency:    8.0336449527
  - # 14
    frequency:    8.5659063883
  - # 15
    frequency:    8.7915671667
  - # 16
    frequency:   10.6709266470
  - # 17
    frequency:   11.4591419096
  - # 18
    frequency:   15.1649600503
  - # 19
    frequency:   17.2211772109
  - # 20
    frequency:   62.7019073050
  - # 21
    frequency:   62.7084815801

- q-position: [    0.1515152,    0.0000000,    0.0000000 ]
  distance:    0.0512578
  band:
  - # 1
    frequency:   -2.8019973841
  - # 2
    frequency:   -2.7403767794
  - # 3
    frequency:   -2.5940765109
  - # 4
    frequency:   -2.4798395679
  - # 5
    frequency:    1.4237344095
  - # 6
    frequency:    2.3032480809
  - # 7
    frequency:    3.7412437854
  - # 8
    frequency:    5.0248056819
  - # 9
    frequency:    5.4654791740
  - # 10
    frequency:    6.0974359678
  - # 11
    frequency:    7.5944266946
  - # 12
    frequency:    7.9816628077
  - # 13
    frequency:    8.0378406699
  - # 14
    frequency:    8.5814682893
  - # 15
    frequency:    8.8103846963
  - # 16
    frequency:   10.6346705752
  - # 17
    frequency:   11.4474681050
  - # 18
    frequency:   15.3301444754
  - # 19
    frequency:   17.1615564091
  - # 20
    frequency:   62.6981398800
  - # 21
    frequency:   62.7045968235