nqpoint: 300    
npath: 3      
segment_nqpoint:
- 100
- 100
- 100
labels:
- [ 'G', 'M' ]
- [ 'M', 'K' ]
- [ 'K', 'G' ]
reciprocal_lattice:
- [   0.30954336,   0.17871494,   0.00000000 ] # a*
- [   0.00000000,   0.35742989,   0.00000000 ] # b*
- [   0.00000000,   0.00000000,   0.03936870 ] # c*
natom: 6      
lattice:
- [     3.230565143607972,     0.000000000000000,     0.000000000000000 ] # a
- [    -1.615282571803986,     2.797751482942148,     0.000000000000000 ] # b
- [     0.000000000000000,     0.000000000000000,    25.400886772358263 ] # c
points:
- symbol: Br # 1
  coordinates: [  0.666666984744047,  0.333332985985145,  0.354318338594146 ]
  mass: 79.904000
- symbol: C # 2
  coordinates: [  0.000000000000000,  0.000000000000000,  0.469927887570225 ]
  mass: 12.010700
- symbol: O # 3
  coordinates: [  0.333332985432215,  0.666666983183674,  0.645681661405854 ]
  mass: 15.999400
- symbol: P # 4
  coordinates: [  0.333332985432215,  0.666666983183674,  0.586969133850441 ]
  mass: 30.973762
- symbol: Ti # 5
  coordinates: [  0.333332985432215,  0.666666983183674,  0.426846023038314 ]
  mass: 47.867000
- symbol: Ti # 6
  coordinates: [  0.666666984744047,  0.333332985985145,  0.513941555731822 ]
  mass: 47.867000

phonon:
- q-position: [    0.0000000,    0.0000000,    0.0000000 ]
  distance:    0.0000000
  band:
  - # 1
    frequency:   -4.2422444490
  - # 2
    frequency:   -4.2422444489
  - # 3
    frequency:   -0.0000106820
  - # 4
    frequency:   -0.0000001547
  - # 5
    frequency:    0.0000085297
  - # 6
    frequency:    2.9118547448
  - # 7
    frequency:    2.9118547448
  - # 8
    frequency:    4.7789041446
  - # 9
    frequency:    4.7789041446
  - # 10
    frequency:    4.8247604994
  - # 11
    frequency:    7.0571828373
  - # 12
    frequency:    7.0571828374
  - # 13
    frequency:    8.3434448772
  - # 14
    frequency:   11.1279539331
  - # 15
    frequency:   16.8653289925
  - # 16
    frequency:   17.7169749179
  - # 17
    frequency:   17.7169749179
  - # 18
    frequency:   34.4104229504

- q-position: [    0.0050505,    0.0000000,    0.0000000 ]
  distance:    0.0018052
  band:
  - # 1
    frequency:   -4.2423583959
  - # 2
    frequency:   -4.2421483788
  - # 3
    frequency:    0.0022752680
  - # 4
    frequency:    0.0613278106
  - # 5
    frequency:    0.1053325576
  - # 6
    frequency:    2.9123866829
  - # 7
    frequency:    2.9141420069
  - # 8
    frequency:    4.7661116971
  - # 9
    frequency:    4.7791932010
  - # 10
    frequency:    4.8376456897
  - # 11
    frequency:    7.0568175851
  - # 12
    frequency:    7.0570877958
  - # 13
    frequency:    8.3435708993
  - # 14
    frequency:   11.1274843659
  - # 15
    frequency:   16.8649859382
  - # 16
    frequency:   17.7159634898
  - # 17
    frequency:   17.7164052425
  - # 18
    frequency:   34.4101925609

- q-position: [    0.0101010,    0.0000000,    0.0000000 ]
  distance:    0.0036104
  band:
  - # 1
    frequency:   -4.2426910731
  - # 2
    frequency:   -4.2418607243
  - # 3
    frequency:    0.0090801978
  - # 4
    frequency:    0.1225594592
  - # 5
    frequency:    0.2107120010
  - # 6
    frequency:    2.9139806404
  - # 7
    frequency:    2.9209804902
  - # 8
    frequency:    4.7425579764
  - # 9
    frequency:    4.7800588990
  - # 10
    frequency:    4.8614777106
  - # 11
    frequency:    7.0557246567
  - # 12
    frequency:    7.0568051570
  - # 13
    frequency:    8.3439489113
  - # 14
    frequency:   11.1260754797
  - # 15
    frequency:   16.8639558872
  - # 16
    frequency:   17.7129325890
  - # 17
    frequency:   17.7146966258
  - # 18
    frequency:   34.4095017930

- q-position: [    0.0151515,    0.0000000,    0.0000000 ]
  distance:    0.0054156
  band:
  - # 1
    frequency:   -4.2432152202
  - # 2
    frequency:   -4.2413831414
  - # 3
    frequency:    0.0203532198
  - # 4
    frequency:    0.1836012755
  - # 5
    frequency:    0.3161837637
  - # 6
    frequency:    2.9166310741
  - # 7
    frequency:    2.9323012716
  - # 8
    frequency:    4.7169227347
  - # 9
    frequency:    4.7814968508
  - # 10
    frequency:    4.8875770752
  - # 11
    frequency:    7.0539125279
  - # 12
    frequency:    7.0563423364
  - # 13
    frequency:    8.3445787617
  - # 14
    frequency:   11.1237267284
  - # 15
    frequency:   16.8622361875
  - # 16
    frequency:   17.7078923637
  - # 17
    frequency:   17.7118503071
  - # 18
    frequency:   34.4083518481

- q-position: [    0.0202020,    0.0000000,    0.0000000 ]
  distance:    0.0072208
  band:
  - # 1
    frequency:   -4.2438861632
  - # 2
    frequency:   -4.2407183515
  - # 3
    frequency:    0.0359947587
  - # 4
    frequency:    0.2443644801
  - # 5
    frequency:    0.4217904027
  - # 6
    frequency:    2.9203288361
  - # 7
    frequency:    2.9479926609
  - # 8
    frequency:    4.6908052971
  - # 9
    frequency:    4.7834998285
  - # 10
    frequency:    4.9143450722
  - # 11
    frequency:    7.0513952925
  - # 12
    frequency:    7.0557115550
  - # 13
    frequency:    8.3454602350
  - # 14
    frequency:   11.1204372284
  - # 15
    frequency:   16.8598224610
  - # 16
    frequency:   17.7008597167
  - # 17
    frequency:   17.7078683874
  - # 18
    frequency:   34.4067447250

- q-position: [    0.0252525,    0.0000000,    0.0000000 ]
  distance:    0.0090260
  band:
  - # 1
    frequency:   -4.2446429172
  - # 2
    frequency:   -4.2398700867
  - # 3
    frequency:    0.0558714893
  - # 4
    frequency:    0.3047674143
  - # 5
    frequency:    0.5275702201
  - # 6
    frequency:    2.9250613073
  - # 7
    frequency:    2.9679046192
  - # 8
    frequency:    4.6646487671
  - # 9
    frequency:    4.7860578892
  - # 10
    frequency:    4.9413398235
  - # 11
    frequency:    7.0481926128
  - # 12
    frequency:    7.0549296341
  - # 13
    frequency:    8.3465931044
  - # 14
    frequency:   11.1162057976
  - # 15
    frequency:   16.8567086666
  - # 16
    frequency:   17.6918582888
  - # 17
    frequency:   17.7027538825
  - # 18
    frequency:   34.4046832145

- q-position: [    0.0303030,    0.0000000,    0.0000000 ]
  distance:    0.0108312
  band:
  - # 1
    frequency:   -4.2454096599
  - # 2
    frequency:   -4.2388430210
  - # 3
    frequency:    0.0798216644
  - # 4
    frequency:    0.3647375225
  - # 5
    frequency:    0.6335559549
  - # 6
    frequency:    2.9308125798
  - # 7
    frequency:    2.9918543039
  - # 8
    frequency:    4.6386396354
  - # 9
    frequency:    4.7891585430
  - # 10
    frequency:    4.9683770567
  - # 11
    frequency:    7.0443296474
  - # 12
    frequency:    7.0540177126
  - # 13
    frequency:    8.3479772025
  - # 14
    frequency:   11.1110310092
  - # 15
    frequency:   16.8528871893
  - # 16
    frequency:   17.6809184340
  - # 17
    frequency:   17.6965107965
  - # 18
    frequency:   34.4021708921

- q-position: [    0.0353535,    0.0000000,    0.0000000 ]
  distance:    0.0126364
  band:
  - # 1
    frequency:   -4.2460975112
  - # 2
    frequency:   -4.2376426915
  - # 3
    frequency:    0.1076610369
  - # 4
    frequency:    0.4242130327
  - # 5
    frequency:    0.7397735624
  - # 6
    frequency:    2.9375636820
  - # 7
    frequency:    3.0196322278
  - # 8
    frequency:    4.6128843825
  - # 9
    frequency:    4.7927869592
  - # 10
    frequency:    4.9953540158
  - # 11
    frequency:    7.0398369557
  - # 12
    frequency:    7.0530008904
  - # 13
    frequency:    8.3496125032
  - # 14
    frequency:   11.1049112603
  - # 15
    frequency:   16.8483489545
  - # 16
    frequency:   17.6680771845
  - # 17
    frequency:   17.6891442133
  - # 18
    frequency:   34.3992121088

- q-position: [    0.0404040,    0.0000000,    0.0000000 ]
  distance:    0.0144416
  band:
  - # 1
    frequency:   -4.2466065480
  - # 2
    frequency:   -4.2362754197
  - # 3
    frequency:    0.1391889033
  - # 4
    frequency:    0.4831442929
  - # 5
    frequency:    0.8462410927
  - # 6
    frequency:    2.9452928431
  - # 7
    frequency:    3.0510085269
  - # 8
    frequency:    4.5874588067
  - # 9
    frequency:    4.7969262040
  - # 10
    frequency:    5.0222007986
  - # 11
    frequency:    7.0347503748
  - # 12
    frequency:    7.0519078033
  - # 13
    frequency:    8.3514992126
  - # 14
    frequency:   11.0978448532
  - # 15
    frequency:   16.8430835705
  - # 16
    frequency:   17.6533782034
  - # 17
    frequency:   17.6806604069
  - # 18
    frequency:   34.3958119789

- q-position: [    0.0454545,    0.0000000,    0.0000000 ]
  distance:    0.0162468
  band:
  - # 1
    frequency:   -4.2468279763
  - # 2
    frequency:   -4.2347482379
  - # 3
    frequency:    0.1741938623
  - # 4
    frequency:    0.5414947433
  - # 5
    frequency:    0.9529676769
  - # 6
    frequency:    2.9539757876
  - # 7
    frequency:    3.0857388867
  - # 8
    frequency:    4.5624256490
  - # 9
    frequency:    4.8015575003
  - # 10
    frequency:    5.0488635724
  - # 11
    frequency:    7.0291108679
  - # 12
    frequency:    7.0507701365
  - # 13
    frequency:    8.3536378614
  - # 14
    frequency:   11.0898300895
  - # 15
    frequency:   16.8370794980
  - # 16
    frequency:   17.6368717218
  - # 17
    frequency:   17.6710669672
  - # 18
    frequency:   34.3919763674

- q-position: [    0.0505051,    0.0000000,    0.0000000 ]
  distance:    0.0180520
  band:
  - # 1
    frequency:   -4.2466463856
  - # 2
    frequency:   -4.2330688299
  - # 3
    frequency:    0.2124589857
  - # 4
    frequency:    0.5992415162
  - # 5
    frequency:    1.0599526248
  - # 6
    frequency:    2.9635860544
  - # 7
    frequency:    3.1235697757
  - # 8
    frequency:    4.5378422727
  - # 9
    frequency:    4.8066605044
  - # 10
    frequency:    5.0752979473
  - # 11
    frequency:    7.0229643394
  - # 12
    frequency:    7.0496220833
  - # 13
    frequency:    8.3560293950
  - # 14
    frequency:   11.0808653747
  - # 15
    frequency:   16.8303242507
  - # 16
    frequency:   17.6186144571
  - # 17
    frequency:   17.6603729404
  - # 18
    frequency:   34.3877118737

- q-position: [    0.0555556,    0.0000000,    0.0000000 ]
  distance:    0.0198572
  band:
  - # 1
    frequency:   -4.2459420163
  - # 2
    frequency:   -4.2312454926
  - # 3
    frequency:    0.2537662170
  - # 4
    frequency:    0.6563756768
  - # 5
    frequency:    1.1671846301
  - # 6
    frequency:    2.9740953314
  - # 7
    frequency:    3.1642427316
  - # 8
    frequency:    4.5137647523
  - # 9
    frequency:    4.8122135887
  - # 10
    frequency:    5.1014661985
  - # 11
    frequency:    7.0163614160
  - # 12
    frequency:    7.0484997577
  - # 13
    frequency:    8.3586752540
  - # 14
    frequency:   11.0709493325
  - # 15
    frequency:   16.8228046271
  - # 16
    frequency:   17.5986695066
  - # 17
    frequency:   17.6485889807
  - # 18
    frequency:   34.3830258149

- q-position: [    0.0606061,    0.0000000,    0.0000000 ]
  distance:    0.0216624
  band:
  - # 1
    frequency:   -4.2445929763
  - # 2
    frequency:   -4.2292871236
  - # 3
    frequency:    0.2978999194
  - # 4
    frequency:    0.7129021245
  - # 5
    frequency:    1.2746410792
  - # 6
    frequency:    2.9854737987
  - # 7
    frequency:    3.2074975380
  - # 8
    frequency:    4.4902506188
  - # 9
    frequency:    4.8181941247
  - # 10
    frequency:    5.1273361557
  - # 11
    frequency:    7.0093571898
  - # 12
    frequency:    7.0474405709
  - # 13
    frequency:    8.3615774403
  - # 14
    frequency:   11.0600809277
  - # 15
    frequency:   16.8145069785
  - # 16
    frequency:   17.5771062115
  - # 17
    frequency:   17.6357275123
  - # 18
    frequency:   34.3779262058

- q-position: [    0.0656566,    0.0000000,    0.0000000 ]
  distance:    0.0234676
  band:
  - # 1
    frequency:   -4.2424773580
  - # 2
    frequency:   -4.2272032417
  - # 3
    frequency:    0.3446495814
  - # 4
    frequency:    0.7688391864
  - # 5
    frequency:    1.3822874518
  - # 6
    frequency:    2.9976904719
  - # 7
    frequency:    3.2530741882
  - # 8
    frequency:    4.4673612137
  - # 9
    frequency:    4.8245787590
  - # 10
    frequency:    5.1528809001
  - # 11
    frequency:    7.0020109214
  - # 12
    frequency:    7.0464825826
  - # 13
    frequency:    8.3647385656
  - # 14
    frequency:   11.0482595949
  - # 15
    frequency:   16.8054175169
  - # 16
    frequency:   17.5539999837
  - # 17
    frequency:   17.6218028986
  - # 18
    frequency:   34.3724217388

- q-position: [    0.0707071,    0.0000000,    0.0000000 ]
  distance:    0.0252728
  band:
  - # 1
    frequency:   -4.2394752132
  - # 2
    frequency:   -4.2250040405
  - # 3
    frequency:    0.3938117532
  - # 4
    frequency:    0.8242179388
  - # 5
    frequency:    1.4900768001
  - # 6
    frequency:    3.0107135385
  - # 7
    frequency:    3.3007135524
  - # 8
    frequency:    4.4451641645
  - # 9
    frequency:    4.8313436761
  - # 10
    frequency:    5.1780788908
  - # 11
    frequency:    6.9943857033
  - # 12
    frequency:    7.0456638391
  - # 13
    frequency:    8.3681618748
  - # 14
    frequency:   11.0354853728
  - # 15
    frequency:   16.7955226668
  - # 16
    frequency:   17.5294320863
  - # 17
    frequency:   17.6068316150
  - # 18
    frequency:   34.3665217599

- q-position: [    0.0757576,    0.0000000,    0.0000000 ]
  distance:    0.0270780
  band:
  - # 1
    frequency:   -4.2354703577
  - # 2
    frequency:   -4.2227004794
  - # 3
    frequency:    0.4451913200
  - # 4
    frequency:    0.8790812943
  - # 5
    frequency:    1.5979492927
  - # 6
    frequency:    3.0245106801
  - # 7
    frequency:    3.3501566382
  - # 8
    frequency:    4.4237363622
  - # 9
    frequency:    4.8384648435
  - # 10
    frequency:    5.2029143381
  - # 11
    frequency:    6.9865480804
  - # 12
    frequency:    7.0450217108
  - # 13
    frequency:    8.3718512448
  - # 14
    frequency:   11.0217590408
  - # 15
    frequency:   16.7848094699
  - # 16
    frequency:   17.5034893595
  - # 17
    frequency:   17.5908324242
  - # 18
    frequency:   34.3602362453

- q-position: [    0.0808081,    0.0000000,    0.0000000 ]
  distance:    0.0288832
  band:
  - # 1
    frequency:   -4.2303519877
  - # 2
    frequency:   -4.2203044112
  - # 3
    frequency:    0.4986022373
  - # 4
    frequency:    0.9334828933
  - # 5
    frequency:    1.7058318026
  - # 6
    frequency:    3.0390493756
  - # 7
    frequency:    3.4011422543
  - # 8
    frequency:    4.4031678353
  - # 9
    frequency:    4.8459182353
  - # 10
    frequency:    5.2273777263
  - # 11
    frequency:    6.9785676301
  - # 12
    frequency:    7.0445922458
  - # 13
    frequency:    8.3758111537
  - # 14
    frequency:   11.0070822582
  - # 15
    frequency:   16.7732660471
  - # 16
    frequency:   17.4762638797
  - # 17
    frequency:   17.5738265490
  - # 18
    frequency:   34.3535757746

- q-position: [    0.0858586,    0.0000000,    0.0000000 ]
  distance:    0.0306884
  band:
  - # 1
    frequency:   -4.2240160978
  - # 2
    frequency:   -4.2178287446
  - # 3
    frequency:    0.5538678513
  - # 4
    frequency:    0.9874858349
  - # 5
    frequency:    1.8136375226
  - # 6
    frequency:    3.0542971789
  - # 7
    frequency:    3.4534027315
  - # 8
    frequency:    4.3835670369
  - # 9
    frequency:    4.8536800327
  - # 10
    frequency:    5.2514664264
  - # 11
    frequency:    6.9705165034
  - # 12
    frequency:    7.0444095526
  - # 13
    frequency:    8.3800466204
  - # 14
    frequency:   10.9914577019
  - # 15
    frequency:   16.7608821275
  - # 16
    frequency:   17.4478525394
  - # 17
    frequency:   17.5558378411
  - # 18
    frequency:   34.3465515038

- q-position: [    0.0909091,    0.0000000,    0.0000000 ]
  distance:    0.0324936
  band:
  - # 1
    frequency:   -4.2163666986
  - # 2
    frequency:   -4.2152876411
  - # 3
    frequency:    0.6108209190
  - # 4
    frequency:    1.0411612813
  - # 5
    frequency:    1.9212655815
  - # 6
    frequency:    3.0702219682
  - # 7
    frequency:    3.5066571065
  - # 8
    frequency:    4.3650682830
  - # 9
    frequency:    4.8617268003
  - # 10
    frequency:    5.2751853577
  - # 11
    frequency:    6.9624689280
  - # 12
    frequency:    7.0445052302
  - # 13
    frequency:    8.3845631145
  - # 14
    frequency:   10.9748892038
  - # 15
    frequency:   16.7476496528
  - # 16
    frequency:   17.4183565374
  - # 17
    frequency:   17.5368929420
  - # 18
    frequency:   34.3391751356

- q-position: [    0.0959596,    0.0000000,    0.0000000 ]
  distance:    0.0342988
  band:
  - # 1
    frequency:   -4.2126967432
  - # 2
    frequency:   -4.2073168395
  - # 3
    frequency:    0.6693034260
  - # 4
    frequency:    1.0945869628
  - # 5
    frequency:    2.0286006377
  - # 6
    frequency:    3.0867921648
  - # 7
    frequency:    3.5606007881
  - # 8
    frequency:    4.3478424548
  - # 9
    frequency:    4.8700356377
  - # 10
    frequency:    5.2985476645
  - # 11
    frequency:    6.9545006801
  - # 12
    frequency:    7.0449078603
  - # 13
    frequency:    8.3893664367
  - # 14
    frequency:   10.9573818837
  - # 15
    frequency:   16.7335634644
  - # 16
    frequency:   17.3878807644
  - # 17
    frequency:   17.5170214329
  - # 18
    frequency:   34.3314588897

- q-position: [    0.1010101,    0.0000000,    0.0000000 ]
  distance:    0.0361040
  band:
  - # 1
    frequency:   -4.2100734301
  - # 2
    frequency:   -4.1967894435
  - # 3
    frequency:    0.7291662798
  - # 4
    frequency:    1.1478456119
  - # 5
    frequency:    2.1355124114
  - # 6
    frequency:    3.1039769175
  - # 7
    frequency:    3.6148901505
  - # 8
    frequency:    4.3321126389
  - # 9
    frequency:    4.8785843094
  - # 10
    frequency:    5.3215753781
  - # 11
    frequency:    6.9466885277
  - # 12
    frequency:    7.0456425800
  - # 13
    frequency:    8.3944625737
  - # 14
    frequency:   10.9389422791
  - # 15
    frequency:   16.7186220786
  - # 16
    frequency:   17.3565330756
  - # 17
    frequency:   17.4962559707
  - # 18
    frequency:   34.3234154713

- q-position: [    0.1060606,    0.0000000,    0.0000000 ]
  distance:    0.0379092
  band:
  - # 1
    frequency:   -4.2074370989
  - # 2
    frequency:   -4.1847179674
  - # 3
    frequency:    0.7902689417
  - # 4
    frequency:    1.2010233472
  - # 5
    frequency:    2.2418551119
  - # 6
    frequency:    3.1217462551
  - # 7
    frequency:    3.6691197317
  - # 8
    frequency:    4.3181771488
  - # 9
    frequency:    4.8873513536
  - # 10
    frequency:    5.3443000328
  - # 11
    frequency:    6.9391096539
  - # 12
    frequency:    7.0467307462
  - # 13
    frequency:    8.3998575285
  - # 14
    frequency:   10.9195784683
  - # 15
    frequency:   16.7028285537
  - # 16
    frequency:   17.3244234414
  - # 17
    frequency:   17.4746324069
  - # 18
    frequency:   34.3150580378

- q-position: [    0.1111111,    0.0000000,    0.0000000 ]
  distance:    0.0397144
  band:
  - # 1
    frequency:   -4.2048094670
  - # 2
    frequency:   -4.1710468999
  - # 3
    frequency:    0.8524790398
  - # 4
    frequency:    1.2542080286
  - # 5
    frequency:    2.3474666893
  - # 6
    frequency:    3.1400712047
  - # 7
    frequency:    3.7227889186
  - # 8
    frequency:    4.3064431708
  - # 9
    frequency:    4.8963161741
  - # 10
    frequency:    5.3667632077
  - # 11
    frequency:    6.9318410662
  - # 12
    frequency:    7.0481897076
  - # 13
    frequency:    8.4055571338
  - # 14
    frequency:   10.8993001884
  - # 15
    frequency:   16.6861914443
  - # 16
    frequency:   17.2916629754
  - # 17
    frequency:   17.4521898866
  - # 18
    frequency:   34.3064001659

- q-position: [    0.1161616,    0.0000000,    0.0000000 ]
  distance:    0.0415196
  band:
  - # 1
    frequency:   -4.2022148924
  - # 2
    frequency:   -4.1557321120
  - # 3
    frequency:    0.9156719926
  - # 4
    frequency:    1.3074876034
  - # 5
    frequency:    2.4521678169
  - # 6
    frequency:    3.1589238782
  - # 7
    frequency:    3.7752551035
  - # 8
    frequency:    4.2974742073
  - # 9
    frequency:    4.9054591184
  - # 10
    frequency:    5.3890169589
  - # 11
    frequency:    6.9249590009
  - # 12
    frequency:    7.0500326912
  - # 13
    frequency:    8.4115668510
  - # 14
    frequency:   10.8781189457
  - # 15
    frequency:   16.6687258323
  - # 16
    frequency:   17.2583628457
  - # 17
    frequency:   17.4289709245
  - # 18
    frequency:   34.2974558167

- q-position: [    0.1212121,    0.0000000,    0.0000000 ]
  distance:    0.0433248
  band:
  - # 1
    frequency:   -4.1996807088
  - # 2
    frequency:   -4.1387410745
  - # 3
    frequency:    0.9797306603
  - # 4
    frequency:    1.3609484601
  - # 5
    frequency:    2.5557604558
  - # 6
    frequency:    3.1782775295
  - # 7
    frequency:    3.8256742910
  - # 8
    frequency:    4.2920505288
  - # 9
    frequency:    4.9147615446
  - # 10
    frequency:    5.4111241096
  - # 11
    frequency:    6.9185383311
  - # 12
    frequency:    7.0522688085
  - # 13
    frequency:    8.4178915638
  - # 14
    frequency:   10.8560481195
  - # 15
    frequency:   16.6504544109
  - # 16
    frequency:   17.2246330850
  - # 17
    frequency:   17.4050214560
  - # 18
    frequency:   34.2882393006

- q-position: [    0.1262626,    0.0000000,    0.0000000 ]
  distance:    0.0451300
  band:
  - # 1
    frequency:   -4.1972375702
  - # 2
    frequency:   -4.1200529559
  - # 3
    frequency:    1.0445450293
  - # 4
    frequency:    1.4146738104
  - # 5
    frequency:    2.6580257886
  - # 6
    frequency:    3.1981065819
  - # 7
    frequency:    3.8729458681
  - # 8
    frequency:    4.2912261956
  - # 9
    frequency:    4.9242058832
  - # 10
    frequency:    5.4331583602
  - # 11
    frequency:    6.9126519888
  - # 12
    frequency:    7.0549031821
  - # 13
    frequency:    8.4245353736
  - # 14
    frequency:   10.8331030595
  - # 15
    frequency:   16.6314085869
  - # 16
    frequency:   17.1905813319
  - # 17
    frequency:   17.3803908602
  - # 18
    frequency:   34.2787652412

- q-position: [    0.1313131,    0.0000000,    0.0000000 ]
  distance:    0.0469352
  band:
  - # 1
    frequency:   -4.1949198011
  - # 2
    frequency:   -4.0996586142
  - # 3
    frequency:    1.1100119305
  - # 4
    frequency:    1.4687421165
  - # 5
    frequency:    2.7587212003
  - # 6
    frequency:    3.2183866318
  - # 7
    frequency:    3.9157184676
  - # 8
    frequency:    4.2963260890
  - # 9
    frequency:    4.9337756962
  - # 10
    frequency:    5.4552041749
  - # 11
    frequency:    6.9073704075
  - # 12
    frequency:    7.0579371856
  - # 13
    frequency:    8.4315014036
  - # 14
    frequency:   10.8093011761
  - # 15
    frequency:   16.6116295484
  - # 16
    frequency:   17.1563115475
  - # 17
    frequency:   17.3551319535
  - # 18
    frequency:   34.2690485390

- q-position: [    0.1363636,    0.0000000,    0.0000000 ]
  distance:    0.0487404
  band:
  - # 1
    frequency:   -4.1927657456
  - # 2
    frequency:   -4.0775604922
  - # 3
    frequency:    1.1760347841
  - # 4
    frequency:    1.5232255830
  - # 5
    frequency:    2.8575758373
  - # 6
    frequency:    3.2390944275
  - # 7
    frequency:    3.9525729493
  - # 8
    frequency:    4.3087674638
  - # 9
    frequency:    4.9434557369
  - # 10
    frequency:    5.4773563998
  - # 11
    frequency:    6.9027609972
  - # 12
    frequency:    7.0613687864
  - # 13
    frequency:    8.4387916228
  - # 14
    frequency:   10.7846620257
  - # 15
    frequency:   16.5911692328
  - # 16
    frequency:   17.1219227674
  - # 17
    frequency:   17.3293009518
  - # 18
    frequency:   34.2591043345

- q-position: [    0.1414141,    0.0000000,    0.0000000 ]
  distance:    0.0505456
  band:
  - # 1
    frequency:   -4.1908181096
  - # 2
    frequency:   -4.0537724283
  - # 3
    frequency:    1.2425233602
  - # 4
    frequency:    1.5781887340
  - # 5
    frequency:    2.9542840699
  - # 6
    frequency:    3.2602078272
  - # 7
    frequency:    3.9824787495
  - # 8
    frequency:    4.3296105142
  - # 9
    frequency:    4.9532320153
  - # 10
    frequency:    5.4997195582
  - # 11
    frequency:    6.8988876565
  - # 12
    frequency:    7.0651929717
  - # 13
    frequency:    8.4464066959
  - # 14
    frequency:   10.7592073918
  - # 15
    frequency:   16.5700911154
  - # 16
    frequency:   17.0875079632
  - # 17
    frequency:   17.3029573994
  - # 18
    frequency:   34.2489479713

- q-position: [    0.1464646,    0.0000000,    0.0000000 ]
  distance:    0.0523508
  band:
  - # 1
    frequency:   -4.1891242853
  - # 2
    frequency:   -4.0283193899
  - # 3
    frequency:    1.3093935438
  - # 4
    frequency:    1.6336870942
  - # 5
    frequency:    3.0484959302
  - # 6
    frequency:    3.2817057380
  - # 7
    frequency:    4.0053535091
  - # 8
    frequency:    4.3590090525
  - # 9
    frequency:    4.9630918714
  - # 10
    frequency:    5.5224067623
  - # 11
    frequency:    6.8958103309
  - # 12
    frequency:    7.0694022365
  - # 13
    frequency:    8.4543458708
  - # 14
    frequency:   10.7329613627
  - # 15
    frequency:   16.5484707288
  - # 16
    frequency:   17.0531530970
  - # 17
    frequency:   17.2761640651
  - # 18
    frequency:   34.2385949586

- q-position: [    0.1515152,    0.0000000,    0.0000000 ]
  distance:    0.0541560
  band:
  - # 1
    frequency:   -4.1877366513
  - # 2
    frequency:   -4.0012371351
  - # 3
    frequency:    1.3765670902
  - # 4
    frequency:    1.6897659931
  - # 5
    frequency:    3.1398033440
  - # 6
    frequency:    3.3035680363
  - # 7
    frequency:    4.0222492322
  - # 8
    frequency:    4.3960393175
  - # 9
    frequency:    4.9730240588
  - # 10
    frequency:    5.5455381773
  - # 11
    frequency:    6.8935846201
  - # 12
    frequency:    7.0739871044
  - # 13
    frequency:    8.4626069082
  - # 14
    frequency:   10.7059504080
  - # 15
    frequency:   16.5263958245
  - # 16
    frequency:   17.0189364524
  - # 17
    frequency:   17.2489868028
  - # 18
    frequency:   34.2280609343

- q-position: [    0.1565657,    0.0000000,    0.0000000 ]
  distance:    0.0559612
  band:
  - # 1
    frequency:   -4.1867128320
  - # 2
    frequency:   -3.9725718086
  - # 3
    frequency:    1.4439713563
  - # 4
    frequency:    1.7464595109
  - # 5
    frequency:    3.2277209370
  - # 6
    frequency:    3.3257754710
  - # 7
    frequency:    4.0349695766
  - # 8
    frequency:    4.4391036331
  - # 9
    frequency:    4.9830188419
  - # 10
    frequency:    5.5692389651
  - # 11
    frequency:    6.8922614390
  - # 12
    frequency:    7.0789366506
  - # 13
    frequency:    8.4711860627
  - # 14
    frequency:   10.6782034556
  - # 15
    frequency:   16.5039660921
  - # 16
    frequency:   16.9849283219
  - # 17
    frequency:   17.2214943791
  - # 18
    frequency:   34.2173616278

- q-position: [    0.1616162,    0.0000000,    0.0000000 ]
  distance:    0.0577664
  band:
  - # 1
    frequency:   -4.1861159079
  - # 2
    frequency:   -3.9423794737
  - # 3
    frequency:    1.5115389986
  - # 4
    frequency:    1.8037895822
  - # 5
    frequency:    3.3116609124
  - # 6
    frequency:    3.3483095510
  - # 7
    frequency:    4.0455200599
  - # 8
    frequency:    4.4865077236
  - # 9
    frequency:    4.9930681080
  - # 10
    frequency:    5.5936366451
  - # 11
    frequency:    6.8918867316
  - # 12
    frequency:    7.0842389947
  - # 13
    frequency:    8.4800781185
  - # 14
    frequency:   10.6497519708
  - # 15
    frequency:   16.4812923689
  - # 16
    frequency:   16.9511911142
  - # 17
    frequency:   17.1937582655
  - # 18
    frequency:   34.2065128230

- q-position: [    0.1666667,    0.0000000,    0.0000000 ]
  distance:    0.0595716
  band:
  - # 1
    frequency:   -4.1860145576
  - # 2
    frequency:   -3.9107255813
  - # 3
    frequency:    1.5792076237
  - # 4
    frequency:    1.8617652705
  - # 5
    frequency:    3.3711524148
  - # 6
    frequency:    3.3909043360
  - # 7
    frequency:    4.0557953838
  - # 8
    frequency:    4.5368052329
  - # 9
    frequency:    5.0031654967
  - # 10
    frequency:    5.6188578200
  - # 11
    frequency:    6.8925012387
  - # 12
    frequency:    7.0898817286
  - # 13
    frequency:    8.4892764818
  - # 14
    frequency:   10.6206300379
  - # 15
    frequency:   16.4584952935
  - # 16
    frequency:   16.9177799246
  - # 17
    frequency:   17.1658523985
  - # 18
    frequency:   34.1955303222

- q-position: [    0.1717172,    0.0000000,    0.0000000 ]
  distance:    0.0613768
  band:
  - # 1
    frequency:   -4.1864831186
  - # 2
    frequency:   -3.8776843763
  - # 3
    frequency:    1.6469193859
  - # 4
    frequency:    1.9203822266
  - # 5
    frequency:    3.3942866842
  - # 6
    frequency:    3.4645787160
  - # 7
    frequency:    4.0675241977
  - # 8
    frequency:    4.5888792825
  - # 9
    frequency:    5.0133065456
  - # 10
    frequency:    5.6450242528
  - # 11
    frequency:    6.8941403135
  - # 12
    frequency:    7.0958522501
  - # 13
    frequency:    8.4987733305
  - # 14
    frequency:   10.5908744478
  - # 15
    frequency:   16.4357033857
  - # 16
    frequency:   16.8847435871
  - # 17
    frequency:   17.1378529071
  - # 18
    frequency:   34.1844299102

- q-position: [    0.1767677,    0.0000000,    0.0000000 ]
  distance:    0.0631821
  band:
  - # 1
    frequency:   -4.1876015501
  - # 2
    frequency:   -3.8433382388
  - # 3
    frequency:    1.7146205248
  - # 4
    frequency:    1.9796223351
  - # 5
    frequency:    3.4176952992
  - # 6
    frequency:    3.5316671571
  - # 7
    frequency:    4.0823093624
  - # 8
    frequency:    4.6418977129
  - # 9
    frequency:    5.0234888556
  - # 10
    frequency:    5.6722483366
  - # 11
    frequency:    6.8968337816
  - # 12
    frequency:    7.1021379726
  - # 13
    frequency:    8.5085598165
  - # 14