nqpoint: 300    
npath: 3      
segment_nqpoint:
- 100
- 100
- 100
labels:
- [ 'G', 'M' ]
- [ 'M', 'K' ]
- [ 'K', 'G' ]
reciprocal_lattice:
- [   0.27918861,   0.16118962,   0.00000000 ] # a*
- [   0.00000000,   0.32237924,   0.00000000 ] # b*
- [   0.00000000,   0.00000000,   0.03408846 ] # c*
natom: 9      
lattice:
- [     3.581807994183103,     0.000000000000000,     0.000000000000000 ] # a
- [    -1.790903997091551,     3.101936714428837,     0.000000000000000 ] # b
- [     0.000000000000000,     0.000000000000000,    29.335441019758054 ] # c
points:
- symbol: C # 1
  coordinates: [  0.000000000000000,  0.000000000000000,  0.500000025006629 ]
  mass: 12.010700
- symbol: C # 2
  coordinates: [  0.333332985432215,  0.666666983183674,  0.652616163981302 ]
  mass: 12.010700
- symbol: C # 3
  coordinates: [  0.666666984744047,  0.333332985985145,  0.347383836389167 ]
  mass: 12.010700
- symbol: N # 4
  coordinates: [  0.333332985432215,  0.666666983183674,  0.693203862388218 ]
  mass: 14.006700
- symbol: N # 5
  coordinates: [  0.666666984744047,  0.333332985985145,  0.306796137611782 ]
  mass: 14.006700
- symbol: S # 6
  coordinates: [  0.333332985432215,  0.666666983183674,  0.595519895656861 ]
  mass: 32.065000
- symbol: S # 7
  coordinates: [  0.666666984744047,  0.333332985985145,  0.404480104713608 ]
  mass: 32.065000
- symbol: Sc # 8
  coordinates: [  0.333332985432215,  0.666666983183674,  0.459048793400204 ]
  mass: 44.955912
- symbol: Sc # 9
  coordinates: [  0.666666984744047,  0.333332985985145,  0.540951206599790 ]
  mass: 44.955912

phonon:
- q-position: [    0.0000000,    0.0000000,    0.0000000 ]
  distance:    0.0000000
  band:
  - # 1
    frequency:   -0.3445200554
  - # 2
    frequency:   -0.3445200554
  - # 3
    frequency:   -0.0000018800
  - # 4
    frequency:    0.0000012585
  - # 5
    frequency:    0.0000016387
  - # 6
    frequency:    0.4449783338
  - # 7
    frequency:    0.4449783338
  - # 8
    frequency:    3.1855811455
  - # 9
    frequency:    3.1855811455
  - # 10
    frequency:    4.4591640177
  - # 11
    frequency:    5.3679997560
  - # 12
    frequency:    5.3679997560
  - # 13
    frequency:    6.7381120315
  - # 14
    frequency:    6.7381120315
  - # 15
    frequency:    7.9372207241
  - # 16
    frequency:    8.6122404377
  - # 17
    frequency:    8.6122404377
  - # 18
    frequency:   10.5475515387
  - # 19
    frequency:   10.5475515387
  - # 20
    frequency:   10.6392674427
  - # 21
    frequency:   10.6392674427
  - # 22
    frequency:   11.0820473738
  - # 23
    frequency:   16.3707062563
  - # 24
    frequency:   20.9632254884
  - # 25
    frequency:   20.9715740548
  - # 26
    frequency:   65.0620879181
  - # 27
    frequency:   65.0828793400

- q-position: [    0.0050505,    0.0000000,    0.0000000 ]
  distance:    0.0016282
  band:
  - # 1
    frequency:   -0.3436330196
  - # 2
    frequency:   -0.3373155839
  - # 3
    frequency:   -0.0270048559
  - # 4
    frequency:    0.0272841905
  - # 5
    frequency:    0.0745532039
  - # 6
    frequency:    0.4474898975
  - # 7
    frequency:    0.4499135628
  - # 8
    frequency:    3.1859820613
  - # 9
    frequency:    3.1872388778
  - # 10
    frequency:    4.4578547464
  - # 11
    frequency:    5.3685685266
  - # 12
    frequency:    5.3723958515
  - # 13
    frequency:    6.7377504213
  - # 14
    frequency:    6.7381782561
  - # 15
    frequency:    7.9372799315
  - # 16
    frequency:    8.6131635534
  - # 17
    frequency:    8.6197725325
  - # 18
    frequency:   10.5477163036
  - # 19
    frequency:   10.5481739763
  - # 20
    frequency:   10.6393383565
  - # 21
    frequency:   10.6394969417
  - # 22
    frequency:   11.0815465797
  - # 23
    frequency:   16.3690838259
  - # 24
    frequency:   20.9631734015
  - # 25
    frequency:   20.9715158082
  - # 26
    frequency:   65.0620126242
  - # 27
    frequency:   65.0827800415

- q-position: [    0.0101010,    0.0000000,    0.0000000 ]
  distance:    0.0032564
  band:
  - # 1
    frequency:   -0.3409520787
  - # 2
    frequency:   -0.3155953635
  - # 3
    frequency:   -0.0533236859
  - # 4
    frequency:    0.0546160607
  - # 5
    frequency:    0.1495841427
  - # 6
    frequency:    0.4549441800
  - # 7
    frequency:    0.4648215445
  - # 8
    frequency:    3.1871831783
  - # 9
    frequency:    3.1921966810
  - # 10
    frequency:    4.4540026136
  - # 11
    frequency:    5.3702710946
  - # 12
    frequency:    5.3854078613
  - # 13
    frequency:    6.7366742208
  - # 14
    frequency:    6.7383737464
  - # 15
    frequency:    7.9374573340
  - # 16
    frequency:    8.6159239925
  - # 17
    frequency:    8.6423048530
  - # 18
    frequency:   10.5482095041
  - # 19
    frequency:   10.5500547759
  - # 20
    frequency:   10.6395516969
  - # 21
    frequency:   10.6401869216
  - # 22
    frequency:   11.0800574388
  - # 23
    frequency:   16.3642203891
  - # 24
    frequency:   20.9630172568
  - # 25
    frequency:   20.9713411729
  - # 26
    frequency:   65.0617868705
  - # 27
    frequency:   65.0824823882

- q-position: [    0.0151515,    0.0000000,    0.0000000 ]
  distance:    0.0048845
  band:
  - # 1
    frequency:   -0.3364169938
  - # 2
    frequency:   -0.2785602224
  - # 3
    frequency:   -0.0783128278
  - # 4
    frequency:    0.0820279121
  - # 5
    frequency:    0.2247501135
  - # 6
    frequency:    0.4671157358
  - # 7
    frequency:    0.4901387949
  - # 8
    frequency:    3.1891796236
  - # 9
    frequency:    3.2004088696
  - # 10
    frequency:    4.4478185582
  - # 11
    frequency:    5.3730962911
  - # 12
    frequency:    5.4065315096
  - # 13
    frequency:    6.7349084321
  - # 14
    frequency:    6.7386889595
  - # 15
    frequency:    7.9377526816
  - # 16
    frequency:    8.6204951233
  - # 17
    frequency:    8.6796405887
  - # 18
    frequency:   10.5490278008
  - # 19
    frequency:   10.5532349895
  - # 20
    frequency:   10.6399093212
  - # 21
    frequency:   10.6413422851
  - # 22
    frequency:   11.0776209660
  - # 23
    frequency:   16.3561274958
  - # 24
    frequency:   20.9627574009
  - # 25
    frequency:   20.9710504625
  - # 26
    frequency:   65.0614110412
  - # 27
    frequency:   65.0819871065

- q-position: [    0.0202020,    0.0000000,    0.0000000 ]
  distance:    0.0065127
  band:
  - # 1
    frequency:   -0.3299245949
  - # 2
    frequency:   -0.2224024074
  - # 3
    frequency:   -0.1013629257
  - # 4
    frequency:    0.1095261850
  - # 5
    frequency:    0.2982072219
  - # 6
    frequency:    0.4836750357
  - # 7
    frequency:    0.5268833860
  - # 8
    frequency:    3.1919633317
  - # 9
    frequency:    3.2118009149
  - # 10
    frequency:    4.4396073782
  - # 11
    frequency:    5.3770257102
  - # 12
    frequency:    5.4350001558
  - # 13
    frequency:    6.7324919672
  - # 14
    frequency:    6.7391080176
  - # 15
    frequency:    7.9381666886
  - # 16
    frequency:    8.6268328659
  - # 17
    frequency:    8.7314356284
  - # 18
    frequency:   10.5501654401
  - # 19
    frequency:   10.5577848480
  - # 20
    frequency:   10.6404145228
  - # 21
    frequency:   10.6429729105
  - # 22
    frequency:   11.0743101006
  - # 23
    frequency:   16.3448243520
  - # 24
    frequency:   20.9623944099
  - # 25
    frequency:   20.9706441992
  - # 26
    frequency:   65.0608857753
  - # 27
    frequency:   65.0812954030

- q-position: [    0.0252525,    0.0000000,    0.0000000 ]
  distance:    0.0081409
  band:
  - # 1
    frequency:   -0.3213234306
  - # 2
    frequency:   -0.1298944226
  - # 3
    frequency:   -0.1200088287
  - # 4
    frequency:    0.1370883168
  - # 5
    frequency:    0.3668918581
  - # 6
    frequency:    0.5042395559
  - # 7
    frequency:    0.5764683853
  - # 8
    frequency:    3.1955231281
  - # 9
    frequency:    3.2262717429
  - # 10
    frequency:    4.4297171119
  - # 11
    frequency:    5.3820340128
  - # 12
    frequency:    5.4698722884
  - # 13
    frequency:    6.7294741549
  - # 14
    frequency:    6.7396087470
  - # 15
    frequency:    7.9387021044
  - # 16
    frequency:    8.6348761487
  - # 17
    frequency:    8.7971752238
  - # 18
    frequency:   10.5516139677
  - # 19
    frequency:   10.5638057376
  - # 20
    frequency:   10.6410723346
  - # 21
    frequency:   10.6450970167
  - # 22
    frequency:   11.0702376298
  - # 23
    frequency:   16.3303377540
  - # 24
    frequency:   20.9619290853
  - # 25
    frequency:   20.9701231122
  - # 26
    frequency:   65.0602119640
  - # 27
    frequency:   65.0804089588

- q-position: [    0.0303030,    0.0000000,    0.0000000 ]
  distance:    0.0097691
  band:
  - # 1
    frequency:   -0.3104034834
  - # 2
    frequency:   -0.1397599490
  - # 3
    frequency:    0.1454817239
  - # 4
    frequency:    0.1646662682
  - # 5
    frequency:    0.4284559983
  - # 6
    frequency:    0.5284199575
  - # 7
    frequency:    0.6393700187
  - # 8
    frequency:    3.1998448443
  - # 9
    frequency:    3.2436967208
  - # 10
    frequency:    4.4184948098
  - # 11
    frequency:    5.3880893382
  - # 12
    frequency:    5.5101206094
  - # 13
    frequency:    6.7259109153
  - # 14
    frequency:    6.7401627316
  - # 15
    frequency:    7.9393644373
  - # 16
    frequency:    8.6445475410
  - # 17
    frequency:    8.8761422032
  - # 18
    frequency:   10.5533618204
  - # 19
    frequency:   10.5714306508
  - # 20
    frequency:   10.6418899586
  - # 21
    frequency:   10.6477480912
  - # 22
    frequency:   11.0655697632
  - # 23
    frequency:   16.3127019982
  - # 24
    frequency:   20.9613624503
  - # 25
    frequency:   20.9694881365
  - # 26
    frequency:   65.0593907484
  - # 27
    frequency:   65.0793299221

- q-position: [    0.0353535,    0.0000000,    0.0000000 ]
  distance:    0.0113972
  band:
  - # 1
    frequency:   -0.2968769521
  - # 2
    frequency:   -0.1535503729
  - # 3
    frequency:    0.1921941029
  - # 4
    frequency:    0.2510639983
  - # 5
    frequency:    0.4831786062
  - # 6
    frequency:    0.5558525580
  - # 7
    frequency:    0.7137405507
  - # 8
    frequency:    3.2049114605
  - # 9
    frequency:    3.2639311279
  - # 10
    frequency:    4.4062571599
  - # 11
    frequency:    5.3951538055
  - # 12
    frequency:    5.5547088474
  - # 13
    frequency:    6.7218612522
  - # 14
    frequency:    6.7407353788
  - # 15
    frequency:    7.9401621932
  - # 16
    frequency:    8.6557540562
  - # 17
    frequency:    8.9673763425
  - # 18
    frequency:   10.5553937930
  - # 19
    frequency:   10.5808179735
  - # 20
    frequency:   10.6428773270
  - # 21
    frequency:   10.6509896963
  - # 22
    frequency:   11.0605488805
  - # 23
    frequency:   16.2919587658
  - # 24
    frequency:   20.9606957434
  - # 25
    frequency:   20.9687404109
  - # 26
    frequency:   65.0584235153
  - # 27
    frequency:   65.0780608978

- q-position: [    0.0404040,    0.0000000,    0.0000000 ]
  distance:    0.0130254
  band:
  - # 1
    frequency:   -0.2803422200
  - # 2
    frequency:   -0.1628463348
  - # 3
    frequency:    0.2195967419
  - # 4
    frequency:    0.3307020204
  - # 5
    frequency:    0.5332282091
  - # 6
    frequency:    0.5862164635
  - # 7
    frequency:    0.7962812481
  - # 8
    frequency:    3.2107032755
  - # 9
    frequency:    3.2868138915
  - # 10
    frequency:    4.3932767254
  - # 11
    frequency:    5.4031840909
  - # 12
    frequency:    5.6026502970
  - # 13
    frequency:    6.7173845253
  - # 14
    frequency:    6.7412859960
  - # 15
    frequency:    7.9411067207
  - # 16
    frequency:    8.6683881160
  - # 17
    frequency:    9.0696232310
  - # 18
    frequency:   10.5576903861
  - # 19
    frequency:   10.5921245163
  - # 20
    frequency:   10.6440477892
  - # 21
    frequency:   10.6549494633
  - # 22
    frequency:   11.0555320177
  - # 23
    frequency:   16.2681569852
  - # 24
    frequency:   20.9599304121
  - # 25
    frequency:   20.9678812751
  - # 26
    frequency:   65.0573118927
  - # 27
    frequency:   65.0766049351

- q-position: [    0.0454545,    0.0000000,    0.0000000 ]
  distance:    0.0146536
  band:
  - # 1
    frequency:   -0.2602139246
  - # 2
    frequency:   -0.1665632445
  - # 3
    frequency:    0.2467978338
  - # 4
    frequency:    0.4002613941
  - # 5
    frequency:    0.5807506656
  - # 6
    frequency:    0.6192382989
  - # 7
    frequency:    0.8840688451
  - # 8
    frequency:    3.2171980987
  - # 9
    frequency:    3.3121713691
  - # 10
    frequency:    4.3797800218
  - # 11
    frequency:    5.4121320595
  - # 12
    frequency:    5.6530475678
  - # 13
    frequency:    6.7125387181
  - # 14
    frequency:    6.7417678754
  - # 15
    frequency:    7.9422118397
  - # 16
    frequency:    8.6823286678
  - # 17
    frequency:    9.1812696558
  - # 18
    frequency:   10.5602270520
  - # 19
    frequency:   10.6054183977
  - # 20
    frequency:   10.6454189049
  - # 21
    frequency:   10.6599039317
  - # 22
    frequency:   11.0510574225
  - # 23
    frequency:   16.2413526725
  - # 24
    frequency:   20.9590681046
  - # 25
    frequency:   20.9669122674
  - # 26
    frequency:   65.0560577446
  - # 27
    frequency:   65.0749655140

- q-position: [    0.0505051,    0.0000000,    0.0000000 ]
  distance:    0.0162818
  band:
  - # 1
    frequency:   -0.2355766516
  - # 2
    frequency:   -0.1631618770
  - # 3
    frequency:    0.2737257309
  - # 4
    frequency:    0.4642994378
  - # 5
    frequency:    0.6271223171
  - # 6
    frequency:    0.6546889770
  - # 7
    frequency:    0.9751850836
  - # 8
    frequency:    3.2243714618
  - # 9
    frequency:    3.3398209854
  - # 10
    frequency:    4.3659525592
  - # 11
    frequency:    5.4219454320
  - # 12
    frequency:    5.7051156539
  - # 13
    frequency:    6.7073797086
  - # 14
    frequency:    6.7421283844
  - # 15
    frequency:    7.9434933997
  - # 16
    frequency:    8.6974424429
  - # 17
    frequency:    9.3002625197
  - # 18
    frequency:   10.5629733895
  - # 19
    frequency:   10.6204253065
  - # 20
    frequency:   10.6470132950
  - # 21
    frequency:   10.6665013721
  - # 22
    frequency:   11.0479623392
  - # 23
    frequency:   16.2116087543
  - # 24
    frequency:   20.9581106611
  - # 25
    frequency:   20.9658351208
  - # 26
    frequency:   65.0546631648
  - # 27
    frequency:   65.0731465286

- q-position: [    0.0555556,    0.0000000,    0.0000000 ]
  distance:    0.0179100
  band:
  - # 1
    frequency:   -0.2048353599
  - # 2
    frequency:   -0.1500580346
  - # 3
    frequency:    0.3003173624
  - # 4
    frequency:    0.5248036299
  - # 5
    frequency:    0.6730776972
  - # 6
    frequency:    0.6923765065
  - # 7
    frequency:    1.0685025284
  - # 8
    frequency:    3.2321968452
  - # 9
    frequency:    3.3695745668
  - # 10
    frequency:    4.3519468465
  - # 11
    frequency:    5.4325684683
  - # 12
    frequency:    5.7581912975
  - # 13
    frequency:    6.7019614134
  - # 14
    frequency:    6.7423090594
  - # 15
    frequency:    7.9449688513
  - # 16
    frequency:    8.7135853421
  - # 17
    frequency:    9.4240132479
  - # 18
    frequency:   10.5658923796
  - # 19
    frequency:   10.6359316968
  - # 20
    frequency:   10.6488594550
  - # 21
    frequency:   10.6762552376
  - # 22
    frequency:   11.0475937577
  - # 23
    frequency:   16.1789948728
  - # 24
    frequency:   20.9570601039
  - # 25
    frequency:   20.9646517589
  - # 26
    frequency:   65.0531304701
  - # 27
    frequency:   65.0711522698

- q-position: [    0.0606061,    0.0000000,    0.0000000 ]
  distance:    0.0195381
  band:
  - # 1
    frequency:   -0.1646620843
  - # 2
    frequency:   -0.1216406220
  - # 3
    frequency:    0.3265202409
  - # 4
    frequency:    0.5828168454
  - # 5
    frequency:    0.7189708169
  - # 6
    frequency:    0.7321376710
  - # 7
    frequency:    1.1633683934
  - # 8
    frequency:    3.2406459169
  - # 9
    frequency:    3.4012412663
  - # 10
    frequency:    4.3378907973
  - # 11
    frequency:    5.4439426460
  - # 12
    frequency:    5.8117317417
  - # 13
    frequency:    6.6963366221
  - # 14
    frequency:    6.7422457010
  - # 15
    frequency:    7.9466568674
  - # 16
    frequency:    8.7306039361
  - # 17
    frequency:    9.5493074121
  - # 18
    frequency:   10.5689398234
  - # 19
    frequency:   10.6494629873
  - # 20
    frequency:   10.6509923724
  - # 21
    frequency:   10.6916063308
  - # 22
    frequency:   11.0521752275
  - # 23
    frequency:   16.1435871802
  - # 24
    frequency:   20.9559186264
  - # 25
    frequency:   20.9633642920
  - # 26
    frequency:   65.0514621929
  - # 27
    frequency:   65.0689874049

- q-position: [    0.0656566,    0.0000000,    0.0000000 ]
  distance:    0.0211663
  band:
  - # 1
    frequency:   -0.1048368079
  - # 2
    frequency:   -0.0532799305
  - # 3
    frequency:    0.3522930107
  - # 4
    frequency:    0.6389517383
  - # 5
    frequency:    0.7649530882
  - # 6
    frequency:    0.7738302436
  - # 7
    frequency:    1.2593925484
  - # 8
    frequency:    3.2496887777
  - # 9
    frequency:    3.4346300129
  - # 10
    frequency:    4.3238952397
  - # 11
    frequency:    5.4560073192
  - # 12
    frequency:    5.8653058404
  - # 13
    frequency:    6.6905583546
  - # 14
    frequency:    6.7418684665
  - # 15
    frequency:    7.9485770173
  - # 16
    frequency:    8.7483370630
  - # 17
    frequency:    9.6722813910
  - # 18
    frequency:   10.5720642218
  - # 19
    frequency:   10.6534537042
  - # 20
    frequency:   10.6596050616
  - # 21
    frequency:   10.7130869696
  - # 22
    frequency:   11.0653646920
  - # 23
    frequency:   16.1054681236
  - # 24
    frequency:   20.9546885817
  - # 25
    frequency:   20.9619750116
  - # 26
    frequency:   65.0496610731
  - # 27
    frequency:   65.0666569573

- q-position: [    0.0707071,    0.0000000,    0.0000000 ]
  distance:    0.0227945
  band:
  - # 1
    frequency:    0.0798667065
  - # 2
    frequency:    0.1181237581
  - # 3
    frequency:    0.3776049686
  - # 4
    frequency:    0.6935981112
  - # 5
    frequency:    0.8110721082
  - # 6
    frequency:    0.8173265133
  - # 7
    frequency:    1.3563270397
  - # 8
    frequency:    3.2592942105
  - # 9
    frequency:    3.4695514584
  - # 10
    frequency:    4.3100600863
  - # 11
    frequency:    5.4687003399
  - # 12
    frequency:    5.9185802155
  - # 13
    frequency:    6.6846816265
  - # 14
    frequency:    6.7411019610
  - # 15
    frequency:    7.9507494895
  - # 16
    frequency:    8.7666175092
  - # 17
    frequency:    9.7885940504
  - # 18
    frequency:   10.5752074058
  - # 19
    frequency:   10.6562912089
  - # 20
    frequency:   10.6674191388
  - # 21
    frequency:   10.7372538585
  - # 22
    frequency:   11.0927566852
  - # 23
    frequency:   16.0647262295
  - # 24
    frequency:   20.9533724705
  - # 25
    frequency:   20.9604863851
  - # 26
    frequency:   65.0477300494
  - # 27
    frequency:   65.0641662834

- q-position: [    0.0757576,    0.0000000,    0.0000000 ]
  distance:    0.0244227
  band:
  - # 1
    frequency:    0.1579794858
  - # 2
    frequency:    0.1901235822
  - # 3
    frequency:    0.4024349392
  - # 4
    frequency:    0.7470194134
  - # 5
    frequency:    0.8573236971
  - # 6
    frequency:    0.8625083271
  - # 7
    frequency:    1.4539996550
  - # 8
    frequency:    3.2694299284
  - # 9
    frequency:    3.5058194249
  - # 10
    frequency:    4.2964791975
  - # 11
    frequency:    5.4819586292
  - # 12
    frequency:    5.9713027222
  - # 13
    frequency:    6.6787655981
  - # 14
    frequency:    6.7398653232
  - # 15
    frequency:    7.9531948544
  - # 16
    frequency:    8.7852737539
  - # 17
    frequency:    9.8939510415
  - # 18
    frequency:   10.5783062336
  - # 19
    frequency:   10.6595571121
  - # 20
    frequency:   10.6741283284
  - # 21
    frequency:   10.7590620676
  - # 22
    frequency:   11.1413187706
  - # 23
    frequency:   16.0214558937
  - # 24
    frequency:   20.9519729284
  - # 25
    frequency:   20.9589010498
  - # 26
    frequency:   65.0456722502
  - # 27
    frequency:   65.0615210489

- q-position: [    0.0808081,    0.0000000,    0.0000000 ]
  distance:    0.0260508
  band:
  - # 1
    frequency:    0.2114350372
  - # 2
    frequency:    0.2535227894
  - # 3
    frequency:    0.4267698130
  - # 4
    frequency:    0.7994022227
  - # 5
    frequency:    0.9036791778
  - # 6
    frequency:    0.9092635327
  - # 7
    frequency:    1.5522766623
  - # 8
    frequency:    3.2800628191
  - # 9
    frequency:    3.5432518672
  - # 10
    frequency:    4.2832442010
  - # 11
    frequency:    5.4957186877
  - # 12
    frequency:    6.0232849138
  - # 13
    frequency:    6.6728761933
  - # 14
    frequency:    6.7380723086
  - # 15
    frequency:    7.9559338612
  - # 16
    frequency:    8.8041317624
  - # 17
    frequency:    9.9849790666
  - # 18
    frequency:   10.5812955512
  - # 19
    frequency:   10.6633052116
  - # 20
    frequency:   10.6803116591
  - # 21
    frequency:   10.7745089712
  - # 22
    frequency:   11.2166988097
  - # 23
    frequency:   15.9757571882
  - # 24
    frequency:   20.9504927123
  - # 25
    frequency:   20.9572218062
  - # 26
    frequency:   65.0434909837
  - # 27
    frequency:   65.0587272039

- q-position: [    0.0858586,    0.0000000,    0.0000000 ]
  distance:    0.0276790
  band:
  - # 1
    frequency:    0.2560796242
  - # 2
    frequency:    0.3143625964
  - # 3
    frequency:    0.4506029780
  - # 4
    frequency:    0.8508835244
  - # 5
    frequency:    0.9500998298
  - # 6
    frequency:    0.9574835704
  - # 7
    frequency:    1.6510411207
  - # 8
    frequency:    3.2911591812
  - # 9
    frequency:    3.5816713655
  - # 10
    frequency:    4.2704476116
  - # 11
    frequency:    5.5099170335
  - # 12
    frequency:    6.0743845390
  - # 13
    frequency:    6.6670894227
  - # 14
    frequency:    6.7356313706
  - # 15
    frequency:    7.9589872654
  - # 16
    frequency:    8.8230168080
  - # 17
    frequency:   10.0600528140
  - # 18
    frequency:   10.5841123062
  - # 19
    frequency:   10.6675868286
  - # 20
    frequency:   10.6861654905
  - # 21
    frequency:   10.7825079477
  - # 22
    frequency:   11.3202796897
  - # 23
    frequency:   15.9277356991
  - # 24
    frequency:   20.9489346872
  - # 25
    frequency:   20.9554516109
  - # 26
    frequency:   65.0411897281
  - # 27
    frequency:   65.0557909566

- q-position: [    0.0909091,    0.0000000,    0.0000000 ]
  distance:    0.0293072
  band:
  - # 1
    frequency:    0.2958510705
  - # 2
    frequency:    0.3744890743
  - # 3
    frequency:    0.4739328055
  - # 4
    frequency:    0.9015666651
  - # 5
    frequency:    0.9965446608
  - # 6
    frequency:    1.0070619293
  - # 7
    frequency:    1.7501796166
  - # 8
    frequency:    3.3026849502
  - # 9
    frequency:    3.6209051463
  - # 10
    frequency:    4.2581856122
  - # 11
    frequency:    5.5244905616
  - # 12
    frequency:    6.1244883912
  - # 13
    frequency:    6.6614958676
  - # 14
    frequency:    6.7324457443
  - # 15
    frequency:    7.9623756856
  - # 16
    frequency:    8.8417553064
  - # 17
    frequency:   10.1194803313
  - # 18
    frequency:   10.5867002731
  - # 19
    frequency:   10.6724461475
  - # 20
    frequency:   10.6916876139
  - # 21
    frequency:   10.7844550919
  - # 22
    frequency:   11.4492567165
  - # 23
    frequency:   15.8775024150
  - # 24
    frequency:   20.9473018115
  - # 25
    frequency:   20.9535935694
  - # 26
    frequency:   65.0387721209
  - # 27
    frequency:   65.0527187471

- q-position: [    0.0959596,    0.0000000,    0.0000000 ]
  distance:    0.0309354
  band:
  - # 1
    frequency:    0.3324318332
  - # 2
    frequency:    0.4346550464
  - # 3
    frequency:    0.4967612904
  - # 4
    frequency:    0.9515311821
  - # 5
    frequency:    1.0429746516
  - # 6
    frequency:    1.0578932129
  - # 7
    frequency:    1.8495736300
  - # 8
    frequency:    3.3146059100
  - # 9
    frequency:    3.6607845852
  - # 10
    frequency:    4.2465608660
  - # 11
    frequency:    5.5393768171
  - # 12
    frequency:    6.1734950648
  - # 13
    frequency:    6.6562071410
  - # 14
    frequency:    6.7284135389
  - # 15
    frequency:    7.9661194889
  - # 16
    frequency:    8.8601766448
  - # 17
    frequency:   10.1649181993
  - # 18
    frequency:   10.5890144564
  - # 19
    frequency:   10.6779158756
  - # 20
    frequency:   10.6967392346
  - # 21
    frequency:   10.7825617476
  - # 22
    frequency:   11.5988382196
  - # 23
    frequency:   15.8251736952
  - # 24
    frequency:   20.9455971235
  - # 25
    frequency:   20.9516509274
  - # 26
    frequency:   65.0362419478
  - # 27
    frequency:   65.0495172198

- q-position: [    0.1010101,    0.0000000,    0.0000000 ]
  distance:    0.0325636
  band:
  - # 1
    frequency:    0.3667120819
  - # 2
    frequency:    0.4951948315
  - # 3
    frequency:    0.5190929000
  - # 4
    frequency:    1.0008391617
  - # 5
    frequency:    1.0893551268
  - # 6
    frequency:    1.1098726097
  - # 7
    frequency:    1.9490934546
  - # 8
    frequency:    3.3268878887
  - # 9
    frequency:    3.7011440726
  - # 10
    frequency:    4.2356857576
  - # 11
    frequency:    5.5545141735
  - # 12
    frequency:    6.2212962464
  - # 13
    frequency:    6.6513657580
  - # 14
    frequency:    6.7234278497
  - # 15
    frequency:    7.9702387066
  - # 16
    frequency:    8.8781149875
  - # 17
    frequency:   10.1985110646
  - # 18
    frequency:   10.5910241665
  - # 19
    frequency:   10.6840142259
  - # 20
    frequency:   10.7010566842
  - # 21
    frequency:   10.7789064670
  - # 22
    frequency:   11.7640495386
  - # 23
    frequency:   15.7708713571
  - # 24
    frequency:   20.9438237268
  - # 25
    frequency:   20.9496270627
  - # 26
    frequency:   65.0336031323
  - # 27
    frequency:   65.0461931955

- q-position: [    0.1060606,    0.0000000,    0.0000000 ]
  distance:    0.0341917
  band:
  - # 1
    frequency:    0.3992231019
  - # 2
    frequency:    0.5409336529
  - # 3
    frequency:    0.5562482901
  - # 4
    frequency:    1.0495395442
  - # 5
    frequency:    1.1356571415
  - # 6
    frequency:    1.1628956200
  - # 7
    frequency:    2.0485934872
  - # 8
    frequency:    3.3394969365
  - # 9
    frequency:    3.7418189890
  - # 10
    frequency:    4.2256865546
  - # 11
    frequency:    5.5698419105
  - # 12
    frequency:    6.2677538807
  - # 13
    frequency:    6.6471609464
  - # 14
    frequency:    6.7173769040
  - # 15
    frequency:    7.9747529804
  - # 16
    frequency:    8.8954110417
  - # 17
    frequency:   10.2222661039
  - # 18
    frequency:   10.5927141213
  - # 19
    frequency:   10.6907438696
  - # 20
    frequency:   10.7042743131
  - # 21
    frequency:   10.7752367154
  - # 22
    frequency:   11.9405383736
  - # 23
    frequency:   15.7147229432
  - # 24
    frequency:   20.9419847755
  - # 25
    frequency:   20.9475254762
  - # 26
    frequency:   65.0308597235
  - # 27
    frequency:   65.0427536436

- q-position: [    0.1111111,    0.0000000,    0.0000000 ]
  distance:    0.0358199
  band:
  - # 1
    frequency:    0.4303075125
  - # 2
    frequency:    0.5622904332
  - # 3
    frequency:    0.6178531845
  - # 4
    frequency:    1.0976711595
  - # 5
    frequency:    1.1818583878
  - # 6
    frequency:    1.2168579355
  - # 7
    frequency:    2.1479081720
  - # 8
    frequency:    3.3523994819
  - # 9
    frequency:    3.7826423053
  - # 10
    frequency:    4.2167091792
  - # 11
    frequency:    5.5853001780
  - # 12
    frequency:    6.3126685465
  - # 13
    frequency:    6.6438548200
  - # 14
    frequency:    6.7101442608
  - # 15
    frequency:    7.9796815402
  - # 16
    frequency:    8.9119137665
  - # 17
    frequency:   10.2377903731
  - # 18
    frequency:   10.5940835673
  - # 19
    frequency:   10.6980928611
  - # 20
    frequency:   10.7060448209
  - # 21
    frequency:   10.7729296307
  - # 22
    frequency:   12.1247583347
  - # 23
    frequency:   15.6568622622
  - # 24
    frequency:   20.9400834601
  - # 25
    frequency:   20.9453497824
  - # 26
    frequency:   65.0280158852
  - # 27
    frequency:   65.0392056537

- q-position: [    0.1161616,    0.0000000,    0.0000000 ]
  distance:    0.0374481
  band:
  - # 1
    frequency:    0.4601982051
  - # 2
    frequency:    0.5831705337
  - # 3
    frequency:    0.6799886249
  - # 4
    frequency:    1.1452649370
  - # 5
    frequency:    1.2279439220
  - # 6
    frequency:    1.2716554056
  - # 7
    frequency:    2.2468481426
  - # 8
    frequency:    3.3655624670
  - # 9
    frequency:    3.8234389102
  - # 10
    frequency:    4.2089276616
  - # 11
    frequency:    5.6008298336
  - # 12
    frequency:    6.3557314175
  - # 13
    frequency:    6.6418262574
  - # 14
    frequency:    6.7016090926
  - # 15
    frequency:    7.9850432126
  - # 16
    frequency:    8.9274820071
  - # 17
    frequency:   10.2462745892
  - # 18
    frequency:   10.5951439884
  - # 19
    frequency:   10.7060369655
  - # 20
    frequency:   10.7063018838
  - # 21
    frequency:   10.7728240424
  - # 22
    frequency:   12.3138903959
  - # 23
    frequency:   15.5974303454
  - # 24
    frequency:   20.9381229929
  - # 25
    frequency:   20.9431036999
  - # 26
    frequency:   65.0250758840
  - # 27
    frequency:   65.0355564079

- q-position: [    0.1212121,    0.0000000,    0.0000000 ]
  distance:    0.0390763
  band:
  - # 1
    frequency:    0.4890592073
  - # 2
    frequency:    0.6035814287
  - # 3
    frequency:    0.7425972708
  - # 4
    frequency:    1.1923455408
  - # 5
    frequency:    1.2739069048
  - # 6
    frequency:    1.3271840509
  - # 7
    frequency:    2.3451962564
  - # 8
    frequency:    3.3789534586
  - # 9
    frequency:    3.8640160222
  - # 10
    frequency:    4.2025570668