nqpoint: 300    
npath: 3      
segment_nqpoint:
- 100
- 100
- 100
labels:
- [ 'G', 'M' ]
- [ 'M', 'K' ]
- [ 'K', 'G' ]
reciprocal_lattice:
- [   0.29093104,   0.16796911,   0.00000000 ] # a*
- [   0.00000000,   0.33593822,   0.00000000 ] # b*
- [   0.00000000,   0.00000000,   0.04574386 ] # c*
natom: 5      
lattice:
- [     3.437240704265244,     0.000000000000000,     0.000000000000000 ] # a
- [    -1.718620352132622,     2.976737768808934,     0.000000000000000 ] # b
- [     0.000000000000000,     0.000000000000000,    21.860859266045004 ] # c
points:
- symbol: C # 1
  coordinates: [  0.000000000000000,  0.000000000000000,  0.487138168951218 ]
  mass: 12.010700
- symbol: O # 2
  coordinates: [  0.333332985432215,  0.666666983183674,  0.588305295301036 ]
  mass: 15.999400
- symbol: O # 3
  coordinates: [  0.000000000000000,  0.000000000000000,  0.411694704698964 ]
  mass: 15.999400
- symbol: Sc # 4
  coordinates: [  0.333332985432215,  0.666666983183674,  0.443170924723450 ]
  mass: 44.955912
- symbol: Sc # 5
  coordinates: [  0.666666984744047,  0.333332985985145,  0.559111146162036 ]
  mass: 44.955912

phonon:
- q-position: [    0.0000000,    0.0000000,    0.0000000 ]
  distance:    0.0000000
  band:
  - # 1
    frequency:   -0.0000289508
  - # 2
    frequency:   -0.0000002215
  - # 3
    frequency:    0.0000165426
  - # 4
    frequency:    4.1520657511
  - # 5
    frequency:    4.1520657512
  - # 6
    frequency:    6.8980660324
  - # 7
    frequency:   11.8248142728
  - # 8
    frequency:   11.8248142729
  - # 9
    frequency:   12.7360402282
  - # 10
    frequency:   12.7360402282
  - # 11
    frequency:   13.7464272006
  - # 12
    frequency:   14.6354488289
  - # 13
    frequency:   16.5706718746
  - # 14
    frequency:   16.5706718746
  - # 15
    frequency:   19.6766354140

- q-position: [    0.0050505,    0.0000000,    0.0000000 ]
  distance:    0.0016967
  band:
  - # 1
    frequency:    0.0018395751
  - # 2
    frequency:    0.0593807078
  - # 3
    frequency:    0.1421774415
  - # 4
    frequency:    4.1521880206
  - # 5
    frequency:    4.1540548058
  - # 6
    frequency:    6.8980396070
  - # 7
    frequency:   11.8246366075
  - # 8
    frequency:   11.8249181285
  - # 9
    frequency:   12.7359159085
  - # 10
    frequency:   12.7361112877
  - # 11
    frequency:   13.7467596308
  - # 12
    frequency:   14.6350306100
  - # 13
    frequency:   16.5701983134
  - # 14
    frequency:   16.5734928605
  - # 15
    frequency:   19.6765220255

- q-position: [    0.0101010,    0.0000000,    0.0000000 ]
  distance:    0.0033933
  band:
  - # 1
    frequency:    0.0072642611
  - # 2
    frequency:    0.1187971194
  - # 3
    frequency:    0.2843458960
  - # 4
    frequency:    4.1525559294
  - # 5
    frequency:    4.1600144950
  - # 6
    frequency:    6.8979605805
  - # 7
    frequency:   11.8240824494
  - # 8
    frequency:   11.8252267496
  - # 9
    frequency:   12.7355460280
  - # 10
    frequency:   12.7362744190
  - # 11
    frequency:   13.7478169535
  - # 12
    frequency:   14.6337873281
  - # 13
    frequency:   16.5687784781
  - # 14
    frequency:   16.5819334583
  - # 15
    frequency:   19.6761829092

- q-position: [    0.0151515,    0.0000000,    0.0000000 ]
  distance:    0.0050900
  band:
  - # 1
    frequency:    0.0162712363
  - # 2
    frequency:    0.1782845872
  - # 3
    frequency:    0.4264960860
  - # 4
    frequency:    4.1531727674
  - # 5
    frequency:    4.1699226042
  - # 6
    frequency:    6.8978297106
  - # 7
    frequency:   11.8230885234
  - # 8
    frequency:   11.8257313012
  - # 9
    frequency:   12.7349398218
  - # 10
    frequency:   12.7363841890
  - # 11
    frequency:   13.7497730573
  - # 12
    frequency:   14.6317536408
  - # 13
    frequency:   16.5664149121
  - # 14
    frequency:   16.5959276228
  - # 15
    frequency:   19.6756212193

- q-position: [    0.0202020,    0.0000000,    0.0000000 ]
  distance:    0.0067866
  band:
  - # 1
    frequency:    0.0288334435
  - # 2
    frequency:    0.2378777650
  - # 3
    frequency:    0.5686169877
  - # 4
    frequency:    4.1540439800
  - # 5
    frequency:    4.1837427962
  - # 6
    frequency:    6.8976482888
  - # 7
    frequency:   11.8215500458
  - # 8
    frequency:   11.8264170689
  - # 9
    frequency:   12.7341126778
  - # 10
    frequency:   12.7362140052
  - # 11
    frequency:   13.7528970706
  - # 12
    frequency:   14.6289891196
  - # 13
    frequency:   16.5631118525
  - # 14
    frequency:   16.6153686032
  - # 15
    frequency:   19.6748422362

- q-position: [    0.0252525,    0.0000000,    0.0000000 ]
  distance:    0.0084833
  band:
  - # 1
    frequency:    0.0449065527
  - # 2
    frequency:    0.2976102676
  - # 3
    frequency:    0.7106954227
  - # 4
    frequency:    4.1551771120
  - # 5
    frequency:    4.2014256015
  - # 6
    frequency:    6.8974181846
  - # 7
    frequency:   11.8193216591
  - # 8
    frequency:   11.8272634793
  - # 9
    frequency:   12.7330861260
  - # 10
    frequency:   12.7354799444
  - # 11
    frequency:   13.7575225507
  - # 12
    frequency:   14.6255810755
  - # 13
    frequency:   16.5588752256
  - # 14
    frequency:   16.6401135173
  - # 15
    frequency:   19.6738534016

- q-position: [    0.0303030,    0.0000000,    0.0000000 ]
  distance:    0.0101799
  band:
  - # 1
    frequency:    0.0644340651
  - # 2
    frequency:    0.3575143421
  - # 3
    frequency:    0.8527153431
  - # 4
    frequency:    4.1565817293
  - # 5
    frequency:    4.2229097293
  - # 6
    frequency:    6.8971419071
  - # 7
    frequency:   11.8162186418
  - # 8
    frequency:   11.8282441372
  - # 9
    frequency:   12.7318878146
  - # 10
    frequency:   12.7338736038
  - # 11
    frequency:   13.7640054326
  - # 12
    frequency:   14.6216487294
  - # 13
    frequency:   16.5537126427
  - # 14
    frequency:   16.6699890085
  - # 15
    frequency:   19.6726643697

- q-position: [    0.0353535,    0.0000000,    0.0000000 ]
  distance:    0.0118766
  band:
  - # 1
    frequency:    0.0873485688
  - # 2
    frequency:    0.4176205541
  - # 3
    frequency:    0.9946571609
  - # 4
    frequency:    4.1582693207
  - # 5
    frequency:    4.2481236297
  - # 6
    frequency:    6.8968226860
  - # 7
    frequency:   11.8120184255
  - # 8
    frequency:   11.8293268903
  - # 9
    frequency:   12.7305514615
  - # 10
    frequency:   12.7311019320
  - # 11
    frequency:   13.7726730982
  - # 12
    frequency:   14.6173489188
  - # 13
    frequency:   16.5476333922
  - # 14
    frequency:   16.7047973974
  - # 15
    frequency:   19.6712870755

- q-position: [    0.0404040,    0.0000000,    0.0000000 ]
  distance:    0.0135733
  band:
  - # 1
    frequency:    0.1135727578
  - # 2
    frequency:    0.4779574900
  - # 3
    frequency:    1.1364971094
  - # 4
    frequency:    4.1602531781
  - # 5
    frequency:    4.2769872329
  - # 6
    frequency:    6.8964645731
  - # 7
    frequency:   11.8064626084
  - # 8
    frequency:   11.8304739318
  - # 9
    frequency:   12.7269299554
  - # 10
    frequency:   12.7291167720
  - # 11
    frequency:   13.7837687935
  - # 12
    frequency:   14.6128835194
  - # 13
    frequency:   16.5406484317
  - # 14
    frequency:   16.7443227525
  - # 15
    frequency:   19.6697358235

- q-position: [    0.0454545,    0.0000000,    0.0000000 ]
  distance:    0.0152699
  band:
  - # 1
    frequency:    0.1430204547
  - # 2
    frequency:    0.5385514816
  - # 3
    frequency:    1.2782066344
  - # 4
    frequency:    4.1625482591
  - # 5
    frequency:    4.3094137845
  - # 6
    frequency:    6.8960725643
  - # 7
    frequency:   11.7992598807
  - # 8
    frequency:   11.8316419571
  - # 9
    frequency:   12.7212204209
  - # 10
    frequency:   12.7276293036
  - # 11
    frequency:   13.7973973147
  - # 12
    frequency:   14.6085086516
  - # 13
    frequency:   16.5327703777
  - # 14
    frequency:   16.7883363863
  - # 15
    frequency:   19.6680273971

- q-position: [    0.0505051,    0.0000000,    0.0000000 ]
  distance:    0.0169666
  band:
  - # 1
    frequency:    0.1755976447
  - # 2
    frequency:    0.5994263522
  - # 3
    frequency:    1.4197518148
  - # 4
    frequency:    4.1651710314
  - # 5
    frequency:    4.3453117012
  - # 6
    frequency:    6.8956527446
  - # 7
    frequency:   11.7900905146
  - # 8
    frequency:   11.8327823911
  - # 9
    frequency:   12.7139635938
  - # 10
    frequency:   12.7261402632
  - # 11
    frequency:   13.8134786090
  - # 12
    frequency:   14.6045454257
  - # 13
    frequency:   16.5240134926
  - # 14
    frequency:   16.8366014122
  - # 15
    frequency:   19.6661811952

- q-position: [    0.0555556,    0.0000000,    0.0000000 ]
  distance:    0.0186632
  band:
  - # 1
    frequency:    0.2112035007
  - # 2
    frequency:    0.6606031879
  - # 3
    frequency:    1.5610928099
  - # 4
    frequency:    4.1681393014
  - # 5
    frequency:    4.3845863783
  - # 6
    frequency:    6.8952124567
  - # 7
    frequency:   11.7786132603
  - # 8
    frequency:   11.8338417056
  - # 9
    frequency:   12.7052915043
  - # 10
    frequency:   12.7247062161
  - # 11
    frequency:   13.8317152395
  - # 12
    frequency:   14.6013912855
  - # 13
    frequency:   16.5143936706
  - # 14
    frequency:   16.8888761404
  - # 15
    frequency:   19.6642193971

- q-position: [    0.0606061,    0.0000000,    0.0000000 ]
  distance:    0.0203599
  band:
  - # 1
    frequency:    0.2497313749
  - # 2
    frequency:    0.7221001353
  - # 3
    frequency:    1.7021833293
  - # 4
    frequency:    4.1714720281
  - # 5
    frequency:    4.4271418899
  - # 6
    frequency:    6.8947604956
  - # 7
    frequency:   11.7644755053
  - # 8
    frequency:   11.8347618465
  - # 9
    frequency:   12.6954737385
  - # 10
    frequency:   12.7233886845
  - # 11
    frequency:   13.8515780063
  - # 12
    frequency:   14.5995297178
  - # 13
    frequency:   16.5039284210
  - # 14
    frequency:   16.9449162284
  - # 15
    frequency:   19.6621671623

- q-position: [    0.0656566,    0.0000000,    0.0000000 ]
  distance:    0.0220566
  band:
  - # 1
    frequency:    0.2910697405
  - # 2
    frequency:    0.7839322275
  - # 3
    frequency:    1.8429701226
  - # 4
    frequency:    4.1751891245
  - # 5
    frequency:    4.4728825345
  - # 6
    frequency:    6.8943073307
  - # 7
    frequency:   11.7473272772
  - # 8
    frequency:   11.8354807922
  - # 9
    frequency:   12.6848955004
  - # 10
    frequency:   12.7222536178
  - # 11
    frequency:   13.8723126314
  - # 12
    frequency:   14.5995340070
  - # 13
    frequency:   16.4926368486
  - # 14
    frequency:   17.0044756167
  - # 15
    frequency:   19.6600528698

- q-position: [    0.0707071,    0.0000000,    0.0000000 ]
  distance:    0.0237532
  band:
  - # 1
    frequency:    0.3351030700
  - # 2
    frequency:    0.8461112368
  - # 3
    frequency:    1.9833924834
  - # 4
    frequency:    4.1793112485
  - # 5
    frequency:    4.5217141919
  - # 6
    frequency:    6.8938653575
  - # 7
    frequency:   11.7268390063
  - # 8
    frequency:   11.8359332582
  - # 9
    frequency:   12.6740219295
  - # 10
    frequency:   12.7213707134
  - # 11
    frequency:   13.8929704396
  - # 12
    frequency:   14.6020580182
  - # 13
    frequency:   16.4805396324
  - # 14
    frequency:   17.0673063669
  - # 15
    frequency:   19.6579084026

- q-position: [    0.0757576,    0.0000000,    0.0000000 ]
  distance:    0.0254499
  band:
  - # 1
    frequency:    0.3817126446
  - # 2
    frequency:    0.9086455584
  - # 3
    frequency:    2.1233817657
  - # 4
    frequency:    4.1838595845
  - # 5
    frequency:    4.5735454677
  - # 6
    frequency:    6.8934491825
  - # 7
    frequency:   11.7027219397
  - # 8
    frequency:   11.8360515643
  - # 9
    frequency:   12.6633547120
  - # 10
    frequency:   12.7208125768
  - # 11
    frequency:   13.9124669776
  - # 12
    frequency:   14.6078049001
  - # 13
    frequency:   16.4676590005
  - # 14
    frequency:   17.1331575792
  - # 15
    frequency:   19.6557694858

- q-position: [    0.0808081,    0.0000000,    0.0000000 ]
  distance:    0.0271465
  band:
  - # 1
    frequency:    0.4307772907
  - # 2
    frequency:    0.9715401204
  - # 3
    frequency:    2.2628609105
  - # 4
    frequency:    4.1888556194
  - # 5
    frequency:    4.6282886109
  - # 6
    frequency:    6.8930759426
  - # 7
    frequency:   11.6747489425
  - # 8
    frequency:   11.8357666668
  - # 9
    frequency:   12.6533876960
  - # 10
    frequency:   12.7206537129
  - # 11
    frequency:   13.9296715761
  - # 12
    frequency:   14.6174659900
  - # 13
    frequency:   16.4540187030
  - # 14
    frequency:   17.2017735993
  - # 15
    frequency:   19.6536760836

- q-position: [    0.0858586,    0.0000000,    0.0000000 ]
  distance:    0.0288432
  band:
  - # 1
    frequency:    0.4821740473
  - # 2
    frequency:    1.0347963240
  - # 3
    frequency:    2.4017439827
  - # 4
    frequency:    4.1943209130
  - # 5
    frequency:    4.6858601969
  - # 6
    frequency:    6.8927656649
  - # 7
    frequency:   11.6427725856
  - # 8
    frequency:   11.8350093518
  - # 9
    frequency:   12.6445676973
  - # 10
    frequency:   12.7209693548
  - # 11
    frequency:   13.9435235757
  - # 12
    frequency:   14.6316308483
  - # 13
    frequency:   16.4396439812
  - # 14
    frequency:   17.2728917381
  - # 15
    frequency:   19.6516728645

- q-position: [    0.0909091,    0.0000000,    0.0000000 ]
  distance:    0.0305398
  band:
  - # 1
    frequency:    0.5357787665
  - # 2
    frequency:    1.0984120100
  - # 3
    frequency:    2.5399357231
  - # 4
    frequency:    4.2002768672
  - # 5
    frequency:    4.7461815727
  - # 6
    frequency:    6.8925416687
  - # 7
    frequency:   11.6067373614
  - # 8
    frequency:   11.8337115711
  - # 9
    frequency:   12.6372652141
  - # 10
    frequency:   12.7218341468
  - # 11
    frequency:   13.9531560806
  - # 12
    frequency:   14.6506857391
  - # 13
    frequency:   16.4245615341
  - # 14
    frequency:   17.3462397230
  - # 15
    frequency:   19.6498097404

- q-position: [    0.0959596,    0.0000000,    0.0000000 ]
  distance:    0.0322365
  band:
  - # 1
    frequency:    0.5914666544
  - # 2
    frequency:    1.1623814520
  - # 3
    frequency:    2.6773311222
  - # 4
    frequency:    4.2067444946
  - # 5
    frequency:    4.8091790619
  - # 6
    frequency:    6.8924310177
  - # 7
    frequency:   11.5666838221
  - # 8
    frequency:   11.8318078866
  - # 9
    frequency:   12.6317576002
  - # 10
    frequency:   12.7233207146
  - # 11
    frequency:   13.9579936827
  - # 12
    frequency:   14.6747335410
  - # 13
    frequency:   16.4087994814
  - # 14
    frequency:   17.4215330891
  - # 15
    frequency:   19.6481424872

- q-position: [    0.1010101,    0.0000000,    0.0000000 ]
  distance:    0.0339332
  band:
  - # 1
    frequency:    0.6491127571
  - # 2
    frequency:    1.2266953749
  - # 3
    frequency:    2.8138150281
  - # 4
    frequency:    4.2137441896
  - # 5
    frequency:    4.8747839244
  - # 6
    frequency:    6.8924650261
  - # 7
    frequency:   11.5227441539
  - # 8
    frequency:   11.8292369740
  - # 9
    frequency:   12.6282247791
  - # 10
    frequency:   12.7254981727
  - # 11
    frequency:   13.9577915933
  - # 12
    frequency:   14.7035678519
  - # 13
    frequency:   16.3923873226
  - # 14
    frequency:   17.4984726899
  - # 15
    frequency:   19.6467334474

- q-position: [    0.1060606,    0.0000000,    0.0000000 ]
  distance:    0.0356298
  band:
  - # 1
    frequency:    0.7085923991
  - # 2
    frequency:    1.2913409967
  - # 3
    frequency:    2.9492618057
  - # 4
    frequency:    4.2212955035
  - # 5
    frequency:    4.9429320647
  - # 6
    frequency:    6.8926798288
  - # 7
    frequency:   11.4751305388
  - # 8
    frequency:   11.8259431234
  - # 9
    frequency:   12.6267554058
  - # 10
    frequency:   12.7284306290
  - # 11
    frequency:   13.9526062227
  - # 12
    frequency:   14.7367118342
  - # 13
    frequency:   16.3753558934
  - # 14
    frequency:   17.5767424856
  - # 15
    frequency:   19.6456523148

- q-position: [    0.1111111,    0.0000000,    0.0000000 ]
  distance:    0.0373265
  band:
  - # 1
    frequency:    0.7697815800
  - # 2
    frequency:    1.3563020927
  - # 3
    frequency:    3.0835350684
  - # 4
    frequency:    4.2294169264
  - # 5
    frequency:    5.0135634727
  - # 6
    frequency:    6.8931170230
  - # 7
    frequency:   11.4241189293
  - # 8
    frequency:   11.8218776631
  - # 9
    frequency:   12.6273600453
  - # 10
    frequency:   12.7321757602
  - # 11
    frequency:   13.9427168537
  - # 12
    frequency:   14.7735028454
  - # 13
    frequency:   16.3577373179
  - # 14
    frequency:   17.6560077308
  - # 15
    frequency:   19.6449769866

- q-position: [    0.1161616,    0.0000000,    0.0000000 ]
  distance:    0.0390231
  band:
  - # 1
    frequency:    0.8325573337
  - # 2
    frequency:    1.4215590789
  - # 3
    frequency:    3.2164875116
  - # 4
    frequency:    4.2381256774
  - # 5
    frequency:    5.0866213767
  - # 6
    frequency:    6.8938243942
  - # 7
    frequency:   11.3700312259
  - # 8
    frequency:   11.8170002330
  - # 9
    frequency:   12.6299876572
  - # 10
    frequency:   12.7367835332
  - # 11
    frequency:   13.9285327397
  - # 12
    frequency:   14.8131891776
  - # 13
    frequency:   16.3395649573
  - # 14
    frequency:   17.7359136629
  - # 15
    frequency:   19.6447944587

- q-position: [    0.1212121,    0.0000000,    0.0000000 ]
  distance:    0.0407198
  band:
  - # 1
    frequency:    0.8967980547
  - # 2
    frequency:    1.4870891141
  - # 3
    frequency:    3.3479608766
  - # 4
    frequency:    4.2474375049
  - # 5
    frequency:    5.1620510800
  - # 6
    frequency:    6.8948567407
  - # 7
    frequency:   11.3132183952
  - # 8
    frequency:   11.8112798334
  - # 9
    frequency:   12.6345422690
  - # 10
    frequency:   12.7422951418
  - # 11
    frequency:   13.9105136405
  - # 12
    frequency:   14.8550114537
  - # 13
    frequency:   16.3208733546
  - # 14
    frequency:   17.8160847687
  - # 15
    frequency:   19.6452017110

- q-position: [    0.1262626,    0.0000000,    0.0000000 ]
  distance:    0.0424164
  band:
  - # 1
    frequency:    0.9623837948
  - # 2
    frequency:    1.5528662186
  - # 3
    frequency:    3.4777860814
  - # 4
    frequency:    4.2573664989
  - # 5
    frequency:    5.2397984419
  - # 6
    frequency:    6.8962768154
  - # 7
    frequency:   11.2540461713
  - # 8
    frequency:   11.8046955932
  - # 9
    frequency:   12.6408977550
  - # 10
    frequency:   12.7487422194
  - # 11
    frequency:   13.8891158145
  - # 12
    frequency:   14.8982571228
  - # 13
    frequency:   16.3016981761
  - # 14
    frequency:   17.8961247056
  - # 15
    frequency:   19.6463065009

- q-position: [    0.1313131,    0.0000000,    0.0000000 ]
  distance:    0.0441131
  band:
  - # 1
    frequency:    1.0291965308
  - # 2
    frequency:    1.6188614054
  - # 3
    frequency:    3.6057835493
  - # 4
    frequency:    4.2679249175
  - # 5
    frequency:    5.3198079594
  - # 6
    frequency:    6.8981564106
  - # 7
    frequency:   11.1928840593
  - # 8
    frequency:   11.7972372159
  - # 9
    frequency:   12.6489096824
  - # 10
    frequency:   12.7561463651
  - # 11
    frequency:   13.8647625121
  - # 12
    frequency:   14.9422893931
  - # 13
    frequency:   16.2820761481
  - # 14
    frequency:   17.9756169662
  - # 15
    frequency:   19.6482279289

- q-position: [    0.1363636,    0.0000000,    0.0000000 ]
  distance:    0.0458098
  band:
  - # 1
    frequency:    1.0971204067
  - # 2
    frequency:    1.6850428259
  - # 3
    frequency:    3.7317637676
  - # 4
    frequency:    4.2791230276
  - # 5
    frequency:    5.4020203974
  - # 6
    frequency:    6.9005776184
  - # 7
    frequency:   11.1300976431
  - # 8
    frequency:   11.7889050892
  - # 9
    frequency:   12.6584239940
  - # 10
    frequency:   12.7645189997
  - # 11
    frequency:   13.8378323121
  - # 12
    frequency:   14.9865575720
  - # 13
    frequency:   16.2620449908
  - # 14
    frequency:   18.0541264157
  - # 15
    frequency:   19.6510965754

- q-position: [    0.1414141,    0.0000000,    0.0000000 ]
  distance:    0.0475064
  band:
  - # 1
    frequency:    1.1660419487
  - # 2
    frequency:    1.7513759235
  - # 3
    frequency:    3.8555280943
  - # 4
    frequency:    4.2909689621
  - # 5
    frequency:    5.4863699067
  - # 6
    frequency:    6.9036343179
  - # 7
    frequency:   11.0660437755
  - # 8
    frequency:   11.7797100662
  - # 9
    frequency:   12.6692827844
  - # 10
    frequency:   12.7738615413
  - # 11
    frequency:   13.8086582701
  - # 12
    frequency:   15.0305961236
  - # 13
    frequency:   16.2416433477
  - # 14
    frequency:   18.1312018989
  - # 15
    frequency:   19.6550539242

- q-position: [    0.1464646,    0.0000000,    0.0000000 ]
  distance:    0.0492031
  band:
  - # 1
    frequency:    1.2358502539
  - # 2
    frequency:    1.8178235976
  - # 3
    frequency:    3.9768698246
  - # 4
    frequency:    4.3034685946
  - # 5
    frequency:    5.5727805566
  - # 6
    frequency:    6.9074339592
  - # 7
    frequency:   11.0010680566
  - # 8
    frequency:   11.7696729514
  - # 9
    frequency:   12.6813276327
  - # 10
    frequency:   12.7841658704
  - # 11
    frequency:   13.7775326354
  - # 12
    frequency:   15.0740179319
  - # 13
    frequency:   16.2209107108
  - # 14
    frequency:   18.2063802002
  - # 15
    frequency:   19.6602506861

- q-position: [    0.1515152,    0.0000000,    0.0000000 ]
  distance:    0.0508997
  band:
  - # 1
    frequency:    1.3064371522
  - # 2
    frequency:    1.8843463727
  - # 3
    frequency:    4.0955755075
  - # 4
    frequency:    4.3166254314
  - # 5
    frequency:    5.6611621839
  - # 6
    frequency:    6.9120997594
  - # 7
    frequency:   10.9355039962
  - # 8
    frequency:   11.7588237404
  - # 9
    frequency:   12.6944009816
  - # 10
    frequency:   12.7954150320
  - # 11
    frequency:   13.7447139218
  - # 12
    frequency:   15.1165052200
  - # 13
    frequency:   16.1998873429
  - # 14
    frequency:   18.2791917354
  - # 15
    frequency:   19.6668435428

- q-position: [    0.1565657,    0.0000000,    0.0000000 ]
  distance:    0.0525964
  band:
  - # 1
    frequency:    1.3776973401
  - # 2
    frequency:    1.9509025733
  - # 3
    frequency:    4.2114264915
  - # 4
    frequency:    4.3304405230
  - # 5
    frequency:    5.7514054080
  - # 6
    frequency:    6.9177734875
  - # 7
    frequency:   10.8696733398
  - # 8
    frequency:   11.7472006741
  - # 9
    frequency:   12.7083459630
  - # 10
    frequency:   12.8075841178
  - # 11
    frequency:   13.7104346481
  - # 12
    frequency:   15.1578000436
  - # 13
    frequency:   16.1786141948
  - # 14
    frequency:   18.3491684184
  - # 15
    frequency:   19.6749897744

- q-position: [    0.1616162,    0.0000000,    0.0000000 ]
  distance:    0.0542930
  band:
  - # 1
    frequency:    1.4495284863
  - # 2
    frequency:    2.0174485019
  - # 3
    frequency:    4.3242006639
  - # 4
    frequency:    4.3449123936
  - # 5
    frequency:    5.8433755541
  - # 6
    frequency:    6.9246191352
  - # 7
    frequency:   10.8038871416
  - # 8
    frequency:   11.7348491717
  - # 9
    frequency:   12.7230049329
  - # 10
    frequency:   12.8206412620
  - # 11
    frequency:   13.6749090549
  - # 12
    frequency:   15.1976953012
  - # 13
    frequency:   16.1571328193
  - # 14
    frequency:   18.4158541181
  - # 15
    frequency:   19.6848392649

- q-position: [    0.1666667,    0.0000000,    0.0000000 ]
  distance:    0.0559897
  band:
  - # 1
    frequency:    1.5218313071
  - # 2
    frequency:    2.0839386193
  - # 3
    frequency:    4.3600369909
  - # 4
    frequency:    4.4336743537
  - # 5
    frequency:    5.9369050323
  - # 6
    frequency:    6.9328279674
  - # 7
    frequency:   10.7384472821
  - # 8
    frequency:   11.7218207039
  - # 9
    frequency:   12.7382168151
  - # 10
    frequency:   12.8345486903
  - # 11
    frequency:   13.6383406924
  - # 12
    frequency:   15.2360266574
  - # 13
    frequency:   16.1354852809
  - # 14
    frequency:   18.4788179344
  - # 15
    frequency:   19.6965235905

- q-position: [    0.1717172,    0.0000000,    0.0000000 ]
  distance:    0.0576864
  band:
  - # 1
    frequency:    1.5945096129
  - # 2
    frequency:    2.1503257253
  - # 3
    frequency:    4.3758076539
  - # 4
    frequency:    4.5396243780
  - # 5
    frequency:    6.0317833506
  - # 6
    frequency:    6.9426257950
  - # 7
    frequency:   10.6736482097
  - # 8
    frequency:   11.7081716610
  - # 9
    frequency:   12.7538131754
  - # 10
    frequency:   12.8492637700
  - # 11
    frequency:   13.6009301320
  - # 12
    frequency:   15.2726654843
  - # 13
    frequency:   16.1137140616
  - # 14
    frequency:   18.5376700817
  - # 15
    frequency:   19.7101423427

- q-position: [    0.1767677,    0.0000000,    0.0000000 ]
  distance:    0.0593830
  band:
  - # 1
    frequency:    1.6674703232
  - # 2
    frequency:    2.2165611396
  - # 3
    frequency:    4.3922151007
  - # 4
    frequency:    4.6418302548
  - # 5
    frequency:    6.1277433097
  - # 6
    frequency:    6.9542839183
  - # 7
    frequency:   10.6097787579
  - # 8
    frequency:   11.6939622580
  - # 9
    frequency:   12.7696127409
  - # 10
    frequency:   12.8647400168
  - # 11
    frequency:   13.5628833057
  - # 12
    frequency:   15.3075127928
  - # 13
    frequency:   16.0918619626
  - # 14
    frequency:   18.5920794684
  - # 15
    frequency:   19.7257475618

- q-position: [    0.1818182,    0.0000000,    0.0000000 ]
  distance:    0.0610797
  band:
  - # 1
    frequency:    1.7406234519
  - # 2
    frequency:    2.2825948812
  - # 3
    frequency:    4.4092474349
  - # 4
    frequency:    4.7400766557
  - # 5
    frequency:    6.2244408431
  - # 6
    frequency:    6.9681362136
  - # 7
    frequency:   10.5471239354
  - # 8
    frequency:   11.6792555100
  - # 9
    frequency:   12.7854138291
  - # 10
    frequency:   12.8809280273
  - # 11
    frequency:   13.5244212198
  - # 12
    frequency:   15.3404940651
  - # 13
    frequency:   16.0699720017
  - # 14
    frequency:   18.6417911838
  - # 15
    frequency:   19.7433280423

- q-position: [    0.1868687,    0.0000000,    0.0000000 ]
  distance:    0.0627763
  band:
  - # 1
    frequency:    1.8138820631
  - # 2
    frequency:    2.3483758457
  - # 3
    frequency:    4.4268901694
  - # 4
    frequency:    4.8341562330
  - # 5
    frequency:    6.3214242374
  - # 6
    frequency:    6.9846065209
  - # 7
    frequency:   10.4859666103
  - # 8
    frequency:   11.6641162981
  - # 9
    frequency:   12.8009838431
  - # 10
    frequency:   12.8977763192
  - # 11
    frequency:   13.4857920666
  - # 12
    frequency:   15.3715548851
  - # 13
    frequency:   16.0480873068
  - # 14
    frequency:   18.6866413238
  - # 15
    frequency:   19.7627960680

- q-position: [    0.1919192,    0.0000000,    0.0000000 ]
  distance:    0.0644730
  band:
  - # 1
    frequency:    1.8871621975
  - # 2
    frequency:    2.4138519808
  - # 3
    frequency:    4.4451262690
  - # 4
    frequency:    4.9238730046
  - # 5
    frequency:    6.4180860190
  - # 6
    frequency:    7.0042528948
  - # 7
    frequency:   10.4265890301
  - # 8
    frequency:   11.6486105355
  - # 9
    frequency:   12.8160446166
  - # 10
    frequency:   12.9152320672
  - # 11
    frequency:   13.4472870894
  - # 12
    frequency:   15.4006572586
  - # 13
    frequency:   16.0262510050
  - # 14
    frequency:   18.7265662971
  - # 15
    frequency:   19.7839794337

- q-position: [    0.1969697,    0.0000000,    0.0000000 ]
  distance:    0.0661697
  band:
  - # 1
    frequency:    1.9603827715
  - # 2
    frequency:    2.4789704580
  - # 3
    frequency:    4.4639362095
  - # 4
    frequency:    5.0090464899
  - # 5
    frequency:    6.5135886449
  - # 6
    frequency:    7.0278374359
  - # 7
    frequency:   10.3692741142
  - # 8
    frequency:   11.6328044389
  - # 9
    frequency:   12.8302520655
  - # 10
    frequency:   12.9332417340
  - # 11
    frequency:   13.4092618548
  - # 12
    frequency:   15.4277765288
  - # 13
    frequency:   16.0045061076
  - # 14
    frequency:   18.7616042855
  - # 15
    frequency:   19.8066210869

- q-position: [    0.2020202,    0.0000000,    0.0000000 ]
  distance:    0.0678663
  band:
  - # 1
    frequency:    2.0334654515
  - # 2
    frequency:    2.5436778416
  - # 3
    frequency:    4.4832980527
  - # 4
    frequency:    5.0895167346
  - # 5
    frequency:    6.6067588023
  - # 6
    frequency:    7.0564268222
  - # 7
    frequency:   10.3143064525
  - # 8
    frequency:   11.6167638995
  - # 9
    frequency:   12.8431686775
  - # 10
    frequency:   12.9517516001
  - # 11
    frequency:   13.3721644843
  - # 12
    frequency:   15.4528987980
  - # 13
    frequency:   15.9828953905
  - # 14
    frequency:   18.7918879277
  - # 15
    frequency:   19.8303873335

- q-position: [    0.2070707,    0.0000000,    0.0000000 ]
  distance:    0.0695630
  band:
  - # 1
    frequency:    2.1063345046
  - # 2
    frequency:    2.6079202547
  - # 3
    frequency:    4.5031875375
  - # 4
    frequency:    5.1651502256
  - # 5
    frequency:    6.6959738731
  - # 6
    frequency:    7.0915000689
  - # 7
    frequency:   10.2619729241
  - # 8
    frequency:   11.6005539495
  - # 9
    frequency:   12.8542289053
  - # 10
    frequency:   12.9707082007
  - # 11
    frequency:   13.3365708378
  - # 12
    frequency:   15.4760187809
  - # 13
    frequency:   15.9614612706
  - # 14
    frequency:   18.8176291383
  - # 15
    frequency:   19.8548837099

- q-position: [    0.2121212,    0.0000000,    0.0000000 ]
  distance:    0.0712596
  band:
  - # 1
    frequency:    2.1789166294
  - # 2