nqpoint: 300    
npath: 3      
segment_nqpoint:
- 100
- 100
- 100
labels:
- [ 'G', 'M' ]
- [ 'M', 'K' ]
- [ 'K', 'G' ]
reciprocal_lattice:
- [   0.26491166,   0.15294682,   0.00000000 ] # a*
- [   0.00000000,   0.30589364,   0.00000000 ] # b*
- [   0.00000000,   0.00000000,   0.04073788 ] # c*
natom: 5      
lattice:
- [     3.774843243361395,     0.000000000000000,     0.000000000000000 ] # a
- [    -1.887421621680698,     3.269110144099230,     0.000000000000000 ] # b
- [     0.000000000000000,     0.000000000000000,    24.547176599302588 ] # c
points:
- symbol: Br # 1
  coordinates: [  0.333332985432215,  0.666666983183674,  0.633359056036787 ]
  mass: 79.904000
- symbol: Br # 2
  coordinates: [  0.666666984744047,  0.333332985985145,  0.366640943963213 ]
  mass: 79.904000
- symbol: C # 3
  coordinates: [  0.000000000000000,  0.000000000000000,  0.500000026706933 ]
  mass: 12.010700
- symbol: Y # 4
  coordinates: [  0.333332985432215,  0.666666983183674,  0.445532729323808 ]
  mass: 88.905850
- symbol: Y # 5
  coordinates: [  0.666666984744047,  0.333332985985145,  0.554467270277574 ]
  mass: 88.905850

phonon:
- q-position: [    0.0000000,    0.0000000,    0.0000000 ]
  distance:    0.0000000
  band:
  - # 1
    frequency:   -0.0000290055
  - # 2
    frequency:    0.0000001110
  - # 3
    frequency:    0.0000165657
  - # 4
    frequency:    2.2360752429
  - # 5
    frequency:    2.2360752431
  - # 6
    frequency:    3.1337437390
  - # 7
    frequency:    3.1337437391
  - # 8
    frequency:    3.4753621632
  - # 9
    frequency:    3.9830287789
  - # 10
    frequency:    3.9830287790
  - # 11
    frequency:    5.7517496184
  - # 12
    frequency:    7.9167840667
  - # 13
    frequency:    8.2632997509
  - # 14
    frequency:    8.2632997512
  - # 15
    frequency:   15.2978861835

- q-position: [    0.0050505,    0.0000000,    0.0000000 ]
  distance:    0.0015449
  band:
  - # 1
    frequency:    0.0013632234
  - # 2
    frequency:    0.0444851257
  - # 3
    frequency:    0.0779150256
  - # 4
    frequency:    2.2362159949
  - # 5
    frequency:    2.2372092158
  - # 6
    frequency:    3.1337562951
  - # 7
    frequency:    3.1350357639
  - # 8
    frequency:    3.4763736478
  - # 9
    frequency:    3.9829028579
  - # 10
    frequency:    3.9829958718
  - # 11
    frequency:    5.7516938609
  - # 12
    frequency:    7.9137460881
  - # 13
    frequency:    8.2630374751
  - # 14
    frequency:    8.2721957788
  - # 15
    frequency:   15.2965137229

- q-position: [    0.0101010,    0.0000000,    0.0000000 ]
  distance:    0.0030898
  band:
  - # 1
    frequency:    0.0054432564
  - # 2
    frequency:    0.0889460303
  - # 3
    frequency:    0.1557975519
  - # 4
    frequency:    2.2366379672
  - # 5
    frequency:    2.2406014071
  - # 6
    frequency:    3.1337944312
  - # 7
    frequency:    3.1388110607
  - # 8
    frequency:    3.4794570310
  - # 9
    frequency:    3.9825276614
  - # 10
    frequency:    3.9828968541
  - # 11
    frequency:    5.7515266502
  - # 12
    frequency:    7.9053307244
  - # 13
    frequency:    8.2622518538
  - # 14
    frequency:    8.2981466126
  - # 15
    frequency:   15.2923984931

- q-position: [    0.0151515,    0.0000000,    0.0000000 ]
  distance:    0.0046348
  band:
  - # 1
    frequency:    0.0122115025
  - # 2
    frequency:    0.1333585531
  - # 3
    frequency:    0.2336148626
  - # 4
    frequency:    2.2373403115
  - # 5
    frequency:    2.2462229490
  - # 6
    frequency:    3.1338595479
  - # 7
    frequency:    3.1447749209
  - # 8
    frequency:    3.4847548740
  - # 9
    frequency:    3.9819108293
  - # 10
    frequency:    3.9827308380
  - # 11
    frequency:    5.7512482022
  - # 12
    frequency:    7.8931017129
  - # 13
    frequency:    8.2609465015
  - # 14
    frequency:    8.3394726768
  - # 15
    frequency:   15.2855469475

- q-position: [    0.0202020,    0.0000000,    0.0000000 ]
  distance:    0.0061797
  band:
  - # 1
    frequency:    0.0216213307
  - # 2
    frequency:    0.1776987090
  - # 3
    frequency:    0.3113338055
  - # 4
    frequency:    2.2383216189
  - # 5
    frequency:    2.2540267526
  - # 6
    frequency:    3.1339539686
  - # 7
    frequency:    3.1524625339
  - # 8
    frequency:    3.4924893257
  - # 9
    frequency:    3.9810648999
  - # 10
    frequency:    3.9824963442
  - # 11
    frequency:    5.7508589769
  - # 12
    frequency:    7.8785849260
  - # 13
    frequency:    8.2591274286
  - # 14
    frequency:    8.3944557278
  - # 15
    frequency:   15.2759698350

- q-position: [    0.0252525,    0.0000000,    0.0000000 ]
  distance:    0.0077246
  band:
  - # 1
    frequency:    0.0336095395
  - # 2
    frequency:    0.2219427544
  - # 3
    frequency:    0.3889205728
  - # 4
    frequency:    2.2395799286
  - # 5
    frequency:    2.2639489681
  - # 6
    frequency:    3.1340809236
  - # 7
    frequency:    3.1612811123
  - # 8
    frequency:    3.5029350241
  - # 9
    frequency:    3.9800070524
  - # 10
    frequency:    3.9821913036
  - # 11
    frequency:    5.7503598137
  - # 12
    frequency:    7.8628280301
  - # 13
    frequency:    8.2568030206
  - # 14
    frequency:    8.4617804099
  - # 15
    frequency:   15.2636821893

- q-position: [    0.0303030,    0.0000000,    0.0000000 ]
  distance:    0.0092695
  band:
  - # 1
    frequency:    0.0480982581
  - # 2
    frequency:    0.2660672674
  - # 3
    frequency:    0.4663404811
  - # 4
    frequency:    2.2411127389
  - # 5
    frequency:    2.2759108854
  - # 6
    frequency:    3.1342445270
  - # 7
    frequency:    3.1705710034
  - # 8
    frequency:    3.5163765721
  - # 9
    frequency:    3.9787588139
  - # 10
    frequency:    3.9818130601
  - # 11
    frequency:    5.7497520988
  - # 12
    frequency:    7.8464046198
  - # 13
    frequency:    8.2539840079
  - # 14
    frequency:    8.5405321252
  - # 15
    frequency:   15.2487033152

- q-position: [    0.0353535,    0.0000000,    0.0000000 ]
  distance:    0.0108144
  band:
  - # 1
    frequency:    0.0649971591
  - # 2
    frequency:    0.3100492252
  - # 3
    frequency:    0.5435577539
  - # 4
    frequency:    2.2429170216
  - # 5
    frequency:    2.2898211520
  - # 6
    frequency:    3.1344497486
  - # 7
    frequency:    3.1796810857
  - # 8
    frequency:    3.5330533360
  - # 9
    frequency:    3.9773458009
  - # 10
    frequency:    3.9813583756
  - # 11
    frequency:    5.7490379454
  - # 12
    frequency:    7.8295634931
  - # 13
    frequency:    8.2506834278
  - # 14
    frequency:    8.6300507653
  - # 15
    frequency:   15.2310567713

- q-position: [    0.0404040,    0.0000000,    0.0000000 ]
  distance:    0.0123593
  band:
  - # 1
    frequency:    0.0842058434
  - # 2
    frequency:    0.3538660805
  - # 3
    frequency:    0.6205353111
  - # 4
    frequency:    2.2449892397
  - # 5
    frequency:    2.3055781711
  - # 6
    frequency:    3.1347023791
  - # 7
    frequency:    3.1880453956
  - # 8
    frequency:    3.5531026885
  - # 9
    frequency:    3.9757975920
  - # 10
    frequency:    3.9808234374
  - # 11
    frequency:    5.7482203723
  - # 12
    frequency:    7.8123663750
  - # 13
    frequency:    8.2469165758
  - # 14
    frequency:    8.7297971627
  - # 15
    frequency:   15.2107703517

- q-position: [    0.0454545,    0.0000000,    0.0000000 ]
  distance:    0.0139043
  band:
  - # 1
    frequency:    0.1056162687
  - # 2
    frequency:    0.3974958338
  - # 3
    frequency:    0.6972345708
  - # 4
    frequency:    2.2473253674
  - # 5
    frequency:    2.3230725480
  - # 6
    frequency:    3.1350089897
  - # 7
    frequency:    3.1952420309
  - # 8
    frequency:    3.5765189461
  - # 9
    frequency:    3.9741478757
  - # 10
    frequency:    3.9802038706
  - # 11
    frequency:    5.7473034704
  - # 12
    frequency:    7.7947801636
  - # 13
    frequency:    8.2427009479
  - # 14
    frequency:    8.8392662661
  - # 15
    frequency:   15.1878760660

- q-position: [    0.0505051,    0.0000000,    0.0000000 ]
  distance:    0.0154492
  band:
  - # 1
    frequency:    0.1291151030
  - # 2
    frequency:    0.4409171043
  - # 3
    frequency:    0.7736152711
  - # 4
    frequency:    2.2499209133
  - # 5
    frequency:    2.3421894662
  - # 6
    frequency:    3.1353768863
  - # 7
    frequency:    3.2010187211
  - # 8
    frequency:    3.6031422609
  - # 9
    frequency:    3.9724350972
  - # 10
    frequency:    3.9794947548
  - # 11
    frequency:    5.7462925494
  - # 12
    frequency:    7.7767311946
  - # 13
    frequency:    8.2380561722
  - # 14
    frequency:    8.9579394985
  - # 15
    frequency:   15.1624101203

- q-position: [    0.0555556,    0.0000000,    0.0000000 ]
  distance:    0.0169941
  band:
  - # 1
    frequency:    0.1545859105
  - # 2
    frequency:    0.4841091967
  - # 3
    frequency:    0.8496353151
  - # 4
    frequency:    2.2527709460
  - # 5
    frequency:    2.3628108958
  - # 6
    frequency:    3.1358140588
  - # 7
    frequency:    3.2052823897
  - # 8
    frequency:    3.6326790985
  - # 9
    frequency:    3.9707040048
  - # 10
    frequency:    3.9786906473
  - # 11
    frequency:    5.7451942643
  - # 12
    frequency:    7.7581347794
  - # 13
    frequency:    8.2330039294
  - # 14
    frequency:    9.0852628867
  - # 15
    frequency:   15.1344129010

- q-position: [    0.0606061,    0.0000000,    0.0000000 ]
  distance:    0.0185390
  band:
  - # 1
    frequency:    0.1819111048
  - # 2
    frequency:    0.5270521643
  - # 3
    frequency:    0.9252506477
  - # 4
    frequency:    2.2558701222
  - # 5
    frequency:    2.3848175669
  - # 6
    frequency:    3.1363291256
  - # 7
    frequency:    3.2080638819
  - # 8
    frequency:    3.6647421787
  - # 9
    frequency:    3.9690088682
  - # 10
    frequency:    3.9777856148
  - # 11
    frequency:    5.7440167234
  - # 12
    frequency:    7.7389101418
  - # 13
    frequency:    8.2275678621
  - # 14
    frequency:    9.2206405695
  - # 15
    frequency:   15.1039289638

- q-position: [    0.0656566,    0.0000000,    0.0000000 ]
  distance:    0.0200839
  band:
  - # 1
    frequency:    0.2109736271
  - # 2
    frequency:    0.5697268677
  - # 3
    frequency:    1.0004151680
  - # 4
    frequency:    2.2592127170
  - # 5
    frequency:    2.4080906651
  - # 6
    frequency:    3.1369312737
  - # 7
    frequency:    3.2094745784
  - # 8
    frequency:    3.6988917039
  - # 9
    frequency:    3.9674200125
  - # 10
    frequency:    3.9767732727
  - # 11
    frequency:    5.7427695836
  - # 12
    frequency:    7.7189871839
  - # 13
    frequency:    8.2217734721
  - # 14
    frequency:    9.3634369247
  - # 15
    frequency:   15.0710070319

- q-position: [    0.0707071,    0.0000000,    0.0000000 ]
  distance:    0.0216288
  band:
  - # 1
    frequency:    0.2416583367
  - # 2
    frequency:    0.6121150287
  - # 3
    frequency:    1.0750806813
  - # 4
    frequency:    2.2627926558
  - # 5
    frequency:    2.4325132321
  - # 6
    frequency:    3.1376301950
  - # 7
    frequency:    3.2096679276
  - # 8
    frequency:    3.7346614809
  - # 9
    frequency:    3.9660374844
  - # 10
    frequency:    3.9756468361
  - # 11
    frequency:    5.7414641360
  - # 12
    frequency:    7.6983088759
  - # 13
    frequency:    8.2156480057
  - # 14
    frequency:    9.5129831577
  - # 15
    frequency:   15.0357000073

- q-position: [    0.0757576,    0.0000000,    0.0000000 ]
  distance:    0.0231738
  band:
  - # 1
    frequency:    0.2738531152
  - # 2
    frequency:    0.6541992788
  - # 3
    frequency:    1.1491968957
  - # 4
    frequency:    2.2666035490
  - # 5
    frequency:    2.4579712739
  - # 6
    frequency:    3.1384360196
  - # 7
    frequency:    3.2088116489
  - # 8
    frequency:    3.7715550266
  - # 9
    frequency:    3.9650215995
  - # 10
    frequency:    3.9743991812
  - # 11
    frequency:    5.7401133902
  - # 12
    frequency:    7.6768314200
  - # 13
    frequency:    8.2092203252
  - # 14
    frequency:    9.6685858532
  - # 15
    frequency:   14.9980650024

- q-position: [    0.0808081,    0.0000000,    0.0000000 ]
  distance:    0.0247187
  band:
  - # 1
    frequency:    0.3074497027
  - # 2
    frequency:    0.6959632022
  - # 3
    frequency:    1.2227114643
  - # 4
    frequency:    2.2706387269
  - # 5
    frequency:    2.4843545931
  - # 6
    frequency:    3.1393592461
  - # 7
    frequency:    3.2070706658
  - # 8
    frequency:    3.8089845054
  - # 9
    frequency:    3.9646681008
  - # 10
    frequency:    3.9730229192
  - # 11
    frequency:    5.7387321606
  - # 12
    frequency:    7.6545233773
  - # 13
    frequency:    8.2025207688
  - # 14
    frequency:    9.8295359959
  - # 15
    frequency:   14.9581633989

- q-position: [    0.0858586,    0.0000000,    0.0000000 ]
  distance:    0.0262636
  band:
  - # 1
    frequency:    0.3423442940
  - # 2
    frequency:    0.7373913716
  - # 3
    frequency:    1.2955700772
  - # 4
    frequency:    2.2748912764
  - # 5
    frequency:    2.5115573726
  - # 6
    frequency:    3.1404106693
  - # 7
    frequency:    3.2045982385
  - # 8
    frequency:    3.8460678597
  - # 9
    frequency:    3.9656157023
  - # 10
    frequency:    3.9715104834
  - # 11
    frequency:    5.7373371600
  - # 12
    frequency:    7.6313643902
  - # 13
    frequency:    8.1955809968
  - # 14
    frequency:    9.9951175868
  - # 15
    frequency:   14.9160609460

- q-position: [    0.0909091,    0.0000000,    0.0000000 ]
  distance:    0.0278085
  band:
  - # 1
    frequency:    0.3784379254
  - # 2
    frequency:    0.7784693783
  - # 3
    frequency:    1.3677166028
  - # 4
    frequency:    2.2793540790
  - # 5
    frequency:    2.5394785394
  - # 6
    frequency:    3.1416013072
  - # 7
    frequency:    3.2015324066
  - # 8
    frequency:    3.8810040232
  - # 9
    frequency:    3.9694695370
  - # 10
    frequency:    3.9698542302
  - # 11
    frequency:    5.7359471023
  - # 12
    frequency:    7.6073438250
  - # 13
    frequency:    8.1884338244
  - # 14
    frequency:   10.1646153600
  - # 15
    frequency:   14.8718279132

- q-position: [    0.0959596,    0.0000000,    0.0000000 ]
  distance:    0.0293534
  band:
  - # 1
    frequency:    0.4156366870
  - # 2
    frequency:    0.8191838544
  - # 3
    frequency:    1.4390932799
  - # 4
    frequency:    2.2840198486
  - # 5
    frequency:    2.5680219416
  - # 6
    frequency:    3.1429423258
  - # 7
    frequency:    3.1979954606
  - # 8
    frequency:    3.9096029713
  - # 9
    frequency:    3.9680465532
  - # 10
    frequency:    3.9802664616
  - # 11
    frequency:    5.7345828185
  - # 12
    frequency:    7.5824594917
  - # 13
    frequency:    8.1811130424
  - # 14
    frequency:   10.3373213451
  - # 15
    frequency:   14.8255393197

- q-position: [    0.1010101,    0.0000000,    0.0000000 ]
  distance:    0.0308983
  band:
  - # 1
    frequency:    0.4538517914
  - # 2
    frequency:    0.8595224882
  - # 3
    frequency:    1.5096409598
  - # 4
    frequency:    2.2888811700
  - # 5
    frequency:    2.5970963685
  - # 6
    frequency:    3.1444449648
  - # 7
    frequency:    3.1940949364
  - # 8
    frequency:    3.9265330075
  - # 9
    frequency:    3.9660800115
  - # 10
    frequency:    4.0032216374
  - # 11
    frequency:    5.7332673865
  - # 12
    frequency:    7.5567165019
  - # 13
    frequency:    8.1736532259
  - # 14
    frequency:   10.5125401675
  - # 15
    frequency:   14.7772752693

- q-position: [    0.1060606,    0.0000000,    0.0000000 ]
  distance:    0.0324433
  band:
  - # 1
    frequency:    0.4929995310
  - # 2
    frequency:    0.8994740315
  - # 3
    frequency:    1.5792993957
  - # 4
    frequency:    2.2939305371
  - # 5
    frequency:    2.6266154382
  - # 6
    frequency:    3.1461204622
  - # 7
    frequency:    3.1899252471
  - # 8
    frequency:    3.9337197510
  - # 9
    frequency:    3.9639474708
  - # 10
    frequency:    4.0363230285
  - # 11
    frequency:    5.7320262762
  - # 12
    frequency:    7.5301262859
  - # 13
    frequency:    8.1660895311
  - # 14
    frequency:   10.6895930646
  - # 15
    frequency:   14.7271214367

- q-position: [    0.1111111,    0.0000000,    0.0000000 ]
  distance:    0.0339882
  band:
  - # 1
    frequency:    0.5330011494
  - # 2
    frequency:    0.9390282994
  - # 3
    frequency:    1.6480075774
  - # 4
    frequency:    2.2991603907
  - # 5
    frequency:    2.6564973746
  - # 6
    frequency:    3.1479799808
  - # 7
    frequency:    3.1855694854
  - # 8
    frequency:    3.9365392138
  - # 9
    frequency:    3.9616422570
  - # 10
    frequency:    4.0741320342
  - # 11
    frequency:    5.7308875095
  - # 12
    frequency:    7.5027057617
  - # 13
    frequency:    8.1584574817
  - # 14
    frequency:   10.8678206363
  - # 15
    frequency:   14.6751697677

- q-position: [    0.1161616,    0.0000000,    0.0000000 ]
  distance:    0.0355331
  band:
  - # 1
    frequency:    0.5737826492
  - # 2
    frequency:    0.9781761616
  - # 3
    frequency:    1.7157041039
  - # 4
    frequency:    2.3045631552
  - # 5
    frequency:    2.6866646872
  - # 6
    frequency:    3.1500345357
  - # 7
    frequency:    3.1811011790
  - # 8
    frequency:    3.9376720341
  - # 9
    frequency:    3.9591583199
  - # 10
    frequency:    4.1139234855
  - # 11
    frequency:    5.7298818362
  - # 12
    frequency:    7.4744766413
  - # 13
    frequency:    8.1507927474
  - # 14
    frequency:   11.0465843498
  - # 15
    frequency:   14.6215194893

- q-position: [    0.1212121,    0.0000000,    0.0000000 ]
  distance:    0.0370780
  band:
  - # 1
    frequency:    0.6152745579
  - # 2
    frequency:    1.0169095274
  - # 3
    frequency:    1.7823275891
  - # 4
    frequency:    2.3101312746
  - # 5
    frequency:    2.7170437573
  - # 6
    frequency:    3.1522949240
  - # 7
    frequency:    3.1765859246
  - # 8
    frequency:    3.9381407601
  - # 9
    frequency:    3.9564904058
  - # 10
    frequency:    4.1546432234
  - # 11
    frequency:    5.7290429242
  - # 12
    frequency:    7.4454648584
  - # 13
    frequency:    8.1431309136
  - # 14
    frequency:   11.2252667826
  - # 15
    frequency:   14.5662785756

- q-position: [    0.1262626,    0.0000000,    0.0000000 ]
  distance:    0.0386229
  band:
  - # 1
    frequency:    0.6574116651
  - # 2
    frequency:    1.0552213210
  - # 3
    frequency:    1.8478170879
  - # 4
    frequency:    2.3158572459
  - # 5
    frequency:    2.7475643237
  - # 6
    frequency:    3.1547716568
  - # 7
    frequency:    3.1720829064
  - # 8
    frequency:    3.9383757381
  - # 9
    frequency:    3.9536342366
  - # 10
    frequency:    4.1958377178
  - # 11
    frequency:    5.7284075615
  - # 12
    frequency:    7.4157000981
  - # 13
    frequency:    8.1355072471
  - # 14
    frequency:   11.4032705094
  - # 15
    frequency:   14.5095658944

- q-position: [    0.1313131,    0.0000000,    0.0000000 ]
  distance:    0.0401679
  band:
  - # 1
    frequency:    0.7001327446
  - # 2
    frequency:    1.0931054513
  - # 3
    frequency:    1.9121125329
  - # 4
    frequency:    2.3217336509
  - # 5
    frequency:    2.7781588402
  - # 6
    frequency:    3.1574748953
  - # 7
    frequency:    3.1676463530
  - # 8
    frequency:    3.9385870585
  - # 9
    frequency:    3.9505866923
  - # 10
    frequency:    4.2372782359
  - # 11
    frequency:    5.7280158669
  - # 12
    frequency:    7.3852154162
  - # 13
    frequency:    8.1279564578
  - # 14
    frequency:   11.5800153960
  - # 15
    frequency:   14.4515143973

- q-position: [    0.1363636,    0.0000000,    0.0000000 ]
  distance:    0.0417128
  band:
  - # 1
    frequency:    0.7433802719
  - # 2
    frequency:    1.1305567732
  - # 3
    frequency:    1.9751551653
  - # 4
    frequency:    2.3277531858
  - # 5
    frequency:    2.8087616476
  - # 6
    frequency:    3.1604143895
  - # 7
    frequency:    3.1633270303
  - # 8
    frequency:    3.9388921009
  - # 9
    frequency:    3.9473459936
  - # 10
    frequency:    4.2788299582
  - # 11
    frequency:    5.7279115038
  - # 12
    frequency:    7.3540469339
  - # 13
    frequency:    8.1205124603
  - # 14
    frequency:   11.7549338215
  - # 15
    frequency:   14.3922759430

- q-position: [    0.1414141,    0.0000000,    0.0000000 ]
  distance:    0.0432577
  band:
  - # 1
    frequency:    0.7871001432
  - # 2
    frequency:    1.1675710438
  - # 3
    frequency:    2.0368879420
  - # 4
    frequency:    2.3339086872
  - # 5
    frequency:    2.8393078445
  - # 6
    frequency:    3.1591739244
  - # 7
    frequency:    3.1635994216
  - # 8
    frequency:    3.9393645274
  - # 9
    frequency:    3.9439118816
  - # 10
    frequency:    4.3204001347
  - # 11
    frequency:    5.7281418870
  - # 12
    frequency:    7.3222335996
  - # 13
    frequency:    8.1132081375
  - # 14
    frequency:   11.9274629273
  - # 15
    frequency:   14.3320287560

- q-position: [    0.1464646,    0.0000000,    0.0000000 ]
  distance:    0.0448026
  band:
  - # 1
    frequency:    0.8312414030
  - # 2
    frequency:    1.2041448714
  - # 3
    frequency:    2.0972558983
  - # 4
    frequency:    2.3401931552
  - # 5
    frequency:    2.8697316354
  - # 6
    frequency:    3.1552363783
  - # 7
    frequency:    3.1670387544
  - # 8
    frequency:    3.9400553921
  - # 9
    frequency:    3.9402857893
  - # 10
    frequency:    4.3619145536
  - # 11
    frequency:    5.7287583696
  - # 12
    frequency:    7.2898170108
  - # 13
    frequency:    8.1060751086
  - # 14
    frequency:   12.0970322312
  - # 15
    frequency:   14.2709892664

- q-position: [    0.1515152,    0.0000000,    0.0000000 ]
  distance:    0.0463475
  band:
  - # 1
    frequency:    0.8757559826
  - # 2
    frequency:    1.2402756604
  - # 3
    frequency:    2.1562064426
  - # 4
    frequency:    2.3465997727
  - # 5
    frequency:    2.8999637101
  - # 6
    frequency:    3.1515671632
  - # 7
    frequency:    3.1707405833
  - # 8
    frequency:    3.9364710029
  - # 9
    frequency:    3.9410031673
  - # 10
    frequency:    4.4033054834
  - # 11
    frequency:    5.7298163915
  - # 12
    frequency:    7.2568412927
  - # 13
    frequency:    8.0991435062
  - # 14
    frequency:   12.2630435081
  - # 15
    frequency:   14.2094314986

- q-position: [    0.1565657,    0.0000000,    0.0000000 ]
  distance:    0.0478924
  band:
  - # 1
    frequency:    0.9205984537
  - # 2
    frequency:    1.2759615503
  - # 3
    frequency:    2.2136895563
  - # 4
    frequency:    2.3531219205
  - # 5
    frequency:    2.9299267196
  - # 6
    frequency:    3.1482274538
  - # 7
    frequency:    3.1747124950
  - # 8
    frequency:    3.9324728067
  - # 9
    frequency:    3.9422389023
  - # 10
    frequency:    4.4445048406
  - # 11
    frequency:    5.7313755603
  - # 12
    frequency:    7.2233530315
  - # 13
    frequency:    8.0924417635
  - # 14
    frequency:   12.4248370223
  - # 15
    frequency:   14.1477199823

- q-position: [    0.1616162,    0.0000000,    0.0000000 ]
  distance:    0.0494374
  band:
  - # 1
    frequency:    0.9657257978
  - # 2
    frequency:    1.3112013528
  - # 3
    frequency:    2.2696578683
  - # 4
    frequency:    2.3597531886
  - # 5
    frequency:    2.9595267609
  - # 6
    frequency:    3.1452958309
  - # 7
    frequency:    3.1789614299
  - # 8
    frequency:    3.9282986080
  - # 9
    frequency:    3.9437890558
  - # 10
    frequency:    4.4854400326
  - # 11
    frequency:    5.7334996288
  - # 12
    frequency:    7.1894012652
  - # 13
    frequency:    8.0859964160
  - # 14
    frequency:   12.5816324046
  - # 15
    frequency:   14.0863679388

- q-position: [    0.1666667,    0.0000000,    0.0000000 ]
  distance:    0.0509823
  band:
  - # 1
    frequency:    1.0110971929
  - # 2
    frequency:    1.3459944846
  - # 3
    frequency:    2.3240665722
  - # 4
    frequency:    2.3664873816
  - # 5
    frequency:    2.9886358230
  - # 6
    frequency:    3.1428863915
  - # 7
    frequency:    3.1834936511
  - # 8
    frequency:    3.9239580382
  - # 9
    frequency:    3.9456771340
  - # 10
    frequency:    4.5260313499
  - # 11
    frequency:    5.7362563171
  - # 12
    frequency:    7.1550375347
  - # 13
    frequency:    8.0798319201
  - # 14
    frequency:   12.7324201105
  - # 15
    frequency:   14.0261448402

- q-position: [    0.1717172,    0.0000000,    0.0000000 ]
  distance:    0.0525272
  band:
  - # 1
    frequency:    1.0566738169
  - # 2
    frequency:    1.3803408989
  - # 3
    frequency:    2.3733185206
  - # 4
    frequency:    2.3768731488
  - # 5
    frequency:    3.0170518929
  - # 6
    frequency:    3.1411893073
  - # 7
    frequency:    3.1883147182
  - # 8
    frequency:    3.9194630262
  - # 9
    frequency:    3.9479246734
  - # 10
    frequency:    4.5661903928
  - # 11
    frequency:    5.7397169166
  - # 12
    frequency:    7.1203160061
  - # 13
    frequency:    8.0739704918
  - # 14
    frequency:   12.8757524881
  - # 15
    frequency:   13.9682843420

- q-position: [    0.1767677,    0.0000000,    0.0000000 ]
  distance:    0.0540721
  band:
  - # 1
    frequency:    1.1024186685
  - # 2
    frequency:    1.4142410161
  - # 3
    frequency:    2.3802408392
  - # 4
    frequency:    2.4280368519
  - # 5
    frequency:    3.0443985862
  - # 6
    frequency:    3.1405720088
  - # 7
    frequency:    3.1934294664
  - # 8
    frequency:    3.9148278395
  - # 9
    frequency:    3.9505518405
  - # 10
    frequency:    4.6058193026
  - # 11
    frequency:    5.7439555901
  - # 12
    frequency:    7.0852936734
  - # 13
    frequency:    8.0684319673
  - # 14
    frequency:   13.0093269944
  - # 15
    frequency:   13.9149000705

- q-position: [    0.1818182,    0.0000000,    0.0000000 ]
  distance:    0.0556170
  band:
  - # 1
    frequency:    1.1482964044
  - # 2
    frequency:    1.4476956537
  - # 3
    frequency:    2.3872487739
  - # 4
    frequency:    2.4775179110
  - # 5
    frequency:    3.0698537223
  - # 6
    frequency:    3.1418516224
  - # 7
    frequency:    3.1988419911
  - # 8
    frequency:    3.9100690910
  - # 9
    frequency:    3.9535777949
  - # 10
    frequency:    4.6448107097
  - # 11
    frequency:    5.7490482714
  - # 12
    frequency:    7.0500306607
  - # 13
    frequency:    8.0632336885
  - # 14
    frequency:   13.1291637161
  - # 15
    frequency:   13.8698071245

- q-position: [    0.1868687,    0.0000000,    0.0000000 ]
  distance:    0.0571619
  band:
  - # 1
    frequency:    1.1942731913
  - # 2
    frequency:    1.4807059576
  - # 3
    frequency:    2.3943369503
  - # 4
    frequency:    2.5252763983
  - # 5
    frequency:    3.0915144642
  - # 6
    frequency:    3.1469311010
  - # 7
    frequency:    3.2045556375
  - # 8
    frequency:    3.9052057086
  - # 9
    frequency:    3.9570208938
  - # 10
    frequency:    4.6830483881
  - # 11
    frequency:    5.7550710466
  - # 12
    frequency:    7.0145906479
  - # 13
    frequency:    8.0583904145
  - # 14
    frequency:   13.2282505217
  - # 15
    frequency:   13.8398759737

- q-position: [    0.1919192,    0.0000000,    0.0000000 ]
  distance:    0.0587069
  band:
  - # 1
    frequency:    1.2403165737
  - # 2
    frequency:    1.5132733349
  - # 3
    frequency:    2.4015001629
  - # 4
    frequency:    2.5712706991
  - # 5
    frequency:    3.1063571233
  - # 6
    frequency:    3.1588410089
  - # 7
    frequency:    3.2105729943
  - # 8
    frequency:    3.9002588653
  - # 9
    frequency:    3.9608987849
  - # 10
    frequency:    4.7204086426
  - # 11
    frequency:    5.7620978930
  - # 12
    frequency:    6.9790414518
  - # 13
    frequency:    8.0539142613
  - # 14
    frequency:   13.2959728368
  - # 15
    frequency:   13.8356017706

- q-position: [    0.1969697,    0.0000000,    0.0000000 ]
  distance:    0.0602518
  band:
  - # 1
    frequency:    1.2863953537
  - # 2
    frequency:    1.5453993882
  - # 3
    frequency:    2.4087333499
  - # 4
    frequency:    2.6154555276
  - # 5
    frequency:    3.1141173528
  - # 6
    frequency:    3.1778613090
  - # 7
    frequency:    3.2168958920
  - # 8
    frequency:    3.8952518700
  - # 9
    frequency:    3.9652284129
  - # 10
    frequency:    4.7567624629
  - # 11
    frequency:    5.7701976495
  - # 12
    frequency:    6.9434558064
  - # 13
    frequency:    8.0498146690
  - # 14
    frequency:   13.3234747465
  - # 15
    frequency:   13.8657423746

- q-position: [    0.2020202,    0.0000000,    0.0000000 ]
  distance:    0.0617967
  band:
  - # 1
    frequency:    1.3324794834
  - # 2
    frequency:    1.5770858538
  - # 3
    frequency:    2.4160315638
  - # 4
    frequency:    2.6577794386
  - # 5
    frequency:    3.1181413033
  - # 6
    frequency:    3.2006726347
  - # 7
    frequency:    3.2235254057
  - # 8
    frequency:    3.8902100164
  - # 9
    frequency:    3.9700259569
  - # 10
    frequency:    4.7919784580
  - # 11
    frequency:    5.7794301093
  - # 12
    frequency:    6.9079124018
  - # 13
    frequency:    8.0460983988
  - # 14
    frequency:   13.3136880974
  - # 15
    frequency:   13.9272884200

- q-position: [    0.2070707,    0.0000000,    0.0000000 ]
  distance:    0.0633416
  band:
  - # 1
    frequency:    1.3785399683
  - # 2
    frequency:    1.6083345432
  - # 3
    frequency:    2.4233899363
  - # 4
    frequency:    2.6981818326
  - # 5
    frequency:    3.1209164898
  - # 6
    frequency:    3.2248283137
  - # 7
    frequency:    3.2304618604
  - # 8
    frequency:    3.8851603938
  - # 9
    frequency:    3.9753067087
  - # 10
    frequency:    4.8259265345
  - # 11
    frequency:    5.7898411638
  - # 12
    frequency:    6.8724972612
  - # 13
    frequency:    8.0427695580
  - # 14
    frequency:   13.2786468351
  - # 15
    frequency:   14.0081481912

- q-position: [    0.2121212,    0.0000000,    0.0000000 ]
  distance:    0.0648865
  band:
  - # 1
    frequency:    1.4245487794
  - # 2