nqpoint: 300    
npath: 3      
segment_nqpoint:
- 100
- 100
- 100
labels:
- [ 'G', 'M' ]
- [ 'M', 'K' ]
- [ 'K', 'G' ]
reciprocal_lattice:
- [   0.26904608,   0.15533383,   0.00000000 ] # a*
- [   0.00000000,   0.31066766,   0.00000000 ] # b*
- [   0.00000000,   0.00000000,   0.04541470 ] # c*
natom: 5      
lattice:
- [     3.716835378580150,     0.000000000000000,     0.000000000000000 ] # a
- [    -1.858417689290074,     3.218873859540143,     0.000000000000000 ] # b
- [     0.000000000000000,     0.000000000000000,    22.019300378005134 ] # c
points:
- symbol: C # 1
  coordinates: [  0.000000000000000,  0.000000000000000,  0.485825993158741 ]
  mass: 12.010700
- symbol: O # 2
  coordinates: [  0.333332985432215,  0.666666983183674,  0.591267667659867 ]
  mass: 15.999400
- symbol: O # 3
  coordinates: [  0.000000000000000,  0.000000000000000,  0.408732332340133 ]
  mass: 15.999400
- symbol: Y # 4
  coordinates: [  0.333332985432215,  0.666666983183674,  0.438604096627422 ]
  mass: 88.905850
- symbol: Y # 5
  coordinates: [  0.666666984744047,  0.333332985985145,  0.563048229833618 ]
  mass: 88.905850

phonon:
- q-position: [    0.0000000,    0.0000000,    0.0000000 ]
  distance:    0.0000000
  band:
  - # 1
    frequency:   -0.0000094626
  - # 2
    frequency:   -0.0000002047
  - # 3
    frequency:    0.0000180852
  - # 4
    frequency:    2.9410991732
  - # 5
    frequency:    2.9410991733
  - # 6
    frequency:    4.8912279994
  - # 7
    frequency:   11.0665445490
  - # 8
    frequency:   11.0665445490
  - # 9
    frequency:   11.3760578201
  - # 10
    frequency:   11.7777658054
  - # 11
    frequency:   11.7777658054
  - # 12
    frequency:   12.5062473274
  - # 13
    frequency:   13.7715608488
  - # 14
    frequency:   13.7715608488
  - # 15
    frequency:   17.3645684522

- q-position: [    0.0050505,    0.0000000,    0.0000000 ]
  distance:    0.0015690
  band:
  - # 1
    frequency:    0.0013423102
  - # 2
    frequency:    0.0411017433
  - # 3
    frequency:    0.1031233581
  - # 4
    frequency:    2.9411880288
  - # 5
    frequency:    2.9426583155
  - # 6
    frequency:    4.8912395711
  - # 7
    frequency:   11.0634025136
  - # 8
    frequency:   11.0666807121
  - # 9
    frequency:   11.3758391292
  - # 10
    frequency:   11.7776915163
  - # 11
    frequency:   11.7793370350
  - # 12
    frequency:   12.5074788797
  - # 13
    frequency:   13.7711429425
  - # 14
    frequency:   13.7745330879
  - # 15
    frequency:   17.3644729406

- q-position: [    0.0101010,    0.0000000,    0.0000000 ]
  distance:    0.0031381
  band:
  - # 1
    frequency:    0.0052540348
  - # 2
    frequency:    0.0822279787
  - # 3
    frequency:    0.2062342240
  - # 4
    frequency:    2.9414555243
  - # 5
    frequency:    2.9473295294
  - # 6
    frequency:    4.8912744721
  - # 7
    frequency:   11.0539995657
  - # 8
    frequency:   11.0670860142
  - # 9
    frequency:   11.3752907870
  - # 10
    frequency:   11.7774717087
  - # 11
    frequency:   11.7838916924
  - # 12
    frequency:   12.5112062685
  - # 13
    frequency:   13.7698902224
  - # 14
    frequency:   13.7834274955
  - # 15
    frequency:   17.3641867001

- q-position: [    0.0151515,    0.0000000,    0.0000000 ]
  distance:    0.0047071
  band:
  - # 1
    frequency:    0.0117545106
  - # 2
    frequency:    0.1234029670
  - # 3
    frequency:    0.3093195455
  - # 4
    frequency:    2.9419044372
  - # 5
    frequency:    2.9550943643
  - # 6
    frequency:    4.8913332669
  - # 7
    frequency:   11.0384183956
  - # 8
    frequency:   11.0677508933
  - # 9
    frequency:   11.3746927924
  - # 10
    frequency:   11.7771155636
  - # 11
    frequency:   11.7909847360
  - # 12
    frequency:   12.5175244364
  - # 13
    frequency:   13.7678056833
  - # 14
    frequency:   13.7981785503
  - # 15
    frequency:   17.3637106138

- q-position: [    0.0202020,    0.0000000,    0.0000000 ]
  distance:    0.0062761
  band:
  - # 1
    frequency:    0.0208194400
  - # 2
    frequency:    0.1646505070
  - # 3
    frequency:    0.4123650028
  - # 4
    frequency:    2.9425393632
  - # 5
    frequency:    2.9659226829
  - # 6
    frequency:    4.8914169200
  - # 7
    frequency:   11.0168287338
  - # 8
    frequency:   11.0686594153
  - # 9
    frequency:   11.3743953160
  - # 10
    frequency:   11.7766383875
  - # 11
    frequency:   11.7999662586
  - # 12
    frequency:   12.5265806530
  - # 13
    frequency:   13.7648943092
  - # 14
    frequency:   13.8186815310
  - # 15
    frequency:   17.3630461548

- q-position: [    0.0252525,    0.0000000,    0.0000000 ]
  distance:    0.0078451
  band:
  - # 1
    frequency:    0.0324142422
  - # 2
    frequency:    0.2059937107
  - # 3
    frequency:    0.5153544522
  - # 4
    frequency:    2.9433666671
  - # 5
    frequency:    2.9797735436
  - # 6
    frequency:    4.8915268320
  - # 7
    frequency:   10.9895043491
  - # 8
    frequency:   11.0697892846
  - # 9
    frequency:   11.3747158519
  - # 10
    frequency:   11.7760616131
  - # 11
    frequency:   11.8100791174
  - # 12
    frequency:   12.5385578296
  - # 13
    frequency:   13.7611630633
  - # 14
    frequency:   13.8447985393
  - # 15
    frequency:   17.3621953891

- q-position: [    0.0303030,    0.0000000,    0.0000000 ]
  distance:    0.0094142
  band:
  - # 1
    frequency:    0.0464953721
  - # 2
    frequency:    0.2474547847
  - # 3
    frequency:    0.6182693461
  - # 4
    frequency:    2.9443944150
  - # 5
    frequency:    2.9965963636
  - # 6
    frequency:    4.8916648903
  - # 7
    frequency:   10.9568142059
  - # 8
    frequency:   11.0711118706
  - # 9
    frequency:   11.3758788400
  - # 10
    frequency:   11.7754127872
  - # 11
    frequency:   11.8205456681
  - # 12
    frequency:   12.5536513383
  - # 13
    frequency:   13.7566208735
  - # 14
    frequency:   13.8763656928
  - # 15
    frequency:   17.3611609787

- q-position: [    0.0353535,    0.0000000,    0.0000000 ]
  distance:    0.0109832
  band:
  - # 1
    frequency:    0.0630110880
  - # 2
    frequency:    0.2890548199
  - # 3
    frequency:    0.7210881815
  - # 4
    frequency:    2.9456322874
  - # 5
    frequency:    3.0163322982
  - # 6
    frequency:    4.8918335359
  - # 7
    frequency:   10.9191918071
  - # 8
    frequency:   11.0725922647
  - # 9
    frequency:   11.3780043266
  - # 10
    frequency:   11.7747255333
  - # 11
    frequency:   11.8306324253
  - # 12
    frequency:   12.5720408134
  - # 13
    frequency:   13.7512786142
  - # 14
    frequency:   13.9132005535
  - # 15
    frequency:   17.3599461870

- q-position: [    0.0404040,    0.0000000,    0.0000000 ]
  distance:    0.0125522
  band:
  - # 1
    frequency:    0.0819022362
  - # 2
    frequency:    0.3308135922
  - # 3
    frequency:    0.8237859769
  - # 4
    frequency:    2.9470914754
  - # 5
    frequency:    3.0389157646
  - # 6
    frequency:    4.8920358466
  - # 7
    frequency:   10.8770977895
  - # 8
    frequency:   11.0741893833
  - # 9
    frequency:   11.3811273735
  - # 10
    frequency:   11.7740394701
  - # 11
    frequency:   11.8396935466
  - # 12
    frequency:   12.5938600716
  - # 13
    frequency:   13.7451490835
  - # 14
    frequency:   13.9551089309
  - # 15
    frequency:   17.3585548854

- q-position: [    0.0454545,    0.0000000,    0.0000000 ]
  distance:    0.0141213
  band:
  - # 1
    frequency:    0.1031030658
  - # 2
    frequency:    0.3727493750
  - # 3
    frequency:    0.9263337801
  - # 4
    frequency:    2.9487845605
  - # 5
    frequency:    3.0642760370
  - # 6
    frequency:    4.8922756376
  - # 7
    frequency:   10.8309887459
  - # 8
    frequency:   11.0758561385
  - # 9
    frequency:   11.3852268121
  - # 10
    frequency:   11.7734000658
  - # 11
    frequency:   11.8471975701
  - # 12
    frequency:   12.6191697748
  - # 13
    frequency:   13.7382469779
  - # 14
    frequency:   14.0018903869
  - # 15
    frequency:   17.3569915620

- q-position: [    0.0505051,    0.0000000,    0.0000000 ]
  distance:    0.0156903
  band:
  - # 1
    frequency:    0.1265420481
  - # 2
    frequency:    0.4148787653
  - # 3
    frequency:    1.0286982079
  - # 4
    frequency:    2.9507253788
  - # 5
    frequency:    3.0923388431
  - # 6
    frequency:    4.8925575811
  - # 7
    frequency:   10.7812974308
  - # 8
    frequency:   11.0775397010
  - # 9
    frequency:   11.3902504199
  - # 10
    frequency:   11.7728584026
  - # 11
    frequency:   11.8527405188
  - # 12
    frequency:   12.6479378503
  - # 13
    frequency:   13.7305888625
  - # 14
    frequency:   14.0533420218
  - # 15
    frequency:   17.3552613331

- q-position: [    0.0555556,    0.0000000,    0.0000000 ]
  distance:    0.0172593
  band:
  - # 1
    frequency:    0.1521426773
  - # 2
    frequency:    0.4572165255
  - # 3
    frequency:    1.1308410161
  - # 4
    frequency:    2.9529288718
  - # 5
    frequency:    3.1230278974
  - # 6
    frequency:    4.8928873453
  - # 7
    frequency:   10.7284234142
  - # 8
    frequency:   11.0791818816
  - # 9
    frequency:   11.3961323088
  - # 10
    frequency:   11.7724708238
  - # 11
    frequency:   11.8560468925
  - # 12
    frequency:   12.6800313919
  - # 13
    frequency:   13.7221931383
  - # 14
    frequency:   14.1092603846
  - # 15
    frequency:   17.3533699577

- q-position: [    0.0606061,    0.0000000,    0.0000000 ]
  distance:    0.0188283
  band:
  - # 1
    frequency:    0.1798242314
  - # 2
    frequency:    0.4997754405
  - # 3
    frequency:    1.2327187000
  - # 4
    frequency:    2.9554109253
  - # 5
    frequency:    3.1562663215
  - # 6
    frequency:    4.8932717556
  - # 7
    frequency:   10.6727308952
  - # 8
    frequency:   11.0807196599
  - # 9
    frequency:   11.4028030762
  - # 10
    frequency:   11.7722984346
  - # 11
    frequency:   11.8569601101
  - # 12
    frequency:   12.7152210782
  - # 13
    frequency:   13.7130800064
  - # 14
    frequency:   14.1694415871
  - # 15
    frequency:   17.3513238557

- q-position: [    0.0656566,    0.0000000,    0.0000000 ]
  distance:    0.0203974
  band:
  - # 1
    frequency:    0.2095024805
  - # 2
    frequency:    0.5425661927
  - # 3
    frequency:    1.3342821247
  - # 4
    frequency:    2.9581881965
  - # 5
    frequency:    3.1919779063
  - # 6
    frequency:    4.8937189778
  - # 7
    frequency:   10.6145504935
  - # 8
    frequency:   11.0820858882
  - # 9
    frequency:   11.4101947332
  - # 10
    frequency:   11.7724064278
  - # 11
    frequency:   11.8554251777
  - # 12
    frequency:   12.7531961797
  - # 13
    frequency:   13.7032714291
  - # 14
    frequency:   14.2336798907
  - # 15
    frequency:   17.3491301309

- q-position: [    0.0707071,    0.0000000,    0.0000000 ]
  distance:    0.0219664
  band:
  - # 1
    frequency:    0.2410903348
  - # 2
    frequency:    0.5855972539
  - # 3
    frequency:    1.4354761847
  - # 4
    frequency:    2.9612779332
  - # 5
    frequency:    3.2300881894
  - # 6
    frequency:    4.8942387274
  - # 7
    frequency:   10.5541827979
  - # 8
    frequency:   11.0832101914
  - # 9
    frequency:   11.4182422995
  - # 10
    frequency:   11.7728632134
  - # 11
    frequency:   11.8514673950
  - # 12
    frequency:   12.7935862197
  - # 13
    frequency:   13.6927910888
  - # 14
    frequency:   14.3017651634
  - # 15
    frequency:   17.3467965995

- q-position: [    0.0757576,    0.0000000,    0.0000000 ]
  distance:    0.0235354
  band:
  - # 1
    frequency:    0.2744984285
  - # 2
    frequency:    0.6288747959
  - # 3
    frequency:    1.5362394934
  - # 4
    frequency:    2.9646977856
  - # 5
    frequency:    3.2705253242
  - # 6
    frequency:    4.8948425054
  - # 7
    frequency:   10.4919023889
  - # 8
    frequency:   11.0840200764
  - # 9
    frequency:   11.4268833671
  - # 10
    frequency:   11.7737393353
  - # 11
    frequency:   11.8451709672
  - # 12
    frequency:   12.8359848907
  - # 13
    frequency:   13.6816643447
  - # 14
    frequency:   14.3734796756
  - # 15
    frequency:   17.3443318247

- q-position: [    0.0808081,    0.0000000,    0.0000000 ]
  distance:    0.0251045
  band:
  - # 1
    frequency:    0.3096356438
  - # 2
    frequency:    0.6724026188
  - # 3
    frequency:    1.6365041075
  - # 4
    frequency:    2.9684656131
  - # 5
    frequency:    3.3132207300
  - # 6
    frequency:    4.8955438638
  - # 7
    frequency:   10.4279617001
  - # 8
    frequency:   11.0844422520
  - # 9
    frequency:   11.4360563542
  - # 10
    frequency:   11.7751061775
  - # 11
    frequency:   11.8366605027
  - # 12
    frequency:   12.8799726324
  - # 13
    frequency:   13.6699181871
  - # 14
    frequency:   14.4485947190
  - # 15
    frequency:   17.3417451602

- q-position: [    0.0858586,    0.0000000,    0.0000000 ]
  distance:    0.0266735
  band:
  - # 1
    frequency:    0.3464095761
  - # 2
    frequency:    0.7161820983
  - # 3
    frequency:    1.7361952891
  - # 4
    frequency:    2.9725992872
  - # 5
    frequency:    3.3581095150
  - # 6
    frequency:    4.8963587044
  - # 7
    frequency:   10.3625944662
  - # 8
    frequency:   11.0844041373
  - # 9
    frequency:   11.4456977034
  - # 10
    frequency:   11.7770344759
  - # 11
    frequency:   11.8260871403
  - # 12
    frequency:   12.9251356483
  - # 13
    frequency:   13.6575811905
  - # 14
    frequency:   14.5268674940
  - # 15
    frequency:   17.3390468025

- q-position: [    0.0909091,    0.0000000,    0.0000000 ]
  distance:    0.0282425
  band:
  - # 1
    frequency:    0.3847269493
  - # 2
    frequency:    0.7602121506
  - # 3
    frequency:    1.8352313161
  - # 4
    frequency:    2.9771164942
  - # 5
    frequency:    3.4051306701
  - # 6
    frequency:    4.8973056142
  - # 7
    frequency:   10.2960186936
  - # 8
    frequency:   11.0838355204
  - # 9
    frequency:   11.4557378666
  - # 10
    frequency:   11.7795926771
  - # 11
    frequency:   11.8136200479
  - # 12
    frequency:   12.9710804411
  - # 13
    frequency:   13.6446834660
  - # 14
    frequency:   14.6080386331
  - # 15
    frequency:   17.3362478544

- q-position: [    0.0959596,    0.0000000,    0.0000000 ]
  distance:    0.0298115
  band:
  - # 1
    frequency:    0.4244939851
  - # 2
    frequency:    0.8044892149
  - # 3
    frequency:    1.9335233519
  - # 4
    frequency:    2.9820345378
  - # 5
    frequency:    3.4542270284
  - # 6
    frequency:    4.8984062411
  - # 7
    frequency:   10.2284391820
  - # 8
    frequency:   11.0826703011
  - # 9
    frequency:   11.4660954721
  - # 10
    frequency:   11.7828452072
  - # 11
    frequency:   11.7994435877
  - # 12
    frequency:   13.0174438715
  - # 13
    frequency:   13.6312566120
  - # 14
    frequency:   14.6918306180
  - # 15
    frequency:   17.3333604022

- q-position: [    0.1010101,    0.0000000,    0.0000000 ]
  distance:    0.0313806
  band:
  - # 1
    frequency:    0.4656167357
  - # 2
    frequency:    0.8490072532
  - # 3
    frequency:    2.0309753883
  - # 4
    frequency:    2.9873701445
  - # 5
    frequency:    3.5053449889
  - # 6
    frequency:    4.8996857178
  - # 7
    frequency:   10.1600496518
  - # 8
    frequency:   11.0808482333
  - # 9
    frequency:   11.4766683963
  - # 10
    frequency:   11.7837607025
  - # 11
    frequency:   11.7868507341
  - # 12
    frequency:   13.0638992553
  - # 13
    frequency:   13.6173336654
  - # 14
    frequency:   14.7779472246
  - # 15
    frequency:   17.3303976086

- q-position: [    0.1060606,    0.0000000,    0.0000000 ]
  distance:    0.0329496
  band:
  - # 1
    frequency:    0.5080013828
  - # 2
    frequency:    0.8937577669
  - # 3
    frequency:    2.1274842797
  - # 4
    frequency:    2.9931392741
  - # 5
    frequency:    3.5584339973
  - # 6
    frequency:    4.9011731392
  - # 7
    frequency:   10.0910345377
  - # 8
    frequency:   11.0783165695
  - # 9
    frequency:   11.4873192883
  - # 10
    frequency:   11.7668041702
  - # 11
    frequency:   11.7916605222
  - # 12
    frequency:   13.1101592236
  - # 13
    frequency:   13.6029490527
  - # 14
    frequency:   14.8660740058
  - # 15
    frequency:   17.3273738241

- q-position: [    0.1111111,    0.0000000,    0.0000000 ]
  distance:    0.0345186
  band:
  - # 1
    frequency:    0.5515545109
  - # 2
    frequency:    0.9387298281
  - # 3
    frequency:    2.2229398872
  - # 4
    frequency:    2.9993569353
  - # 5
    frequency:    3.6134457736
  - # 6
    frequency:    4.9029021028
  - # 7
    frequency:   10.0215705065
  - # 8
    frequency:   11.0750315020
  - # 9
    frequency:   11.4978508743
  - # 10
    frequency:   11.7488596811
  - # 11
    frequency:   11.7973169805
  - # 12
    frequency:   13.1559760920
  - # 13
    frequency:   13.5881385413
  - # 14
    frequency:   14.9558797186
  - # 15
    frequency:   17.3243047202

- q-position: [    0.1161616,    0.0000000,    0.0000000 ]
  distance:    0.0360877
  band:
  - # 1
    frequency:    0.5961833561
  - # 2
    frequency:    0.9839101265
  - # 3
    frequency:    2.3172253508
  - # 4
    frequency:    3.0060370111
  - # 5
    frequency:    3.6703332762
  - # 6
    frequency:    4.9049113267
  - # 7
    frequency:    9.9518277413
  - # 8
    frequency:   11.0709593086
  - # 9
    frequency:   11.5079622244
  - # 10
    frequency:   11.7303089968
  - # 11
    frequency:   11.8038524988
  - # 12
    frequency:   13.2011404244
  - # 13
    frequency:   13.5729391923
  - # 14
    frequency:   15.0470185222
  - # 15
    frequency:   17.3212074486

- q-position: [    0.1212121,    0.0000000,    0.0000000 ]
  distance:    0.0376567
  band:
  - # 1
    frequency:    0.6417960355
  - # 2
    frequency:    1.0292830293
  - # 3
    frequency:    2.4102175083
  - # 4
    frequency:    3.0131920923
  - # 5
    frequency:    3.7290493841
  - # 6
    frequency:    4.9072453598
  - # 7
    frequency:    9.8819710336
  - # 8
    frequency:   11.0660771297
  - # 9
    frequency:   11.5171704160
  - # 10
    frequency:   11.7117083449
  - # 11
    frequency:   11.8112886428
  - # 12
    frequency:   13.2454783804
  - # 13
    frequency:   13.5573893140
  - # 14
    frequency:   15.1391327291
  - # 15
    frequency:   17.3181008292

- q-position: [    0.1262626,    0.0000000,    0.0000000 ]
  distance:    0.0392257
  band:
  - # 1
    frequency:    0.6883017571
  - # 2
    frequency:    1.0748306540
  - # 3
    frequency:    2.5017874703
  - # 4
    frequency:    3.0208333229
  - # 5
    frequency:    3.7895452801
  - # 6
    frequency:    4.9099554098
  - # 7
    frequency:    9.8121607091
  - # 8
    frequency:   11.0603733334
  - # 9
    frequency:   11.5246772416
  - # 10
    frequency:   11.6939221285
  - # 11
    frequency:   11.8196357508
  - # 12
    frequency:   13.2888483256
  - # 13
    frequency:   13.5415284176
  - # 14
    frequency:   15.2318558789
  - # 15
    frequency:   17.3150055736

- q-position: [    0.1313131,    0.0000000,    0.0000000 ]
  distance:    0.0407947
  band:
  - # 1
    frequency:    0.7356110123
  - # 2
    frequency:    1.1205329530
  - # 3
    frequency:    2.5918013568
  - # 4
    frequency:    3.0289702580
  - # 5
    frequency:    3.8517685082
  - # 6
    frequency:    4.9131003251
  - # 7
    frequency:    9.7425534133
  - # 8
    frequency:   11.0538474651
  - # 9
    frequency:   11.5291915059
  - # 10
    frequency:   11.6783012192
  - # 11
    frequency:   11.8288929355
  - # 12
    frequency:   13.3311370846
  - # 13
    frequency:   13.5253971750
  - # 14
    frequency:   15.3248159168
  - # 15
    frequency:   17.3119445455

- q-position: [    0.1363636,    0.0000000,    0.0000000 ]
  distance:    0.0423638
  band:
  - # 1
    frequency:    0.7836357509
  - # 2
    frequency:    1.1663678076
  - # 3
    frequency:    2.6801211888
  - # 4
    frequency:    3.0376107350
  - # 5
    frequency:    3.9156606755
  - # 6
    frequency:    4.9167477824
  - # 7
    frequency:    9.6733027724
  - # 8
    frequency:   11.0465098107
  - # 9
    frequency:   11.5288962273
  - # 10
    frequency:   11.6667164109
  - # 11
    frequency:   11.8390484617
  - # 12
    frequency:   13.3722561210
  - # 13
    frequency:   13.5090373784
  - # 14
    frequency:   15.4176382893
  - # 15
    frequency:   17.3089430667

- q-position: [    0.1414141,    0.0000000,    0.0000000 ]
  distance:    0.0439328
  band:
  - # 1
    frequency:    0.8322895370
  - # 2
    frequency:    1.2123111324
  - # 3
    frequency:    2.7666059151
  - # 4
    frequency:    3.0467607594
  - # 5
    frequency:    3.9811547429
  - # 6
    frequency:    4.9209757645
  - # 7
    frequency:    9.6045599452
  - # 8
    frequency:   11.0383806332
  - # 9
    frequency:   11.5220677568
  - # 10
    frequency:   11.6609399538
  - # 11
    frequency:   11.8500804392
  - # 12
    frequency:   13.4121378472
  - # 13
    frequency:   13.4924919028
  - # 14
    frequency:   15.5099488155
  - # 15
    frequency:   17.3060292679

- q-position: [    0.1464646,    0.0000000,    0.0000000 ]
  distance:    0.0455018
  band:
  - # 1
    frequency:    0.8814876879
  - # 2
    frequency:    1.2583369870
  - # 3
    frequency:    2.8511125473
  - # 4
    frequency:    3.0564244062
  - # 5
    frequency:    4.0481718148
  - # 6
    frequency:    4.9258744613
  - # 7
    frequency:    9.5364740749
  - # 8
    frequency:   11.0294891611
  - # 9
    frequency:   11.5083014228
  - # 10
    frequency:   11.6614205255
  - # 11
    frequency:   11.8619577533
  - # 12
    frequency:   13.4507321948
  - # 13
    frequency:   13.4758046708
  - # 14
    frequency:   15.6013762313
  - # 15
    frequency:   17.3032344903

- q-position: [    0.1515152,    0.0000000,    0.0000000 ]
  distance:    0.0470709
  band:
  - # 1
    frequency:    0.9311473915
  - # 2
    frequency:    1.3044176951
  - # 3
    frequency:    2.9334973631
  - # 4
    frequency:    3.0666037366
  - # 5
    frequency:    4.1166172561
  - # 6
    frequency:    4.9315488093
  - # 7
    frequency:    9.4691926485
  - # 8
    frequency:   11.0198724156
  - # 9
    frequency:   11.4887476946
  - # 10
    frequency:   11.6670476292
  - # 11
    frequency:   11.8746411452
  - # 12
    frequency:   13.4590206195
  - # 13
    frequency:   13.4880035228
  - # 14
    frequency:   15.6915543523
  - # 15
    frequency:   17.3005937328

- q-position: [    0.1565657,    0.0000000,    0.0000000 ]
  distance:    0.0486399
  band:
  - # 1
    frequency:    0.9811878047
  - # 2
    frequency:    1.3505239694
  - # 3
    frequency:    3.0136171430
  - # 4
    frequency:    3.0772987316
  - # 5
    frequency:    4.1863758200
  - # 6
    frequency:    4.9381220350
  - # 7
    frequency:    9.4028617696
  - # 8
    frequency:   11.0095739598
  - # 9
    frequency:   11.4650203625
  - # 10
    frequency:   11.6762439170
  - # 11
    frequency:   11.8880843612
  - # 12
    frequency:   13.4421856705
  - # 13
    frequency:   13.5239278976
  - # 14
    frequency:   15.7801238364
  - # 15
    frequency:   17.2981461399

- q-position: [    0.1616162,    0.0000000,    0.0000000 ]
  distance:    0.0502089
  band:
  - # 1
    frequency:    1.0315301299
  - # 2
    frequency:    1.3966250411
  - # 3
    frequency:    3.0885072420
  - # 4
    frequency:    3.0913304137
  - # 5
    frequency:    4.2573052036
  - # 6
    frequency:    4.9457408181
  - # 7
    frequency:    9.3376263465
  - # 8
    frequency:   10.9986426429
  - # 9
    frequency:   11.4383925394
  - # 10
    frequency:   11.6877696325
  - # 11
    frequency:   11.9022352963
  - # 12
    frequency:   13.4253467001
  - # 13
    frequency:   13.5584907462
  - # 14
    frequency:   15.8667335664
  - # 15
    frequency:   17.2959355095

- q-position: [    0.1666667,    0.0000000,    0.0000000 ]
  distance:    0.0517779
  band:
  - # 1
    frequency:    1.0820976705
  - # 2
    frequency:    1.4426887944
  - # 3
    frequency:    3.1002249545
  - # 4
    frequency:    3.1664986914
  - # 5
    frequency:    4.3292269731
  - # 6
    frequency:    4.9545831454
  - # 7
    frequency:    9.2736301965
  - # 8
    frequency:   10.9871313978
  - # 9
    frequency:   11.4096947783
  - # 10
    frequency:   11.7008248856
  - # 11
    frequency:   11.9170370776
  - # 12
    frequency:   13.4085515112
  - # 13
    frequency:   13.5916848670
  - # 14
    frequency:   15.9510417046
  - # 15
    frequency:   17.2940107871

- q-position: [    0.1717172,    0.0000000,    0.0000000 ]
  distance:    0.0533470
  band:
  - # 1
    frequency:    1.1328158649
  - # 2
    frequency:    1.4886819026
  - # 3
    frequency:    3.1124453746
  - # 4
    frequency:    3.2389877553
  - # 5
    frequency:    4.4019129712
  - # 6
    frequency:    4.9648707236
  - # 7
    frequency:    9.2110160656
  - # 8
    frequency:   10.9750961311
  - # 9
    frequency:   11.3794487160
  - # 10
    frequency:   11.7149163524
  - # 11
    frequency:   11.9324290485
  - # 12
    frequency:   13.3918488046
  - # 13
    frequency:   13.6235087661
  - # 14
    frequency:   16.0327165085
  - # 15
    frequency:   17.2924264856

- q-position: [    0.1767677,    0.0000000,    0.0000000 ]
  distance:    0.0549160
  band:
  - # 1
    frequency:    1.1836122993
  - # 2
    frequency:    1.5345699679
  - # 3
    frequency:    3.1251598259
  - # 4
    frequency:    3.3086690132
  - # 5
    frequency:    4.4750638760
  - # 6
    frequency:    4.9768892221
  - # 7
    frequency:    9.1499255615
  - # 8
    frequency:   10.9625947296
  - # 9
    frequency:   11.3479907877
  - # 10
    frequency:   11.7297338641
  - # 11
    frequency:   11.9483476315
  - # 12
    frequency:   13.3752881475
  - # 13
    frequency:   13.6539652847
  - # 14
    frequency:   16.1114370415
  - # 15
    frequency:   17.2912429314

- q-position: [    0.1818182,    0.0000000,    0.0000000 ]
  distance:    0.0564850
  band:
  - # 1
    frequency:    1.2344167013
  - # 2
    frequency:    1.5803176614
  - # 3
    frequency:    3.1383574643
  - # 4
    frequency:    3.3754210588
  - # 5
    frequency:    4.5482742150
  - # 6
    frequency:    4.9910219533
  - # 7
    frequency:    9.0904989949
  - # 8
    frequency:   10.9496861954
  - # 9
    frequency:   11.3155493905
  - # 10
    frequency:   11.7450735110
  - # 11
    frequency:   11.9647270628
  - # 12
    frequency:   13.3589199388
  - # 13
    frequency:   13.6830604787
  - # 14
    frequency:   16.1868939650
  - # 15
    frequency:   17.2905261880

- q-position: [    0.1868687,    0.0000000,    0.0000000 ]
  distance:    0.0580541
  band:
  - # 1
    frequency:    1.2851609139
  - # 2
    frequency:    1.6258888650
  - # 3
    frequency:    3.1520253080
  - # 4
    frequency:    3.4391315356
  - # 5
    frequency:    4.6209748315
  - # 6
    frequency:    5.0078058820
  - # 7
    frequency:    9.0328751246
  - # 8
    frequency:   10.9364299069
  - # 9
    frequency:   11.2822888377
  - # 10
    frequency:   11.7607939282
  - # 11
    frequency:   11.9815000017
  - # 12
    frequency:   13.3427953661
  - # 13
    frequency:   13.7108027144
  - # 14
    frequency:   16.2587906683
  - # 15
    frequency:   17.2903474349

- q-position: [    0.1919192,    0.0000000,    0.0000000 ]
  distance:    0.0596231
  band:
  - # 1
    frequency:    1.3357788546
  - # 2
    frequency:    1.6712468123
  - # 3
    frequency:    3.1661482820
  - # 4
    frequency:    3.4996994118
  - # 5
    frequency:    4.6923419446
  - # 6
    frequency:    5.0280207267
  - # 7
    frequency:    8.9771908001
  - # 8
    frequency:   10.9228849999
  - # 9
    frequency:   11.2483341896
  - # 10
    frequency:   11.7767916787
  - # 11
    frequency:   11.9985980274
  - # 12
    frequency:   13.3269663523
  - # 13
    frequency:   13.7372019458
  - # 14
    frequency:   16.3268450701
  - # 15
    frequency:   17.2907815013

- q-position: [    0.1969697,    0.0000000,    0.0000000 ]
  distance:    0.0611921
  band:
  - # 1
    frequency:    1.3862064592
  - # 2
    frequency:    1.7163542307
  - # 3
    frequency:    3.1807092763
  - # 4
    frequency:    3.5570377275
  - # 5
    frequency:    4.7611741409
  - # 6
    frequency:    5.0528097582
  - # 7
    frequency:    8.9235804940
  - # 8
    frequency:   10.9091098566
  - # 9
    frequency:   11.2137855657
  - # 10
    frequency:   11.7929871364
  - # 11
    frequency:   12.0159520395
  - # 12
    frequency:   13.3114854875
  - # 13
    frequency:   13.7622691440
  - # 14
    frequency:   16.3907925048
  - # 15
    frequency:   17.2919041725

- q-position: [    0.2020202,    0.0000000,    0.0000000 ]
  distance:    0.0627611
  band:
  - # 1
    frequency:    1.4363816154
  - # 2
    frequency:    1.7611734809
  - # 3
    frequency:    3.1956892170
  - # 4
    frequency:    3.6110767862
  - # 5
    frequency:    4.8258060901
  - # 6
    frequency:    5.0837635371
  - # 7
    frequency:    8.8721757196
  - # 8
    frequency:   10.8951616882
  - # 9
    frequency:   11.1787266379
  - # 10
    frequency:   11.8093161698
  - # 11
    frequency:   12.0334925835
  - # 12
    frequency:   13.2964059391
  - # 13
    frequency:   13.7860158524
  - # 14
    frequency:   16.4503901451
  - # 15
    frequency:   17.2937878404

- q-position: [    0.2070707,    0.0000000,    0.0000000 ]
  distance:    0.0643302
  band:
  - # 1
    frequency:    1.4862440889
  - # 2
    frequency:    1.8056666961
  - # 3
    frequency:    3.2110671501
  - # 4
    frequency:    3.6617676525
  - # 5
    frequency:    4.8843035141
  - # 6
    frequency:    5.1227222035
  - # 7
    frequency:    8.8231043246
  - # 8
    frequency:   10.8810961973
  - # 9
    frequency:   11.1432298323
  - # 10
    frequency:   11.8257251050
  - # 11
    frequency:   12.0511501223
  - # 12
    frequency:   13.2817813354
  - # 13
    frequency:   13.8084538456
  - # 14
    frequency:   16.5054233658
  - # 15
    frequency:   17.2964951178

- q-position: [    0.2121212,    0.0000000,    0.0000000 ]
  distance:    0.0658992
  band:
  - # 1
    frequency:    1.5357354446
  - # 2