nqpoint: 300    
npath: 3      
segment_nqpoint:
- 100
- 100
- 100
labels:
- [ 'G', 'M' ]
- [ 'M', 'K' ]
- [ 'K', 'G' ]
reciprocal_lattice:
- [   0.26918726,   0.15541534,   0.00000000 ] # a*
- [   0.00000000,   0.31083067,   0.00000000 ] # b*
- [   0.00000000,   0.00000000,   0.04104974 ] # c*
natom: 6      
lattice:
- [     3.714886073835766,     0.000000000000000,     0.000000000000000 ] # a
- [    -1.857443036917883,     3.217185712095862,     0.000000000000000 ] # b
- [     0.000000000000000,     0.000000000000000,    24.360691023461271 ] # c
points:
- symbol: C # 1
  coordinates: [  0.000000000000000,  0.000000000000000,  0.458208700209299 ]
  mass: 12.010700
- symbol: Cl # 2
  coordinates: [  0.333332985432215,  0.666666983183674,  0.630552352093285 ]
  mass: 35.453000
- symbol: F # 3
  coordinates: [  0.666666984744047,  0.333332985985144,  0.369447647906715 ]
  mass: 18.998403
- symbol: O # 4
  coordinates: [  0.333332985432215,  0.666666983183674,  0.521651427296208 ]
  mass: 15.999400
- symbol: Y # 5
  coordinates: [  0.333332985432215,  0.666666983183674,  0.418462923340964 ]
  mass: 88.905850
- symbol: Y # 6
  coordinates: [  0.666666984744047,  0.333332985985144,  0.548492237146436 ]
  mass: 88.905850

phonon:
- q-position: [    0.0000000,    0.0000000,    0.0000000 ]
  distance:    0.0000000
  band:
  - # 1
    frequency:   -3.7458247675
  - # 2
    frequency:   -3.7458247675
  - # 3
    frequency:   -0.0000166404
  - # 4
    frequency:    0.0000001162
  - # 5
    frequency:    0.0000113586
  - # 6
    frequency:    1.6629561318
  - # 7
    frequency:    1.6629561319
  - # 8
    frequency:    3.0778515503
  - # 9
    frequency:    3.4153341747
  - # 10
    frequency:    3.4153341748
  - # 11
    frequency:    7.4286463302
  - # 12
    frequency:    8.0254995430
  - # 13
    frequency:    8.0254995430
  - # 14
    frequency:    9.4843501840
  - # 15
    frequency:   10.7614069545
  - # 16
    frequency:   11.5306786071
  - # 17
    frequency:   11.5306786072
  - # 18
    frequency:   13.0071612623

- q-position: [    0.0050505,    0.0000000,    0.0000000 ]
  distance:    0.0015699
  band:
  - # 1
    frequency:   -3.7471972823
  - # 2
    frequency:   -3.7463218321
  - # 3
    frequency:   -0.0351430630
  - # 4
    frequency:    0.0009827807
  - # 5
    frequency:    0.0601551361
  - # 6
    frequency:    1.6635046686
  - # 7
    frequency:    1.6642693161
  - # 8
    frequency:    3.0773564697
  - # 9
    frequency:    3.4163347298
  - # 10
    frequency:    3.4166493814
  - # 11
    frequency:    7.4254982110
  - # 12
    frequency:    8.0245396648
  - # 13
    frequency:    8.0259434972
  - # 14
    frequency:    9.4837114160
  - # 15
    frequency:   10.7612871912
  - # 16
    frequency:   11.5312560765
  - # 17
    frequency:   11.5321120000
  - # 18
    frequency:   13.0055389803

- q-position: [    0.0101010,    0.0000000,    0.0000000 ]
  distance:    0.0031397
  band:
  - # 1
    frequency:   -3.7513107754
  - # 2
    frequency:   -3.7478194809
  - # 3
    frequency:   -0.0700601951
  - # 4
    frequency:    0.0032538167
  - # 5
    frequency:    0.1204485806
  - # 6
    frequency:    1.6651307256
  - # 7
    frequency:    1.6681853565
  - # 8
    frequency:    3.0758907079
  - # 9
    frequency:    3.4193342063
  - # 10
    frequency:    3.4205689681
  - # 11
    frequency:    7.4161281656
  - # 12
    frequency:    8.0216619896
  - # 13
    frequency:    8.0272140951
  - # 14
    frequency:    9.4817944624
  - # 15
    frequency:   10.7609186342
  - # 16
    frequency:   11.5329881170
  - # 17
    frequency:   11.5364099677
  - # 18
    frequency:   13.0006817680

- q-position: [    0.0151515,    0.0000000,    0.0000000 ]
  distance:    0.0047096
  band:
  - # 1
    frequency:   -3.7581531433
  - # 2
    frequency:   -3.7503370194
  - # 3
    frequency:   -0.1045307945
  - # 4
    frequency:    0.0070338303
  - # 5
    frequency:    0.1810115258
  - # 6
    frequency:    1.6677768070
  - # 7
    frequency:    1.6746348937
  - # 8
    frequency:    3.0735098513
  - # 9
    frequency:    3.4243258848
  - # 10
    frequency:    3.4270178499
  - # 11
    frequency:    7.4007476278
  - # 12
    frequency:    8.0168723974
  - # 13
    frequency:    8.0291387791
  - # 14
    frequency:    9.4785974772
  - # 15
    frequency:   10.7602739815
  - # 16
    frequency:   11.5358736108
  - # 17
    frequency:   11.5435654791
  - # 18
    frequency:   12.9926185685

- q-position: [    0.0202020,    0.0000000,    0.0000000 ]
  distance:    0.0062794
  band:
  - # 1
    frequency:   -3.7677043790
  - # 2
    frequency:   -3.7539064232
  - # 3
    frequency:   -0.1383444437
  - # 4
    frequency:    0.0124348623
  - # 5
    frequency:    0.2419587576
  - # 6
    frequency:    1.6713508388
  - # 7
    frequency:    1.6835061513
  - # 8
    frequency:    3.0702979965
  - # 9
    frequency:    3.4312980677
  - # 10
    frequency:    3.4358799749
  - # 11
    frequency:    7.3796748912
  - # 12
    frequency:    8.0101806945
  - # 13
    frequency:    8.0314631750
  - # 14
    frequency:    9.4741177184
  - # 15
    frequency:   10.7593093391
  - # 16
    frequency:   11.5399106463
  - # 17
    frequency:   11.5535655293
  - # 18
    frequency:   12.9813977655

- q-position: [    0.0252525,    0.0000000,    0.0000000 ]
  distance:    0.0078493
  band:
  - # 1
    frequency:   -3.7799368095
  - # 2
    frequency:   -3.7585720345
  - # 3
    frequency:   -0.1713048873
  - # 4
    frequency:    0.0195609395
  - # 5
    frequency:    0.3033831100
  - # 6
    frequency:    1.6757313881
  - # 7
    frequency:    1.6946503275
  - # 8
    frequency:    3.0663577783
  - # 9
    frequency:    3.4402333768
  - # 10
    frequency:    3.4470091060
  - # 11
    frequency:    7.3532961979
  - # 12
    frequency:    8.0016006219
  - # 13
    frequency:    8.0338887456
  - # 14
    frequency:    9.4683520171
  - # 15
    frequency:   10.7579664566
  - # 16
    frequency:   11.5450964454
  - # 17
    frequency:   11.5663893515
  - # 18
    frequency:   12.9670874182

- q-position: [    0.0303030,    0.0000000,    0.0000000 ]
  distance:    0.0094191
  band:
  - # 1
    frequency:   -3.7948154061
  - # 2
    frequency:   -3.7643901270
  - # 3
    frequency:   -0.2032328854
  - # 4
    frequency:    0.0285155199
  - # 5
    frequency:    0.3653506800
  - # 6
    frequency:    1.6807742252
  - # 7
    frequency:    1.7078885146
  - # 8
    frequency:    3.0618006538
  - # 9
    frequency:    3.4511078609
  - # 10
    frequency:    3.4602396710
  - # 11
    frequency:    7.3220285987
  - # 12
    frequency:    7.9911498651
  - # 13
    frequency:    8.0361082660
  - # 14
    frequency:    9.4612973706
  - # 15
    frequency:   10.7561755273
  - # 16
    frequency:   11.5514272654
  - # 17
    frequency:   11.5820061645
  - # 18
    frequency:   12.9497756284

- q-position: [    0.0353535,    0.0000000,    0.0000000 ]
  distance:    0.0109890
  band:
  - # 1
    frequency:   -3.8122981508
  - # 2
    frequency:   -3.7714283344
  - # 3
    frequency:   -0.2339678538
  - # 4
    frequency:    0.0393927891
  - # 5
    frequency:    0.4278977244
  - # 6
    frequency:    1.6863196455
  - # 7
    frequency:    1.7230196232
  - # 8
    frequency:    3.0567393369
  - # 9
    frequency:    3.4638899918
  - # 10
    frequency:    3.4753957781
  - # 11
    frequency:    7.2862911383
  - # 12
    frequency:    7.9788500647
  - # 13
    frequency:    8.0378326566
  - # 14
    frequency:    9.4529516125
  - # 15
    frequency:   10.7538582852
  - # 16
    frequency:   11.5588982777
  - # 17
    frequency:   11.6003726373
  - # 18
    frequency:   12.9295710859

- q-position: [    0.0404040,    0.0000000,    0.0000000 ]
  distance:    0.0125588
  band:
  - # 1
    frequency:   -3.8323364368
  - # 2
    frequency:   -3.7797649312
  - # 3
    frequency:   -0.2633683604
  - # 4
    frequency:    0.0522695000
  - # 5
    frequency:    0.4910290434
  - # 6
    frequency:    1.6921999714
  - # 7
    frequency:    1.7398287792
  - # 8
    frequency:    3.0512831759
  - # 9
    frequency:    3.4785396456
  - # 10
    frequency:    3.4922976008
  - # 11
    frequency:    7.2464862245
  - # 12
    frequency:    7.9647268244
  - # 13
    frequency:    8.0388074087
  - # 14
    frequency:    9.4433141023
  - # 15
    frequency:   10.7509311309
  - # 16
    frequency:   11.5675034250
  - # 17
    frequency:   11.6214302177
  - # 18
    frequency:   12.9066038677

- q-position: [    0.0454545,    0.0000000,    0.0000000 ]
  distance:    0.0141287
  band:
  - # 1
    frequency:   -3.8548754849
  - # 2
    frequency:   -3.7894879559
  - # 3
    frequency:   -0.2913116600
  - # 4
    frequency:    0.0671995149
  - # 5
    frequency:    0.5547175350
  - # 6
    frequency:    1.6982467353
  - # 7
    frequency:    1.7580957040
  - # 8
    frequency:    3.0455363576
  - # 9
    frequency:    3.4950071649
  - # 10
    frequency:    3.5107652387
  - # 11
    frequency:    7.2029898574
  - # 12
    frequency:    7.9488097155
  - # 13
    frequency:    8.0388200264
  - # 14
    frequency:    9.4323863894
  - # 15
    frequency:   10.7473080523
  - # 16
    frequency:   11.5772352633
  - # 17
    frequency:   11.6451023818
  - # 18
    frequency:   12.8810266099

- q-position: [    0.0505051,    0.0000000,    0.0000000 ]
  distance:    0.0156985
  band:
  - # 1
    frequency:   -3.8798547570
  - # 2
    frequency:   -3.8006941674
  - # 3
    frequency:   -0.3176925134
  - # 4
    frequency:    0.0842111306
  - # 5
    frequency:    0.6189045270
  - # 6
    frequency:    1.7042971547
  - # 7
    frequency:    1.7776026899
  - # 8
    frequency:    3.0395983314
  - # 9
    frequency:    3.5132325969
  - # 10
    frequency:    3.5306206425
  - # 11
    frequency:    7.1561481495
  - # 12
    frequency:    7.9311322747
  - # 13
    frequency:    8.0377011457
  - # 14
    frequency:    9.4201728109
  - # 15
    frequency:   10.7429031728
  - # 16
    frequency:   11.5880847903
  - # 17
    frequency:   11.6712917268
  - # 18
    frequency:   12.8530162407

- q-position: [    0.0555556,    0.0000000,    0.0000000 ]
  distance:    0.0172684
  band:
  - # 1
    frequency:   -3.9072083533
  - # 2
    frequency:   -3.8134878243
  - # 3
    frequency:   -0.3424215505
  - # 4
    frequency:    0.1033066559
  - # 5
    frequency:    0.6835004888
  - # 6
    frequency:    1.7101996422
  - # 7
    frequency:    1.7981418998
  - # 8
    frequency:    3.0335657267
  - # 9
    frequency:    3.5331451893
  - # 10
    frequency:    3.5516883119
  - # 11
    frequency:    7.1062776386
  - # 12
    frequency:    7.9117319932
  - # 13
    frequency:    8.0353219102
  - # 14
    frequency:    9.4066809937
  - # 15
    frequency:   10.7376328361
  - # 16
    frequency:   11.6000412668
  - # 17
    frequency:   11.6998766310
  - # 18
    frequency:   12.8227765805

- q-position: [    0.0606061,    0.0000000,    0.0000000 ]
  distance:    0.0188382
  band:
  - # 1
    frequency:   -3.9368653812
  - # 2
    frequency:   -3.8279792796
  - # 3
    frequency:   -0.3654234144
  - # 4
    frequency:    0.1244635485
  - # 5
    frequency:    0.7483857693
  - # 6
    frequency:    1.7158182167
  - # 7
    frequency:    1.8195218471
  - # 8
    frequency:    3.0275351275
  - # 9
    frequency:    3.5546632046
  - # 10
    frequency:    3.5737953712
  - # 11
    frequency:    7.0536675047
  - # 12
    frequency:    7.8906502946
  - # 13
    frequency:    8.0315895612
  - # 14
    frequency:    9.3919222471
  - # 15
    frequency:   10.7314172139
  - # 16
    frequency:   11.6130920338
  - # 17
    frequency:   11.7307069458
  - # 18
    frequency:   12.7905423010

- q-position: [    0.0656566,    0.0000000,    0.0000000 ]
  distance:    0.0204081
  band:
  - # 1
    frequency:   -3.9687502925
  - # 2
    frequency:   -3.8442833876
  - # 3
    frequency:   -0.3866348768
  - # 4
    frequency:    0.1476364577
  - # 5
    frequency:    0.8134110872
  - # 6
    frequency:    1.7210357826
  - # 7
    frequency:    1.8415730195
  - # 8
    frequency:    3.0216062304
  - # 9
    frequency:    3.5776940873
  - # 10
    frequency:    3.5967714571
  - # 11
    frequency:    6.9985824765
  - # 12
    frequency:    7.8679324992
  - # 13
    frequency:    8.0264425071
  - # 14
    frequency:    9.3759118390
  - # 15
    frequency:   10.7241814877
  - # 16
    frequency:   11.6272223307
  - # 17
    frequency:   11.7635977980
  - # 18
    frequency:   12.7565850607

- q-position: [    0.0707071,    0.0000000,    0.0000000 ]
  distance:    0.0219779
  band:
  - # 1
    frequency:   -4.0027831851
  - # 2
    frequency:   -3.8625177216
  - # 3
    frequency:   -0.4060030611
  - # 4
    frequency:    0.1727596597
  - # 5
    frequency:    0.8783975863
  - # 6
    frequency:    1.7257563283
  - # 7
    frequency:    1.8641526847
  - # 8
    frequency:    3.0158850763
  - # 9
    frequency:    3.6021349947
  - # 10
    frequency:    3.6204486829
  - # 11
    frequency:    6.9412657420
  - # 12
    frequency:    7.8436277726
  - # 13
    frequency:    8.0198455949
  - # 14
    frequency:    9.3586691602
  - # 15
    frequency:   10.7158566983
  - # 16
    frequency:   11.6424151198
  - # 17
    frequency:   11.7983200005
  - # 18
    frequency:   12.7212231799

- q-position: [    0.0757576,    0.0000000,    0.0000000 ]
  distance:    0.0235478
  band:
  - # 1
    frequency:   -4.0388800737
  - # 2
    frequency:   -3.8828006098
  - # 3
    frequency:   -0.4234838582
  - # 4
    frequency:    0.1997495239
  - # 5
    frequency:    0.9431363770
  - # 6
    frequency:    1.7299061489
  - # 7
    frequency:    1.8871489500
  - # 8
    frequency:    3.0104871626
  - # 9
    frequency:    3.6278736683
  - # 10
    frequency:    3.6446618103
  - # 11
    frequency:    6.8819415344
  - # 12
    frequency:    7.8177890567
  - # 13
    frequency:    8.0117859360
  - # 14
    frequency:    9.3402177879
  - # 15
    frequency:   10.7063803775
  - # 16
    frequency:   11.6586509199
  - # 17
    frequency:   11.8345845980
  - # 18
    frequency:   12.6848371804

- q-position: [    0.0808081,    0.0000000,    0.0000000 ]
  distance:    0.0251176
  band:
  - # 1
    frequency:   -4.0769531321
  - # 2
    frequency:   -3.9052490021
  - # 3
    frequency:   -0.4390405737
  - # 4
    frequency:    0.2285067956
  - # 5
    frequency:    1.0073875936
  - # 6
    frequency:    1.7334342325
  - # 7
    frequency:    1.9104841294
  - # 8
    frequency:    3.0055403221
  - # 9
    frequency:    3.6547896045
  - # 10
    frequency:    3.6692486710
  - # 11
    frequency:    6.8208172803
  - # 12
    frequency:    7.7904729818
  - # 13
    frequency:    8.0022694114
  - # 14
    frequency:    9.3205854598
  - # 15
    frequency:   10.6956970763
  - # 16
    frequency:   11.6759076541
  - # 17
    frequency:   11.8720174202
  - # 18
    frequency:   12.6478951741

- q-position: [    0.0858586,    0.0000000,    0.0000000 ]
  distance:    0.0266875
  band:
  - # 1
    frequency:   -4.1169109156
  - # 2
    frequency:   -3.9299761910
  - # 3
    frequency:   -0.4526428119
  - # 4
    frequency:    0.2589185873
  - # 5
    frequency:    1.0708791458
  - # 6
    frequency:    1.7363119676
  - # 7
    frequency:    1.9341173896
  - # 8
    frequency:    3.0011872967
  - # 9
    frequency:    3.6827554626
  - # 10
    frequency:    3.6940508245
  - # 11
    frequency:    6.7580853151
  - # 12
    frequency:    7.7617397577
  - # 13
    frequency:    7.9913178585
  - # 14
    frequency:    9.2998039756
  - # 15
    frequency:   10.6837588879
  - # 16
    frequency:   11.6941605154
  - # 17
    frequency:   11.9101166951
  - # 18
    frequency:   12.6109949349

- q-position: [    0.0909091,    0.0000000,    0.0000000 ]
  distance:    0.0282573
  band:
  - # 1
    frequency:   -4.1586585712
  - # 2
    frequency:   -3.9570894180
  - # 3
    frequency:   -0.4642655764
  - # 4
    frequency:    0.2908600534
  - # 5
    frequency:    1.1333055294
  - # 6
    frequency:    1.7385323262
  - # 7
    frequency:    1.9580464972
  - # 8
    frequency:    2.9975879414
  - # 9
    frequency:    3.7116386375
  - # 10
    frequency:    3.7189144107
  - # 11
    frequency:    6.6939242299
  - # 12
    frequency:    7.7316530439
  - # 13
    frequency:    7.9789668725
  - # 14
    frequency:    9.2779090382
  - # 15
    frequency:   10.6705260368
  - # 16
    frequency:   11.7133818531
  - # 17
    frequency:   11.9481823343
  - # 18
    frequency:   12.5749339625

- q-position: [    0.0959596,    0.0000000,    0.0000000 ]
  distance:    0.0298272
  band:
  - # 1
    frequency:   -4.2020980426
  - # 2
    frequency:   -3.9866874086
  - # 3
    frequency:   -0.4738885528
  - # 4
    frequency:    0.3241957701
  - # 5
    frequency:    1.1943273204
  - # 6
    frequency:    1.7401086713
  - # 7
    frequency:    1.9823082565
  - # 8
    frequency:    2.9949209860
  - # 9
    frequency:    3.7413029222
  - # 10
    frequency:    3.7436911377
  - # 11
    frequency:    6.6284999444
  - # 12
    frequency:    7.7002797980
  - # 13
    frequency:    7.9652641317
  - # 14
    frequency:    9.2549400479
  - # 15
    frequency:   10.6559675761
  - # 16
    frequency:   11.7335410826
  - # 17
    frequency:   11.9852002533
  - # 18
    frequency:   12.5408241358

- q-position: [    0.1010101,    0.0000000,    0.0000000 ]
  distance:    0.0313970
  band:
  - # 1
    frequency:   -4.2471282780
  - # 2
    frequency:   -4.0188578877
  - # 3
    frequency:   -0.4814955240
  - # 4
    frequency:    0.3587808717
  - # 5
    frequency:    1.2535723031
  - # 6
    frequency:    1.7410733133
  - # 7
    frequency:    2.0069769245
  - # 8
    frequency:    2.9933852456
  - # 9
    frequency:    3.7682393508
  - # 10
    frequency:    3.7716101875
  - # 11
    frequency:    6.5619666064
  - # 12
    frequency:    7.6676901014
  - # 13
    frequency:    7.9502681402
  - # 14
    frequency:    9.2309398580
  - # 15
    frequency:   10.6400622003
  - # 16
    frequency:   11.7546046219
  - # 17
    frequency:   12.0196668799
  - # 18
    frequency:   12.5102658034

- q-position: [    0.1060606,    0.0000000,    0.0000000 ]
  distance:    0.0329669
  band:
  - # 1
    frequency:   -4.2936454472
  - # 2
    frequency:   -4.0536751395
  - # 3
    frequency:   -0.4870738659
  - # 4
    frequency:    0.3944620057
  - # 5
    frequency:    1.3106395467
  - # 6
    frequency:    1.7414759227
  - # 7
    frequency:    2.0321595644
  - # 8
    frequency:    2.9932001197
  - # 9
    frequency:    3.7924251230
  - # 10
    frequency:    3.8024220157
  - # 11
    frequency:    6.4944674231
  - # 12
    frequency:    7.6339569635
  - # 13
    frequency:    7.9340472866
  - # 14
    frequency:    9.2059544986
  - # 15
    frequency:   10.6227991517
  - # 16
    frequency:   11.7765358551
  - # 17
    frequency:   12.0493808217
  - # 18
    frequency:   12.4855543798

- q-position: [    0.1111111,    0.0000000,    0.0000000 ]
  distance:    0.0345367
  band:
  - # 1
    frequency:   -4.3415431712
  - # 2
    frequency:   -4.0911976780
  - # 3
    frequency:   -0.4906140609
  - # 4
    frequency:    0.4310781710
  - # 5
    frequency:    1.3651080187
  - # 6
    frequency:    1.7413818751
  - # 7
    frequency:    2.0579870764
  - # 8
    frequency:    2.9946051402
  - # 9
    frequency:    3.8161233210
  - # 10
    frequency:    3.8336012349
  - # 11
    frequency:    6.4261355246
  - # 12
    frequency:    7.5991561045
  - # 13
    frequency:    7.9166791175
  - # 14
    frequency:    9.1800328739
  - # 15
    frequency:   10.6041791674
  - # 16
    frequency:   11.7992951253
  - # 17
    frequency:   12.0713930957
  - # 18
    frequency:   12.4697281193

- q-position: [    0.1161616,    0.0000000,    0.0000000 ]
  distance:    0.0361066
  band:
  - # 1
    frequency:   -4.3907127705
  - # 2
    frequency:   -4.1314661046
  - # 3
    frequency:   -0.4921091597
  - # 4
    frequency:    0.4684614966
  - # 5
    frequency:    1.4165512724
  - # 6
    frequency:    1.7408705810
  - # 7
    frequency:    2.0845997813
  - # 8
    frequency:    2.9978582333
  - # 9
    frequency:    3.8392186034
  - # 10
    frequency:    3.8650133167
  - # 11
    frequency:    6.3570949562
  - # 12
    frequency:    7.5633657174
  - # 13
    frequency:    7.8982497337
  - # 14
    frequency:    9.1532264343
  - # 15
    frequency:   10.5842153956
  - # 16
    frequency:   11.8228397573
  - # 17
    frequency:   12.0826007226
  - # 18
    frequency:   12.4659723655

- q-position: [    0.1212121,    0.0000000,    0.0000000 ]
  distance:    0.0376764
  band:
  - # 1
    frequency:   -4.4410435303
  - # 2
    frequency:   -4.1745012244
  - # 3
    frequency:   -0.4915541088
  - # 4
    frequency:    0.5064380083
  - # 5
    frequency:    1.4645590182
  - # 6
    frequency:    1.7400338288
  - # 7
    frequency:    2.1121272533
  - # 8
    frequency:    3.0032322457
  - # 9
    frequency:    3.8616063178
  - # 10
    frequency:    3.8965276109
  - # 11
    frequency:    6.2874618860
  - # 12
    frequency:    7.5266662105
  - # 13
    frequency:    7.8788532233
  - # 14
    frequency:    9.1255888244
  - # 15
    frequency:   10.5629341889
  - # 16
    frequency:   11.8471241097
  - # 17
    frequency:   12.0812514626
  - # 18
    frequency:   12.4761126279

- q-position: [    0.1262626,    0.0000000,    0.0000000 ]
  distance:    0.0392463
  band:
  - # 1
    frequency:   -4.4924229861
  - # 2
    frequency:   -4.2203024904
  - # 3
    frequency:   -0.4889448400
  - # 4
    frequency:    0.5448284192
  - # 5
    frequency:    1.5087646988
  - # 6
    frequency:    1.7389741470
  - # 7
    frequency:    2.1406638812
  - # 8
    frequency:    3.0110091912
  - # 9
    frequency:    3.8831932707
  - # 10
    frequency:    3.9280184040
  - # 11
    frequency:    6.2173461068
  - # 12
    frequency:    7.4891399316
  - # 13
    frequency:    7.8585910564
  - # 14
    frequency:    9.0971755093
  - # 15
    frequency:   10.5403756756
  - # 16
    frequency:   11.8720996574
  - # 17
    frequency:   12.0681383185
  - # 18
    frequency:   12.4994179963

- q-position: [    0.1313131,    0.0000000,    0.0000000 ]
  distance:    0.0408161
  band:
  - # 1
    frequency:   -4.5447372276
  - # 2
    frequency:   -4.2688468354
  - # 3
    frequency:   -0.4842769908
  - # 4
    frequency:    0.5834489636
  - # 5
    frequency:    1.5488756666
  - # 6
    frequency:    1.7378031735
  - # 7
    frequency:    2.1702441893
  - # 8
    frequency:    3.0214716403
  - # 9
    frequency:    3.9038983484
  - # 10
    frequency:    3.9593657998
  - # 11
    frequency:    6.1468528946
  - # 12
    frequency:    7.4508708755
  - # 13
    frequency:    7.8375713762
  - # 14
    frequency:    9.0680433768
  - # 15
    frequency:   10.5165940118
  - # 16
    frequency:   11.8977151022
  - # 17
    frequency:   12.0459296583
  - # 18
    frequency:   12.5332691839

- q-position: [    0.1363636,    0.0000000,    0.0000000 ]
  distance:    0.0423860
  band:
  - # 1
    frequency:   -4.5978712192
  - # 2
    frequency:   -4.3200879372
  - # 3
    frequency:   -0.4775440729
  - # 4
    frequency:    0.6221122792
  - # 5
    frequency:    1.5847000937
  - # 6
    frequency:    1.7366400085
  - # 7
    frequency:    2.2008243064
  - # 8
    frequency:    3.0348907956
  - # 9
    frequency:    3.9236529755
  - # 10
    frequency:    3.9904564259
  - # 11
    frequency:    6.0760852732
  - # 12
    frequency:    7.4119443768
  - # 13
    frequency:    7.8159081341
  - # 14
    frequency:    9.0382503212
  - # 15
    frequency:   10.4916572283
  - # 16
    frequency:   11.9239165109
  - # 17
    frequency:   12.0175738301
  - # 18
    frequency:   12.5747524594

- q-position: [    0.1414141,    0.0000000,    0.0000000 ]
  distance:    0.0439559
  band:
  - # 1
    frequency:   -4.6517091357
  - # 2
    frequency:   -4.3739559433
  - # 3
    frequency:   -0.4687348402
  - # 4
    frequency:    0.6606283232
  - # 5
    frequency:    1.6161638802
  - # 6
    frequency:    1.7356095175
  - # 7
    frequency:    2.2322764771
  - # 8
    frequency:    3.0515111602
  - # 9
    frequency:    3.9424013996
  - # 10
    frequency:    4.0211839784
  - # 11
    frequency:    6.0051467121
  - # 12
    frequency:    7.3724467891
  - # 13
    frequency:    7.7937200340
  - # 14
    frequency:    9.0078548075
  - # 15
    frequency:   10.4656466082
  - # 16
    frequency:   11.9506474804
  - # 17
    frequency:   11.9854067292
  - # 18
    frequency:   12.6215511214

- q-position: [    0.1464646,    0.0000000,    0.0000000 ]
  distance:    0.0455257
  band:
  - # 1
    frequency:   -4.7061347093
  - # 2
    frequency:   -4.4303576631
  - # 3
    frequency:   -0.4578294913
  - # 4
    frequency:    0.6988052882
  - # 5
    frequency:    1.6433127549
  - # 6
    frequency:    1.7348405495
  - # 7
    frequency:    2.2644009216
  - # 8
    frequency:    3.0715323890
  - # 9
    frequency:    3.9601007932
  - # 10
    frequency:    4.0514496204
  - # 11
    frequency:    5.9341442681
  - # 12
    frequency:    7.3324651537
  - # 13
    frequency:    7.7711292652
  - # 14
    frequency:    8.9769154244
  - # 15
    frequency:   10.4386555634
  - # 16
    frequency:   11.9510480772
  - # 17
    frequency:   11.9778493257
  - # 18
    frequency:   12.6720488365

- q-position: [    0.1515152,    0.0000000,    0.0000000 ]
  distance:    0.0470956
  band:
  - # 1
    frequency:   -4.7610315859
  - # 2
    frequency:   -4.4891772135
  - # 3
    frequency:   -0.4447941642
  - # 4
    frequency:    0.7364504613
  - # 5
    frequency:    1.6662991115
  - # 6
    frequency:    1.7344640379
  - # 7
    frequency:    2.2969540691
  - # 8
    frequency:    3.0950898524
  - # 9
    frequency:    3.9767211689
  - # 10
    frequency:    4.0811622497
  - # 11
    frequency:    5.8631921575
  - # 12
    frequency:    7.2920868584
  - # 13
    frequency:    7.7482600290
  - # 14
    frequency:    8.9454904298
  - # 15
    frequency:   10.4107880168
  - # 16
    frequency:   11.9155758393
  - # 17
    frequency:   12.0054612908
  - # 18
    frequency:   12.7251554556

- q-position: [    0.1565657,    0.0000000,    0.0000000 ]
  distance:    0.0486654
  band:
  - # 1
    frequency:   -4.8162836873
  - # 2
    frequency:   -4.5502770838
  - # 3
    frequency:   -0.4295728767
  - # 4
    frequency:    0.7733709414
  - # 5
    frequency:    1.6853577735
  - # 6
    frequency:    1.7346109618
  - # 7
    frequency:    2.3296866107
  - # 8
    frequency:    3.1222363956
  - # 9
    frequency:    3.9922450980
  - # 10
    frequency:    4.1102386562
  - # 11
    frequency:    5.7924157338
  - # 12
    frequency:    7.2513992909
  - # 13
    frequency:    7.7252368785
  - # 14
    frequency:    8.9136372989
  - # 15
    frequency:   10.3821563359
  - # 16
    frequency:   11.8797078269
  - # 17
    frequency:   12.0334207787
  - # 18
    frequency:   12.7801262576

- q-position: [    0.1616162,    0.0000000,    0.0000000 ]
  distance:    0.0502353
  band:
  - # 1
    frequency:   -4.8717755758
  - # 2
    frequency:   -4.6134995704
  - # 3
    frequency:   -0.4120755281
  - # 4
    frequency:    0.8093741065
  - # 5
    frequency:    1.7007774655
  - # 6
    frequency:    1.7354101579
  - # 7
    frequency:    2.3623817133
  - # 8
    frequency:    3.1529283094
  - # 9
    frequency:    4.0066672247
  - # 10
    frequency:    4.1386035853
  - # 11
    frequency:    5.7219558321
  - # 12
    frequency:    7.2104894861
  - # 13
    frequency:    7.7021829167
  - # 14
    frequency:    8.8814122815
  - # 15
    frequency:   10.3528789009
  - # 16
    frequency:   11.8439299807
  - # 17
    frequency:   12.0616635981
  - # 18
    frequency:   12.8364350789

- q-position: [    0.1666667,    0.0000000,    0.0000000 ]
  distance:    0.0518051
  band:
  - # 1
    frequency:   -4.9273928187
  - # 2
    frequency:   -4.6786685177
  - # 3
    frequency:   -0.3921595619
  - # 4
    frequency:    0.8442676919
  - # 5
    frequency:    1.7128744485
  - # 6
    frequency:    1.7369859983
  - # 7
    frequency:    2.3948843896
  - # 8
    frequency:    3.1870182072
  - # 9
    frequency:    4.0199935579
  - # 10
    frequency:    4.1661897239
  - # 11
    frequency:    5.6519734415
  - # 12
    frequency:    7.1694437732
  - # 13
    frequency:    7.6792179126
  - # 14
    frequency:    8.8488699822
  - # 15
    frequency:   10.3230774210
  - # 16
    frequency:   11.8085780924
  - # 17
    frequency:   12.0901242254
  - # 18
    frequency:   12.8936944805

- q-position: [    0.1717172,    0.0000000,    0.0000000 ]
  distance:    0.0533750
  band:
  - # 1
    frequency:   -4.9830223504
  - # 2
    frequency:   -4.7455912973
  - # 3
    frequency:   -0.3696008348
  - # 4
    frequency:    0.8778593218
  - # 5
    frequency:    1.7219724825
  - # 6
    frequency:    1.7394559700
  - # 7
    frequency:    2.4271166360
  - # 8
    frequency:    3.2242561883
  - # 9
    frequency:    4.0322405125
  - # 10
    frequency:    4.1929376259
  - # 11
    frequency:    5.5826546774
  - # 12
    frequency:    7.1283474218
  - # 13
    frequency:    7.6564564104
  - # 14
    frequency:    8.8160629706
  - # 15
    frequency:   10.2928741303
  - # 16
    frequency:   11.7738888912
  - # 17
    frequency:   12.1187360770
  - # 18
    frequency:   12.9516069156

- q-position: [    0.1767677,    0.0000000,    0.0000000 ]
  distance:    0.0549448
  band:
  - # 1
    frequency:   -5.0385528282
  - # 2
    frequency:   -4.8140609536
  - # 3
    frequency:   -0.3440447148
  - # 4
    frequency:    0.9099553277
  - # 5
    frequency:    1.7283905971
  - # 6
    frequency:    1.7429282200
  - # 7
    frequency:    2.4590775471
  - # 8
    frequency:    3.2642987430
  - # 9
    frequency:    4.0434336538
  - # 10
    frequency:    4.2187955886
  - # 11
    frequency:    5.5142160456
  - # 12
    frequency:    7.0872842919
  - # 13
    frequency:    7.6340059128
  - # 14