nqpoint: 300    
npath: 3      
segment_nqpoint:
- 100
- 100
- 100
labels:
- [ 'G', 'M' ]
- [ 'M', 'K' ]
- [ 'K', 'G' ]
reciprocal_lattice:
- [   0.29219481,   0.16869875,   0.00000000 ] # a*
- [   0.00000000,   0.33739750,   0.00000000 ] # b*
- [   0.00000000,   0.00000000,   0.03499086 ] # c*
natom: 8      
lattice:
- [     3.422374277087431,     0.000000000000000,     0.000000000000000 ] # a
- [    -1.711187138543716,     2.963863065194309,     0.000000000000000 ] # b
- [     0.000000000000000,     0.000000000000000,    28.578891754663566 ] # c
points:
- symbol: C # 1
  coordinates: [  0.000000000000000,  0.000000000000000,  0.479559774908066 ]
  mass: 12.010700
- symbol: C # 2
  coordinates: [  0.333332985432215,  0.666666983183674,  0.643411524114651 ]
  mass: 12.010700
- symbol: N # 3
  coordinates: [  0.333332985432215,  0.666666983183674,  0.685082260107887 ]
  mass: 14.006700
- symbol: O # 4
  coordinates: [  0.666666984744047,  0.333332985985145,  0.314917739892113 ]
  mass: 15.999400
- symbol: P # 5
  coordinates: [  0.666666984744047,  0.333332985985145,  0.367164311811961 ]
  mass: 30.973762
- symbol: S # 6
  coordinates: [  0.333332985432215,  0.666666983183674,  0.584546124086624 ]
  mass: 32.065000
- symbol: Zr # 7
  coordinates: [  0.333332985432215,  0.666666983183674,  0.436737875527821 ]
  mass: 91.224000
- symbol: Zr # 8
  coordinates: [  0.666666984744047,  0.333332985985145,  0.525424325726235 ]
  mass: 91.224000

phonon:
- q-position: [    0.0000000,    0.0000000,    0.0000000 ]
  distance:    0.0000000
  band:
  - # 1
    frequency:   -3.5936625225
  - # 2
    frequency:   -3.5936625225
  - # 3
    frequency:   -0.0000248103
  - # 4
    frequency:    0.0000004051
  - # 5
    frequency:    0.0000193729
  - # 6
    frequency:    0.7548816107
  - # 7
    frequency:    0.7548816109
  - # 8
    frequency:    3.2867902988
  - # 9
    frequency:    3.2867902989
  - # 10
    frequency:    4.0113083415
  - # 11
    frequency:    4.0113083415
  - # 12
    frequency:    4.8097417092
  - # 13
    frequency:    6.6243258466
  - # 14
    frequency:    6.6243258466
  - # 15
    frequency:    7.5181175809
  - # 16
    frequency:    8.9730015388
  - # 17
    frequency:   10.3981532634
  - # 18
    frequency:   10.3981532634
  - # 19
    frequency:   14.0310527016
  - # 20
    frequency:   15.2509169642
  - # 21
    frequency:   15.2509169643
  - # 22
    frequency:   20.0535866006
  - # 23
    frequency:   34.1254827228
  - # 24
    frequency:   64.7438727461

- q-position: [    0.0050505,    0.0000000,    0.0000000 ]
  distance:    0.0017040
  band:
  - # 1
    frequency:   -3.5942752513
  - # 2
    frequency:   -3.5924633445
  - # 3
    frequency:   -0.0608255947
  - # 4
    frequency:    0.0014846754
  - # 5
    frequency:    0.0268041079
  - # 6
    frequency:    0.7603664344
  - # 7
    frequency:    0.7624507713
  - # 8
    frequency:    3.2870200173
  - # 9
    frequency:    3.2880128771
  - # 10
    frequency:    4.0114080167
  - # 11
    frequency:    4.0115126267
  - # 12
    frequency:    4.8101960173
  - # 13
    frequency:    6.6245345077
  - # 14
    frequency:    6.6249399790
  - # 15
    frequency:    7.5177878080
  - # 16
    frequency:    8.9725707797
  - # 17
    frequency:   10.3982544422
  - # 18
    frequency:   10.3983236446
  - # 19
    frequency:   14.0309483932
  - # 20
    frequency:   15.2506084523
  - # 21
    frequency:   15.2506456751
  - # 22
    frequency:   20.0535283237
  - # 23
    frequency:   34.1252771966
  - # 24
    frequency:   64.7437963490

- q-position: [    0.0101010,    0.0000000,    0.0000000 ]
  distance:    0.0034081
  band:
  - # 1
    frequency:   -3.5961093084
  - # 2
    frequency:   -3.5888736153
  - # 3
    frequency:   -0.1186793797
  - # 4
    frequency:    0.0063002234
  - # 5
    frequency:    0.0580470575
  - # 6
    frequency:    0.7761181032
  - # 7
    frequency:    0.7844083090
  - # 8
    frequency:    3.2877084534
  - # 9
    frequency:    3.2916612192
  - # 10
    frequency:    4.0117191307
  - # 11
    frequency:    4.0121262435
  - # 12
    frequency:    4.8115566968
  - # 13
    frequency:    6.6251602221
  - # 14
    frequency:    6.6267790071
  - # 15
    frequency:    7.5167996432
  - # 16
    frequency:    8.9712791375
  - # 17
    frequency:   10.3985575619
  - # 18
    frequency:   10.3988344584
  - # 19
    frequency:   14.0306348118
  - # 20
    frequency:   15.2496835551
  - # 21
    frequency:   15.2498330982
  - # 22
    frequency:   20.0533534762
  - # 23
    frequency:   34.1246609821
  - # 24
    frequency:   64.7435672722

- q-position: [    0.0151515,    0.0000000,    0.0000000 ]
  distance:    0.0051121
  band:
  - # 1
    frequency:   -3.5991523770
  - # 2
    frequency:   -3.5829167671
  - # 3
    frequency:   -0.1713987070
  - # 4
    frequency:    0.0150761457
  - # 5
    frequency:    0.0958682494
  - # 6
    frequency:    0.8003917278
  - # 7
    frequency:    0.8188396877
  - # 8
    frequency:    3.2888534658
  - # 9
    frequency:    3.2976774920
  - # 10
    frequency:    4.0122778390
  - # 11
    frequency:    4.0131514673
  - # 12
    frequency:    4.8138171398
  - # 13
    frequency:    6.6262021793
  - # 14
    frequency:    6.6298328611
  - # 15
    frequency:    7.5151565499
  - # 16
    frequency:    8.9691285138
  - # 17
    frequency:   10.3990613739
  - # 18
    frequency:   10.3996847152
  - # 19
    frequency:   14.0301100051
  - # 20
    frequency:   15.2481441888
  - # 21
    frequency:   15.2484830865
  - # 22
    frequency:   20.0530620080
  - # 23
    frequency:   34.1236351701
  - # 24
    frequency:   64.7431858593

- q-position: [    0.0202020,    0.0000000,    0.0000000 ]
  distance:    0.0068161
  band:
  - # 1
    frequency:   -3.6033841632
  - # 2
    frequency:   -3.5746319126
  - # 3
    frequency:   -0.2178772856
  - # 4
    frequency:    0.0279780572
  - # 5
    frequency:    0.1402299725
  - # 6
    frequency:    0.8311274948
  - # 7
    frequency:    0.8633734300
  - # 8
    frequency:    3.2904515377
  - # 9
    frequency:    3.3059664426
  - # 10
    frequency:    4.0131440343
  - # 11
    frequency:    4.0145920613
  - # 12
    frequency:    4.8169667461
  - # 13
    frequency:    6.6276590175
  - # 14
    frequency:    6.6340848826
  - # 15
    frequency:    7.5128643057
  - # 16
    frequency:    8.9661220672
  - # 17
    frequency:   10.3997638018
  - # 18
    frequency:   10.4008727661
  - # 19
    frequency:   14.0293707750
  - # 20
    frequency:   15.2459935459
  - # 21
    frequency:   15.2466020023
  - # 22
    frequency:   20.0526538374
  - # 23
    frequency:   34.1222015754
  - # 24
    frequency:   64.7426526816

- q-position: [    0.0252525,    0.0000000,    0.0000000 ]
  distance:    0.0085201
  band:
  - # 1
    frequency:   -3.6087767374
  - # 2
    frequency:   -3.5640739227
  - # 3
    frequency:   -0.2578218333
  - # 4
    frequency:    0.0449019089
  - # 5
    frequency:    0.1900883810
  - # 6
    frequency:    0.8664848337
  - # 7
    frequency:    0.9157646728
  - # 8
    frequency:    3.2924978549
  - # 9
    frequency:    3.3163970513
  - # 10
    frequency:    4.0144007824
  - # 11
    frequency:    4.0164532332
  - # 12
    frequency:    4.8209915084
  - # 13
    frequency:    6.6295288061
  - # 14
    frequency:    6.6395120079
  - # 15
    frequency:    7.5099310101
  - # 16
    frequency:    8.9622641980
  - # 17
    frequency:   10.4006619485
  - # 18
    frequency:   10.4023963034
  - # 19
    frequency:   14.0284127618
  - # 20
    frequency:   15.2432360942
  - # 21
    frequency:   15.2441986291
  - # 22
    frequency:   20.0521288537
  - # 23
    frequency:   34.1203627318
  - # 24
    frequency:   64.7419685374

- q-position: [    0.0303030,    0.0000000,    0.0000000 ]
  distance:    0.0102242
  band:
  - # 1
    frequency:   -3.6152949909
  - # 2
    frequency:   -3.5513135156
  - # 3
    frequency:   -0.2913894425
  - # 4
    frequency:    0.0656663624
  - # 5
    frequency:    0.2442089932
  - # 6
    frequency:    0.9050324068
  - # 7
    frequency:    0.9741625440
  - # 8
    frequency:    3.2949864109
  - # 9
    frequency:    3.3288047640
  - # 10
    frequency:    4.0161534914
  - # 11
    frequency:    4.0187415737
  - # 12
    frequency:    4.8258747680
  - # 13
    frequency:    6.6318090232
  - # 14
    frequency:    6.6460850168
  - # 15
    frequency:    7.5063670961
  - # 16
    frequency:    8.9575605264
  - # 17
    frequency:   10.4017521065
  - # 18
    frequency:   10.4042523618
  - # 19
    frequency:   14.0272305589
  - # 20
    frequency:   15.2398775744
  - # 21
    frequency:   15.2412840489
  - # 22
    frequency:   20.0514869208
  - # 23
    frequency:   34.1181218850
  - # 24
    frequency:   64.7411344498

- q-position: [    0.0353535,    0.0000000,    0.0000000 ]
  distance:    0.0119282
  band:
  - # 1
    frequency:   -3.6228971917
  - # 2
    frequency:   -3.5364373361
  - # 3
    frequency:   -0.3189177763
  - # 4
    frequency:    0.0900788378
  - # 5
    frequency:    0.3015016417
  - # 6
    frequency:    0.9457286545
  - # 7
    frequency:    1.0371447169
  - # 8
    frequency:    3.2979101405
  - # 9
    frequency:    3.3429942713
  - # 10
    frequency:    4.0185287492
  - # 11
    frequency:    4.0214649786
  - # 12
    frequency:    4.8315980871
  - # 13
    frequency:    6.6344965270
  - # 14
    frequency:    6.6537688390
  - # 15
    frequency:    7.5021853458
  - # 16
    frequency:    8.9520178662
  - # 17
    frequency:   10.4030297704
  - # 18
    frequency:   10.4064373200
  - # 19
    frequency:   14.0258178589
  - # 20
    frequency:   15.2359249978
  - # 21
    frequency:   15.2378714872
  - # 22
    frequency:   20.0507278819
  - # 23
    frequency:   34.1154829839
  - # 24
    frequency:   64.7401516646

- q-position: [    0.0404040,    0.0000000,    0.0000000 ]
  distance:    0.0136322
  band:
  - # 1
    frequency:   -3.6315356153
  - # 2
    frequency:   -3.5195479996
  - # 3
    frequency:   -0.3407734883
  - # 4
    frequency:    0.1179481023
  - # 5
    frequency:    0.3610993771
  - # 6
    frequency:    0.9878345885
  - # 7
    frequency:    1.1036511898
  - # 8
    frequency:    3.3012610746
  - # 9
    frequency:    3.3587428463
  - # 10
    frequency:    4.0216727083
  - # 11
    frequency:    4.0246325520
  - # 12
    frequency:    4.8381421788
  - # 13
    frequency:    6.6375875235
  - # 14
    frequency:    6.6625229109
  - # 15
    frequency:    7.4974009116
  - # 16
    frequency:    8.9456441931
  - # 17
    frequency:   10.4044896532
  - # 18
    frequency:   10.4089469040
  - # 19
    frequency:   14.0241676289
  - # 20
    frequency:   15.2313866422
  - # 21
    frequency:   15.2339761272
  - # 22
    frequency:   20.0498515649
  - # 23
    frequency:   34.1124506693
  - # 24
    frequency:   64.7390216469

- q-position: [    0.0454545,    0.0000000,    0.0000000 ]
  distance:    0.0153363
  band:
  - # 1
    frequency:   -3.6411572308
  - # 2
    frequency:   -3.5007640691
  - # 3
    frequency:   -0.3572796902
  - # 4
    frequency:    0.1490841579
  - # 5
    frequency:    0.4223408820
  - # 6
    frequency:    1.0308270607
  - # 7
    frequency:    1.1728974398
  - # 8
    frequency:    3.3050305167
  - # 9
    frequency:    3.3758043256
  - # 10
    frequency:    4.0257488364
  - # 11
    frequency:    4.0282544932
  - # 12
    frequency:    4.8454878388
  - # 13
    frequency:    6.6410775299
  - # 14
    frequency:    6.6723015694
  - # 15
    frequency:    7.4920313424
  - # 16
    frequency:    8.9384486103
  - # 17
    frequency:   10.4061257052
  - # 18
    frequency:   10.4117761914
  - # 19
    frequency:   14.0222723108
  - # 20
    frequency:   15.2262720471
  - # 21
    frequency:   15.2296148946
  - # 22
    frequency:   20.0488577888
  - # 23
    frequency:   34.1090302621
  - # 24
    frequency:   64.7377460785

- q-position: [    0.0505051,    0.0000000,    0.0000000 ]
  distance:    0.0170403
  band:
  - # 1
    frequency:   -3.6517044170
  - # 2
    frequency:   -3.4802199306
  - # 3
    frequency:   -0.3686844501
  - # 4
    frequency:    0.1832970514
  - # 5
    frequency:    0.4847285126
  - # 6
    frequency:    1.0743318841
  - # 7
    frequency:    1.2442984352
  - # 8
    frequency:    3.3092092354
  - # 9
    frequency:    3.3939139069
  - # 10
    frequency:    4.0309347746
  - # 11
    frequency:    4.0323419660
  - # 12
    frequency:    4.8536168270
  - # 13
    frequency:    6.6449613359
  - # 14
    frequency:    6.6830544738
  - # 15
    frequency:    7.4860966176
  - # 16
    frequency:    8.9304413103
  - # 17
    frequency:   10.4079311360
  - # 18
    frequency:   10.4149196173
  - # 19
    frequency:   14.0201240462
  - # 20
    frequency:   15.2205920077
  - # 21
    frequency:   15.2248062181
  - # 22
    frequency:   20.0477463706
  - # 23
    frequency:   34.1052277477
  - # 24
    frequency:   64.7363268535

- q-position: [    0.0555556,    0.0000000,    0.0000000 ]
  distance:    0.0187443
  band:
  - # 1
    frequency:   -3.6631156887
  - # 2
    frequency:   -3.4580655265
  - # 3
    frequency:   -0.3751465370
  - # 4
    frequency:    0.2203967273
  - # 5
    frequency:    0.5478876656
  - # 6
    frequency:    1.1180769050
  - # 7
    frequency:    1.3174104559
  - # 8
    frequency:    3.3137876687
  - # 9
    frequency:    3.4127940077
  - # 10
    frequency:    4.0369069512
  - # 11
    frequency:    4.0374179995
  - # 12
    frequency:    4.8625126594
  - # 13
    frequency:    6.6492329638
  - # 14
    frequency:    6.6947270414
  - # 15
    frequency:    7.4796191901
  - # 16
    frequency:    8.9216335354
  - # 17
    frequency:   10.4098984400
  - # 18
    frequency:   10.4183709829
  - # 19
    frequency:   14.0177149204
  - # 20
    frequency:   15.2143585667
  - # 21
    frequency:   15.2195697663
  - # 22
    frequency:   20.0465171337
  - # 23
    frequency:   34.1010497605
  - # 24
    frequency:   64.7347660740

- q-position: [    0.0606061,    0.0000000,    0.0000000 ]
  distance:    0.0204483
  band:
  - # 1
    frequency:   -3.6753264117
  - # 2
    frequency:   -3.4344659083
  - # 3
    frequency:   -0.3767250744
  - # 4
    frequency:    0.2601938187
  - # 5
    frequency:    0.6115341682
  - # 6
    frequency:    1.1618602705
  - # 7
    frequency:    1.3918888399
  - # 8
    frequency:    3.3187561370
  - # 9
    frequency:    3.4321614508
  - # 10
    frequency:    4.0419620841
  - # 11
    frequency:    4.0453899818
  - # 12
    frequency:    4.8721612771
  - # 13
    frequency:    6.6538856287
  - # 14
    frequency:    6.7072608850
  - # 15
    frequency:    7.4726240405
  - # 16
    frequency:    8.9120375378
  - # 17
    frequency:   10.4120194253
  - # 18
    frequency:   10.4221234662
  - # 19
    frequency:   14.0150372221
  - # 20
    frequency:   15.2075850054
  - # 21
    frequency:   15.2139261675
  - # 22
    frequency:   20.0451699157
  - # 23
    frequency:   34.0965035656
  - # 24
    frequency:   64.7330660457

- q-position: [    0.0656566,    0.0000000,    0.0000000 ]
  distance:    0.0221524
  band:
  - # 1
    frequency:   -3.6882694926
  - # 2
    frequency:   -3.4096005697
  - # 3
    frequency:   -0.3733647575
  - # 4
    frequency:    0.3025009685
  - # 5
    frequency:    0.6754498595
  - # 6
    frequency:    1.2055292021
  - # 7
    frequency:    1.4674578118
  - # 8
    frequency:    3.3241050591
  - # 9
    frequency:    3.4517361642
  - # 10
    frequency:    4.0475204765
  - # 11
    frequency:    4.0550386441
  - # 12
    frequency:    4.8825515738
  - # 13
    frequency:    6.6589116994
  - # 14
    frequency:    6.7205942370
  - # 15
    frequency:    7.4651387445
  - # 16
    frequency:    8.9016665403
  - # 17
    frequency:   10.4142852449
  - # 18
    frequency:   10.4261696346
  - # 19
    frequency:   14.0120837139
  - # 20
    frequency:   15.2002858312
  - # 21
    frequency:   15.2078967154
  - # 22
    frequency:   20.0437045778
  - # 23
    frequency:   34.0915970390
  - # 24
    frequency:   64.7312292722

- q-position: [    0.0707071,    0.0000000,    0.0000000 ]
  distance:    0.0238564
  band:
  - # 1
    frequency:   -3.7018760268
  - # 2
    frequency:   -3.3836625270
  - # 3
    frequency:   -0.3648688450
  - # 4
    frequency:    0.3471343592
  - # 5
    frequency:    0.7394648009
  - # 6
    frequency:    1.2489657609
  - # 7
    frequency:    1.5438888948
  - # 8
    frequency:    3.3298251668
  - # 9
    frequency:    3.4712513512
  - # 10
    frequency:    4.0535955262
  - # 11
    frequency:    4.0665391638
  - # 12
    frequency:    4.8936757702
  - # 13
    frequency:    6.6643026630
  - # 14
    frequency:    6.7346623479
  - # 15
    frequency:    7.4571935589
  - # 16
    frequency:    8.8905346992
  - # 17
    frequency:   10.4166864326
  - # 18
    frequency:   10.4305014620
  - # 19
    frequency:   14.0088479078
  - # 20
    frequency:   15.1924767642
  - # 21
    frequency:   15.2015030679
  - # 22
    frequency:   20.0421210138
  - # 23
    frequency:   34.0863386464
  - # 24
    frequency:   64.7292584495

- q-position: [    0.0757576,    0.0000000,    0.0000000 ]
  distance:    0.0255604
  band:
  - # 1
    frequency:   -3.7160758982
  - # 2
    frequency:   -3.3568571218
  - # 3
    frequency:   -0.3508479818
  - # 4
    frequency:    0.3939152517
  - # 5
    frequency:    0.8034444338
  - # 6
    frequency:    1.2920772072
  - # 7
    frequency:    1.6209852688
  - # 8
    frequency:    3.3359077142
  - # 9
    frequency:    3.4904647009
  - # 10
    frequency:    4.0602007151
  - # 11
    frequency:    4.0800435742
  - # 12
    frequency:    4.9055296328
  - # 13
    frequency:    6.6700490919
  - # 14
    frequency:    6.7493978440
  - # 15
    frequency:    7.4488215290
  - # 16
    frequency:    8.8786570712
  - # 17
    frequency:   10.4192129413
  - # 18
    frequency:   10.4351103470
  - # 19
    frequency:   14.0053243399
  - # 20
    frequency:   15.1841747201
  - # 21
    frequency:   15.1947669432
  - # 22
    frequency:   20.0404191600
  - # 23
    frequency:   34.0807374205
  - # 24
    frequency:   64.7271564599

- q-position: [    0.0808081,    0.0000000,    0.0000000 ]
  distance:    0.0272644
  band:
  - # 1
    frequency:   -3.7307983222
  - # 2
    frequency:   -3.3294005336
  - # 3
    frequency:   -0.3306199286
  - # 4
    frequency:    0.4426714169
  - # 5
    frequency:    0.8672803172
  - # 6
    frequency:    1.3347893793
  - # 7
    frequency:    1.6985702339
  - # 8
    frequency:    3.3423446760
  - # 9
    frequency:    3.5091697230
  - # 10
    frequency:    4.0673493980
  - # 11
    frequency:    4.0956701106
  - # 12
    frequency:    4.9181125411
  - # 13
    frequency:    6.6761406172
  - # 14
    frequency:    6.7647310297
  - # 15
    frequency:    7.4400586242
  - # 16
    frequency:    8.8660495857
  - # 17
    frequency:   10.4218541850
  - # 18
    frequency:   10.4399871354
  - # 19
    frequency:   14.0015088380
  - # 20
    frequency:   15.1753977906
  - # 21
    frequency:   15.1877098210
  - # 22
    frequency:   20.0385990053
  - # 23
    frequency:   34.0748029367
  - # 24
    frequency:   64.7249263657

- q-position: [    0.0858586,    0.0000000,    0.0000000 ]
  distance:    0.0289685
  band:
  - # 1
    frequency:   -3.7459723286
  - # 2
    frequency:   -3.3015180065
  - # 3
    frequency:   -0.3029976164
  - # 4
    frequency:    0.4932383968
  - # 5
    frequency:    0.9308834335
  - # 6
    frequency:    1.3770420689
  - # 7
    frequency:    1.7764785438
  - # 8
    frequency:    3.3491289311
  - # 9
    frequency:    3.5272058608
  - # 10
    frequency:    4.0750545860
  - # 11
    frequency:    4.1134936866
  - # 12
    frequency:    4.9314274101
  - # 13
    frequency:    6.6825659072
  - # 14
    frequency:    6.7805901185
  - # 15
    frequency:    7.4309439099
  - # 16
    frequency:    8.8527290238
  - # 17
    frequency:   10.4245990839
  - # 18
    frequency:   10.4451221447
  - # 19
    frequency:   13.9973987738
  - # 20
    frequency:   15.1661652204
  - # 21
    frequency:   15.1803526556
  - # 22
    frequency:   20.0366606007
  - # 23
    frequency:   34.0685452875
  - # 24
    frequency:   64.7225714021

- q-position: [    0.0909091,    0.0000000,    0.0000000 ]
  distance:    0.0306725
  band:
  - # 1
    frequency:   -3.7615271861
  - # 2
    frequency:   -3.2734418120
  - # 3
    frequency:   -0.2657754056
  - # 4
    frequency:    0.5454605580
  - # 5
    frequency:    0.9941793415
  - # 6
    frequency:    1.4187857313
  - # 7
    frequency:    1.8545498016
  - # 8
    frequency:    3.3562544266
  - # 9
    frequency:    3.5444658678
  - # 10
    frequency:    4.0833287256
  - # 11
    frequency:    4.1335390538
  - # 12
    frequency:    4.9454804802
  - # 13
    frequency:    6.6893126531
  - # 14
    frequency:    6.7969013776
  - # 15
    frequency:    7.4215197637
  - # 16
    frequency:    8.8387130066
  - # 17
    frequency:   10.4274361127
  - # 18
    frequency:   10.4505051922
  - # 19
    frequency:   13.9929932948
  - # 20
    frequency:   15.1564973805
  - # 21
    frequency:   15.1727156078
  - # 22
    frequency:   20.0346040696
  - # 23
    frequency:   34.0619750555
  - # 24
    frequency:   64.7200949701

- q-position: [    0.0959596,    0.0000000,    0.0000000 ]
  distance:    0.0323765
  band:
  - # 1
    frequency:   -3.7773927674
  - # 2
    frequency:   -3.2454089893
  - # 3
    frequency:   -0.2141442011
  - # 4
    frequency:    0.5991919131
  - # 5
    frequency:    1.0571046696
  - # 6
    frequency:    1.4599790985
  - # 7
    frequency:    1.9326233984
  - # 8
    frequency:    3.3637163185
  - # 9
    frequency:    3.5608992025
  - # 10
    frequency:    4.0921834791
  - # 11
    frequency:    4.1557779295
  - # 12
    frequency:    4.9602809858
  - # 13
    frequency:    6.6963675637
  - # 14
    frequency:    6.8135891660
  - # 15
    frequency:    7.4118321506
  - # 16
    frequency:    8.8240199928
  - # 17
    frequency:   10.4303533522
  - # 18
    frequency:   10.4561256245
  - # 19
    frequency:   13.9882935261
  - # 20
    frequency:   15.1464157378
  - # 21
    frequency:   15.1648178029
  - # 22
    frequency:   20.0324296178
  - # 23
    frequency:   34.0551032859
  - # 24
    frequency:   64.7175006288

- q-position: [    0.1010101,    0.0000000,    0.0000000 ]
  distance:    0.0340806
  band:
  - # 1
    frequency:   -3.7934998609
  - # 2
    frequency:   -3.2176589214
  - # 3
    frequency:   -0.1324513020
  - # 4
    frequency:    0.6542966884
  - # 5
    frequency:    1.1196045916
  - # 6
    frequency:    1.5005874113
  - # 7
    frequency:    2.0105346663
  - # 8
    frequency:    3.3715110854
  - # 9
    frequency:    3.5765108838
  - # 10
    frequency:    4.1016295076
  - # 11
    frequency:    4.1801306786
  - # 12
    frequency:    4.9758407169
  - # 13
    frequency:    6.7037163672
  - # 14
    frequency:    6.8305758479
  - # 15
    frequency:    7.4019309717
  - # 16
    frequency:    8.8086692897
  - # 17
    frequency:   10.4333385438
  - # 18
    frequency:   10.4619723503
  - # 19
    frequency:   13.9833027361
  - # 20
    frequency:   15.1359428204
  - # 21
    frequency:   15.1566771223
  - # 22
    frequency:   20.0301375431
  - # 23
    frequency:   34.0479414569
  - # 24
    frequency:   64.7147920881

- q-position: [    0.1060606,    0.0000000,    0.0000000 ]
  distance:    0.0357846
  band:
  - # 1
    frequency:   -3.8097804314
  - # 2
    frequency:   -3.1904308198
  - # 3
    frequency:    0.1192666536
  - # 4
    frequency:    0.7106496219
  - # 5
    frequency:    1.1816310297
  - # 6
    frequency:    1.5405810843
  - # 7
    frequency:    2.0881120403
  - # 8
    frequency:    3.3796366109
  - # 9
    frequency:    3.5913561692
  - # 10
    frequency:    4.1116762622
  - # 11
    frequency:    4.2064722139
  - # 12
    frequency:    4.9921734872
  - # 13
    frequency:    6.7113438235
  - # 14
    frequency:    6.8477815559
  - # 15
    frequency:    7.3918705057
  - # 16
    frequency:    8.7926810765
  - # 17
    frequency:   10.4363791460
  - # 18
    frequency:   10.4680338738
  - # 19
    frequency:   13.9780264609
  - # 20
    frequency:   15.1251021792
  - # 21
    frequency:   15.1483100353
  - # 22
    frequency:   20.0277282447
  - # 23
    frequency:   34.0405014499
  - # 24
    frequency:   64.7119731998

- q-position: [    0.1111111,    0.0000000,    0.0000000 ]
  distance:    0.0374886
  band:
  - # 1
    frequency:   -3.8261678375
  - # 2
    frequency:   -3.1639611985
  - # 3
    frequency:    0.2221597483
  - # 4
    frequency:    0.7681359724
  - # 5
    frequency:    1.2431413982
  - # 6
    frequency:    1.5799346765
  - # 7
    frequency:    2.1651750974
  - # 8
    frequency:    3.3880922331
  - # 9
    frequency:    3.6055322079
  - # 10
    frequency:    4.1223317852
  - # 11
    frequency:    4.2346409700
  - # 12
    frequency:    5.0092945228
  - # 13
    frequency:    6.7192337457
  - # 14
    frequency:    6.8651237781
  - # 15
    frequency:    7.3817099691
  - # 16
    frequency:    8.7760764436
  - # 17
    frequency:   10.4394623949
  - # 18
    frequency:   10.4742983303
  - # 19
    frequency:   13.9724725778
  - # 20
    frequency:   15.1139183435
  - # 21
    frequency:   15.1397314765
  - # 22
    frequency:   20.0252022323
  - # 23
    frequency:   34.0327955187
  - # 24
    frequency:   64.7090479499

- q-position: [    0.1161616,    0.0000000,    0.0000000 ]
  distance:    0.0391926
  band:
  - # 1
    frequency:   -3.8425970103
  - # 2
    frequency:   -3.1384814167
  - # 3
    frequency:    0.2962241302
  - # 4
    frequency:    0.8266512298
  - # 5
    frequency:    1.3040977494
  - # 6
    frequency:    1.6186260841
  - # 7
    frequency:    2.2415333860
  - # 8
    frequency:    3.3968787574
  - # 9
    frequency:    3.6191682350
  - # 10
    frequency:    4.1336025271
  - # 11
    frequency:    4.2644493835
  - # 12
    frequency:    5.0272197850
  - # 13
    frequency:    6.7273690318
  - # 14
    frequency:    6.8825167392
  - # 15
    frequency:    7.3715142227
  - # 16
    frequency:    8.7588774481
  - # 17
    frequency:   10.4425753653
  - # 18
    frequency:   10.4807535221
  - # 19
    frequency:   13.9666513268
  - # 20
    frequency:   15.1024167732
  - # 21
    frequency:   15.1309547754
  - # 22
    frequency:   20.0225601345
  - # 23
    frequency:   34.0248362576
  - # 24
    frequency:   64.7060204495

- q-position: [    0.1212121,    0.0000000,    0.0000000 ]
  distance:    0.0408967
  band:
  - # 1
    frequency:   -3.8590045997
  - # 2
    frequency:   -3.1142153659
  - # 3
    frequency:    0.3595816682
  - # 4
    frequency:    0.8861005238
  - # 5
    frequency:    1.3644662156
  - # 6
    frequency:    1.6566358983
  - # 7
    frequency:    2.3169859849
  - # 8
    frequency:    3.4059984311
  - # 9
    frequency:    3.6324158132
  - # 10
    frequency:    4.1454931797
  - # 11
    frequency:    4.2956943478
  - # 12
    frequency:    5.0459652428
  - # 13
    frequency:    6.7357317060
  - # 14
    frequency:    6.8998705399
  - # 15
    frequency:    7.3613546566
  - # 16
    frequency:    8.7411071873
  - # 17
    frequency:   10.4457050347
  - # 18
    frequency:   10.4873869546
  - # 19
    frequency:   13.9605752726
  - # 20
    frequency:   15.0906238054
  - # 21
    frequency:   15.1219916406
  - # 22
    frequency:   20.0198027074
  - # 23
    frequency:   34.0166365694
  - # 24
    frequency:   64.7028949266

- q-position: [    0.1262626,    0.0000000,    0.0000000 ]
  distance:    0.0426007
  band:
  - # 1
    frequency:   -3.8753290937
  - # 2
    frequency:   -3.0913773608
  - # 3
    frequency:    0.4170029268
  - # 4
    frequency:    0.9463977417
  - # 5
    frequency:    1.4242166640
  - # 6
    frequency:    1.6939468868
  - # 7
    frequency:    2.3913217483
  - # 8
    frequency:    3.4154548791
  - # 9
    frequency:    3.6454402280
  - # 10
    frequency:    4.1580065311
  - # 11
    frequency:    4.3281664913
  - # 12
    frequency:    5.0655461070
  - # 13
    frequency:    6.7443029703
  - # 14
    frequency:    6.9170900252
  - # 15
    frequency:    7.3513102855
  - # 16
    frequency:    8.7227898909
  - # 17
    frequency:   10.4488383492
  - # 18
    frequency:   10.4941858721
  - # 19
    frequency:   13.9542592072
  - # 20
    frequency:   15.0785665961
  - # 21
    frequency:   15.1128522030
  - # 22
    frequency:   20.0169308413
  - # 23
    frequency:   34.0082096324
  - # 24
    frequency:   64.6996757164

- q-position: [    0.1313131,    0.0000000,    0.0000000 ]
  distance:    0.0443047
  band:
  - # 1
    frequency:   -3.8915109170
  - # 2
    frequency:   -3.0701702782
  - # 3
    frequency:    0.4705368387
  - # 4
    frequency:    1.0074643796
  - # 5
    frequency:    1.4833225020
  - # 6
    frequency:    1.7305435748
  - # 7
    frequency:    2.4643202121
  - # 8
    frequency:    3.4252529989
  - # 9
    frequency:    3.6584135998
  - # 10
    frequency:    4.1711433425
  - # 11
    frequency:    4.3616576397
  - # 12
    frequency:    5.0859760433
  - # 13
    frequency:    6.7530632657
  - # 14
    frequency:    6.9340733581
  - # 15
    frequency:    7.3414690763
  - # 16
    frequency:    8.7039510346
  - # 17
    frequency:   10.4519622894
  - # 18
    frequency:   10.5011372928
  - # 19
    frequency:   13.9477199886
  - # 20
    frequency:   15.0662730566
  - # 21
    frequency:   15.1035451177
  - # 22
    frequency:   20.0139455679
  - # 23
    frequency:   33.9995688673
  - # 24
    frequency:   64.6963672527

- q-position: [    0.1363636,    0.0000000,    0.0000000 ]
  distance:    0.0460088
  band:
  - # 1
    frequency:   -3.9074925122
  - # 2
    frequency:   -3.0507839684
  - # 3
    frequency:    0.5212595929
  - # 4
    frequency:    1.0692281702
  - # 5
    frequency:    1.5417605817
  - # 6
    frequency:    1.7664119046
  - # 7