nqpoint: 300    
npath: 3      
segment_nqpoint:
- 100
- 100
- 100
labels:
- [ 'G', 'M' ]
- [ 'M', 'K' ]
- [ 'K', 'G' ]
reciprocal_lattice:
- [   0.30641804,   0.17691054,   0.00000000 ] # a*
- [   0.00000000,   0.35382107,   0.00000000 ] # b*
- [   0.00000000,   0.00000000,   0.04233800 ] # c*
natom: 6      
lattice:
- [     3.263515446168892,     0.000000000000000,     0.000000000000000 ] # a
- [    -1.631757723084445,     2.826287282017395,     0.000000000000000 ] # b
- [     0.000000000000000,     0.000000000000000,    23.619445029601117 ] # c
points:
- symbol: H # 1
  coordinates: [  0.666666984744047,  0.333332985985145,  0.381041975741629 ]
  mass: 1.007940
- symbol: N # 2
  coordinates: [  0.000000000000000,  0.000000000000000,  0.520750984248059 ]
  mass: 14.006700
- symbol: O # 3
  coordinates: [  0.333332985432215,  0.666666983183674,  0.618958024258371 ]
  mass: 15.999400
- symbol: O # 4
  coordinates: [  0.666666984744047,  0.333332985985145,  0.422586720139449 ]
  mass: 15.999400
- symbol: Sc # 5
  coordinates: [  0.333332985432215,  0.666666983183674,  0.476632685633651 ]
  mass: 44.955912
- symbol: Sc # 6
  coordinates: [  0.666666984744047,  0.333332985985145,  0.588254502544706 ]
  mass: 44.955912

phonon:
- q-position: [    0.0000000,    0.0000000,    0.0000000 ]
  distance:    0.0000000
  band:
  - # 1
    frequency:   -0.0000030849
  - # 2
    frequency:    0.0000015357
  - # 3
    frequency:    0.0000030376
  - # 4
    frequency:    3.5429867763
  - # 5
    frequency:    3.5429867763
  - # 6
    frequency:    6.9849720791
  - # 7
    frequency:    6.9849720791
  - # 8
    frequency:    7.0516323104
  - # 9
    frequency:    8.8614129612
  - # 10
    frequency:    8.8614129612
  - # 11
    frequency:   12.3218221232
  - # 12
    frequency:   12.3218221232
  - # 13
    frequency:   14.0871794138
  - # 14
    frequency:   14.4522317941
  - # 15
    frequency:   14.4522317941
  - # 16
    frequency:   15.4871756051
  - # 17
    frequency:   18.5425856807
  - # 18
    frequency:  116.4516151375

- q-position: [    0.0050505,    0.0000000,    0.0000000 ]
  distance:    0.0017870
  band:
  - # 1
    frequency:   -0.0294656841
  - # 2
    frequency:    0.0788306676
  - # 3
    frequency:    0.1458340875
  - # 4
    frequency:    3.5442259342
  - # 5
    frequency:    3.5467840869
  - # 6
    frequency:    6.9791592800
  - # 7
    frequency:    6.9853570470
  - # 8
    frequency:    7.0610076561
  - # 9
    frequency:    8.8619253231
  - # 10
    frequency:    8.8636509694
  - # 11
    frequency:   12.3222094058
  - # 12
    frequency:   12.3302480359
  - # 13
    frequency:   14.0873419480
  - # 14
    frequency:   14.4511947562
  - # 15
    frequency:   14.4521957746
  - # 16
    frequency:   15.4873910293
  - # 17
    frequency:   18.5422235939
  - # 18
    frequency:  116.4515766566

- q-position: [    0.0101010,    0.0000000,    0.0000000 ]
  distance:    0.0035740
  band:
  - # 1
    frequency:   -0.0580858229
  - # 2
    frequency:    0.1576993672
  - # 3
    frequency:    0.2916991523
  - # 4
    frequency:    3.5479362651
  - # 5
    frequency:    3.5581276760
  - # 6
    frequency:    6.9669721334
  - # 7
    frequency:    6.9865094448
  - # 8
    frequency:    7.0837947625
  - # 9
    frequency:    8.8634609069
  - # 10
    frequency:    8.8703301807
  - # 11
    frequency:   12.3233663454
  - # 12
    frequency:   12.3554359542
  - # 13
    frequency:   14.0878325890
  - # 14
    frequency:   14.4481405434
  - # 15
    frequency:   14.4520867596
  - # 16
    frequency:   15.4880281771
  - # 17
    frequency:   18.5411455702
  - # 18
    frequency:  116.4514613590

- q-position: [    0.0151515,    0.0000000,    0.0000000 ]
  distance:    0.0053609
  band:
  - # 1
    frequency:   -0.0850044109
  - # 2
    frequency:    0.2366428564
  - # 3
    frequency:    0.4376223335
  - # 4
    frequency:    3.5540964845
  - # 5
    frequency:    3.5768754278
  - # 6
    frequency:    6.9537428427
  - # 7
    frequency:    6.9884217810
  - # 8
    frequency:    7.1144043851
  - # 9
    frequency:    8.8660152255
  - # 10
    frequency:    8.8813479788
  - # 11
    frequency:   12.3252782793
  - # 12
    frequency:   12.3971082293
  - # 13
    frequency:   14.0886613133
  - # 14
    frequency:   14.4432443968
  - # 15
    frequency:   14.4519018839
  - # 16
    frequency:   15.4890600412
  - # 17
    frequency:   18.5393762994
  - # 18
    frequency:  116.4512696786

- q-position: [    0.0202020,    0.0000000,    0.0000000 ]
  distance:    0.0071479
  band:
  - # 1
    frequency:   -0.1093269134
  - # 2
    frequency:    0.3156953885
  - # 3
    frequency:    0.5836211049
  - # 4
    frequency:    3.5626715935
  - # 5
    frequency:    3.6027998049
  - # 6
    frequency:    6.9410716877
  - # 7
    frequency:    6.9910816547
  - # 8
    frequency:    7.1508270989
  - # 9
    frequency:    8.8695808612
  - # 10
    frequency:    8.8965392391
  - # 11
    frequency:   12.3279209770
  - # 12
    frequency:   12.4547741005
  - # 13
    frequency:   14.0898480843
  - # 14
    frequency:   14.4368142650
  - # 15
    frequency:   14.4516363899
  - # 16
    frequency:   15.4904427992
  - # 17
    frequency:   18.5369568665
  - # 18
    frequency:  116.4510023362

- q-position: [    0.0252525,    0.0000000,    0.0000000 ]
  distance:    0.0089349
  band:
  - # 1
    frequency:   -0.1300904253
  - # 2
    frequency:    0.3948875694
  - # 3
    frequency:    0.7297005695
  - # 4
    frequency:    3.5736135695
  - # 5
    frequency:    3.6356005624
  - # 6
    frequency:    6.9292151929
  - # 7
    frequency:    6.9944718817
  - # 8
    frequency:    7.1922715662
  - # 9
    frequency:    8.8741475549
  - # 10
    frequency:    8.9156845838
  - # 11
    frequency:   12.3312609467
  - # 12
    frequency:   12.5276847781
  - # 13
    frequency:   14.0914296365
  - # 14
    frequency:   14.4293173948
  - # 15
    frequency:   14.4512836540
  - # 16
    frequency:   15.4921174795
  - # 17
    frequency:   18.5339446681
  - # 18
    frequency:  116.4506603353

- q-position: [    0.0303030,    0.0000000,    0.0000000 ]
  distance:    0.0107219
  band:
  - # 1
    frequency:   -0.1462048616
  - # 2
    frequency:    0.4742453386
  - # 3
    frequency:    0.8758512229
  - # 4
    frequency:    3.5868622950
  - # 5
    frequency:    3.6749202916
  - # 6
    frequency:    6.9180646311
  - # 7
    frequency:    6.9985706681
  - # 8
    frequency:    7.2382185904
  - # 9
    frequency:    8.8797023281
  - # 10
    frequency:    8.9385208020
  - # 11
    frequency:   12.3352558587
  - # 12
    frequency:   12.6147633243
  - # 13
    frequency:   14.0934730918
  - # 14
    frequency:   14.4214236748
  - # 15
    frequency:   14.4508352239
  - # 16
    frequency:   15.4940120846
  - # 17
    frequency:   18.5304133240
  - # 18
    frequency:  116.4502449565

- q-position: [    0.0353535,    0.0000000,    0.0000000 ]
  distance:    0.0125088
  band:
  - # 1
    frequency:   -0.1563409463
  - # 2
    frequency:    0.5537891023
  - # 3
    frequency:    1.0220479838
  - # 4
    frequency:    3.6023466854
  - # 5
    frequency:    3.7203611109
  - # 6
    frequency:    6.9074311620
  - # 7
    frequency:    7.0033518283
  - # 8
    frequency:    7.2881711447
  - # 9
    frequency:    8.8862296332
  - # 10
    frequency:    8.9647524501
  - # 11
    frequency:   12.3398550778
  - # 12
    frequency:   12.7144986926
  - # 13
    frequency:   14.0961015944
  - # 14
    frequency:   14.4140735173
  - # 15
    frequency:   14.4502808675
  - # 16
    frequency:   15.4960440182
  - # 17
    frequency:   18.5264526125
  - # 18
    frequency:  116.4497577506

- q-position: [    0.0404040,    0.0000000,    0.0000000 ]
  distance:    0.0142958
  band:
  - # 1
    frequency:   -0.1586927883
  - # 2
    frequency:    0.6335330427
  - # 3
    frequency:    1.1682503381
  - # 4
    frequency:    3.6199859761
  - # 5
    frequency:    3.7715009527
  - # 6
    frequency:    6.8971336081
  - # 7
    frequency:    7.0087850434
  - # 8
    frequency:    7.3416009614
  - # 9
    frequency:    8.8937115296
  - # 10
    frequency:    8.9940635734
  - # 11
    frequency:   12.3450002966
  - # 12
    frequency:   12.8247858529
  - # 13
    frequency:   14.0995387618
  - # 14
    frequency:   14.4085837368
  - # 15
    frequency:   14.4496086343
  - # 16
    frequency:   15.4981226797
  - # 17
    frequency:   18.5221684746
  - # 18
    frequency:  116.4492005299

- q-position: [    0.0454545,    0.0000000,    0.0000000 ]
  distance:    0.0160828
  band:
  - # 1
    frequency:   -0.1503829521
  - # 2
    frequency:    0.7134846128
  - # 3
    frequency:    1.3144033584
  - # 4
    frequency:    3.6396911220
  - # 5
    frequency:    3.8279082436
  - # 6
    frequency:    6.8870242719
  - # 7
    frequency:    7.0148361570
  - # 8
    frequency:    7.3979534555
  - # 9
    frequency:    8.9021278795
  - # 10
    frequency:    9.0261285597
  - # 11
    frequency:   12.3506262607
  - # 12
    frequency:   12.9426866838
  - # 13
    frequency:   14.1041751645
  - # 14
    frequency:   14.4068151650
  - # 15
    frequency:   14.4488049283
  - # 16
    frequency:   15.5001521453
  - # 17
    frequency:   18.5176831419
  - # 18
    frequency:  116.4485753583

- q-position: [    0.0505051,    0.0000000,    0.0000000 ]
  distance:    0.0178698
  band:
  - # 1
    frequency:   -0.1254483144
  - # 2
    frequency:    0.7936442225
  - # 3
    frequency:    1.4604393053
  - # 4
    frequency:    3.6613662666
  - # 5
    frequency:    3.8891542108
  - # 6
    frequency:    6.8769931114
  - # 7
    frequency:    7.0214675029
  - # 8
    frequency:    7.4566687399
  - # 9
    frequency:    8.9114565608
  - # 10
    frequency:    9.0606213343
  - # 11
    frequency:   12.3566615739
  - # 12
    frequency:   13.0640932156
  - # 13
    frequency:   14.1106372628
  - # 14
    frequency:   14.4114407823
  - # 15
    frequency:   14.4478545954
  - # 16
    frequency:   15.5020339274
  - # 17
    frequency:   18.5131354675
  - # 18
    frequency:  116.4478845400

- q-position: [    0.0555556,    0.0000000,    0.0000000 ]
  distance:    0.0196567
  band:
  - # 1
    frequency:   -0.0596394989
  - # 2
    frequency:    0.8740051101
  - # 3
    frequency:    1.6062795204
  - # 4
    frequency:    3.6849102361
  - # 5
    frequency:    3.9548224786
  - # 6
    frequency:    6.8669643149
  - # 7
    frequency:    7.0286382603
  - # 8
    frequency:    7.5172037713
  - # 9
    frequency:    8.9216736899
  - # 10
    frequency:    9.0972223991
  - # 11
    frequency:   12.3630295729
  - # 12
    frequency:   13.1833433544
  - # 13
    frequency:   14.1197723606
  - # 14
    frequency:   14.4263504869
  - # 15
    frequency:   14.4467410233
  - # 16
    frequency:   15.5036699338
  - # 17
    frequency:   18.5086815595
  - # 18
    frequency:  116.4471306073

- q-position: [    0.0606061,    0.0000000,    0.0000000 ]
  distance:    0.0214437
  band:
  - # 1
    frequency:    0.1220386779
  - # 2
    frequency:    0.9545533867
  - # 3
    frequency:    1.7518363630
  - # 4
    frequency:    3.7102180200
  - # 5
    frequency:    4.0245159725
  - # 6
    frequency:    6.8568906934
  - # 7
    frequency:    7.0363048318
  - # 8
    frequency:    7.5790502078
  - # 9
    frequency:    8.9327538528
  - # 10
    frequency:    9.1356235463
  - # 11
    frequency:   12.3696492565
  - # 12
    frequency:   13.2930736141
  - # 13
    frequency:   14.1323630606
  - # 14
    frequency:   14.4454462566
  - # 15
    frequency:   14.4570932905
  - # 16
    frequency:   15.5049659596
  - # 17
    frequency:   18.5044958527
  - # 18
    frequency:  116.4463163063

- q-position: [    0.0656566,    0.0000000,    0.0000000 ]
  distance:    0.0232307
  band:
  - # 1
    frequency:    0.2013453406
  - # 2
    frequency:    1.0352682384
  - # 3
    frequency:    1.8970150074
  - # 4
    frequency:    3.7371822066
  - # 5
    frequency:    4.0978613902
  - # 6
    frequency:    6.8467480226
  - # 7
    frequency:    7.0444212391
  - # 8
    frequency:    7.6417465320
  - # 9
    frequency:    8.9446703362
  - # 10
    frequency:    9.1755303896
  - # 11
    frequency:   12.3764362595
  - # 12
    frequency:   13.3850180944
  - # 13
    frequency:   14.1484745568
  - # 14
    frequency:   14.4439511261
  - # 15
    frequency:   14.5107421125
  - # 16
    frequency:   15.5058365056
  - # 17
    frequency:   18.5007727902
  - # 18
    frequency:  116.4454445823

- q-position: [    0.0707071,    0.0000000,    0.0000000 ]
  distance:    0.0250177
  band:
  - # 1
    frequency:    0.2725016441
  - # 2
    frequency:    1.1161222621
  - # 3
    frequency:    2.0417149847
  - # 4
    frequency:    3.7656943430
  - # 5
    frequency:    4.1745116273
  - # 6
    frequency:    6.8365301049
  - # 7
    frequency:    7.0529395313
  - # 8
    frequency:    7.7048847659
  - # 9
    frequency:    8.9573953591
  - # 10
    frequency:    9.2166630890
  - # 11
    frequency:   12.3833038551
  - # 12
    frequency:   13.4524059169
  - # 13
    frequency:   14.1669944245
  - # 14
    frequency:   14.4422353936
  - # 15
    frequency:   14.5939655634
  - # 16
    frequency:   15.5062128746
  - # 17
    frequency:   18.4977293455
  - # 18
    frequency:  116.4445185644

- q-position: [    0.0757576,    0.0000000,    0.0000000 ]
  distance:    0.0268046
  band:
  - # 1
    frequency:    0.3418485730
  - # 2
    frequency:    1.1970819145
  - # 3
    frequency:    2.1858314154
  - # 4
    frequency:    3.7956462016
  - # 5
    frequency:    4.2541465940
  - # 6
    frequency:    6.8262447419
  - # 7
    frequency:    7.0618102026
  - # 8
    frequency:    7.7681128223
  - # 9
    frequency:    8.9709002976
  - # 10
    frequency:    9.2587557878
  - # 11
    frequency:   12.3901639748
  - # 12
    frequency:   13.4928064881
  - # 13
    frequency:   14.1862950329
  - # 14
    frequency:   14.4402779110
  - # 15
    frequency:   14.7095199463
  - # 16
    frequency:   15.5060599592
  - # 17
    frequency:   18.4956086754
  - # 18
    frequency:  116.4435415481

- q-position: [    0.0808081,    0.0000000,    0.0000000 ]
  distance:    0.0285916
  band:
  - # 1
    frequency:    0.4112200035
  - # 2
    frequency:    1.2781080474
  - # 3
    frequency:    2.3292559232
  - # 4
    frequency:    3.8269309365
  - # 5
    frequency:    4.3364728313
  - # 6
    frequency:    6.8159105736
  - # 7
    frequency:    7.0709826134
  - # 8
    frequency:    7.8311337009
  - # 9
    frequency:    8.9851559024
  - # 10
    frequency:    9.3015553172
  - # 11
    frequency:   12.3969282311
  - # 12
    frequency:   13.5085720061
  - # 13
    frequency:   14.2054149984
  - # 14
    frequency:   14.4380567951
  - # 15
    frequency:   14.8545960920
  - # 16
    frequency:   15.5054195413
  - # 17
    frequency:   18.4946852824
  - # 18
    frequency:  116.4425169787

- q-position: [    0.0858586,    0.0000000,    0.0000000 ]
  distance:    0.0303786
  band:
  - # 1
    frequency:    0.4813192935
  - # 2
    frequency:    1.3591565080
  - # 3
    frequency:    2.4718772550
  - # 4
    frequency:    3.8594441200
  - # 5
    frequency:    4.4212222872
  - # 6
    frequency:    6.8055546634
  - # 7
    frequency:    7.0804054124
  - # 8
    frequency:    7.8937026282
  - # 9
    frequency:    9.0001325056
  - # 10
    frequency:    9.3448196864
  - # 11
    frequency:   12.4035089334
  - # 12
    frequency:   13.5045263141
  - # 13
    frequency:   14.2243179835
  - # 14
    frequency:   14.4355496154
  - # 15
    frequency:   15.0227370417
  - # 16
    frequency:   15.5045551840
  - # 17
    frequency:   18.4952721539
  - # 18
    frequency:  116.4414484323

- q-position: [    0.0909091,    0.0000000,    0.0000000 ]
  distance:    0.0321656
  band:
  - # 1
    frequency:    0.5524318884
  - # 2
    frequency:    1.4401787802
  - # 3
    frequency:    2.6135816471
  - # 4
    frequency:    3.8930846552
  - # 5
    frequency:    4.5081505369
  - # 6
    frequency:    6.7952106939
  - # 7
    frequency:    7.0900269551
  - # 8
    frequency:    7.9556230083
  - # 9
    frequency:    9.0158002157
  - # 10
    frequency:    9.3883167743
  - # 11
    frequency:   12.4098200833
  - # 12
    frequency:   13.4855483642
  - # 13
    frequency:   14.2434168527
  - # 14
    frequency:   14.4327335966
  - # 15
    frequency:   15.2060190637
  - # 16
    frequency:   15.5046687399
  - # 17
    frequency:   18.4977304482
  - # 18
    frequency:  116.4403395982

- q-position: [    0.0959596,    0.0000000,    0.0000000 ]
  distance:    0.0339525
  band:
  - # 1
    frequency:    0.6246577859
  - # 2
    frequency:    1.5211226482
  - # 3
    frequency:    2.7542529901
  - # 4
    frequency:    3.9277555615
  - # 5
    frequency:    4.5970346645
  - # 6
    frequency:    6.7849176535
  - # 7
    frequency:    7.0997957164
  - # 8
    frequency:    8.0167418090
  - # 9
    frequency:    9.0321290995
  - # 10
    frequency:    9.4318235120
  - # 11
    frequency:   12.4157783397
  - # 12
    frequency:   13.4555315929
  - # 13
    frequency:   14.2631724579
  - # 14
    frequency:   14.4295858323
  - # 15
    frequency:   15.3888395647
  - # 16
    frequency:   15.5155534075
  - # 17
    frequency:   18.5024823608
  - # 18
    frequency:  116.4391942590

- q-position: [    0.1010101,    0.0000000,    0.0000000 ]
  distance:    0.0357395
  band:
  - # 1
    frequency:    0.6980060805
  - # 2
    frequency:    1.6019328646
  - # 3
    frequency:    2.8937728420
  - # 4
    frequency:    3.9633646365
  - # 5
    frequency:    4.6876709568
  - # 6
    frequency:    6.7747189194
  - # 7
    frequency:    7.1096606941
  - # 8
    frequency:    8.0769447926
  - # 9
    frequency:    9.0490893500
  - # 10
    frequency:    9.4751257162
  - # 11
    frequency:   12.4213039454
  - # 12
    frequency:   13.4173146985
  - # 13
    frequency:   14.2839473486
  - # 14
    frequency:   14.4260835091
  - # 15
    frequency:   15.4705512763
  - # 16
    frequency:   15.6331675529
  - # 17
    frequency:   18.5100277781
  - # 18
    frequency:  116.4380162717

- q-position: [    0.1060606,    0.0000000,    0.0000000 ]
  distance:    0.0375265
  band:
  - # 1
    frequency:    0.7724389819
  - # 2
    frequency:    1.6825518095
  - # 3
    frequency:    3.0320203374
  - # 4
    frequency:    3.9998249954
  - # 5
    frequency:    4.7798725086
  - # 6
    frequency:    6.7646616607
  - # 7
    frequency:    7.1195718011
  - # 8
    frequency:    8.1361518362
  - # 9
    frequency:    9.0666514401
  - # 10
    frequency:    9.5180186120
  - # 11
    frequency:   12.4263216049
  - # 12
    frequency:   13.3729253824
  - # 13
    frequency:   14.3059905996
  - # 14
    frequency:   14.4222041398
  - # 15
    frequency:   15.4739053179
  - # 16
    frequency:   15.8309488180
  - # 17
    frequency:   18.5209650382
  - # 18
    frequency:  116.4368095483

- q-position: [    0.1111111,    0.0000000,    0.0000000 ]
  distance:    0.0393135
  band:
  - # 1
    frequency:    0.8478942135
  - # 2
    frequency:    1.7629201293
  - # 3
    frequency:    3.1688720330
  - # 4
    frequency:    4.0370554929
  - # 5
    frequency:    4.8734667958
  - # 6
    frequency:    6.7547965156
  - # 7
    frequency:    7.1294802440
  - # 8
    frequency:    8.1943124796
  - # 9
    frequency:    9.0847862636
  - # 10
    frequency:    9.5603079881
  - # 11
    frequency:   12.4307613081
  - # 12
    frequency:   13.3238330297
  - # 13
    frequency:   14.3294588738
  - # 14
    frequency:   14.4179258014
  - # 15
    frequency:   15.4691333883
  - # 16
    frequency:   16.0354380207
  - # 17
    frequency:   18.5360152767
  - # 18
    frequency:  116.4355780362

- q-position: [    0.1161616,    0.0000000,    0.0000000 ]
  distance:    0.0411004
  band:
  - # 1
    frequency:    0.9242970970
  - # 2
    frequency:    1.8429773467
  - # 3
    frequency:    3.3042017247
  - # 4
    frequency:    4.0749810339
  - # 5
    frequency:    4.9682932403
  - # 6
    frequency:    6.7451775084
  - # 7
    frequency:    7.1393388862
  - # 8
    frequency:    8.2514017641
  - # 9
    frequency:    9.1034652613
  - # 10
    frequency:    9.6018118580
  - # 11
    frequency:   12.4345590930
  - # 12
    frequency:   13.2711363521
  - # 13
    frequency:   14.3544386583
  - # 14
    frequency:   14.4132273776
  - # 15
    frequency:   15.4618264162
  - # 16
    frequency:   16.2381674071
  - # 17
    frequency:   18.5560478930
  - # 18
    frequency:  116.4343256988

- q-position: [    0.1212121,    0.0000000,    0.0000000 ]
  distance:    0.0428874
  band:
  - # 1
    frequency:    1.0015673142
  - # 2
    frequency:    1.9226624381
  - # 3
    frequency:    3.4378802586
  - # 4
    frequency:    4.1135327762
  - # 5
    frequency:    5.0642007657
  - # 6
    frequency:    6.7358621985
  - # 7
    frequency:    7.1491025952
  - # 8
    frequency:    8.3074163897
  - # 9
    frequency:    9.1226605351
  - # 10
    frequency:    9.6423624601
  - # 11
    frequency:   12.4376577422
  - # 12
    frequency:   13.2156892692
  - # 13
    frequency:   14.3809617300
  - # 14
    frequency:   14.4080888007
  - # 15
    frequency:   15.4529076641
  - # 16
    frequency:   16.4355266758
  - # 17
    frequency:   18.5821008046
  - # 18
    frequency:  116.4330564963

- q-position: [    0.1262626,    0.0000000,    0.0000000 ]
  distance:    0.0446744
  band:
  - # 1
    frequency:    1.0796227549
  - # 2
    frequency:    2.0019143736
  - # 3
    frequency:    3.5697753558
  - # 4
    frequency:    4.1526482317
  - # 5
    frequency:    5.1610453209
  - # 6
    frequency:    6.7269120701
  - # 7
    frequency:    7.1587285703
  - # 8
    frequency:    8.3623711944
  - # 9
    frequency:    9.1423449497
  - # 10
    frequency:    9.6818084136
  - # 11
    frequency:   12.4400074101
  - # 12
    frequency:   13.1581827166
  - # 13
    frequency:   14.4024912912
  - # 14
    frequency:   14.4090140112
  - # 15
    frequency:   15.4426828620
  - # 16
    frequency:   16.6246197121
  - # 17
    frequency:   18.6153825056
  - # 18
    frequency:  116.4317743671

- q-position: [    0.1313131,    0.0000000,    0.0000000 ]
  distance:    0.0464614
  band:
  - # 1
    frequency:    1.1583817012
  - # 2
    frequency:    2.0806726203
  - # 3
    frequency:    3.6997514580
  - # 4
    frequency:    4.1922712706
  - # 5
    frequency:    5.2586873275
  - # 6
    frequency:    6.7183931965
  - # 7
    frequency:    7.1681766520
  - # 8
    frequency:    8.4162959456
  - # 9
    frequency:    9.1624922226
  - # 10
    frequency:    9.7200168532
  - # 11
    frequency:   12.4415661766
  - # 12
    frequency:   13.0991975850
  - # 13
    frequency:   14.3964175911
  - # 14
    frequency:   14.4385394188
  - # 15
    frequency:   15.4313192332
  - # 16
    frequency:   16.8027658769
  - # 17
    frequency:   18.6572337677
  - # 18
    frequency:  116.4304832089

- q-position: [    0.1363636,    0.0000000,    0.0000000 ]
  distance:    0.0482483
  band:
  - # 1
    frequency:    1.2377640335
  - # 2
    frequency:    2.1588776105
  - # 3
    frequency:    3.8276695956
  - # 4
    frequency:    4.2323520340
  - # 5
    frequency:    5.3569889781
  - # 6
    frequency:    6.7103772513
  - # 7
    frequency:    7.1774096100
  - # 8
    frequency:    8.4692324246
  - # 9
    frequency:    9.1830770032
  - # 10
    frequency:    9.7568753853
  - # 11
    frequency:   12.4423005261
  - # 12
    frequency:   13.0392392043
  - # 13
    frequency:   14.3898521888
  - # 14
    frequency:   14.4694399780
  - # 15
    frequency:   15.4189557425
  - # 16
    frequency:   16.9674618508
  - # 17
    frequency:   18.7090192560
  - # 18
    frequency:  116.4291868615

- q-position: [    0.1414141,    0.0000000,    0.0000000 ]
  distance:    0.0500353
  band:
  - # 1
    frequency:    1.3176918513
  - # 2
    frequency:    2.2364711748
  - # 3
    frequency:    3.9533872706
  - # 4
    frequency:    4.2728467581
  - # 5
    frequency:    5.4558112683
  - # 6
    frequency:    6.7029429857
  - # 7
    frequency:    7.1863934094
  - # 8
    frequency:    8.5212317780
  - # 9
    frequency:    9.2040749404
  - # 10
    frequency:    9.7922937433
  - # 11
    frequency:   12.4421857483
  - # 12
    frequency:   12.9787600309
  - # 13
    frequency:   14.3827815307
  - # 14
    frequency:   14.5015728486
  - # 15
    frequency:   15.4057415676
  - # 16
    frequency:   17.1165240674
  - # 17
    frequency:   18.7719249607
  - # 18
    frequency:  116.4278890890

- q-position: [    0.1464646,    0.0000000,    0.0000000 ]
  distance:    0.0518223
  band:
  - # 1
    frequency:    1.3980897418
  - # 2
    frequency:    2.3133969460
  - # 3
    frequency:    4.0767583422
  - # 4
    frequency:    4.3137175160
  - # 5
    frequency:    5.5550105653
  - # 6
    frequency:    6.6961783864
  - # 7
    frequency:    7.1950974543
  - # 8
    frequency:    8.5723520970
  - # 9
    frequency:    9.2254627416
  - # 10
    frequency:    9.8262050556
  - # 11
    frequency:   12.4412062608
  - # 12
    frequency:   12.9181747081
  - # 13
    frequency:   14.3751942198
  - # 14
    frequency:   14.5347443342
  - # 15
    frequency:   15.3918562703
  - # 16
    frequency:   17.2483429032
  - # 17
    frequency:   18.8466727399
  - # 18
    frequency:  116.4265935636

- q-position: [    0.1515152,    0.0000000,    0.0000000 ]
  distance:    0.0536093
  band:
  - # 1
    frequency:    1.4788848399
  - # 2
    frequency:    2.3896007365
  - # 3
    frequency:    4.1976328943
  - # 4
    frequency:    4.3549318811
  - # 5
    frequency:    5.6544343664
  - # 6
    frequency:    6.6901838827
  - # 7
    frequency:    7.2034948064
  - # 8
    frequency:    8.6226561800
  - # 9
    frequency:    9.2472182194
  - # 10
    frequency:    9.8585666795
  - # 11
    frequency:   12.4393558512
  - # 12
    frequency:   12.8578701217
  - # 13
    frequency:   14.3670811955
  - # 14
    frequency:   14.5687004547
  - # 15
    frequency:   15.3775258725
  - # 16
    frequency:   17.3621546058
  - # 17
    frequency:   18.9332297167
  - # 18
    frequency:  116.4253038505

- q-position: [    0.1565657,    0.0000000,    0.0000000 ]
  distance:    0.0553962
  band:
  - # 1
    frequency:    1.5600067674
  - # 2
    frequency:    2.4650308920
  - # 3
    frequency:    4.3158570648
  - # 4
    frequency:    4.3964625175
  - # 5
    frequency:    5.7539156091
  - # 6
    frequency:    6.6850772707
  - # 7
    frequency:    7.2115623781
  - # 8
    frequency:    8.6722094251
  - # 9
    frequency:    9.2693203295
  - # 10
    frequency:    9.8893605930
  - # 11
    frequency:   12.4366378380
  - # 12
    frequency:   12.7982121108
  - # 13
    frequency:   14.3584358951
  - # 14
    frequency:   14.6031132798
  - # 15
    frequency:   15.3630401154
  - # 16
    frequency:   17.4581933133
  - # 17
    frequency:   19.0306441237
  - # 18
    frequency:  116.4240233923

- q-position: [    0.1616162,    0.0000000,    0.0000000 ]
  distance:    0.0571832
  band:
  - # 1
    frequency:    1.6413875080
  - # 2
    frequency:    2.5396386267
  - # 3
    frequency:    4.4312728140
  - # 4
    frequency:    4.4382867034
  - # 5
    frequency:    5.8532643090
  - # 6
    frequency:    6.6810016124
  - # 7
    frequency:    7.2192810981
  - # 8
    frequency:    8.7210777895
  - # 9
    frequency:    9.2917491975
  - # 10
    frequency:    9.9185933687
  - # 11
    frequency:   12.4330651499
  - # 12
    frequency:   12.7395499116
  - # 13
    frequency:   14.3492543948
  - # 14
    frequency:   14.6375620529
  - # 15
    frequency:   15.3487735775
  - # 16
    frequency:   17.5376184982
  - # 17
    frequency:   19.1371095263
  - # 18
    frequency:  116.4227554964

- q-position: [    0.1666667,    0.0000000,    0.0000000 ]
  distance:    0.0589702
  band:
  - # 1
    frequency:    1.7229612536
  - # 2
    frequency:    2.6133783409
  - # 3
    frequency:    4.4803857934
  - # 4
    frequency:    4.5437176217
  - # 5
    frequency:    5.9522540571
  - # 6
    frequency:    6.6781386057
  - # 7
    frequency:    7.2266360489
  - # 8
    frequency:    8.7693257519
  - # 9
    frequency:    9.3144861352
  - # 10
    frequency:    9.9462957802
  - # 11
    frequency:   12.4286603222
  - # 12
    frequency:   12.6822190349
  - # 13
    frequency:   14.3395355284
  - # 14
    frequency:   14.6715085573
  - # 15
    frequency:   15.3352119284
  - # 16
    frequency:   17.6022339252
  - # 17
    frequency:   19.2502399187
  - # 18
    frequency:  116.4215033216

- q-position: [    0.1717172,    0.0000000,    0.0000000 ]
  distance:    0.0607572
  band:
  - # 1
    frequency:    1.8046642445
  - # 2
    frequency:    2.6862079242
  - # 3
    frequency:    4.5227446292
  - # 4
    frequency:    4.6530241123
  - # 5
    frequency:    6.0505981454
  - # 6
    frequency:    6.6767326746
  - # 7
    frequency:    7.2336165721
  - # 8
    frequency:    8.8170142100
  - # 9
    frequency:    9.3375136450
  - # 10
    frequency:    9.9725221116
  - # 11
    frequency:   12.4234554089
  - # 12
    frequency:   12.6265430525
  - # 13
    frequency:   14.3292809844
  - # 14
    frequency:   14.7042680710
  - # 15
    frequency:   15.3229822979
  - # 16
    frequency:   17.6541246703
  - # 17
    frequency:   19.3674283334
  - # 18
    frequency:  116.4202698673

- q-position: [    0.1767677,    0.0000000,    0.0000000 ]
  distance:    0.0625441
  band:
  - # 1
    frequency:    1.8864346178
  - # 2
    frequency:    2.7580890422
  - # 3
    frequency:    4.5653509065
  - # 4
    frequency:    4.7590196406
  - # 5
    frequency:    6.1479035365
  - # 6
    frequency:    6.6771375501
  - # 7
    frequency:    7.2402163425
  - # 8
    frequency:    8.8641982501
  - # 9
    frequency:    9.3608154127
  - # 10
    frequency:    9.9973492533
  - # 11
    frequency:   12.4174918114
  - # 12
    frequency:   12.5728346109
  - # 13
    frequency:   14.3184953805
  - # 14