nqpoint: 300    
npath: 3      
segment_nqpoint:
- 100
- 100
- 100
labels:
- [ 'G', 'M' ]
- [ 'M', 'K' ]
- [ 'K', 'G' ]
reciprocal_lattice:
- [   0.29888501,   0.17256134,   0.00000000 ] # a*
- [   0.00000000,   0.34512268,   0.00000000 ] # b*
- [   0.00000000,   0.00000000,   0.04296962 ] # c*
natom: 5      
lattice:
- [     3.345768370691996,     0.000000000000000,     0.000000000000000 ] # a
- [    -1.672884185345998,     2.897520404186038,     0.000000000000000 ] # b
- [     0.000000000000000,     0.000000000000000,    23.272253900575837 ] # c
points:
- symbol: C # 1
  coordinates: [  0.000000000000000,  0.000000000000000,  0.511203526249647 ]
  mass: 12.010700
- symbol: Cl # 2
  coordinates: [  0.666666984744047,  0.333332985985145,  0.386726616100442 ]
  mass: 35.453000
- symbol: O # 3
  coordinates: [  0.333332985432215,  0.666666983183674,  0.613273383899558 ]
  mass: 15.999400
- symbol: Sc # 4
  coordinates: [  0.333332985432215,  0.666666983183674,  0.460655684880698 ]
  mass: 44.955912
- symbol: Sc # 5
  coordinates: [  0.666666984744047,  0.333332985985145,  0.584041489854046 ]
  mass: 44.955912

phonon:
- q-position: [    0.0000000,    0.0000000,    0.0000000 ]
  distance:    0.0000000
  band:
  - # 1
    frequency:   -0.0000031895
  - # 2
    frequency:    0.0000010326
  - # 3
    frequency:    0.0000030948
  - # 4
    frequency:    2.3692666472
  - # 5
    frequency:    2.3692666472
  - # 6
    frequency:    4.2520846188
  - # 7
    frequency:    5.5493238784
  - # 8
    frequency:    5.5493238784
  - # 9
    frequency:    9.1414600226
  - # 10
    frequency:    9.1414600226
  - # 11
    frequency:   10.1220468400
  - # 12
    frequency:   12.8446275639
  - # 13
    frequency:   12.8446275639
  - # 14
    frequency:   13.9306497816
  - # 15
    frequency:   16.8477326297

- q-position: [    0.0050505,    0.0000000,    0.0000000 ]
  distance:    0.0017430
  band:
  - # 1
    frequency:   -0.0744134705
  - # 2
    frequency:   -0.0372541465
  - # 3
    frequency:    0.0702149611
  - # 4
    frequency:    2.3708499447
  - # 5
    frequency:    2.3728871456
  - # 6
    frequency:    4.2520486183
  - # 7
    frequency:    5.5492789363
  - # 8
    frequency:    5.5501335952
  - # 9
    frequency:    9.1411375498
  - # 10
    frequency:    9.1414140214
  - # 11
    frequency:   10.1229650877
  - # 12
    frequency:   12.8434112772
  - # 13
    frequency:   12.8444905348
  - # 14
    frequency:   13.9312716099
  - # 15
    frequency:   16.8467399038

- q-position: [    0.0101010,    0.0000000,    0.0000000 ]
  distance:    0.0034861
  band:
  - # 1
    frequency:   -0.1486345274
  - # 2
    frequency:   -0.0313027779
  - # 3
    frequency:    0.1234349676
  - # 4
    frequency:    2.3755772535
  - # 5
    frequency:    2.3836931551
  - # 6
    frequency:    4.2519460941
  - # 7
    frequency:    5.5491438099
  - # 8
    frequency:    5.5525603770
  - # 9
    frequency:    9.1401589552
  - # 10
    frequency:    9.1412802347
  - # 11
    frequency:   10.1257227277
  - # 12
    frequency:   12.8397721254
  - # 13
    frequency:   12.8440793462
  - # 14
    frequency:   13.9331296507
  - # 15
    frequency:   16.8437681413

- q-position: [    0.0151515,    0.0000000,    0.0000000 ]
  distance:    0.0052291
  band:
  - # 1
    frequency:   -0.2224787175
  - # 2
    frequency:    0.0235898452
  - # 3
    frequency:    0.1784365554
  - # 4
    frequency:    2.3833822167
  - # 5
    frequency:    2.4015220978
  - # 6
    frequency:    4.2517935249
  - # 7
    frequency:    5.5489176391
  - # 8
    frequency:    5.5565971619
  - # 9
    frequency:    9.1384912898
  - # 10
    frequency:    9.1410712424
  - # 11
    frequency:   10.1303279273
  - # 12
    frequency:   12.8337390492
  - # 13
    frequency:   12.8433937013
  - # 14
    frequency:   13.9362017810
  - # 15
    frequency:   16.8388365657

- q-position: [    0.0202020,    0.0000000,    0.0000000 ]
  distance:    0.0069722
  band:
  - # 1
    frequency:   -0.2957765848
  - # 2
    frequency:    0.0565241039
  - # 3
    frequency:    0.2348719153
  - # 4
    frequency:    2.3941586876
  - # 5
    frequency:    2.4261152947
  - # 6
    frequency:    4.2516185341
  - # 7
    frequency:    5.5485991206
  - # 8
    frequency:    5.5622323243
  - # 9
    frequency:    9.1360815340
  - # 10
    frequency:    9.1408077751
  - # 11
    frequency:   10.1367925863
  - # 12
    frequency:   12.8253596927
  - # 13
    frequency:   12.8424331315
  - # 14
    frequency:   13.9404518035
  - # 15
    frequency:   16.8319771452

- q-position: [    0.0252525,    0.0000000,    0.0000000 ]
  distance:    0.0087152
  band:
  - # 1
    frequency:   -0.3683790384
  - # 2
    frequency:    0.0844995141
  - # 3
    frequency:    0.2924317073
  - # 4
    frequency:    2.4077667598
  - # 5
    frequency:    2.4571343115
  - # 6
    frequency:    4.2514601330
  - # 7
    frequency:    5.5481866985
  - # 8
    frequency:    5.5694498826
  - # 9
    frequency:    9.1328593169
  - # 10
    frequency:    9.1405183634
  - # 11
    frequency:   10.1451298877
  - # 12
    frequency:   12.8146995968
  - # 13
    frequency:   12.8411970342
  - # 14
    frequency:   13.9458303816
  - # 15
    frequency:   16.8232344830

- q-position: [    0.0303030,    0.0000000,    0.0000000 ]
  distance:    0.0104583
  band:
  - # 1
    frequency:   -0.4401606109
  - # 2
    frequency:    0.1126674929
  - # 3
    frequency:    0.3509581556
  - # 4
    frequency:    2.4240400823
  - # 5
    frequency:    2.4941802626
  - # 6
    frequency:    4.2513690705
  - # 7
    frequency:    5.5476788225
  - # 8
    frequency:    5.5782297730
  - # 9
    frequency:    9.1287404829
  - # 10
    frequency:    9.1402388571
  - # 11
    frequency:   10.1553510989
  - # 12
    frequency:   12.8018412112
  - # 13
    frequency:   12.8396847239
  - # 14
    frequency:   13.9522762114
  - # 15
    frequency:   16.8126656619

- q-position: [    0.0353535,    0.0000000,    0.0000000 ]
  distance:    0.0122013
  band:
  - # 1
    frequency:   -0.5110205052
  - # 2
    frequency:    0.1421642513
  - # 3
    frequency:    0.4103460574
  - # 4
    frequency:    2.4427936480
  - # 5
    frequency:    2.5368136105
  - # 6
    frequency:    4.2514082973
  - # 7
    frequency:    5.5470742634
  - # 8
    frequency:    5.5885481766
  - # 9
    frequency:    9.1236312739
  - # 10
    frequency:    9.1400118209
  - # 11
    frequency:   10.1674618470
  - # 12
    frequency:   12.7868828378
  - # 13
    frequency:   12.8378954958
  - # 14
    frequency:   13.9597173237
  - # 15
    frequency:   16.8003400380

- q-position: [    0.0404040,    0.0000000,    0.0000000 ]
  distance:    0.0139444
  band:
  - # 1
    frequency:   -0.5808816278
  - # 2
    frequency:    0.1734213407
  - # 3
    frequency:    0.4704923834
  - # 4
    frequency:    2.4638313336
  - # 5
    frequency:    2.5845724015
  - # 6
    frequency:    4.2516535577
  - # 7
    frequency:    5.5463724748
  - # 8
    frequency:    5.6003778807
  - # 9
    frequency:    9.1174328594
  - # 10
    frequency:    9.1398858181
  - # 11
    frequency:   10.1814581238
  - # 12
    frequency:   12.7699376109
  - # 13
    frequency:   12.8358286992
  - # 14
    frequency:   13.9680724162
  - # 15
    frequency:   16.7863389796

- q-position: [    0.0454545,    0.0000000,    0.0000000 ]
  distance:    0.0156874
  band:
  - # 1
    frequency:   -0.6496880058
  - # 2
    frequency:    0.2066086164
  - # 3
    frequency:    0.5312765030
  - # 4
    frequency:    2.4869526609
  - # 5
    frequency:    2.6369875438
  - # 6
    frequency:    4.2521941193
  - # 7
    frequency:    5.5455739873
  - # 8
    frequency:    5.6136886596
  - # 9
    frequency:    9.1100459192
  - # 10
    frequency:    9.1399145969
  - # 11
    frequency:   10.1973223031
  - # 12
    frequency:   12.7511326034
  - # 13
    frequency:   12.8334838182
  - # 14
    frequency:   13.9772521318
  - # 15
    frequency:   16.7707555453

- q-position: [    0.0505051,    0.0000000,    0.0000000 ]
  distance:    0.0174304
  band:
  - # 1
    frequency:   -0.7174010766
  - # 2
    frequency:    0.2417674973
  - # 3
    frequency:    0.5925549850
  - # 4
    frequency:    2.5119584619
  - # 5
    frequency:    2.6935944348
  - # 6
    frequency:    4.2531336579
  - # 7
    frequency:    5.5446808196
  - # 8
    frequency:    5.6284476567
  - # 9
    frequency:    9.1013749990
  - # 10
    frequency:    9.1401561937
  - # 11
    frequency:   10.2150194376
  - # 12
    frequency:   12.7306081240
  - # 13
    frequency:   12.8308605587
  - # 14
    frequency:   13.9871602273
  - # 15
    frequency:   16.7536940949

- q-position: [    0.0555556,    0.0000000,    0.0000000 ]
  distance:    0.0191735
  band:
  - # 1
    frequency:   -0.7839953340
  - # 2
    frequency:    0.2788666017
  - # 3
    frequency:    0.6541632660
  - # 4
    frequency:    2.5386553333
  - # 5
    frequency:    2.7539408265
  - # 6
    frequency:    4.2545913137
  - # 7
    frequency:    5.5436968887
  - # 8
    frequency:    5.6446197543
  - # 9
    frequency:    9.0913323902
  - # 10
    frequency:    9.1406719726
  - # 11
    frequency:   10.2344940702
  - # 12
    frequency:   12.7085172364
  - # 13
    frequency:   12.8279589376
  - # 14
    frequency:   13.9976946076
  - # 15
    frequency:   16.7352698239

- q-position: [    0.0606061,    0.0000000,    0.0000000 ]
  distance:    0.0209165
  band:
  - # 1
    frequency:   -0.8494537491
  - # 2
    frequency:    0.3178289588
  - # 3
    frequency:    0.7159205131
  - # 4
    frequency:    2.5668589165
  - # 5
    frequency:    2.8175912095
  - # 6
    frequency:    4.2567029389
  - # 7
    frequency:    5.5426284017
  - # 8
    frequency:    5.6621679183
  - # 9
    frequency:    9.0798413523
  - # 10
    frequency:    9.1415256206
  - # 11
    frequency:   10.2556677309
  - # 12
    frequency:   12.6850255085
  - # 13
    frequency:   12.8247793722
  - # 14
    frequency:   14.0087482219
  - # 15
    frequency:   16.7156082121

- q-position: [    0.0656566,    0.0000000,    0.0000000 ]
  distance:    0.0226596
  band:
  - # 1
    frequency:   -0.9137632873
  - # 2
    frequency:    0.3585460673
  - # 3
    frequency:    0.7776358623
  - # 4
    frequency:    2.5963961331
  - # 5
    frequency:    2.8841282017
  - # 6
    frequency:    4.2596225600
  - # 7
    frequency:    5.5414842103
  - # 8
    frequency:    5.6810535074
  - # 9
    frequency:    9.0668385722
  - # 10
    frequency:    9.1427821190
  - # 11
    frequency:   10.2784372149
  - # 12
    frequency:   12.6603109736
  - # 13
    frequency:   12.8213227678
  - # 14
    frequency:   14.0202098459
  - # 15
    frequency:   16.6948443751

- q-position: [    0.0707071,    0.0000000,    0.0000000 ]
  distance:    0.0244026
  band:
  - # 1
    frequency:   -0.9769107444
  - # 2
    frequency:    0.4008849059
  - # 3
    frequency:    0.8391151582
  - # 4
    frequency:    2.6271065531
  - # 5
    frequency:    2.9531514890
  - # 6
    frequency:    4.2635240753
  - # 7
    frequency:    5.5402761102
  - # 8
    frequency:    5.7012365424
  - # 9
    frequency:    9.0522758388
  - # 10
    frequency:    9.1445067164
  - # 11
    frequency:   10.3026736646
  - # 12
    frequency:   12.6345642647
  - # 13
    frequency:   12.8175905993
  - # 14
    frequency:   14.0319647853
  - # 15
    frequency:   16.6731223064

- q-position: [    0.0757576,    0.0000000,    0.0000000 ]
  distance:    0.0261457
  band:
  - # 1
    frequency:   -1.0388790356
  - # 2
    frequency:    0.4446907924
  - # 3
    frequency:    0.9001678299
  - # 4
    frequency:    2.6588430808
  - # 5
    frequency:    3.0242748323
  - # 6
    frequency:    4.2686032093
  - # 7
    frequency:    5.5390190686
  - # 8
    frequency:    5.7226759303
  - # 9
    frequency:    9.0361209835
  - # 10
    frequency:    9.1467639221
  - # 11
    frequency:   10.3282224073
  - # 12
    frequency:   12.6079888713
  - # 13
    frequency:   12.8135849866
  - # 14
    frequency:   14.0438955435
  - # 15
    frequency:   16.6505939963

- q-position: [    0.0808081,    0.0000000,    0.0000000 ]
  distance:    0.0278887
  band:
  - # 1
    frequency:   -1.0996440059
  - # 2
    frequency:    0.4897876030
  - # 3
    frequency:    0.9606138355
  - # 4
    frequency:    2.6914721291
  - # 5
    frequency:    3.0971215889
  - # 6
    frequency:    4.2750797283
  - # 7
    frequency:    5.5377313650
  - # 8
    frequency:    5.7453296427
  - # 9
    frequency:    9.0183581922
  - # 10
    frequency:    9.1496165464
  - # 11
    frequency:   10.3549034640
  - # 12
    frequency:   12.5808014485
  - # 13
    frequency:   12.8093087603
  - # 14
    frequency:   14.0558825034
  - # 15
    frequency:   16.6274184132

- q-position: [    0.0858586,    0.0000000,    0.0000000 ]
  distance:    0.0296317
  band:
  - # 1
    frequency:   -1.1591717765
  - # 2
    frequency:    0.5359761772
  - # 3
    frequency:    1.0202907687
  - # 4
    frequency:    2.7248734262
  - # 5
    frequency:    3.1713191285
  - # 6
    frequency:    4.2831998865
  - # 7
    frequency:    5.5364346346
  - # 8
    frequency:    5.7691548509
  - # 9
    frequency:    8.9989878260
  - # 10
    frequency:    9.1531248074
  - # 11
    frequency:   10.3825126254
  - # 12
    frequency:   12.5532320991
  - # 13
    frequency:   12.8047655163
  - # 14
    frequency:   14.0678046678
  - # 15
    frequency:   16.6037603335

- q-position: [    0.0909091,    0.0000000,    0.0000000 ]
  distance:    0.0313748
  band:
  - # 1
    frequency:   -1.2174166168
  - # 2
    frequency:    0.5830313693
  - # 3
    frequency:    1.0790612817
  - # 4
    frequency:    2.7589395699
  - # 5
    frequency:    3.2464925104
  - # 6
    frequency:    4.2932389978
  - # 7
    frequency:    5.5351538058
  - # 8
    frequency:    5.7941080184
  - # 9
    frequency:    8.9780258979
  - # 10
    frequency:    9.1573455240
  - # 11
    frequency:   10.4108230073
  - # 12
    frequency:   12.5255245269
  - # 13
    frequency:   12.7999596572
  - # 14
    frequency:   14.0795404998
  - # 15
    frequency:   16.5797890078

- q-position: [    0.0959596,    0.0000000,    0.0000000 ]
  distance:    0.0331178
  band:
  - # 1
    frequency:   -1.2743193044
  - # 2
    frequency:    0.6306980393
  - # 3
    frequency:    1.1368209645
  - # 4
    frequency:    2.7935754158
  - # 5
    frequency:    3.3222578570
  - # 6
    frequency:    4.3055038744
  - # 7
    frequency:    5.5339169291
  - # 8
    frequency:    5.8201449573
  - # 9
    frequency:    8.9555033401
  - # 10
    frequency:    9.1623314144
  - # 11
    frequency:   10.4395870317
  - # 12
    frequency:   12.4979359404
  - # 13
    frequency:   12.7948964212
  - # 14
    frequency:   14.0909689001
  - # 15
    frequency:   16.5556766517

- q-position: [    0.1010101,    0.0000000,    0.0000000 ]
  distance:    0.0348609
  band:
  - # 1
    frequency:   -1.3298059336
  - # 2
    frequency:    0.6786862507
  - # 3
    frequency:    1.1935067171
  - # 4
    frequency:    2.8286973626
  - # 5
    frequency:    3.3982160783
  - # 6
    frequency:    4.3203346023
  - # 7
    frequency:    5.5327548987
  - # 8
    frequency:    5.8472208502
  - # 9
    frequency:    8.9314651789
  - # 10
    frequency:    9.1681305117
  - # 11
    frequency:   10.4685388378
  - # 12
    frequency:   12.4707365585
  - # 13
    frequency:   12.7895818951
  - # 14
    frequency:   14.1019703438
  - # 15
    frequency:   16.5315967565

- q-position: [    0.1060606,    0.0000000,    0.0000000 ]
  distance:    0.0366039
  band:
  - # 1
    frequency:   -1.3837871206
  - # 2
    frequency:    0.7266660517
  - # 3
    frequency:    1.2491054455
  - # 4
    frequency:    2.8642325771
  - # 5
    frequency:    3.4739480195
  - # 6
    frequency:    4.3381046673
  - # 7
    frequency:    5.5317010737
  - # 8
    frequency:    5.8752902443
  - # 9
    frequency:    8.9059697034
  - # 10
    frequency:    9.1747857092
  - # 11
    frequency:   10.4973971894
  - # 12
    frequency:   12.4442085378
  - # 13
    frequency:   12.7840230136
  - # 14
    frequency:   14.1124281956
  - # 15
    frequency:   16.5077222189

- q-position: [    0.1111111,    0.0000000,    0.0000000 ]
  distance:    0.0383470
  band:
  - # 1
    frequency:   -1.4361575582
  - # 2
    frequency:    0.7742624776
  - # 3
    frequency:    1.3036625800
  - # 4
    frequency:    2.9001181884
  - # 5
    frequency:    3.5490127723
  - # 6
    frequency:    4.3592177613
  - # 7
    frequency:    5.5307908109
  - # 8
    frequency:    5.9043070193
  - # 9
    frequency:    8.8790876859
  - # 10
    frequency:    9.1823344393
  - # 11
    frequency:   10.5258690087
  - # 12
    frequency:   12.4186441138
  - # 13
    frequency:   12.7782275428
  - # 14
    frequency:   14.1222302028
  - # 15
    frequency:   16.4842233007

- q-position: [    0.1161616,    0.0000000,    0.0000000 ]
  distance:    0.0400900
  band:
  - # 1
    frequency:   -1.4867958684
  - # 2
    frequency:    0.8210518239
  - # 3
    frequency:    1.3572894357
  - # 4
    frequency:    2.9363004703
  - # 5
    frequency:    3.6229517467
  - # 6
    frequency:    4.3840987464
  - # 7
    frequency:    5.5300609237
  - # 8
    frequency:    5.9342243344
  - # 9
    frequency:    8.8509016898
  - # 10
    frequency:    9.1908084911
  - # 11
    frequency:   10.5536537197
  - # 12
    frequency:   12.3943427251
  - # 13
    frequency:   12.7722040504
  - # 14
    frequency:   14.1312701561
  - # 15
    frequency:   16.4612654377

- q-position: [    0.1212121,    0.0000000,    0.0000000 ]
  distance:    0.0418331
  band:
  - # 1
    frequency:   -1.5355647038
  - # 2
    frequency:    0.8665607698
  - # 3
    frequency:    1.4101678515
  - # 4
    frequency:    2.9727340216
  - # 5
    frequency:    3.6953018330
  - # 6
    frequency:    4.4131755323
  - # 7
    frequency:    5.5295490870
  - # 8
    frequency:    5.9649945550
  - # 9
    frequency:    8.8215054754
  - # 10
    frequency:    9.2002339600
  - # 11
    frequency:   10.5804486085
  - # 12
    frequency:   12.3716068879
  - # 13
    frequency:   12.7659618611
  - # 14
    frequency:   14.1394496909
  - # 15
    frequency:   16.4390069329

- q-position: [    0.1262626,    0.0000000,    0.0000000 ]
  distance:    0.0435761
  band:
  - # 1
    frequency:   -1.5823110476
  - # 2
    frequency:    0.9102704426
  - # 3
    frequency:    1.4625499794
  - # 4
    frequency:    3.0093809546
  - # 5
    frequency:    3.7656208454
  - # 6
    frequency:    4.4468487862
  - # 7
    frequency:    5.5292932099
  - # 8
    frequency:    5.9965691600
  - # 9
    frequency:    8.7910035046
  - # 10
    frequency:    9.2106313270
  - # 11
    frequency:   10.6059553924
  - # 12
    frequency:   12.3507366260
  - # 13
    frequency:   12.7595110007
  - # 14
    frequency:   14.1466801834
  - # 15
    frequency:   16.4175965827

- q-position: [    0.1313131,    0.0000000,    0.0000000 ]
  distance:    0.0453191
  band:
  - # 1
    frequency:   -1.6268666616
  - # 2
    frequency:    0.9516277139
  - # 3
    frequency:    1.5147508595
  - # 4
    frequency:    3.0462100935
  - # 5
    frequency:    3.8335262217
  - # 6
    frequency:    4.4854486338
  - # 7
    frequency:    5.5293307994
  - # 8
    frequency:    6.0288986307
  - # 9
    frequency:    8.7595105303
  - # 10
    frequency:    9.2220156540
  - # 11
    frequency:   10.6298881079
  - # 12
    frequency:   12.3320223526
  - # 13
    frequency:   12.7528621279
  - # 14
    frequency:   14.1528846815
  - # 15
    frequency:   16.3971713023

- q-position: [    0.1363636,    0.0000000,    0.0000000 ]
  distance:    0.0470622
  band:
  - # 1
    frequency:   -1.6690486303
  - # 2
    frequency:    0.9900654640
  - # 3
    frequency:    1.5671319347
  - # 4
    frequency:    3.0831961879
  - # 5
    frequency:    3.8987427782
  - # 6
    frequency:    4.5291827032
  - # 7
    frequency:    5.5296983363
  - # 8
    frequency:    6.0619323192
  - # 9
    frequency:    8.7271512566
  - # 10
    frequency:    9.2343968839
  - # 11
    frequency:   10.6519822751
  - # 12
    frequency:   12.3157362633
  - # 13
    frequency:   12.7460264578
  - # 14
    frequency:   14.1579997922
  - # 15
    frequency:   16.3778538276

- q-position: [    0.1414141,    0.0000000,    0.0000000 ]
  distance:    0.0488052
  band:
  - # 1
    frequency:   -1.7086599478
  - # 2
    frequency:    1.0250318718
  - # 3
    frequency:    1.6200753303
  - # 4
    frequency:    3.1203191439
  - # 5
    frequency:    3.9611482111
  - # 6
    frequency:    4.5780869836
  - # 7
    frequency:    5.5304306873
  - # 8
    frequency:    6.0956182934
  - # 9
    frequency:    8.6940600492
  - # 10
    frequency:    9.2477802288
  - # 11
    frequency:   10.6720050611
  - # 12
    frequency:   12.3021225388
  - # 13
    frequency:   12.7390156771
  - # 14
    frequency:   14.1619774391
  - # 15
    frequency:   16.3597505855

- q-position: [    0.1464646,    0.0000000,    0.0000000 ]
  distance:    0.0505483
  band:
  - # 1
    frequency:   -1.7454900907
  - # 2
    frequency:    1.0560260476
  - # 3
    frequency:    1.6739514659
  - # 4
    frequency:    3.1575632754
  - # 5
    frequency:    4.0208002819
  - # 6
    frequency:    4.6319957080
  - # 7
    frequency:    5.5315605700
  - # 8
    frequency:    6.1299031578
  - # 9
    frequency:    8.6603806777
  - # 10
    frequency:    9.2621666286
  - # 11
    frequency:   10.6897658775
  - # 12
    frequency:   12.2913869451
  - # 13
    frequency:   12.7318418535
  - # 14
    frequency:   14.1647863933
  - # 15
    frequency:   16.3429498263

- q-position: [    0.1515152,    0.0000000,    0.0000000 ]
  distance:    0.0522913
  band:
  - # 1
    frequency:   -1.7793155184
  - # 2
    frequency:    1.0826344580
  - # 3
    frequency:    1.7290854654
  - # 4
    frequency:    3.1949165805
  - # 5
    frequency:    4.0779326501
  - # 6
    frequency:    4.6905434233
  - # 7
    frequency:    5.5331180887
  - # 8
    frequency:    6.1647318453
  - # 9
    frequency:    8.6262660727
  - # 10
    frequency:    9.2775532626
  - # 11
    frequency:   10.7051265563
  - # 12
    frequency:   12.2836867096
  - # 13
    frequency:   12.7245173426
  - # 14
    frequency:   14.1664134827
  - # 15
    frequency:   16.3275201145

- q-position: [    0.1565657,    0.0000000,    0.0000000 ]
  distance:    0.0540344
  band:
  - # 1
    frequency:   -1.8099000365
  - # 2
    frequency:    1.1045611689
  - # 3
    frequency:    1.7857292939
  - # 4
    frequency:    3.2323700446
  - # 5
    frequency:    4.1329179170
  - # 6
    frequency:    4.7532007642
  - # 7
    frequency:    5.5351303516
  - # 8
    frequency:    6.2000473786
  - # 9
    frequency:    8.5918780831
  - # 10
    frequency:    9.2939340945
  - # 11
    frequency:   10.7180100388
  - # 12
    frequency:   12.2791217617
  - # 13
    frequency:   12.7170546917
  - # 14
    frequency:   14.1668643956
  - # 15
    frequency:   16.3135092599

- q-position: [    0.1616162,    0.0000000,    0.0000000 ]
  distance:    0.0557774
  band:
  - # 1
    frequency:   -1.8369949530
  - # 2
    frequency:    1.1216461691
  - # 3
    frequency:    1.8440453758
  - # 4
    frequency:    3.2699169761
  - # 5
    frequency:    4.1862097865
  - # 6
    frequency:    4.8193320500
  - # 7
    frequency:    5.5376211774
  - # 8
    frequency:    6.2357906016
  - # 9
    frequency:    8.5573872181
  - # 10
    frequency:    9.3113004334
  - # 11
    frequency:   10.7284064719
  - # 12
    frequency:   12.2777284648
  - # 13
    frequency:   12.7094665459
  - # 14
    frequency:   14.1661640092
  - # 15
    frequency:   16.3009437561

- q-position: [    0.1666667,    0.0000000,    0.0000000 ]
  distance:    0.0575204
  band:
  - # 1
    frequency:   -1.8603389501
  - # 2
    frequency:    1.1338696393
  - # 3
    frequency:    1.9041038997
  - # 4
    frequency:    3.3075523790
  - # 5
    frequency:    4.2382824130
  - # 6
    frequency:    4.8882566011
  - # 7
    frequency:    5.5406108945
  - # 8
    frequency:    6.2718998829
  - # 9
    frequency:    8.5229723612
  - # 10
    frequency:    9.3296414941
  - # 11
    frequency:   10.7363757956
  - # 12
    frequency:   12.2794767759
  - # 13
    frequency:   12.7017655548
  - # 14
    frequency:   14.1643561987
  - # 15
    frequency:   16.2898287648

- q-position: [    0.1717172,    0.0000000,    0.0000000 ]
  distance:    0.0592635
  band:
  - # 1
    frequency:   -1.8796575794
  - # 2
    frequency:    1.1413441825
  - # 3
    frequency:    1.9658919230
  - # 4
    frequency:    3.3452723646
  - # 5
    frequency:    4.2895814997
  - # 6
    frequency:    4.9592991186
  - # 7
    frequency:    5.5441162329
  - # 8
    frequency:    6.3083107985
  - # 9
    frequency:    8.4888204404
  - # 10
    frequency:    9.3489449403
  - # 11
    frequency:   10.7420463248
  - # 12
    frequency:   12.2842713482
  - # 13
    frequency:   12.6939642854
  - # 14
    frequency:   14.1615031128
  - # 15
    frequency:   16.2801486555

- q-position: [    0.1767677,    0.0000000,    0.0000000 ]
  distance:    0.0610065
  band:
  - # 1
    frequency:   -1.8946622723
  - # 2
    frequency:    1.1442997203
  - # 3
    frequency:    2.0293297299
  - # 4
    frequency:    3.3830736091
  - # 5
    frequency:    4.3404933379
  - # 6
    frequency:    5.0318228074
  - # 7
    frequency:    5.5481503029
  - # 8
    frequency:    6.3449558117
  - # 9
    frequency:    8.4551260375
  - # 10
    frequency:    9.3691973982
  - # 11
    frequency:   10.7456093822
  - # 12
    frequency:   12.2919565379
  - # 13
    frequency:   12.6860751390
  - # 14
    frequency:   14.1576839323
  - # 15
    frequency:   16.2718680747

- q-position: [    0.1818182,    0.0000000,    0.0000000 ]
  distance:    0.0627496
  band:
  - # 1
    frequency:   -1.9050487300
  - # 2
    frequency:    1.1430661918
  - # 3
    frequency:    2.0942894783
  - # 4
    frequency:    3.4209528595
  - # 5
    frequency:    4.3913307301
  - # 6
    frequency:    5.1052461327
  - # 7
    frequency:    5.5527226555
  - # 8
    frequency:    6.3817639732
  - # 9
    frequency:    8.4220909082
  - # 10
    frequency:    9.3903849296
  - # 11
    frequency:   10.7473106045
  - # 12
    frequency:   12.3023247091
  - # 13
    frequency:   12.6781102761
  - # 14
    frequency:   14.1529931573
  - # 15
    frequency:   16.2649334917

- q-position: [    0.1868687,    0.0000000,    0.0000000 ]
  distance:    0.0644926
  band:
  - # 1
    frequency:   -1.9104945179
  - # 2
    frequency:    1.1380579213
  - # 3
    frequency:    2.1606124077
  - # 4
    frequency:    3.4589064899
  - # 5
    frequency:    4.4423312239
  - # 6
    frequency:    5.1790476155
  - # 7
    frequency:    5.5578394126
  - # 8
    frequency:    6.4186606826
  - # 9
    frequency:    8.3899233820
  - # 10
    frequency:    9.4124934529
  - # 11
    frequency:   10.7474389533
  - # 12
    frequency:   12.3151268225
  - # 13
    frequency:   12.6700815498
  - # 14
    frequency:   14.1475384915
  - # 15
    frequency:   16.2592751386

- q-position: [    0.1919192,    0.0000000,    0.0000000 ]
  distance:    0.0662357
  band:
  - # 1
    frequency:   -1.9106556294
  - # 2
    frequency:    1.1297616753
  - # 3
    frequency:    2.2281226636
  - # 4
    frequency:    3.4969301136
  - # 5
    frequency:    4.4936626738
  - # 6
    frequency:    5.2527634807
  - # 7
    frequency:    5.5635034577
  - # 8
    frequency:    6.4555675674
  - # 9
    frequency:    8.3588375895
  - # 10
    frequency:    9.4355091082
  - # 11
    frequency:   10.7463146479
  - # 12
    frequency:   12.3300841057
  - # 13
    frequency:   12.6620004468
  - # 14
    frequency:   14.1414384109
  - # 15
    frequency:   16.2548092480

- q-position: [    0.1969697,    0.0000000,    0.0000000 ]
  distance:    0.0679787
  band:
  - # 1
    frequency:   -1.9051616986
  - # 2
    frequency:    1.1187288270
  - # 3
    frequency:    2.2966372681
  - # 4
    frequency:    3.5350182491
  - # 5
    frequency:    4.5454322396
  - # 6
    frequency:    5.3259819079
  - # 7
    frequency:    5.5697146753
  - # 8
    frequency:    6.4924025556
  - # 9
    frequency:    8.3290524572
  - # 10
    frequency:    9.4594185597
  - # 11
    frequency:   10.7442771700
  - # 12
    frequency:   12.3468996671
  - # 13
    frequency:   12.6538780385
  - # 14
    frequency:   14.1348195086
  - # 15
    frequency:   16.2514404814

- q-position: [    0.2020202,    0.0000000,    0.0000000 ]
  distance:    0.0697218
  band:
  - # 1
    frequency:   -1.8936094013
  - # 2
    frequency:    1.1055709832
  - # 3
    frequency:    2.3659726550
  - # 4
    frequency:    3.5731640447
  - # 5
    frequency:    4.5976963053
  - # 6
    frequency:    5.3983362794
  - # 7
    frequency:    5.5764702262
  - # 8
    frequency:    6.5290802390
  - # 9
    frequency:    8.3007903845
  - # 10
    frequency:    9.4842092323
  - # 11
    frequency:   10.7416742519
  - # 12
    frequency:   12.3652691605
  - # 13
    frequency:   12.6457249417
  - # 14
    frequency:   14.1278137088
  - # 15
    frequency:   16.2490644430

- q-position: [    0.2070707,    0.0000000,    0.0000000 ]
  distance:    0.0714648
  band:
  - # 1
    frequency:   -1.8755533779
  - # 2
    frequency:    1.0909578306
  - # 3
    frequency:    2.4359485340
  - # 4
    frequency:    3.6113590582
  - # 5
    frequency:    4.6504699229
  - # 6
    frequency:    5.4694987381
  - # 7
    frequency:    5.5837648474
  - # 8
    frequency:    6.5655126434
  - # 9
    frequency:    8.2742755062
  - # 10
    frequency:    9.5098694838
  - # 11
    frequency:   10.7388524247
  - # 12
    frequency:   12.3848899301
  - # 13
    frequency:   12.6375512871
  - # 14
    frequency:   14.1205554355
  - # 15
    frequency:   16.2475701828

- q-position: [    0.2121212,    0.0000000,    0.0000000 ]
  distance:    0.0732078
  band:
  - # 1
    frequency:   -1.8504936782