nqpoint: 300    
npath: 3      
segment_nqpoint:
- 100
- 100
- 100
labels:
- [ 'G', 'M' ]
- [ 'M', 'K' ]
- [ 'K', 'G' ]
reciprocal_lattice:
- [   0.30011823,   0.17327334,   0.00000000 ] # a*
- [   0.00000000,   0.34654669,   0.00000000 ] # b*
- [   0.00000000,   0.00000000,   0.04128984 ] # c*
natom: 6      
lattice:
- [     3.332020147233894,     0.000000000000000,     0.000000000000000 ] # a
- [    -1.666010073616947,     2.885614093421037,     0.000000000000000 ] # b
- [     0.000000000000000,     0.000000000000000,    24.219035701059227 ] # c
points:
- symbol: C # 1
  coordinates: [  0.000000000000000,  0.000000000000000,  0.469780208297355 ]
  mass: 12.010700
- symbol: C # 2
  coordinates: [  0.333332985432215,  0.666666983183674,  0.578902167614495 ]
  mass: 12.010700
- symbol: N # 3
  coordinates: [  0.333332985432215,  0.666666983183674,  0.628391480524289 ]
  mass: 14.006700
- symbol: O # 4
  coordinates: [  0.666666984744047,  0.333332985985145,  0.371608519475711 ]
  mass: 15.999400
- symbol: Sc # 5
  coordinates: [  0.333332985432215,  0.666666983183674,  0.399858642015967 ]
  mass: 44.955912
- symbol: Sc # 6
  coordinates: [  0.666666984744047,  0.333332985985145,  0.518592331122267 ]
  mass: 44.955912

phonon:
- q-position: [    0.0000000,    0.0000000,    0.0000000 ]
  distance:    0.0000000
  band:
  - # 1
    frequency:   -2.1346782204
  - # 2
    frequency:   -2.1346782204
  - # 3
    frequency:   -0.0000161552
  - # 4
    frequency:   -0.0000004547
  - # 5
    frequency:    0.0000167729
  - # 6
    frequency:    3.8118431148
  - # 7
    frequency:    3.8118431148
  - # 8
    frequency:    4.6128460202
  - # 9
    frequency:    7.6478579419
  - # 10
    frequency:    7.6478579420
  - # 11
    frequency:    9.2737142620
  - # 12
    frequency:    9.9547718324
  - # 13
    frequency:    9.9547718325
  - # 14
    frequency:   13.6095471464
  - # 15
    frequency:   13.6095471464
  - # 16
    frequency:   13.8322802223
  - # 17
    frequency:   16.3183179105
  - # 18
    frequency:   62.6096719423

- q-position: [    0.0050505,    0.0000000,    0.0000000 ]
  distance:    0.0017502
  band:
  - # 1
    frequency:   -2.1352441307
  - # 2
    frequency:   -2.1350693686
  - # 3
    frequency:    0.0024926117
  - # 4
    frequency:    0.0233363155
  - # 5
    frequency:    0.0835078922
  - # 6
    frequency:    3.8118599874
  - # 7
    frequency:    3.8136008705
  - # 8
    frequency:    4.6130821009
  - # 9
    frequency:    7.6480812813
  - # 10
    frequency:    7.6484540682
  - # 11
    frequency:    9.2631151011
  - # 12
    frequency:    9.9555222998
  - # 13
    frequency:    9.9637314063
  - # 14
    frequency:   13.5999211619
  - # 15
    frequency:   13.6093558009
  - # 16
    frequency:   13.8402831646
  - # 17
    frequency:   16.3184454862
  - # 18
    frequency:   62.6095599121

- q-position: [    0.0101010,    0.0000000,    0.0000000 ]
  distance:    0.0035005
  band:
  - # 1
    frequency:   -2.1369425637
  - # 2
    frequency:   -2.1362420452
  - # 3
    frequency:    0.0099531323
  - # 4
    frequency:    0.0469798854
  - # 5
    frequency:    0.1668771421
  - # 6
    frequency:    3.8119125673
  - # 7
    frequency:    3.8188632366
  - # 8
    frequency:    4.6137911624
  - # 9
    frequency:    7.6487490053
  - # 10
    frequency:    7.6502219543
  - # 11
    frequency:    9.2328954446
  - # 12
    frequency:    9.9577727934
  - # 13
    frequency:    9.9890493453
  - # 14
    frequency:   13.5743343782
  - # 15
    frequency:   13.6087815565
  - # 16
    frequency:   13.8610102480
  - # 17
    frequency:   16.3188285517
  - # 18
    frequency:   62.6092241455

- q-position: [    0.0151515,    0.0000000,    0.0000000 ]
  distance:    0.0052507
  band:
  - # 1
    frequency:   -2.1397754383
  - # 2
    frequency:   -2.1381938362
  - # 3
    frequency:    0.0223282122
  - # 4
    frequency:    0.0712272229
  - # 5
    frequency:    0.2499696829
  - # 6
    frequency:    3.8120067259
  - # 7
    frequency:    3.8275978808
  - # 8
    frequency:    4.6149756060
  - # 9
    frequency:    7.6498542766
  - # 10
    frequency:    7.6530988181
  - # 11
    frequency:    9.1867832127
  - # 12
    frequency:    9.9615205584
  - # 13
    frequency:   10.0270501992
  - # 14
    frequency:   13.5385737952
  - # 15
    frequency:   13.6078237967
  - # 16
    frequency:   13.8887028057
  - # 17
    frequency:   16.3194680917
  - # 18
    frequency:   62.6086656123

- q-position: [    0.0202020,    0.0000000,    0.0000000 ]
  distance:    0.0070009
  band:
  - # 1
    frequency:   -2.1437453328
  - # 2
    frequency:   -2.1409203613
  - # 3
    frequency:    0.0395301153
  - # 4
    frequency:    0.0963543716
  - # 5
    frequency:    0.3326485810
  - # 6
    frequency:    3.8121521974
  - # 7
    frequency:    3.8397521262
  - # 8
    frequency:    4.6166392465
  - # 9
    frequency:    7.6513858463
  - # 10
    frequency:    7.6569754955
  - # 11
    frequency:    9.1288555202
  - # 12
    frequency:    9.9667609047
  - # 13
    frequency:   10.0737489421
  - # 14
    frequency:   13.4967276781
  - # 15
    frequency:   13.6064815168
  - # 16
    frequency:   13.9193199720
  - # 17
    frequency:   16.3203656460
  - # 18
    frequency:   62.6078859256

- q-position: [    0.0252525,    0.0000000,    0.0000000 ]
  distance:    0.0087512
  band:
  - # 1
    frequency:   -2.1488545569
  - # 2
    frequency:   -2.1444147579
  - # 3
    frequency:    0.0614378763
  - # 4
    frequency:    0.1226090791
  - # 5
    frequency:    0.4147785487
  - # 6
    frequency:    3.8123625030
  - # 7
    frequency:    3.8552546682
  - # 8
    frequency:    4.6187870372
  - # 9
    frequency:    7.6533282692
  - # 10
    frequency:    7.6616889895
  - # 11
    frequency:    9.0625061730
  - # 12
    frequency:    9.9734870623
  - # 13
    frequency:   10.1258910971
  - # 14
    frequency:   13.4510673757
  - # 15
    frequency:   13.6047533574
  - # 16
    frequency:   13.9506571317
  - # 17
    frequency:   16.3215231595
  - # 18
    frequency:   62.6068873351

- q-position: [    0.0303030,    0.0000000,    0.0000000 ]
  distance:    0.0105014
  band:
  - # 1
    frequency:   -2.1551038724
  - # 2
    frequency:   -2.1486670003
  - # 3
    frequency:    0.0878991092
  - # 4
    frequency:    0.1502053321
  - # 5
    frequency:    0.4962264161
  - # 6
    frequency:    3.8126548445
  - # 7
    frequency:    3.8740177934
  - # 8
    frequency:    4.6214246948
  - # 9
    frequency:    7.6556621954
  - # 10
    frequency:    7.6670106189
  - # 11
    frequency:    8.9902807961
  - # 12
    frequency:    9.9816899895
  - # 13
    frequency:   10.1811296990
  - # 14
    frequency:   13.4028569279
  - # 15
    frequency:   13.6026376515
  - # 16
    frequency:   13.9815366831
  - # 17
    frequency:   16.3229427767
  - # 18
    frequency:   62.6056727198

- q-position: [    0.0353535,    0.0000000,    0.0000000 ]
  distance:    0.0122517
  band:
  - # 1
    frequency:   -2.1624908982
  - # 2
    frequency:   -2.1536630933
  - # 3
    frequency:    0.1187322608
  - # 4
    frequency:    0.1793203802
  - # 5
    frequency:    0.5768615772
  - # 6
    frequency:    3.8130499706
  - # 7
    frequency:    3.8959399387
  - # 8
    frequency:    4.6245582384
  - # 9
    frequency:    7.6583647297
  - # 10
    frequency:    7.6726281238
  - # 11
    frequency:    8.9140758635
  - # 12
    frequency:    9.9913581393
  - # 13
    frequency:   10.2378444741
  - # 14
    frequency:   13.3528666843
  - # 15
    frequency:   13.6001324823
  - # 16
    frequency:   14.0112948910
  - # 17
    frequency:   16.3246265851
  - # 18
    frequency:   62.6042455773

- q-position: [    0.0404040,    0.0000000,    0.0000000 ]
  distance:    0.0140019
  band:
  - # 1
    frequency:   -2.1710082721
  - # 2
    frequency:   -2.1593841891
  - # 3
    frequency:    0.1537292544
  - # 4
    frequency:    0.2100940517
  - # 5
    frequency:    0.6565564415
  - # 6
    frequency:    3.8135720141
  - # 7
    frequency:    3.9209084091
  - # 8
    frequency:    4.6281934598
  - # 9
    frequency:    7.6614098468
  - # 10
    frequency:    7.6781193468
  - # 11
    frequency:    8.8353893476
  - # 12
    frequency:   10.0024771964
  - # 13
    frequency:   10.2949179069
  - # 14
    frequency:   13.3016244179
  - # 15
    frequency:   13.5972357533
  - # 16
    frequency:   14.0395313372
  - # 17
    frequency:   16.3265763130
  - # 18
    frequency:   62.6026100116

- q-position: [    0.0454545,    0.0000000,    0.0000000 ]
  distance:    0.0157521
  band:
  - # 1
    frequency:   -2.1806416749
  - # 2
    frequency:   -2.1658056854
  - # 3
    frequency:    0.1926584628
  - # 4
    frequency:    0.2426299620
  - # 5
    frequency:    0.7351869360
  - # 6
    frequency:    3.8142483041
  - # 7
    frequency:    3.9488020679
  - # 8
    frequency:    4.6323353509
  - # 9
    frequency:    7.6647688505
  - # 10
    frequency:    7.6829144037
  - # 11
    frequency:    8.7555319937
  - # 12
    frequency:   10.0150297950
  - # 13
    frequency:   10.3515622895
  - # 14
    frequency:   13.2495356684
  - # 15
    frequency:   13.5939452667
  - # 16
    frequency:   14.0659892184
  - # 17
    frequency:   16.3287929917
  - # 18
    frequency:   62.6007707179

- q-position: [    0.0505051,    0.0000000,    0.0000000 ]
  distance:    0.0175024
  band:
  - # 1
    frequency:   -2.1913678597
  - # 2
    frequency:   -2.1728963656
  - # 3
    frequency:    0.2352679273
  - # 4
    frequency:    0.2769981322
  - # 5
    frequency:    0.8126331133
  - # 6
    frequency:    3.8151091524
  - # 7
    frequency:    3.9794938146
  - # 8
    frequency:    4.6369875256
  - # 9
    frequency:    7.6684108633
  - # 10
    frequency:    7.6862432208
  - # 11
    frequency:    8.6757972404
  - # 12
    frequency:   10.0289952310
  - # 13
    frequency:   10.4072028764
  - # 14
    frequency:   13.1969438111
  - # 15
    frequency:   13.5902588115
  - # 16
    frequency:   14.0904959725
  - # 17
    frequency:   16.3312765896
  - # 18
    frequency:   62.5987329665

- q-position: [    0.0555556,    0.0000000,    0.0000000 ]
  distance:    0.0192526
  band:
  - # 1
    frequency:   -2.2031528488
  - # 2
    frequency:   -2.1806176446
  - # 3
    frequency:    0.2812887118
  - # 4
    frequency:    0.3132385473
  - # 5
    frequency:    0.8887799217
  - # 6
    frequency:    3.8161876171
  - # 7
    frequency:    4.0128526761
  - # 8
    frequency:    4.6421516902
  - # 9
    frequency:    7.6723033320
  - # 10
    frequency:    7.6870678889
  - # 11
    frequency:    8.5976053708
  - # 12
    frequency:   10.0443491810
  - # 13
    frequency:   10.4614021488
  - # 14
    frequency:   13.1441617335
  - # 15
    frequency:   13.5861742583
  - # 16
    frequency:   14.1129323127
  - # 17
    frequency:   16.3340256324
  - # 18
    frequency:   62.5965025832

- q-position: [    0.0606061,    0.0000000,    0.0000000 ]
  distance:    0.0210028
  band:
  - # 1
    frequency:   -2.2159504631
  - # 2
    frequency:   -2.1889229789
  - # 3
    frequency:    0.3304382521
  - # 4
    frequency:    0.3513652411
  - # 5
    frequency:    0.9635181962
  - # 6
    frequency:    3.8175192445
  - # 7
    frequency:    4.0487453337
  - # 8
    frequency:    4.6478272422
  - # 9
    frequency:    7.6764125349
  - # 10
    frequency:    7.6840090346
  - # 11
    frequency:    8.5226269839
  - # 12
    frequency:   10.0610634411
  - # 13
    frequency:   10.5138109498
  - # 14
    frequency:   13.0914894611
  - # 15
    frequency:   13.5816896592
  - # 16
    frequency:   14.1332152693
  - # 17
    frequency:   16.3370368211
  - # 18
    frequency:   62.5940859294

- q-position: [    0.0656566,    0.0000000,    0.0000000 ]
  distance:    0.0227531
  band:
  - # 1
    frequency:   -2.2297013321
  - # 2
    frequency:   -2.1977574937
  - # 3
    frequency:    0.3824235249
  - # 4
    frequency:    0.3913705871
  - # 5
    frequency:    1.0367459225
  - # 6
    frequency:    3.8191417901
  - # 7
    frequency:    4.0870369005
  - # 8
    frequency:    4.6540111235
  - # 9
    frequency:    7.6753004668
  - # 10
    frequency:    7.6807040791
  - # 11
    frequency:    8.4528614897
  - # 12
    frequency:   10.0791056970
  - # 13
    frequency:   10.5641366154
  - # 14
    frequency:   13.0392243958
  - # 15
    frequency:   13.5768033521
  - # 16
    frequency:   14.1512884896
  - # 17
    frequency:   16.3403046631
  - # 18
    frequency:   62.5914898787

- q-position: [    0.0707071,    0.0000000,    0.0000000 ]
  distance:    0.0245033
  band:
  - # 1
    frequency:   -2.2443324875
  - # 2
    frequency:   -2.2070578668
  - # 3
    frequency:    0.4332295514
  - # 4
    frequency:    0.4369438360
  - # 5
    frequency:    1.1083698281
  - # 6
    frequency:    3.8210949219
  - # 7
    frequency:    4.1275907163
  - # 8
    frequency:    4.6606981241
  - # 9
    frequency:    7.6588514838
  - # 10
    frequency:    7.6851433737
  - # 11
    frequency:    8.3905975669
  - # 12
    frequency:   10.0984393387
  - # 13
    frequency:   10.6121218901
  - # 14
    frequency:   12.9876673668
  - # 15
    frequency:   13.5715140671
  - # 16
    frequency:   14.1671164751
  - # 17
    frequency:   16.3438211319
  - # 18
    frequency:   62.5887217927

- q-position: [    0.0757576,    0.0000000,    0.0000000 ]
  distance:    0.0262535
  band:
  - # 1
    frequency:   -2.2597575874
  - # 2
    frequency:   -2.2167524942
  - # 3
    frequency:    0.4769037392
  - # 4
    frequency:    0.4936930112
  - # 5
    frequency:    1.1783073441
  - # 6
    frequency:    3.8234199070
  - # 7
    frequency:    4.1702668207
  - # 8
    frequency:    4.6678819710
  - # 9
    frequency:    7.6325327130
  - # 10
    frequency:    7.6896960697
  - # 11
    frequency:    8.3381436198
  - # 12
    frequency:   10.1190233264
  - # 13
    frequency:   10.6575308844
  - # 14
    frequency:   12.9371260441
  - # 15
    frequency:   13.5658210332
  - # 16
    frequency:   14.1806810391
  - # 17
    frequency:   16.3475753696
  - # 18
    frequency:   62.5857894946

- q-position: [    0.0808081,    0.0000000,    0.0000000 ]
  distance:    0.0280038
  band:
  - # 1
    frequency:   -2.2758777538
  - # 2
    frequency:   -2.2267619454
  - # 3
    frequency:    0.5223451172
  - # 4
    frequency:    0.5523607806
  - # 5
    frequency:    1.2464889870
  - # 6
    frequency:    3.8261592826
  - # 7
    frequency:    4.2149185456
  - # 8
    frequency:    4.6755577757
  - # 9
    frequency:    7.5947273578
  - # 10
    frequency:    7.6943284580
  - # 11
    frequency:    8.2972887574
  - # 12
    frequency:   10.1408121174
  - # 13
    frequency:   10.7001398888
  - # 14
    frequency:   12.8879164226
  - # 15
    frequency:   13.5597240844
  - # 16
    frequency:   14.1919790532
  - # 17
    frequency:   16.3515534469
  - # 18
    frequency:   62.5827012416

- q-position: [    0.0858586,    0.0000000,    0.0000000 ]
  distance:    0.0297540
  band:
  - # 1
    frequency:   -2.2925829466
  - # 2
    frequency:   -2.2369996984
  - # 3
    frequency:    0.5694993382
  - # 4
    frequency:    0.6126331628
  - # 5
    frequency:    1.3128612061
  - # 6
    frequency:    3.8293565144
  - # 7
    frequency:    4.2613862165
  - # 8
    frequency:    4.6837268897
  - # 9
    frequency:    7.5449267278
  - # 10
    frequency:    7.6990078186
  - # 11
    frequency:    8.2687169067
  - # 12
    frequency:   10.1637556587
  - # 13
    frequency:   10.7397318286
  - # 14
    frequency:   12.8403626239
  - # 15
    frequency:   13.5532237624
  - # 16
    frequency:   14.2010209591
  - # 17
    frequency:   16.3557381921
  - # 18
    frequency:   62.5794656954

- q-position: [    0.0909091,    0.0000000,    0.0000000 ]
  distance:    0.0315042
  band:
  - # 1
    frequency:   -2.3097537496
  - # 2
    frequency:   -2.2473731296
  - # 3
    frequency:    0.6183086242
  - # 4
    frequency:    0.6741916989
  - # 5
    frequency:    1.3773897437
  - # 6
    frequency:    3.8330556428
  - # 7
    frequency:    4.3094860251
  - # 8
    frequency:    4.6924061558
  - # 9
    frequency:    7.4839411120
  - # 10
    frequency:    7.7037027180
  - # 11
    frequency:    8.2518039236
  - # 12
    frequency:   10.1877994486
  - # 13
    frequency:   10.7760937544
  - # 14
    frequency:   12.7947949922
  - # 15
    frequency:   13.5463214159
  - # 16
    frequency:   14.2078297338
  - # 17
    frequency:   16.3601090984
  - # 18
    frequency:   62.5760918915

- q-position: [    0.0959596,    0.0000000,    0.0000000 ]
  distance:    0.0332545
  band:
  - # 1
    frequency:   -2.3272634201
  - # 2
    frequency:   -2.2577847196
  - # 3
    frequency:    0.6687141865
  - # 4
    frequency:    0.7367114334
  - # 5
    frequency:    1.4400635534
  - # 6
    frequency:    3.8373009207
  - # 7
    frequency:    4.3589901921
  - # 8
    frequency:    4.7016455070
  - # 9
    frequency:    7.4135543363
  - # 10
    frequency:    7.7083832522
  - # 11
    frequency:    8.2449699334
  - # 12
    frequency:   10.2128846680
  - # 13
    frequency:   10.8090171333
  - # 14
    frequency:   12.7515463092
  - # 15
    frequency:   13.5390192931
  - # 16
    frequency:   14.2124401250
  - # 17
    frequency:   16.3646423160
  - # 18
    frequency:   62.5725892069

- q-position: [    0.1010101,    0.0000000,    0.0000000 ]
  distance:    0.0350047
  band:
  - # 1
    frequency:   -2.3449800450
  - # 2
    frequency:   -2.2681334276
  - # 3
    frequency:    0.7206581814
  - # 4
    frequency:    0.7998576082
  - # 5
    frequency:    1.5008993072
  - # 6
    frequency:    3.8421364428
  - # 7
    frequency:    4.4095903182
  - # 8
    frequency:    4.7115621017
  - # 9
    frequency:    7.3359309677
  - # 10
    frequency:    7.7130212361
  - # 11
    frequency:    8.2462782804
  - # 12
    frequency:   10.2389483800
  - # 13
    frequency:   10.8383008979
  - # 14
    frequency:   12.7109459040
  - # 15
    frequency:   13.5313206275
  - # 16
    frequency:   14.2148980403
  - # 17
    frequency:   16.3693107304
  - # 18
    frequency:   62.5689673273

- q-position: [    0.1060606,    0.0000000,    0.0000000 ]
  distance:    0.0367550
  band:
  - # 1
    frequency:   -2.3627686613
  - # 2
    frequency:   -2.2783161799
  - # 3
    frequency:    0.7740852138
  - # 4
    frequency:    0.8632811183
  - # 5
    frequency:    1.5599464857
  - # 6
    frequency:    3.8476057697
  - # 7
    frequency:    4.4608265281
  - # 8
    frequency:    4.7224084961
  - # 9
    frequency:    7.2531630666
  - # 10
    frequency:    7.7175903424
  - # 11
    frequency:    8.2538943677
  - # 12
    frequency:   10.2659237953
  - # 13
    frequency:   10.8637572379
  - # 14
    frequency:   12.6733114957
  - # 15
    frequency:   13.5232297154
  - # 16
    frequency:   14.2152600197
  - # 17
    frequency:   16.3740841252
  - # 18
    frequency:   62.5652362127

- q-position: [    0.1111111,    0.0000000,    0.0000000 ]
  distance:    0.0385052
  band:
  - # 1
    frequency:   -2.3804932221
  - # 2
    frequency:   -2.2882294220
  - # 3
    frequency:    0.8289434134
  - # 4
    frequency:    0.9266129047
  - # 5
    frequency:    1.6172929639
  - # 6
    frequency:    3.8537515499
  - # 7
    frequency:    4.5119455223
  - # 8
    frequency:    4.7347118801
  - # 9
    frequency:    7.1670729514
  - # 10
    frequency:    7.7220661932
  - # 11
    frequency:    8.2662879693
  - # 12
    frequency:   10.2937405967
  - # 13
    frequency:   10.8852199842
  - # 14
    frequency:   12.6389388062
  - # 15
    frequency:   13.5147519830
  - # 16
    frequency:   14.2135927492
  - # 17
    frequency:   16.3789294249
  - # 18
    frequency:   62.5614060619

- q-position: [    0.1161616,    0.0000000,    0.0000000 ]
  distance:    0.0402554
  band:
  - # 1
    frequency:   -2.3980183231
  - # 2
    frequency:   -2.2977706789
  - # 3
    frequency:    0.8851851167
  - # 4
    frequency:    0.9894576442
  - # 5
    frequency:    1.6730708501
  - # 6
    frequency:    3.8606151399
  - # 7
    frequency:    4.5616208797
  - # 8
    frequency:    4.7495512197
  - # 9
    frequency:    7.0791920491
  - # 10
    frequency:    7.7264264103
  - # 11
    frequency:    8.2822588680
  - # 12
    frequency:   10.3223253174
  - # 13
    frequency:   10.9025551262
  - # 14
    frequency:   12.6080893231
  - # 15
    frequency:   13.5058940434
  - # 16
    frequency:   14.2099725911
  - # 17
    frequency:   16.3838110074
  - # 18
    frequency:   62.5574872772

- q-position: [    0.1212121,    0.0000000,    0.0000000 ]
  distance:    0.0420057
  band:
  - # 1
    frequency:   -2.4152106375
  - # 2
    frequency:   -2.3068400815
  - # 3
    frequency:    0.9427671936
  - # 4
    frequency:    1.0513873870
  - # 5
    frequency:    1.7274620692
  - # 6
    frequency:    3.8682362276
  - # 7
    frequency:    4.6075054131
  - # 8
    frequency:    4.7690027586
  - # 9
    frequency:    6.9908134889
  - # 10
    frequency:    7.7306506304
  - # 11
    frequency:    8.3008879612
  - # 12
    frequency:   10.3516017654
  - # 13
    frequency:   10.9156725793
  - # 14
    frequency:   12.5809770483
  - # 15
    frequency:   13.4966637413
  - # 16
    frequency:   14.2044851182
  - # 17
    frequency:   16.3886910773
  - # 18
    frequency:   62.5534904272

- q-position: [    0.1262626,    0.0000000,    0.0000000 ]
  distance:    0.0437559
  band:
  - # 1
    frequency:   -2.4319400396
  - # 2
    frequency:   -2.3153418159
  - # 3
    frequency:    1.0016510633
  - # 4
    frequency:    1.1119362189
  - # 5
    frequency:    1.7807027773
  - # 6
    frequency:    3.8766524598
  - # 7
    frequency:    4.6460998900
  - # 8
    frequency:    4.7962699249
  - # 9
    frequency:    6.9030587508
  - # 10
    frequency:    7.7347204917
  - # 11
    frequency:    8.3214731650
  - # 12
    frequency:   10.3814914847
  - # 13
    frequency:   10.9245378542
  - # 14
    frequency:   12.5577555451
  - # 15
    frequency:   13.4870701861
  - # 16
    frequency:   14.1972246472
  - # 17
    frequency:   16.3935300838
  - # 18
    frequency:   62.5494262100

- q-position: [    0.1313131,    0.0000000,    0.0000000 ]
  distance:    0.0455061
  band:
  - # 1
    frequency:   -2.4480804195
  - # 2
    frequency:   -2.3231854660
  - # 3
    frequency:    1.0618024411
  - # 4
    frequency:    1.1705975698
  - # 5
    frequency:    1.8330851556
  - # 6
    frequency:    3.8858990792
  - # 7
    frequency:    4.6744798890
  - # 8
    frequency:    4.8339563553
  - # 9
    frequency:    6.8169347224
  - # 10
    frequency:    7.7386195996
  - # 11
    frequency:    8.3434732365
  - # 12
    frequency:   10.4119142461
  - # 13
    frequency:   10.9291819436
  - # 14
    frequency:   12.5385069489
  - # 15
    frequency:   13.4771237710
  - # 16
    frequency:   14.1882937711
  - # 17
    frequency:   16.3982871723
  - # 18
    frequency:   62.5453054159

- q-position: [    0.1363636,    0.0000000,    0.0000000 ]
  distance:    0.0472564
  band:
  - # 1
    frequency:   -2.4635102177
  - # 2
    frequency:   -2.3302872233
  - # 3
    frequency:    1.1231908619
  - # 4
    frequency:    1.2268263674
  - # 5
    frequency:    1.8849545708
  - # 6
    frequency:    3.8960085717
  - # 7
    frequency:    4.6929552986
  - # 8
    frequency:    4.8814081672
  - # 9
    frequency:    6.7333752175
  - # 10
    frequency:    7.7423334775
  - # 11
    frequency:    8.3664647427
  - # 12
    frequency:   10.4427885579
  - # 13
    frequency:   10.9297077051
  - # 14
    frequency:   12.5232346465
  - # 15
    frequency:   13.4668361794
  - # 16
    frequency:   14.1778028921
  - # 17
    frequency:   16.4029206543
  - # 18
    frequency:   62.5411388895

- q-position: [    0.1414141,    0.0000000,    0.0000000 ]
  distance:    0.0490066
  band:
  - # 1
    frequency:   -2.4781127172
  - # 2
    frequency:   -2.3365709440
  - # 3
    frequency:    1.1857890205
  - # 4
    frequency:    1.2800485495
  - # 5
    frequency:    1.9366997743
  - # 6
    frequency:    3.9070103293
  - # 7
    frequency:    4.7040553608
  - # 8
    frequency:    4.9357333556
  - # 9
    frequency:    6.6532673227
  - # 10
    frequency:    7.7458495085
  - # 11
    frequency:    8.3901109200
  - # 12
    frequency:   10.4740321887
  - # 13
    frequency:   10.9262913915
  - # 14
    frequency:   12.5118609655
  - # 15
    frequency:   13.4562203769
  - # 16
    frequency:   14.1658697577
  - # 17
    frequency:   16.4073884813
  - # 18
    frequency:   62.5369374920

- q-position: [    0.1464646,    0.0000000,    0.0000000 ]
  distance:    0.0507568
  band:
  - # 1
    frequency:   -2.4917761457
  - # 2
    frequency:   -2.3419690423
  - # 3
    frequency:    1.2495719681
  - # 4
    frequency:    1.3296800512
  - # 5
    frequency:    1.9887342121
  - # 6
    frequency:    3.9189303316
  - # 7
    frequency:    4.7099681035
  - # 8
    frequency:    4.9943703098
  - # 9
    frequency:    6.5774643648
  - # 10
    frequency:    7.7491568754
  - # 11
    frequency:    8.4141396605
  - # 12
    frequency:   10.5055626942
  - # 13
    frequency:   10.9191787380
  - # 14
    frequency:   12.5042304584
  - # 15
    frequency:   13.4452905903
  - # 16
    frequency:   14.1526189984
  - # 17
    frequency:   16.4116487137
  - # 18
    frequency:   62.5327120638

- q-position: [    0.1515152,    0.0000000,    0.0000000 ]
  distance:    0.0525071
  band:
  - # 1
    frequency:   -2.5043936465
  - # 2
    frequency:   -2.3464232095
  - # 3
    frequency:    1.3145162000
  - # 4
    frequency:    1.3751557578
  - # 5
    frequency:    2.0414681347
  - # 6
    frequency:    3.9317908494
  - # 7
    frequency:    4.7119189884
  - # 8
    frequency:    5.0557213466
  - # 9
    frequency:    6.5067872163
  - # 10
    frequency:    7.7522465015
  - # 11
    frequency:    8.4383280497
  - # 12
    frequency:   10.5372979411
  - # 13
    frequency:   10.9086759760
  - # 14
    frequency:   12.5001184099
  - # 15
    frequency:   13.4340622716
  - # 16
    frequency:   14.1381816677
  - # 17
    frequency:   16.4156599699
  - # 18
    frequency:   62.5284733867

- q-position: [    0.1565657,    0.0000000,    0.0000000 ]
  distance:    0.0542573
  band:
  - # 1
    frequency:   -2.5158631830
  - # 2
    frequency:   -2.3498849544
  - # 3
    frequency:    1.3805986684
  - # 4
    frequency:    1.4159659848
  - # 5
    frequency:    2.0952740989
  - # 6
    frequency:    3.9456101740
  - # 7
    frequency:    4.7105030231
  - # 8
    frequency:    5.1188372859
  - # 9
    frequency:    6.4420155245
  - # 10
    frequency:    7.7551109972
  - # 11
    frequency:    8.4624914731
  - # 12
    frequency:   10.5691566217
  - # 13
    frequency:   10.8951370092
  - # 14
    frequency:   12.4992433309
  - # 15
    frequency:   13.4225520492
  - # 16
    frequency:   14.1226947751
  - # 17
    frequency:   16.4193818522
  - # 18
    frequency:   62.5242321472

- q-position: [    0.1616162,    0.0000000,    0.0000000 ]
  distance:    0.0560075
  band:
  - # 1
    frequency:   -2.5260874474
  - # 2
    frequency:   -2.3523159629
  - # 3
    frequency:    1.4477957508
  - # 4
    frequency:    1.4516946734
  - # 5
    frequency:    2.1504517961
  - # 6
    frequency:    3.9604023756
  - # 7
    frequency:    4.7060116497
  - # 8
    frequency:    5.1831111503
  - # 9
    frequency:    6.3838708043
  - # 10
    frequency:    7.7577446146
  - # 11
    frequency:    8.4864758744
  - # 12
    frequency:   10.6010587531
  - # 13
    frequency:   10.8789485228
  - # 14
    frequency:   12.5012816735
  - # 15
    frequency:   13.4107776658
  - # 16
    frequency:   14.1063008048
  - # 17
    frequency:   16.4227753384
  - # 18
    frequency:   62.5199988995

- q-position: [    0.1666667,    0.0000000,    0.0000000 ]
  distance:    0.0577578
  band:
  - # 1
    frequency:   -2.5349738504
  - # 2
    frequency:   -2.3536882775
  - # 3
    frequency:    1.4820514884
  - # 4
    frequency:    1.5160822004
  - # 5
    frequency:    2.2072000762
  - # 6
    frequency:    3.9761770949
  - # 7
    frequency:    4.6986264122
  - # 8
    frequency:    5.2481070732
  - # 9
    frequency:    6.3329942684
  - # 10
    frequency:    7.7601432125
  - # 11
    frequency:    8.5101521782
  - # 12
    frequency:   10.6329261567
  - # 13
    frequency:   10.8605148724
  - # 14
    frequency:   12.5058829243
  - # 15
    frequency:   13.3987579029
  - # 16
    frequency:   14.0891472021
  - # 17
    frequency:   16.4258031384
  - # 18
    frequency:   62.5157840300

- q-position: [    0.1717172,    0.0000000,    0.0000000 ]
  distance:    0.0595080
  band:
  - # 1
    frequency:   -2.5424346702
  - # 2
    frequency:   -2.3539842996
  - # 3
    frequency:    1.5068910892
  - # 4
    frequency:    1.5854301087
  - # 5
    frequency:    2.2656028810
  - # 6
    frequency:    3.9929393687
  - # 7
    frequency:    4.6885277191
  - # 8
    frequency:    5.3134727456
  - # 9
    frequency:    6.2899234856
  - # 10
    frequency:    7.7623042314
  - # 11
    frequency:    8.5334122054
  - # 12
    frequency:   10.6646829140
  - # 13
    frequency:   10.8402442909
  - # 14
    frequency:   12.5126835490
  - # 15
    frequency:   13.3865124945
  - # 16
    frequency:   14.0713858069
  - # 17
    frequency:   16.4284300115
  - # 18
    frequency:   62.5115977219

- q-position: [    0.1767677,    0.0000000,    0.0000000 ]
  distance:    0.0612583
  band:
  - # 1
    frequency:   -2.5483874479
  - # 2
    frequency:   -2.3531966200
  - # 3
    frequency:    1.5262169686
  - # 4
    frequency:    1.6558079025
  - # 5
    frequency:    2.3256315697
  - # 6
    frequency:    4.0106894948
  - # 7
    frequency:    4.6759559739
  - # 8
    frequency:    5.3788937957
  - # 9
    frequency:    6.2550728344
  - # 10
    frequency:    7.7642266799
  - # 11
    frequency:    8.5561656176
  - # 12
    frequency:   10.6962557955
  - # 13
    frequency:   10.8185374167
  - # 14