nqpoint: 300    
npath: 3      
segment_nqpoint:
- 100
- 100
- 100
labels:
- [ 'G', 'M' ]
- [ 'M', 'K' ]
- [ 'K', 'G' ]
reciprocal_lattice:
- [   0.29307739,   0.16920831,   0.00000000 ] # a*
- [   0.00000000,   0.33841662,   0.00000000 ] # b*
- [   0.00000000,   0.00000000,   0.04248623 ] # c*
natom: 5      
lattice:
- [     3.412068020792194,     0.000000000000000,     0.000000000000000 ] # a
- [    -1.706034010396097,     2.954937585440021,     0.000000000000000 ] # b
- [     0.000000000000000,     0.000000000000000,    23.537039828132645 ] # c
points:
- symbol: C # 1
  coordinates: [  0.000000000000000,  0.000000000000000,  0.511897182227523 ]
  mass: 12.010700
- symbol: Cl # 2
  coordinates: [  0.666666984744048,  0.333332985985145,  0.382376036481986 ]
  mass: 35.453000
- symbol: F # 3
  coordinates: [  0.333332985432215,  0.666666983183674,  0.617623963518014 ]
  mass: 18.998403
- symbol: Zr # 4
  coordinates: [  0.333332985432215,  0.666666983183674,  0.459154188871414 ]
  mass: 91.224000
- symbol: Zr # 5
  coordinates: [  0.666666984744048,  0.333332985985145,  0.562272343151891 ]
  mass: 91.224000

phonon:
- q-position: [    0.0000000,    0.0000000,    0.0000000 ]
  distance:    0.0000000
  band:
  - # 1
    frequency:   -0.0000022611
  - # 2
    frequency:   -0.0000005664
  - # 3
    frequency:    0.0000022593
  - # 4
    frequency:    4.1719741712
  - # 5
    frequency:    4.1719741712
  - # 6
    frequency:    4.8138233094
  - # 7
    frequency:    4.8138233094
  - # 8
    frequency:    5.8359606899
  - # 9
    frequency:    5.8359606899
  - # 10
    frequency:    6.2751010664
  - # 11
    frequency:    9.4649533865
  - # 12
    frequency:   11.6708277595
  - # 13
    frequency:   15.7954392991
  - # 14
    frequency:   17.1257473891
  - # 15
    frequency:   17.1257473891

- q-position: [    0.0050505,    0.0000000,    0.0000000 ]
  distance:    0.0017092
  band:
  - # 1
    frequency:   -0.0228364614
  - # 2
    frequency:    0.0683139897
  - # 3
    frequency:    0.0957476155
  - # 4
    frequency:    4.1723624034
  - # 5
    frequency:    4.1731578481
  - # 6
    frequency:    4.8153487192
  - # 7
    frequency:    4.8156648786
  - # 8
    frequency:    5.8358160593
  - # 9
    frequency:    5.8359478227
  - # 10
    frequency:    6.2757601374
  - # 11
    frequency:    9.4644585358
  - # 12
    frequency:   11.6698741757
  - # 13
    frequency:   15.7953414967
  - # 14
    frequency:   17.1264723356
  - # 15
    frequency:   17.1270821458

- q-position: [    0.0101010,    0.0000000,    0.0000000 ]
  distance:    0.0034183
  band:
  - # 1
    frequency:   -0.0405837523
  - # 2
    frequency:    0.1366374072
  - # 3
    frequency:    0.1905391301
  - # 4
    frequency:    4.1735261063
  - # 5
    frequency:    4.1767015577
  - # 6
    frequency:    4.8199102445
  - # 7
    frequency:    4.8211720605
  - # 8
    frequency:    5.8353811438
  - # 9
    frequency:    5.8359090845
  - # 10
    frequency:    6.2777366352
  - # 11
    frequency:    9.4629744332
  - # 12
    frequency:   11.6670159727
  - # 13
    frequency:   15.7950478812
  - # 14
    frequency:   17.1286404024
  - # 15
    frequency:   17.1310746350

- q-position: [    0.0151515,    0.0000000,    0.0000000 ]
  distance:    0.0051275
  band:
  - # 1
    frequency:   -0.0578390611
  - # 2
    frequency:    0.2049788536
  - # 3
    frequency:    0.2856580505
  - # 4
    frequency:    4.1754621292
  - # 5
    frequency:    4.1825833975
  - # 6
    frequency:    4.8274641504
  - # 7
    frequency:    4.8302926868
  - # 8
    frequency:    5.8346530845
  - # 9
    frequency:    5.8358440929
  - # 10
    frequency:    6.2810282435
  - # 11
    frequency:    9.4605024137
  - # 12
    frequency:   11.6622607911
  - # 13
    frequency:   15.7945578361
  - # 14
    frequency:   17.1322313445
  - # 15
    frequency:   17.1376896356

- q-position: [    0.0202020,    0.0000000,    0.0000000 ]
  distance:    0.0068367
  band:
  - # 1
    frequency:   -0.0732059875
  - # 2
    frequency:    0.2733453072
  - # 3
    frequency:    0.3809919903
  - # 4
    frequency:    4.1781646835
  - # 5
    frequency:    4.1907670727
  - # 6
    frequency:    4.8379387666
  - # 7
    frequency:    4.8429411359
  - # 8
    frequency:    5.8336278034
  - # 9
    frequency:    5.8357523005
  - # 10
    frequency:    6.2856305548
  - # 11
    frequency:    9.4570446582
  - # 12
    frequency:   11.6556213453
  - # 13
    frequency:   15.7938703627
  - # 14
    frequency:   17.1372116646
  - # 15
    frequency:   17.1468688466

- q-position: [    0.0252525,    0.0000000,    0.0000000 ]
  distance:    0.0085459
  band:
  - # 1
    frequency:   -0.0856565432
  - # 2
    frequency:    0.3417413864
  - # 3
    frequency:    0.4765556790
  - # 4
    frequency:    4.1816246293
  - # 5
    frequency:    4.2012022377
  - # 6
    frequency:    4.8512361986
  - # 7
    frequency:    4.8590002097
  - # 8
    frequency:    5.8323009617
  - # 9
    frequency:    5.8356331333
  - # 10
    frequency:    6.2915363283
  - # 11
    frequency:    9.4526041295
  - # 12
    frequency:   11.6471153952
  - # 13
    frequency:   15.7929841195
  - # 14
    frequency:   17.1435349753
  - # 15
    frequency:   17.1585314846

- q-position: [    0.0303030,    0.0000000,    0.0000000 ]
  distance:    0.0102550
  band:
  - # 1
    frequency:   -0.0940431983
  - # 2
    frequency:    0.4101686984
  - # 3
    frequency:    0.5723826504
  - # 4
    frequency:    4.1858286388
  - # 5
    frequency:    4.2138250191
  - # 6
    frequency:    4.8672345066
  - # 7
    frequency:    4.8783235489
  - # 8
    frequency:    5.8306691728
  - # 9
    frequency:    5.8354861900
  - # 10
    frequency:    6.2987345927
  - # 11
    frequency:    9.4471844869
  - # 12
    frequency:   11.6367657050
  - # 13
    frequency:   15.7918974731
  - # 14
    frequency:   17.1511424998
  - # 15
    frequency:   17.1725751081

- q-position: [    0.0353535,    0.0000000,    0.0000000 ]
  distance:    0.0119642
  band:
  - # 1
    frequency:   -0.0968144260
  - # 2
    frequency:    0.4786252912
  - # 3
    frequency:    0.6685084890
  - # 4
    frequency:    4.1907583586
  - # 5
    frequency:    4.2285587468
  - # 6
    frequency:    4.8857901794
  - # 7
    frequency:    4.9007384098
  - # 8
    frequency:    5.8287313701
  - # 9
    frequency:    5.8353115082
  - # 10
    frequency:    6.3072097076
  - # 11
    frequency:    9.4407899842
  - # 12
    frequency:   11.6245999895
  - # 13
    frequency:   15.7906085560
  - # 14
    frequency:   17.1599637024
  - # 15
    frequency:   17.1888766579

- q-position: [    0.0404040,    0.0000000,    0.0000000 ]
  distance:    0.0136734
  band:
  - # 1
    frequency:   -0.0914157886
  - # 2
    frequency:    0.5471052264
  - # 3
    frequency:    0.7649660560
  - # 4
    frequency:    4.1963896810
  - # 5
    frequency:    4.2453149104
  - # 6
    frequency:    4.9067407319
  - # 7
    frequency:    4.9260486079
  - # 8
    frequency:    5.8264902397
  - # 9
    frequency:    5.8351099070
  - # 10
    frequency:    6.3169404958
  - # 11
    frequency:    9.4334253541
  - # 12
    frequency:   11.6106508482
  - # 13
    frequency:   15.7891153261
  - # 14
    frequency:   17.1699170413
  - # 15
    frequency:   17.2072937006

- q-position: [    0.0454545,    0.0000000,    0.0000000 ]
  distance:    0.0153826
  band:
  - # 1
    frequency:   -0.0719896287
  - # 2
    frequency:    0.6155982784
  - # 3
    frequency:    0.8617834633
  - # 4
    frequency:    4.2026922083
  - # 5
    frequency:    4.2639943369
  - # 6
    frequency:    4.9299072739
  - # 7
    frequency:    4.9540374376
  - # 8
    frequency:    5.8239536538
  - # 9
    frequency:    5.8348834138
  - # 10
    frequency:    6.3278995415
  - # 11
    frequency:    9.4250956866
  - # 12
    frequency:   11.5949556846
  - # 13
    frequency:   15.7874156257
  - # 14
    frequency:   17.1809108327
  - # 15
    frequency:   17.2276658545

- q-position: [    0.0505051,    0.0000000,    0.0000000 ]
  distance:    0.0170917
  band:
  - # 1
    frequency:    0.0282037404
  - # 2
    frequency:    0.6840897645
  - # 3
    frequency:    0.9589829265
  - # 4
    frequency:    4.2096289597
  - # 5
    frequency:    4.2844885680
  - # 6
    frequency:    4.9550969260
  - # 7
    frequency:    4.9844703825
  - # 8
    frequency:    5.8211360825
  - # 9
    frequency:    5.8346357919
  - # 10
    frequency:    6.3400527190
  - # 11
    frequency:    9.4158063049
  - # 12
    frequency:   11.5775566129
  - # 13
    frequency:   15.7855072345
  - # 14
    frequency:   17.1928442152
  - # 15
    frequency:   17.2498163809

- q-position: [    0.0555556,    0.0000000,    0.0000000 ]
  distance:    0.0188009
  band:
  - # 1
    frequency:    0.1011998467
  - # 2
    frequency:    0.7525605004
  - # 3
    frequency:    1.0565799841
  - # 4
    frequency:    4.2171563395
  - # 5
    frequency:    4.3066813958
  - # 6
    frequency:    4.9821049901
  - # 7
    frequency:    5.0170974506
  - # 8
    frequency:    5.8180600119
  - # 9
    frequency:    5.8343731825
  - # 10
    frequency:    6.3533589865
  - # 11
    frequency:    9.4055626468
  - # 12
    frequency:   11.5585003475
  - # 13
    frequency:   15.7833879175
  - # 14
    frequency:   17.2056082005
  - # 15
    frequency:   17.2735539147

- q-position: [    0.0606061,    0.0000000,    0.0000000 ]
  distance:    0.0205101
  band:
  - # 1
    frequency:    0.1543561279
  - # 2
    frequency:    0.8209868742
  - # 3
    frequency:    1.1545829092
  - # 4
    frequency:    4.2252243536
  - # 5
    frequency:    4.3304505009
  - # 6
    frequency:    5.0107168095
  - # 7
    frequency:    5.0516549654
  - # 8
    frequency:    5.8147574574
  - # 9
    frequency:    5.8341048820
  - # 10
    frequency:    6.3677704446
  - # 11
    frequency:    9.3943701545
  - # 12
    frequency:   11.5378380775
  - # 13
    frequency:   15.7810554631
  - # 14
    frequency:   17.2190867995
  - # 15
    frequency:   17.2986743113

- q-position: [    0.0656566,    0.0000000,    0.0000000 ]
  distance:    0.0222193
  band:
  - # 1
    frequency:    0.2054587151
  - # 2
    frequency:    0.8893410259
  - # 3
    frequency:    1.2529922461
  - # 4
    frequency:    4.2337770462
  - # 5
    frequency:    4.3556691327
  - # 6
    frequency:    5.0407092712
  - # 7
    frequency:    5.0878666456
  - # 8
    frequency:    5.8112717231
  - # 9
    frequency:    5.8338442777
  - # 10
    frequency:    6.3832326337
  - # 11
    frequency:    9.3822341805
  - # 12
    frequency:   11.5156253237
  - # 13
    frequency:   15.7785077153
  - # 14
    frequency:   17.2331582073
  - # 15
    frequency:   17.3249625833

- q-position: [    0.0707071,    0.0000000,    0.0000000 ]
  distance:    0.0239284
  band:
  - # 1
    frequency:    0.2570056494
  - # 2
    frequency:    0.9575911190
  - # 3
    frequency:    1.3518004380
  - # 4
    frequency:    4.2427531153
  - # 5
    frequency:    4.3822077654
  - # 6
    frequency:    5.0718519211
  - # 7
    frequency:    5.1254437691
  - # 8
    frequency:    5.8076596299
  - # 9
    frequency:    5.8336099688
  - # 10
    frequency:    6.3996850265
  - # 11
    frequency:    9.3691599133
  - # 12
    frequency:   11.4919217765
  - # 13
    frequency:   15.7757425966
  - # 14
    frequency:   17.2476960349
  - # 15
    frequency:   17.3521949012

- q-position: [    0.0757576,    0.0000000,    0.0000000 ]
  distance:    0.0256376
  band:
  - # 1
    frequency:    0.3097803685
  - # 2
    frequency:    1.0257016869
  - # 3
    frequency:    1.4509915311
  - # 4
    frequency:    4.2520866618
  - # 5
    frequency:    4.4099356748
  - # 6
    frequency:    5.1039076672
  - # 7
    frequency:    5.1640841659
  - # 8
    frequency:    5.8039945240
  - # 9
    frequency:    5.8334271009
  - # 10
    frequency:    6.4170616652
  - # 11
    frequency:    9.3551523272
  - # 12
    frequency:   11.4667911142
  - # 13
    frequency:   15.7727581266
  - # 14
    frequency:   17.2625705733
  - # 15
    frequency:   17.3801406326

- q-position: [    0.0808081,    0.0000000,    0.0000000 ]
  distance:    0.0273468
  band:
  - # 1
    frequency:    0.3640571214
  - # 2
    frequency:    1.0936340387
  - # 3
    frequency:    1.5505409406
  - # 4
    frequency:    4.2617080313
  - # 5
    frequency:    4.4387223838
  - # 6
    frequency:    5.1366330524
  - # 7
    frequency:    5.2034696852
  - # 8
    frequency:    5.8003704798
  - # 9
    frequency:    5.8333289429
  - # 10
    frequency:    6.4352918875
  - # 11
    frequency:    9.3402161603
  - # 12
    frequency:   11.4403008002
  - # 13
    frequency:   15.7695524348
  - # 14
    frequency:   17.2776500748
  - # 15
    frequency:   17.4085643938

- q-position: [    0.0858586,    0.0000000,    0.0000000 ]
  distance:    0.0290560
  band:
  - # 1
    frequency:    0.4199060752
  - # 2
    frequency:    1.1613467072
  - # 3
    frequency:    1.6504152736
  - # 4
    frequency:    4.2715447097
  - # 5
    frequency:    4.4684389399
  - # 6
    frequency:    5.1697780906
  - # 7
    frequency:    5.2432616597
  - # 8
    frequency:    5.7969082483
  - # 9
    frequency:    5.8333587262
  - # 10
    frequency:    6.4543010968
  - # 11
    frequency:    9.3243559237
  - # 12
    frequency:   11.4125218572
  - # 13
    frequency:   15.7661237717
  - # 14
    frequency:   17.2928020404
  - # 15
    frequency:   17.4372280933

- q-position: [    0.0909091,    0.0000000,    0.0000000 ]
  distance:    0.0307651
  band:
  - # 1
    frequency:    0.4773019239
  - # 2
    frequency:    1.2287959245
  - # 3
    frequency:    1.7505721993
  - # 4
    frequency:    4.2815222436
  - # 5
    frequency:    4.4989589971
  - # 6
    frequency:    5.2030856749
  - # 7
    frequency:    5.2830937375
  - # 8
    frequency:    5.7937636419
  - # 9
    frequency:    5.8335717465
  - # 10
    frequency:    6.4740115349
  - # 11
    frequency:    9.3075759455
  - # 12
    frequency:   11.3835286187
  - # 13
    frequency:   15.7624705185
  - # 14
    frequency:   17.3078944985
  - # 15
    frequency:   17.4658929429

- q-position: [    0.0959596,    0.0000000,    0.0000000 ]
  distance:    0.0324743
  band:
  - # 1
    frequency:    0.5361708269
  - # 2
    frequency:    1.2959361121
  - # 3
    frequency:    1.8509603632
  - # 4
    frequency:    4.2915651596
  - # 5
    frequency:    4.5301596879
  - # 6
    frequency:    5.2362906123
  - # 7
    frequency:    5.3225613738
  - # 8
    frequency:    5.7911391225
  - # 9
    frequency:    5.8340376880
  - # 10
    frequency:    6.4943430276
  - # 11
    frequency:    9.2898804497
  - # 12
    frequency:   11.3533984541
  - # 13
    frequency:   15.7585911967
  - # 14
    frequency:   17.3227972640
  - # 15
    frequency:   17.4943214204

- q-position: [    0.1010101,    0.0000000,    0.0000000 ]
  distance:    0.0341835
  band:
  - # 1
    frequency:    0.5964134954
  - # 2
    frequency:    1.3627203722
  - # 3
    frequency:    1.9515193381
  - # 4
    frequency:    4.3015978668
  - # 5
    frequency:    4.5619222789
  - # 6
    frequency:    5.2691184167
  - # 7
    frequency:    5.3612074839
  - # 8
    frequency:    5.7892991363
  - # 9
    frequency:    5.8348430430
  - # 10
    frequency:    6.5152136837
  - # 11
    frequency:    9.2712736741
  - # 12
    frequency:   11.3222114691
  - # 13
    frequency:   15.7544844799
  - # 14
    frequency:   17.3373831657
  - # 15
    frequency:   17.5222791643

- q-position: [    0.1060606,    0.0000000,    0.0000000 ]
  distance:    0.0358927
  band:
  - # 1
    frequency:    0.6579176549
  - # 2
    frequency:    1.4291009716
  - # 3
    frequency:    2.0521796073
  - # 4
    frequency:    4.3115455314
  - # 5
    frequency:    4.5941326122
  - # 6
    frequency:    5.3012841336
  - # 7
    frequency:    5.3985048681
  - # 8
    frequency:    5.7885886250
  - # 9
    frequency:    5.8360933630
  - # 10
    frequency:    6.5365405344
  - # 11
    frequency:    9.2517600266
  - # 12
    frequency:   11.2900501787
  - # 13
    frequency:   15.7501492076
  - # 14
    frequency:   17.3515292321
  - # 15
    frequency:   17.5495367877

- q-position: [    0.1111111,    0.0000000,    0.0000000 ]
  distance:    0.0376018
  band:
  - # 1
    frequency:    0.7205652593
  - # 2
    frequency:    1.4950298087
  - # 3
    frequency:    2.1528625745
  - # 4
    frequency:    4.3213349145
  - # 5
    frequency:    4.6266813408
  - # 6
    frequency:    5.3324916971
  - # 7
    frequency:    5.4338392722
  - # 8
    frequency:    5.7894508779
  - # 9
    frequency:    5.8379148457
  - # 10
    frequency:    6.5582401087
  - # 11
    frequency:    9.2313442809
  - # 12
    frequency:   11.2569991530
  - # 13
    frequency:   15.7455844021
  - # 14
    frequency:   17.3651178258
  - # 15
    frequency:   17.5758715984

- q-position: [    0.1161616,    0.0000000,    0.0000000 ]
  distance:    0.0393110
  band:
  - # 1
    frequency:    0.7842368931
  - # 2
    frequency:    1.5604588595
  - # 3
    frequency:    2.2534805945
  - # 4
    frequency:    4.3308951726
  - # 5
    frequency:    4.6594639673
  - # 6
    frequency:    5.3624346461
  - # 7
    frequency:    5.4665042574
  - # 8
    frequency:    5.7924335740
  - # 9
    frequency:    5.8404544338
  - # 10
    frequency:    6.5802289428
  - # 11
    frequency:    9.2100318122
  - # 12
    frequency:   11.2231446362
  - # 13
    frequency:   15.7407892883
  - # 14
    frequency:   17.3780377174
  - # 15
    frequency:   17.6010692150

- q-position: [    0.1212121,    0.0000000,    0.0000000 ]
  distance:    0.0410202
  band:
  - # 1
    frequency:    0.8488145653
  - # 2
    frequency:    1.6253405946
  - # 3
    frequency:    2.3539370171
  - # 4
    frequency:    4.3401586177
  - # 5
    frequency:    4.6923807022
  - # 6
    frequency:    5.3907994243
  - # 7
    frequency:    5.4957308939
  - # 8
    frequency:    5.7981600205
  - # 9
    frequency:    5.8438772057
  - # 10
    frequency:    6.6024240291
  - # 11
    frequency:    9.1878288714
  - # 12
    frequency:   11.1885741386
  - # 13
    frequency:   15.7357633174
  - # 14
    frequency:   17.3901850924
  - # 15
    frequency:   17.6249250694

- q-position: [    0.1262626,    0.0000000,    0.0000000 ]
  distance:    0.0427294
  band:
  - # 1
    frequency:    0.9141835337
  - # 2
    frequency:    1.6896283676
  - # 3
    frequency:    2.4541262392
  - # 4
    frequency:    4.3490614391
  - # 5
    frequency:    4.7253361516
  - # 6
    frequency:    5.4172728157
  - # 7
    frequency:    5.5207832006
  - # 8
    frequency:    5.8072346788
  - # 9
    frequency:    5.8483595088
  - # 10
    frequency:    6.6247432083
  - # 11
    frequency:    9.1647428967
  - # 12
    frequency:   11.1533760028
  - # 13
    frequency:   15.7305061931
  - # 14
    frequency:   17.4014644824
  - # 15
    frequency:   17.6472457912

- q-position: [    0.1313131,    0.0000000,    0.0000000 ]
  distance:    0.0444385
  band:
  - # 1
    frequency:    0.9802335160
  - # 2
    frequency:    1.7532767705
  - # 3
    frequency:    2.5539337535
  - # 4
    frequency:    4.3575443892
  - # 5
    frequency:    4.7582388505
  - # 6
    frequency:    5.4415550104
  - # 7
    frequency:    5.5411284093
  - # 8
    frequency:    5.8200739150
  - # 9
    frequency:    5.8540763406
  - # 10
    frequency:    6.6471055121
  - # 11
    frequency:    9.1407828598
  - # 12
    frequency:   11.1176389466
  - # 13
    frequency:   15.7250179010
  - # 14
    frequency:   17.4117896160
  - # 15
    frequency:   17.6678504650

- q-position: [    0.1363636,    0.0000000,    0.0000000 ]
  distance:    0.0461477
  band:
  - # 1
    frequency:    1.0468594997
  - # 2
    frequency:    1.8162419564
  - # 3
    frequency:    2.6532361878
  - # 4
    frequency:    4.3655534337
  - # 5
    frequency:    4.7910006538
  - # 6
    frequency:    5.4633788894
  - # 7
    frequency:    5.5566198229
  - # 8
    frequency:    5.8367242191
  - # 9
    frequency:    5.8611823930
  - # 10
    frequency:    6.6694314639
  - # 11
    frequency:    9.1159596441
  - # 12
    frequency:   11.0814515845
  - # 13
    frequency:   15.7192987408
  - # 14
    frequency:   17.4210841833
  - # 15
    frequency:   17.6865717600

- q-position: [    0.1414141,    0.0000000,    0.0000000 ]
  distance:    0.0478569
  band:
  - # 1
    frequency:    1.1139622791
  - # 2
    frequency:    1.8784819295
  - # 3
    frequency:    2.7519013228
  - # 4
    frequency:    4.3730403693
  - # 5
    frequency:    4.8235359989
  - # 6
    frequency:    5.4825339827
  - # 7
    frequency:    5.5675681273
  - # 8
    frequency:    5.8567920429
  - # 9
    frequency:    5.8697883071
  - # 10
    frequency:    6.6916433435
  - # 11
    frequency:    9.0902864478
  - # 12
    frequency:   11.0449019329
  - # 13
    frequency:   15.7133493604
  - # 14
    frequency:   17.4292825106
  - # 15
    frequency:   17.7032569263

- q-position: [    0.1464646,    0.0000000,    0.0000000 ]
  distance:    0.0495661
  band:
  - # 1
    frequency:    1.1814488023
  - # 2
    frequency:    1.9399568033
  - # 3
    frequency:    2.8497880783
  - # 4
    frequency:    4.3799634084
  - # 5
    frequency:    4.8557610562
  - # 6
    frequency:    5.4988905560
  - # 7
    frequency:    5.5746371626
  - # 8
    frequency:    5.8795492605
  - # 9
    frequency:    5.8799366851
  - # 10
    frequency:    6.7136654233
  - # 11
    frequency:    9.0637792076
  - # 12
    frequency:   11.0080769017
  - # 13
    frequency:   15.7071707917
  - # 14
    frequency:   17.4363301389
  - # 15
    frequency:   17.7177686560

- q-position: [    0.1515152,    0.0000000,    0.0000000 ]
  distance:    0.0512752
  band:
  - # 1
    frequency:    1.2492323826
  - # 2
    frequency:    2.0006290279
  - # 3
    frequency:    2.9467464566
  - # 4
    frequency:    4.3862877306
  - # 5
    frequency:    4.8875927898
  - # 6
    frequency:    5.5124169461
  - # 7
    frequency:    5.5786431839
  - # 8
    frequency:    5.8915847423
  - # 9
    frequency:    5.9041352221
  - # 10
    frequency:    6.7354241798
  - # 11
    frequency:    9.0364570335
  - # 12
    frequency:   10.9710617802
  - # 13
    frequency:   15.7007644886
  - # 14
    frequency:   17.4421843071
  - # 15
    frequency:   17.7299858088

- q-position: [    0.1565657,    0.0000000,    0.0000000 ]
  distance:    0.0529844
  band:
  - # 1
    frequency:    1.3172328084
  - # 2
    frequency:    2.0604635901
  - # 3
    frequency:    3.0426174334
  - # 4
    frequency:    4.3919859980
  - # 5
    frequency:    4.9189479637
  - # 6
    frequency:    5.5231837539
  - # 7
    frequency:    5.5803846602
  - # 8
    frequency:    5.9045999956
  - # 9
    frequency:    5.9297283395
  - # 10
    frequency:    6.7568484876
  - # 11
    frequency:    9.0083426446
  - # 12
    frequency:   10.9339397228
  - # 13
    frequency:   15.6941323658
  - # 14
    frequency:   17.4468143327
  - # 15
    frequency:   17.7398039994

- q-position: [    0.1616162,    0.0000000,    0.0000000 ]
  distance:    0.0546936
  band:
  - # 1
    frequency:    1.3853763798
  - # 2
    frequency:    2.1194281858
  - # 3
    frequency:    3.1372327858
  - # 4
    frequency:    4.3970388296
  - # 5
    frequency:    4.9497421510
  - # 6
    frequency:    5.5313525952
  - # 7
    frequency:    5.5805576562
  - # 8
    frequency:    5.9187712923
  - # 9
    frequency:    5.9556321221
  - # 10
    frequency:    6.7778697976
  - # 11
    frequency:    8.9794627938
  - # 12
    frequency:   10.8967912435
  - # 13
    frequency:   15.6872768380
  - # 14
    frequency:   17.4502018919
  - # 15
    frequency:   17.7471360478

- q-position: [    0.1666667,    0.0000000,    0.0000000 ]
  distance:    0.0564028
  band:
  - # 1
    frequency:    1.4535958856
  - # 2
    frequency:    2.1774933708
  - # 3
    frequency:    3.2304148549
  - # 4
    frequency:    4.4014352286
  - # 5
    frequency:    4.9798888408
  - # 6
    frequency:    5.5371527904
  - # 7
    frequency:    5.5797395796
  - # 8
    frequency:    5.9338318066
  - # 9
    frequency:    5.9812928006
  - # 10
    frequency:    6.7984223050
  - # 11
    frequency:    8.9498486686
  - # 12
    frequency:   10.8596937258
  - # 13
    frequency:   15.6802008613
  - # 14
    frequency:   17.4523411950
  - # 15
    frequency:   17.7519122915

- q-position: [    0.1717172,    0.0000000,    0.0000000 ]
  distance:    0.0581119
  band:
  - # 1
    frequency:    1.5218305348
  - # 2
    frequency:    2.2346326903
  - # 3
    frequency:    3.3219762419
  - # 4
    frequency:    4.4051729524
  - # 5
    frequency:    5.0092987962
  - # 6
    frequency:    5.5408531245
  - # 7
    frequency:    5.5784059392
  - # 8
    frequency:    5.9494868783
  - # 9
    frequency:    6.0062837520
  - # 10
    frequency:    6.8184431087
  - # 11
    frequency:    8.9195362507
  - # 12
    frequency:   10.8227209597
  - # 13
    frequency:   15.6729079739
  - # 14
    frequency:   17.4532390579
  - # 15
    frequency:   17.7540807616

- q-position: [    0.1767677,    0.0000000,    0.0000000 ]
  distance:    0.0598211
  band:
  - # 1
    frequency:    1.5900258497
  - # 2
    frequency:    2.2908227907
  - # 3
    frequency:    3.4117194506
  - # 4
    frequency:    4.4082588152
  - # 5
    frequency:    5.0378798999
  - # 6
    frequency:    5.5427357750
  - # 7
    frequency:    5.5769558066
  - # 8
    frequency:    5.9654396084
  - # 9
    frequency:    6.0302807922
  - # 10
    frequency:    6.8378723680
  - # 11
    frequency:    8.8885666189
  - # 12
    frequency:   10.7859427117
  - # 13
    frequency:   15.6654023383
  - # 14
    frequency:   17.4529148675
  - # 15
    frequency:   17.7536072212

- q-position: [    0.1818182,    0.0000000,    0.0000000 ]
  distance:    0.0615303
  band:
  - # 1
    frequency:    1.6581335272
  - # 2
    frequency:    2.3460435176
  - # 3
    frequency:    3.4994365053
  - # 4
    frequency:    4.4107089092
  - # 5
    frequency:    5.0655378374
  - # 6
    frequency:    5.5430766852
  - # 7
    frequency:    5.5757348233
  - # 8
    frequency:    5.9814099433
  - # 9
    frequency:    6.0530391279
  - # 10
    frequency:    6.8566534589
  - # 11
    frequency:    8.8569861764
  - # 12
    frequency:   10.7494243406
  - # 13
    frequency:   15.6576887838
  - # 14
    frequency:   17.4514004426
  - # 15
    frequency:   17.7504750710

- q-position: [    0.1868687,    0.0000000,    0.0000000 ]
  distance:    0.0632395
  band:
  - # 1
    frequency:    1.7261112711
  - # 2
    frequency:    2.4002780027
  - # 3
    frequency:    3.5849085945
  - # 4
    frequency:    4.4125487310
  - # 5
    frequency:    5.0921780910
  - # 6
    frequency:    5.5421333967
  - # 7
    frequency:    5.5750520592
  - # 8
    frequency:    5.9971462467
  - # 9
    frequency:    6.0743751431
  - # 10
    frequency:    6.8747331370
  - # 11
    frequency:    8.8248467847
  - # 12
    frequency:   10.7132264637
  - # 13
    frequency:   15.6497728490
  - # 14
    frequency:   17.4487397900
  - # 15
    frequency:   17.7446851204

- q-position: [    0.1919192,    0.0000000,    0.0000000 ]
  distance:    0.0649486
  band:
  - # 1
    frequency:    1.7939225986
  - # 2
    frequency:    2.4535127409
  - # 3
    frequency:    3.6679058296
  - # 4
    frequency:    4.4138131970
  - # 5
    frequency:    5.1177098226
  - # 6
    frequency:    5.5401391990
  - # 7
    frequency:    5.5751900424
  - # 8
    frequency:    6.0124305141
  - # 9
    frequency:    6.0941530431
  - # 10
    frequency:    6.8920617125
  - # 11
    frequency:    8.7922057853
  - # 12
    frequency:   10.6774046829
  - # 13
    frequency:   15.6416608254
  - # 14
    frequency:   17.4449887573
  - # 15
    frequency:   17.7362552301

- q-position: [    0.1969697,    0.0000000,    0.0000000 ]
  distance:    0.0666578
  band:
  - # 1
    frequency:    1.8615366216
  - # 2
    frequency:    2.5057376634
  - # 3
    frequency:    3.7481872523
  - # 4
    frequency:    4.4145465335
  - # 5
    frequency:    5.1420522178
  - # 6
    frequency:    5.5373016705
  - # 7
    frequency:    5.5764081579
  - # 8
    frequency:    6.0270791685
  - # 9
    frequency:    6.1122754537
  - # 10
    frequency:    6.9085932465
  - # 11
    frequency:    8.7591258918
  - # 12
    frequency:   10.6420093765
  - # 13
    frequency:   15.6333598001
  - # 14
    frequency:   17.4402145830
  - # 15
    frequency:   17.7252198259

- q-position: [    0.2020202,    0.0000000,    0.0000000 ]
  distance:    0.0683670
  band:
  - # 1
    frequency:    1.9289278038
  - # 2
    frequency:    2.5569462055
  - # 3
    frequency:    3.8255012902
  - # 4
    frequency:    4.4148020269
  - # 5
    frequency:    5.1651436224
  - # 6
    frequency:    5.5338038019
  - # 7
    frequency:    5.5789398612
  - # 8
    frequency:    6.0409412586
  - # 9
    frequency:    6.1286770040
  - # 10
    frequency:    6.9242857760
  - # 11
    frequency:    8.7256749384
  - # 12
    frequency:   10.6070855588
  - # 13
    frequency:   15.6248776993
  - # 14
    frequency:   17.4344953478
  - # 15
    frequency:   17.7116292904

- q-position: [    0.2070707,    0.0000000,    0.0000000 ]
  distance:    0.0700762
  band:
  - # 1
    frequency:    1.9960756934
  - # 2
    frequency:    2.6071353735
  - # 3
    frequency:    3.8995869309
  - # 4
    frequency:    4.4146416215
  - # 5
    frequency:    5.1869531772
  - # 6
    frequency:    5.5298063637
  - # 7
    frequency:    5.5829845123
  - # 8
    frequency:    6.0538954109
  - # 9
    frequency:    6.1433201085
  - # 10
    frequency:    6.9391015785
  - # 11
    frequency:    8.6919254698
  - # 12
    frequency:   10.5726728120
  - # 13
    frequency:   15.6162233302
  - # 14
    frequency:   17.4279193283
  - # 15
    frequency:   17.6955492355

- q-position: [    0.2121212,    0.0000000,    0.0000000 ]
  distance:    0.0717853
  band:
  - # 1
    frequency:    2.0629646308