nqpoint: 300    
npath: 3      
segment_nqpoint:
- 100
- 100
- 100
labels:
- [ 'G', 'M' ]
- [ 'M', 'K' ]
- [ 'K', 'G' ]
reciprocal_lattice:
- [   0.27579500,   0.15923032,   0.00000000 ] # a*
- [   0.00000000,   0.31846063,   0.00000000 ] # b*
- [   0.00000000,   0.00000000,   0.04083501 ] # c*
natom: 6      
lattice:
- [     3.625881587228145,     0.000000000000000,     0.000000000000000 ] # a
- [    -1.812940793614073,     3.140105565666397,     0.000000000000000 ] # b
- [     0.000000000000000,     0.000000000000000,    24.488791921227879 ] # c
points:
- symbol: C # 1
  coordinates: [  0.000000000000000,  0.000000000000000,  0.470154227754729 ]
  mass: 12.010700
- symbol: C # 2
  coordinates: [  0.333332985432215,  0.666666983183674,  0.583514718220475 ]
  mass: 12.010700
- symbol: N # 3
  coordinates: [  0.333332985432215,  0.666666983183674,  0.632484933150237 ]
  mass: 14.006700
- symbol: O # 4
  coordinates: [  0.666666984744047,  0.333332985985145,  0.367515066849763 ]
  mass: 15.999400
- symbol: Y # 5
  coordinates: [  0.333332985432215,  0.666666983183674,  0.395223115868717 ]
  mass: 88.905850
- symbol: Y # 6
  coordinates: [  0.666666984744047,  0.333332985985145,  0.521538305624328 ]
  mass: 88.905850

phonon:
- q-position: [    0.0000000,    0.0000000,    0.0000000 ]
  distance:    0.0000000
  band:
  - # 1
    frequency:   -3.3775440335
  - # 2
    frequency:   -3.3775440335
  - # 3
    frequency:   -0.0000180717
  - # 4
    frequency:    0.0000002100
  - # 5
    frequency:    0.0000172814
  - # 6
    frequency:    2.3389446275
  - # 7
    frequency:    2.3389446276
  - # 8
    frequency:    3.0035510951
  - # 9
    frequency:    6.2735654145
  - # 10
    frequency:    6.2735654145
  - # 11
    frequency:    6.7254838308
  - # 12
    frequency:    6.7254838309
  - # 13
    frequency:    7.0810244726
  - # 14
    frequency:   11.1888972014
  - # 15
    frequency:   12.0463930701
  - # 16
    frequency:   12.0463930701
  - # 17
    frequency:   12.0508084423
  - # 18
    frequency:   62.4810823811

- q-position: [    0.0050505,    0.0000000,    0.0000000 ]
  distance:    0.0016084
  band:
  - # 1
    frequency:   -3.3776007001
  - # 2
    frequency:   -3.3774177369
  - # 3
    frequency:   -0.0489038988
  - # 4
    frequency:   -0.0257819332
  - # 5
    frequency:    0.0016839126
  - # 6
    frequency:    2.3388355478
  - # 7
    frequency:    2.3403355590
  - # 8
    frequency:    3.0038062127
  - # 9
    frequency:    6.2725861850
  - # 10
    frequency:    6.2726557331
  - # 11
    frequency:    6.7130513734
  - # 12
    frequency:    6.7276464828
  - # 13
    frequency:    7.0922608706
  - # 14
    frequency:   11.1815740513
  - # 15
    frequency:   12.0106128021
  - # 16
    frequency:   12.0460727324
  - # 17
    frequency:   12.0936380771
  - # 18
    frequency:   62.4810281924

- q-position: [    0.0101010,    0.0000000,    0.0000000 ]
  distance:    0.0032168
  band:
  - # 1
    frequency:   -3.3777799052
  - # 2
    frequency:   -3.3770451408
  - # 3
    frequency:   -0.0977468529
  - # 4
    frequency:   -0.0520899912
  - # 5
    frequency:    0.0066968668
  - # 6
    frequency:    2.3385131813
  - # 7
    frequency:    2.3445063222
  - # 8
    frequency:    3.0045597607
  - # 9
    frequency:    6.2695829324
  - # 10
    frequency:    6.2696806311
  - # 11
    frequency:    6.6800195764
  - # 12
    frequency:    6.7340998392
  - # 13
    frequency:    7.1220468887
  - # 14
    frequency:   11.1602255531
  - # 15
    frequency:   11.9794055924
  - # 16
    frequency:   12.0451123383
  - # 17
    frequency:   12.1453833429
  - # 18
    frequency:   62.4808657809

- q-position: [    0.0151515,    0.0000000,    0.0000000 ]
  distance:    0.0048252
  band:
  - # 1
    frequency:   -3.3781092900
  - # 2
    frequency:   -3.3764449843
  - # 3
    frequency:   -0.1464662940
  - # 4
    frequency:   -0.0794092654
  - # 5
    frequency:    0.0149404786
  - # 6
    frequency:    2.3379919874
  - # 7
    frequency:    2.3514501612
  - # 8
    frequency:    3.0057764922
  - # 9
    frequency:    6.2632031224
  - # 10
    frequency:    6.2649394066
  - # 11
    frequency:    6.6348041523
  - # 12
    frequency:    6.7447458527
  - # 13
    frequency:    7.1631073991
  - # 14
    frequency:   11.1265148885
  - # 15
    frequency:   11.9539903411
  - # 16
    frequency:   12.0435137448
  - # 17
    frequency:   12.2031945889
  - # 18
    frequency:   62.4805956105

- q-position: [    0.0202020,    0.0000000,    0.0000000 ]
  distance:    0.0064335
  band:
  - # 1
    frequency:   -3.3786350060
  - # 2
    frequency:   -3.3756480232
  - # 3
    frequency:   -0.1949964679
  - # 4
    frequency:   -0.1081567160
  - # 5
    frequency:    0.0262771301
  - # 6
    frequency:    2.3372955471
  - # 7
    frequency:    2.3611536460
  - # 8
    frequency:    3.0073982203
  - # 9
    frequency:    6.2512485313
  - # 10
    frequency:    6.2584966675
  - # 11
    frequency:    6.5851509960
  - # 12
    frequency:    6.7594380503
  - # 13
    frequency:    7.2099613247
  - # 14
    frequency:   11.0826811061
  - # 15
    frequency:   11.9332171692
  - # 16
    frequency:   12.0412800479
  - # 17
    frequency:   12.2660357370
  - # 18
    frequency:   62.4802184525

- q-position: [    0.0252525,    0.0000000,    0.0000000 ]
  distance:    0.0080419
  band:
  - # 1
    frequency:   -3.3794218487
  - # 2
    frequency:   -3.3746963246
  - # 3
    frequency:   -0.2432670364
  - # 4
    frequency:   -0.1386730696
  - # 5
    frequency:    0.0405575623
  - # 6
    frequency:    2.3364558112
  - # 7
    frequency:    2.3735935422
  - # 8
    frequency:    3.0093446752
  - # 9
    frequency:    6.2300111393
  - # 10
    frequency:    6.2505110981
  - # 11
    frequency:    6.5378876446
  - # 12
    frequency:    6.7780005144
  - # 13
    frequency:    7.2594903807
  - # 14
    frequency:   11.0310679161
  - # 15
    frequency:   11.9158988535
  - # 16
    frequency:   12.0384155837
  - # 17
    frequency:   12.3328226671
  - # 18
    frequency:   62.4797353828

- q-position: [    0.0303030,    0.0000000,    0.0000000 ]
  distance:    0.0096503
  band:
  - # 1
    frequency:   -3.3805534605
  - # 2
    frequency:   -3.3736422916
  - # 3
    frequency:   -0.2912018928
  - # 4
    frequency:   -0.1712297084
  - # 5
    frequency:    0.0576406911
  - # 6
    frequency:    2.3355120992
  - # 7
    frequency:    2.3887326353
  - # 8
    frequency:    3.0115147642
  - # 9
    frequency:    6.1949500711
  - # 10
    frequency:    6.2411484206
  - # 11
    frequency:    6.4992203811
  - # 12
    frequency:    6.8002453857
  - # 13
    frequency:    7.3100399591
  - # 14
    frequency:   10.9738172852
  - # 15
    frequency:   11.9009898225
  - # 16
    frequency:   12.0349259298
  - # 17
    frequency:   12.4025487984
  - # 18
    frequency:   62.4791477781

- q-position: [    0.0353535,    0.0000000,    0.0000000 ]
  distance:    0.0112587
  band:
  - # 1
    frequency:   -3.3821326163
  - # 2
    frequency:   -3.3725474350
  - # 3
    frequency:   -0.3387182569
  - # 4
    frequency:   -0.2060431823
  - # 5
    frequency:    0.0774035406
  - # 6
    frequency:    2.3345098973
  - # 7
    frequency:    2.4065146163
  - # 8
    frequency:    3.0137883577
  - # 9
    frequency:    6.1431928109
  - # 10
    frequency:    6.2305687152
  - # 11
    frequency:    6.4729283350
  - # 12
    frequency:    6.8259855593
  - # 13
    frequency:    7.3607307489
  - # 14
    frequency:   10.9127436854
  - # 15
    frequency:   11.8876516565
  - # 16
    frequency:   12.0308179068
  - # 17
    frequency:   12.4743431726
  - # 18
    frequency:   62.4784573110

- q-position: [    0.0404040,    0.0000000,    0.0000000 ]
  distance:    0.0128671
  band:
  - # 1
    frequency:   -3.3842816081
  - # 2
    frequency:   -3.3714809082
  - # 3
    frequency:   -0.3857260972
  - # 4
    frequency:   -0.2432915193
  - # 5
    frequency:    0.0997431027
  - # 6
    frequency:    2.3334995140
  - # 7
    frequency:    2.4268580209
  - # 8
    frequency:    3.0160288528
  - # 9
    frequency:    6.0756241448
  - # 10
    frequency:    6.2189193352
  - # 11
    frequency:    6.4586537015
  - # 12
    frequency:    6.8550417920
  - # 13
    frequency:    7.4110880802
  - # 14
    frequency:   10.8493261997
  - # 15
    frequency:   11.8752483518
  - # 16
    frequency:   12.0260995798
  - # 17
    frequency:   12.5474807080
  - # 18
    frequency:   62.4776659442

- q-position: [    0.0454545,    0.0000000,    0.0000000 ]
  distance:    0.0144755
  band:
  - # 1
    frequency:   -3.3871427398
  - # 2
    frequency:   -3.3705178295
  - # 3
    frequency:   -0.4321279148
  - # 4
    frequency:   -0.2831293021
  - # 5
    frequency:    0.1245734030
  - # 6
    frequency:    2.3325346578
  - # 7
    frequency:    2.4496489768
  - # 8
    frequency:    3.0180870090
  - # 9
    frequency:    5.9954752026
  - # 10
    frequency:    6.2063324798
  - # 11
    frequency:    6.4535120727
  - # 12
    frequency:    6.8872451598
  - # 13
    frequency:    7.4608526361
  - # 14
    frequency:   10.7847535050
  - # 15
    frequency:   11.8633119316
  - # 16
    frequency:   12.0207802592
  - # 17
    frequency:   12.6213691636
  - # 18
    frequency:   62.4767759233

- q-position: [    0.0505051,    0.0000000,    0.0000000 ]
  distance:    0.0160839
  band:
  - # 1
    frequency:   -3.3908789402
  - # 2
    frequency:   -3.3697374197
  - # 3
    frequency:   -0.4778189072
  - # 4
    frequency:   -0.3257004401
  - # 5
    frequency:    0.1518205490
  - # 6
    frequency:    2.3316710063
  - # 7
    frequency:    2.4747321006
  - # 8
    frequency:    3.0198069538
  - # 9
    frequency:    5.9059354033
  - # 10
    frequency:    6.1929258583
  - # 11
    frequency:    6.4545913273
  - # 12
    frequency:    6.9224364330
  - # 13
    frequency:    7.5098812793
  - # 14
    frequency:   10.7199817949
  - # 15
    frequency:   11.8515029593
  - # 16
    frequency:   12.0148705015
  - # 17
    frequency:   12.6955283514
  - # 18
    frequency:   62.4757897690

- q-position: [    0.0555556,    0.0000000,    0.0000000 ]
  distance:    0.0176923
  band:
  - # 1
    frequency:   -3.3956744857
  - # 2
    frequency:   -3.3692209860
  - # 3
    frequency:   -0.5226875103
  - # 4
    frequency:   -0.3711484126
  - # 5
    frequency:    0.1814175007
  - # 6
    frequency:    2.3309648324
  - # 7
    frequency:    2.5018982017
  - # 8
    frequency:    3.0210359677
  - # 9
    frequency:    5.8093398745
  - # 10
    frequency:    6.1788049766
  - # 11
    frequency:    6.4598320123
  - # 12
    frequency:    6.9604638420
  - # 13
    frequency:    7.5580924312
  - # 14
    frequency:   10.6557878050
  - # 15
    frequency:   11.8395763436
  - # 16
    frequency:   12.0083821075
  - # 17
    frequency:   12.7695691882
  - # 18
    frequency:   62.4747102678

- q-position: [    0.0606061,    0.0000000,    0.0000000 ]
  distance:    0.0193006
  band:
  - # 1
    frequency:   -3.4017358057
  - # 2
    frequency:   -3.3690497919
  - # 3
    frequency:   -0.5666162998
  - # 4
    frequency:   -0.4196239122
  - # 5
    frequency:    0.2132994379
  - # 6
    frequency:    2.3304717501
  - # 7
    frequency:    2.5308663289
  - # 8
    frequency:    3.0216408569
  - # 9
    frequency:    5.7073292162
  - # 10
    frequency:    6.1640659781
  - # 11
    frequency:    6.4679139692
  - # 12
    frequency:    7.0011803016
  - # 13
    frequency:    7.6054342142
  - # 14
    frequency:   10.5928116215
  - # 15
    frequency:   11.8273549851
  - # 16
    frequency:   12.0013281215
  - # 17
    frequency:   12.8431754921
  - # 18
    frequency:   62.4735404626

- q-position: [    0.0656566,    0.0000000,    0.0000000 ]
  distance:    0.0209090
  band:
  - # 1
    frequency:   -3.4092923037
  - # 2
    frequency:   -3.3693028531
  - # 3
    frequency:   -0.6094832117
  - # 4
    frequency:   -0.4712896615
  - # 5
    frequency:    0.2474000517
  - # 6
    frequency:    2.3302456298
  - # 7
    frequency:    2.5612558534
  - # 8
    frequency:    3.0215357525
  - # 9
    frequency:    5.6011541956
  - # 10
    frequency:    6.1487983932
  - # 11
    frequency:    6.4779868359
  - # 12
    frequency:    7.0444407475
  - # 13
    frequency:    7.6518647534
  - # 14
    frequency:   10.5315894011
  - # 15
    frequency:   11.8147105912
  - # 16
    frequency:   11.9937228261
  - # 17
    frequency:   12.9160891654
  - # 18
    frequency:   62.4722836415

- q-position: [    0.0707071,    0.0000000,    0.0000000 ]
  distance:    0.0225174
  band:
  - # 1
    frequency:   -3.4185970741
  - # 2
    frequency:   -3.3700547086
  - # 3
    frequency:   -0.6511630266
  - # 4
    frequency:   -0.5263219338
  - # 5
    frequency:    0.2836488017
  - # 6
    frequency:    2.3303377215
  - # 7
    frequency:    2.5925413688
  - # 8
    frequency:    3.0207294365
  - # 9
    frequency:    5.4918972991
  - # 10
    frequency:    6.1330874708
  - # 11
    frequency:    6.4894770447
  - # 12
    frequency:    7.0900999088
  - # 13
    frequency:    7.6973393061
  - # 14
    frequency:   10.4725778775
  - # 15
    frequency:   11.8015501054
  - # 16
    frequency:   11.9855817373
  - # 17
    frequency:   12.9880984929
  - # 18
    frequency:   62.4709433266

- q-position: [    0.0757576,    0.0000000,    0.0000000 ]
  distance:    0.0241258
  band:
  - # 1
    frequency:   -3.4299273117
  - # 2
    frequency:   -3.3713732184
  - # 3
    frequency:   -0.6915290458
  - # 4
    frequency:   -0.5849080372
  - # 5
    frequency:    0.3219690489
  - # 6
    frequency:    2.3307960082
  - # 7
    frequency:    2.6239791939
  - # 8
    frequency:    3.0194048301
  - # 9
    frequency:    5.3806094885
  - # 10
    frequency:    6.1170159809
  - # 11
    frequency:    6.5019742926
  - # 12
    frequency:    7.1380106346
  - # 13
    frequency:    7.7418014710
  - # 14
    frequency:   10.4161726974
  - # 15
    frequency:   11.7878062436
  - # 16
    frequency:   11.9769215957
  - # 17
    frequency:   13.0590290163
  - # 18
    frequency:   62.4695232610

- q-position: [    0.0808081,    0.0000000,    0.0000000 ]
  distance:    0.0257342
  band:
  - # 1
    frequency:   -3.4435840934
  - # 2
    frequency:   -3.3733174424
  - # 3
    frequency:   -0.7304548784
  - # 4
    frequency:   -0.6472387517
  - # 5
    frequency:    0.3622769367
  - # 6
    frequency:    2.3316647939
  - # 7
    frequency:    2.6544916487
  - # 8
    frequency:    3.0180466358
  - # 9
    frequency:    5.2683909086
  - # 10
    frequency:    6.1006654930
  - # 11
    frequency:    6.5151677751
  - # 12
    frequency:    7.1880227704
  - # 13
    frequency:    7.7851770402
  - # 14
    frequency:   10.3627222574
  - # 15
    frequency:   11.7734309377
  - # 16
    frequency:   11.9677603553
  - # 17
    frequency:   13.1287364330
  - # 18
    frequency:   62.4680273957

- q-position: [    0.0858586,    0.0000000,    0.0000000 ]
  distance:    0.0273426
  band:
  - # 1
    frequency:   -3.4598910552
  - # 2
    frequency:   -3.3759356595
  - # 3
    frequency:   -0.7678162503
  - # 4
    frequency:   -0.7134944802
  - # 5
    frequency:    0.4044808866
  - # 6
    frequency:    2.3329845171
  - # 7
    frequency:    2.6825063211
  - # 8
    frequency:    3.0176228992
  - # 9
    frequency:    5.1564343980
  - # 10
    frequency:    6.0841171936
  - # 11
    frequency:    6.5288103915
  - # 12
    frequency:    7.2399825239
  - # 13
    frequency:    7.8273697779
  - # 14
    frequency:   10.3125382282
  - # 15
    frequency:   11.7583908112
  - # 16
    frequency:   11.9581171695
  - # 17
    frequency:   13.1971010514
  - # 18
    frequency:   62.4664598761

- q-position: [    0.0909091,    0.0000000,    0.0000000 ]
  distance:    0.0289510
  band:
  - # 1
    frequency:   -3.4791912859
  - # 2
    frequency:   -3.3792635863
  - # 3
    frequency:   -0.8034927473
  - # 4
    frequency:   -0.7838237753
  - # 5
    frequency:    0.4484815907
  - # 6
    frequency:    2.3347917640
  - # 7
    frequency:    2.7058103426
  - # 8
    frequency:    3.0197640278
  - # 9
    frequency:    5.0460396316
  - # 10
    frequency:    6.0674523278
  - # 11
    frequency:    6.5426983755
  - # 12
    frequency:    7.2937322374
  - # 13
    frequency:    7.8682588154
  - # 14
    frequency:   10.2659035205
  - # 15
    frequency:   11.7426640715
  - # 16
    frequency:   11.9480123739
  - # 17
    frequency:   13.2640234332
  - # 18
    frequency:   62.4648250267

- q-position: [    0.0959596,    0.0000000,    0.0000000 ]
  distance:    0.0305594
  band:
  - # 1
    frequency:   -3.5018415297
  - # 2
    frequency:   -3.3833228504
  - # 3
    frequency:   -0.8583131483
  - # 4
    frequency:   -0.8373694045
  - # 5
    frequency:    0.4941723975
  - # 6
    frequency:    2.3371194474
  - # 7
    frequency:    2.7216465706
  - # 8
    frequency:    3.0267155761
  - # 9
    frequency:    4.9385988894
  - # 10
    frequency:    6.0507523483
  - # 11
    frequency:    6.5566595118
  - # 12
    frequency:    7.3491104820
  - # 13
    frequency:    7.9076976036
  - # 14
    frequency:   10.2230780861
  - # 15
    frequency:   11.7262383958
  - # 16
    frequency:   11.9374674646
  - # 17
    frequency:   13.3294209405
  - # 18
    frequency:   62.4631273364

- q-position: [    0.1010101,    0.0000000,    0.0000000 ]
  distance:    0.0321677
  band:
  - # 1
    frequency:   -3.5282025708
  - # 2
    frequency:   -3.3881197744
  - # 3
    frequency:   -0.9369479772
  - # 4
    frequency:   -0.8693380654
  - # 5
    frequency:    0.5414400052
  - # 6
    frequency:    2.3399971089
  - # 7
    frequency:    2.7274105522
  - # 8
    frequency:    3.0407068171
  - # 9
    frequency:    4.8355528299
  - # 10
    frequency:    6.0340988520
  - # 11
    frequency:    6.5705462038
  - # 12
    frequency:    7.4059523977
  - # 13
    frequency:    7.9455145154
  - # 14
    frequency:   10.1843026916
  - # 15
    frequency:   11.7091095214
  - # 16
    frequency:   11.9265050734
  - # 17
    frequency:   13.3932249776
  - # 18
    frequency:   62.4613714424

- q-position: [    0.1060606,    0.0000000,    0.0000000 ]
  distance:    0.0337761
  band:
  - # 1
    frequency:   -3.5586245479
  - # 2
    frequency:   -3.3936445128
  - # 3
    frequency:   -1.0195663210
  - # 4
    frequency:   -0.8992984433
  - # 5
    frequency:    0.5901653852
  - # 6
    frequency:    2.3434512993
  - # 7
    frequency:    2.7218190411
  - # 8
    frequency:    3.0628599152
  - # 9
    frequency:    4.7383164003
  - # 10
    frequency:    6.0175733666
  - # 11
    frequency:    6.5842313194
  - # 12
    frequency:    7.4640902135
  - # 13
    frequency:    7.9815152730
  - # 14
    frequency:   10.1498006223
  - # 15
    frequency:   11.6912803452
  - # 16
    frequency:   11.9151489389
  - # 17
    frequency:   13.4553787678
  - # 18
    frequency:   62.4595621142

- q-position: [    0.1111111,    0.0000000,    0.0000000 ]
  distance:    0.0353845
  band:
  - # 1
    frequency:   -3.5934260623
  - # 2
    frequency:   -3.3998705805
  - # 3
    frequency:   -1.1058107878
  - # 4
    frequency:   -0.9271588350
  - # 5
    frequency:    0.6402248688
  - # 6
    frequency:    2.3475059935
  - # 7
    frequency:    2.7054899443
  - # 8
    frequency:    3.0926870749
  - # 9
    frequency:    4.6481812252
  - # 10
    frequency:    6.0012570432
  - # 11
    frequency:    6.5976056334
  - # 12
    frequency:    7.5233538926
  - # 13
    frequency:    8.0154873882
  - # 14
    frequency:   10.1197771896
  - # 15
    frequency:   11.6727603995
  - # 16
    frequency:   11.9034238724
  - # 17
    frequency:   13.5158355522
  - # 18
    frequency:   62.4577042364

- q-position: [    0.1161616,    0.0000000,    0.0000000 ]
  distance:    0.0369929
  band:
  - # 1
    frequency:   -3.6328664889
  - # 2
    frequency:   -3.4067547905
  - # 3
    frequency:   -1.1950879955
  - # 4
    frequency:   -0.9528364515
  - # 5
    frequency:    0.6914913350
  - # 6
    frequency:    2.3521829995
  - # 7
    frequency:    2.6803882021
  - # 8
    frequency:    3.1286995704
  - # 9
    frequency:    4.5662099222
  - # 10
    frequency:    5.9852302957
  - # 11
    frequency:    6.6105761800
  - # 12
    frequency:    7.5835718601
  - # 13
    frequency:    8.0472067411
  - # 14
    frequency:   10.0944169305
  - # 15
    frequency:   11.6535656183
  - # 16
    frequency:   11.8913557206
  - # 17
    frequency:   13.5745571198
  - # 18
    frequency:   62.4558027922

- q-position: [    0.1212121,    0.0000000,    0.0000000 ]
  distance:    0.0386013
  band:
  - # 1
    frequency:   -3.6771120731
  - # 2
    frequency:   -3.4142376103
  - # 3
    frequency:   -1.2865491850
  - # 4
    frequency:   -0.9762573512
  - # 5
    frequency:    0.7438354425
  - # 6
    frequency:    2.3575023282
  - # 7
    frequency:    2.6489675270
  - # 8
    frequency:    3.1692733565
  - # 9
    frequency:    4.4931454752
  - # 10
    frequency:    5.9695724218
  - # 11
    frequency:    6.6230651131
  - # 12
    frequency:    7.6445717763
  - # 13
    frequency:    8.0764462679
  - # 14
    frequency:   10.0738785055
  - # 15
    frequency:   11.6337183375
  - # 16
    frequency:   11.8789713219
  - # 17
    frequency:   13.6315126054
  - # 18
    frequency:   62.4538628458

- q-position: [    0.1262626,    0.0000000,    0.0000000 ]
  distance:    0.0402097
  band:
  - # 1
    frequency:   -3.7261982557
  - # 2
    frequency:   -3.4222439236
  - # 3
    frequency:   -1.3791064327
  - # 4
    frequency:   -0.9973559781
  - # 5
    frequency:    0.7971268502
  - # 6
    frequency:    2.3634824982
  - # 7
    frequency:    2.6136881290
  - # 8
    frequency:    3.2130732722
  - # 9
    frequency:    4.4293593074
  - # 10
    frequency:    5.9543612293
  - # 11
    frequency:    6.6350088344
  - # 12
    frequency:    7.7061813305
  - # 13
    frequency:    8.1029864809
  - # 14
    frequency:   10.0582875281
  - # 15
    frequency:   11.6132474975
  - # 16
    frequency:   11.8662984591
  - # 17
    frequency:   13.6866775048
  - # 18
    frequency:   62.4518895244

- q-position: [    0.1313131,    0.0000000,    0.0000000 ]
  distance:    0.0418181
  band:
  - # 1
    frequency:   -3.7799929477
  - # 2
    frequency:   -3.4306841713
  - # 3
    frequency:   -1.4714937057
  - # 4
    frequency:   -1.0160743227
  - # 5
    frequency:    0.8512353759
  - # 6
    frequency:    2.3701407580
  - # 7
    frequency:    2.5768404505
  - # 8
    frequency:    3.2591078562
  - # 9
    frequency:    4.3748520218
  - # 10
    frequency:    5.9396726872
  - # 11
    frequency:    6.6463572524
  - # 12
    frequency:    7.7682290330
  - # 13
    frequency:    8.1266272288
  - # 14
    frequency:   10.0477278660
  - # 15
    frequency:   11.5921890332
  - # 16
    frequency:   11.8533658059
  - # 17
    frequency:   13.7400328684
  - # 18
    frequency:   62.4498880010

- q-position: [    0.1363636,    0.0000000,    0.0000000 ]
  distance:    0.0434264
  band:
  - # 1
    frequency:   -3.8381674523
  - # 2
    frequency:   -3.4394558290
  - # 3
    frequency:   -1.5623699592
  - # 4
    frequency:   -1.0323607400
  - # 5
    frequency:    0.9060320455
  - # 6
    frequency:    2.3774932173
  - # 7
    frequency:    2.5404599730
  - # 8
    frequency:    3.3066559666
  - # 9
    frequency:    4.3293043902
  - # 10
    frequency:    5.9255806137
  - # 11
    frequency:    6.6570730935
  - # 12
    frequency:    7.8305449889
  - # 13
    frequency:    8.1471997664
  - # 14
    frequency:   10.0422322809
  - # 15
    frequency:   11.5705864527
  - # 16
    frequency:   11.8402028683
  - # 17
    frequency:   13.7915646450
  - # 18
    frequency:   62.4478634762

- q-position: [    0.1414141,    0.0000000,    0.0000000 ]
  distance:    0.0450348
  band:
  - # 1
    frequency:   -3.9001823298
  - # 2
    frequency:   -3.4484451656
  - # 3
    frequency:   -1.6504464493
  - # 4
    frequency:   -1.0461684651
  - # 5
    frequency:    0.9613899900
  - # 6
    frequency:    2.3855548862
  - # 7
    frequency:    2.5062551355
  - # 8
    frequency:    3.3551842091
  - # 9
    frequency:    4.2921614792
  - # 10
    frequency:    5.9121564094
  - # 11
    frequency:    6.6671312266
  - # 12
    frequency:    7.8929616438
  - # 13
    frequency:    8.1645779423
  - # 14
    frequency:   10.0417735371
  - # 15
    frequency:   11.5484916211
  - # 16
    frequency:   11.8268399197
  - # 17
    frequency:   13.8412631502
  - # 18
    frequency:   62.4458211601

- q-position: [    0.1464646,    0.0000000,    0.0000000 ]
  distance:    0.0466432
  band:
  - # 1
    frequency:   -3.9652938039
  - # 2
    frequency:   -3.4575292207
  - # 3
    frequency:   -1.7346099730
  - # 4
    frequency:   -1.0574538719
  - # 5
    frequency:    1.0171851546
  - # 6
    frequency:    2.3943396270
  - # 7
    frequency:    2.4755557111
  - # 8
    frequency:    3.4042853580
  - # 9
    frequency:    4.2627268637
  - # 10
    frequency:    5.8994688408
  - # 11
    frequency:    6.6765179816
  - # 12
    frequency:    7.9553144910
  - # 13
    frequency:    8.1786872185
  - # 14
    frequency:   10.0462571951
  - # 15
    frequency:   11.5259657752
  - # 16
    frequency:   11.8133079307
  - # 17
    frequency:   13.8891226416
  - # 18
    frequency:   62.4437662548

- q-position: [    0.1515152,    0.0000000,    0.0000000 ]
  distance:    0.0482516
  band:
  - # 1
    frequency:   -4.0325822798
  - # 2
    frequency:   -3.4665779307
  - # 3
    frequency:   -1.8140141605
  - # 4
    frequency:   -1.0661745214
  - # 5
    frequency:    1.0732967897
  - # 6
    frequency:    2.4038600310
  - # 7
    frequency:    2.4493006204
  - # 8
    frequency:    3.4536376596
  - # 9
    frequency:    4.2402474661
  - # 10
    frequency:    5.8875838732
  - # 11
    frequency:    6.6852304584
  - # 12
    frequency:    8.0174427378
  - # 13
    frequency:    8.1895103948
  - # 14
    frequency:   10.0555171513
  - # 15
    frequency:   11.5030808159
  - # 16
    frequency:   11.7996384909
  - # 17
    frequency:   13.9351409857
  - # 18
    frequency:   62.4417039363

- q-position: [    0.1565657,    0.0000000,    0.0000000 ]
  distance:    0.0498600
  band:
  - # 1
    frequency:   -4.1009994204
  - # 2
    frequency:   -3.4754563380
  - # 3
    frequency:   -1.8881222979
  - # 4
    frequency:   -1.0722870357
  - # 5
    frequency:    1.1296077039
  - # 6
    frequency:    2.4141272322
  - # 7
    frequency:    2.4280680058
  - # 8
    frequency:    3.5029791262
  - # 9
    frequency:    4.2239781846
  - # 10
    frequency:    5.8765645527
  - # 11
    frequency:    6.6932758242
  - # 12
    frequency:    8.0791899245
  - # 13
    frequency:    8.1970893207
  - # 14
    frequency:   10.0693145623
  - # 15
    frequency:   11.4799209349
  - # 16
    frequency:   11.7858637246
  - # 17
    frequency:   13.9793194018
  - # 18
    frequency:   62.4396393368

- q-position: [    0.1616162,    0.0000000,    0.0000000 ]
  distance:    0.0514684
  band:
  - # 1
    frequency:   -4.1694259954
  - # 2
    frequency:   -3.4840268165
  - # 3
    frequency:   -1.9567010924
  - # 4
    frequency:   -1.0757448208
  - # 5
    frequency:    1.1860042698
  - # 6
    frequency:    2.4121352115
  - # 7
    frequency:    2.4251506762
  - # 8
    frequency:    3.5520916935
  - # 9
    frequency:    4.2132238806
  - # 10
    frequency:    5.8664709328
  - # 11
    frequency:    6.7006706054
  - # 12
    frequency:    8.1404044994
  - # 13
    frequency:    8.2015224649
  - # 14
    frequency:   10.0873402030
  - # 15
    frequency:   11.4565846547
  - # 16
    frequency:   11.7720161986
  - # 17
    frequency:   14.0216622736
  - # 18
    frequency:   62.4375775276

- q-position: [    0.1666667,    0.0000000,    0.0000000 ]
  distance:    0.0530768
  band:
  - # 1
    frequency:   -4.2367310481
  - # 2
    frequency:   -3.4921512558
  - # 3
    frequency:   -2.0197775090
  - # 4
    frequency:   -1.0764956441
  - # 5
    frequency:    1.2423761822
  - # 6
    frequency:    2.4015511106
  - # 7
    frequency:    2.4369378616
  - # 8
    frequency:    3.6007917680
  - # 9
    frequency:    4.2073616631
  - # 10
    frequency:    5.8573600388
  - # 11
    frequency:    6.7074399716
  - # 12
    frequency:    8.2009403465
  - # 13
    frequency:    8.2029588288
  - # 14
    frequency:   10.1092196777
  - # 15
    frequency:   11.4331873768
  - # 16
    frequency:   11.7581288211
  - # 17
    frequency:   14.0621770191
  - # 18
    frequency:   62.4355235016

- q-position: [    0.1717172,    0.0000000,    0.0000000 ]
  distance:    0.0546852
  band:
  - # 1
    frequency:   -4.3018241290
  - # 2
    frequency:   -3.4996931566
  - # 3
    frequency:   -2.0775760910
  - # 4
    frequency:   -1.0744790439
  - # 5
    frequency:    1.2986159862
  - # 6
    frequency:    2.3962061480
  - # 7
    frequency:    2.4494940700
  - # 8
    frequency:    3.6489249704
  - # 9
    frequency:    4.2058485364
  - # 10
    frequency:    5.8492858628
  - # 11
    frequency:    6.7136170169
  - # 12
    frequency:    8.2015891704
  - # 13
    frequency:    8.2606572713
  - # 14
    frequency:   10.1345204144
  - # 15
    frequency:   11.4098645497
  - # 16
    frequency:   11.7442347328
  - # 17
    frequency:   14.1008740087
  - # 18
    frequency:   62.4334821568

- q-position: [    0.1767677,    0.0000000,    0.0000000 ]
  distance:    0.0562935
  band:
  - # 1
    frequency:   -4.3636954732
  - # 2
    frequency:   -3.5065195946
  - # 3
    frequency:   -2.1304526163
  - # 4
    frequency:   -1.0696235145
  - # 5
    frequency:    1.3546184045
  - # 6
    frequency:    2.3958915526
  - # 7
    frequency:    2.4628221014
  - # 8
    frequency:    3.6963636744
  - # 9
    frequency:    4.2082194780
  - # 10
    frequency:    5.8422993814
  - # 11
    frequency:    6.7192420327
  - # 12
    frequency:    8.1976357552
  - # 13
    frequency:    8.3194214451
  - # 14