nqpoint: 300    
npath: 3      
segment_nqpoint:
- 100
- 100
- 100
labels:
- [ 'G', 'M' ]
- [ 'M', 'K' ]
- [ 'K', 'G' ]
reciprocal_lattice:
- [   0.30720566,   0.17736527,   0.00000000 ] # a*
- [   0.00000000,   0.35473054,   0.00000000 ] # b*
- [   0.00000000,   0.00000000,   0.03654709 ] # c*
natom: 7      
lattice:
- [     3.255148372018517,     0.000000000000000,     0.000000000000000 ] # a
- [    -1.627574186009259,     2.819041183232100,     0.000000000000000 ] # b
- [     0.000000000000000,     0.000000000000000,    27.361961675872028 ] # c
points:
- symbol: N # 1
  coordinates: [  0.000000000000000,  0.000000000000000,  0.500000032220672 ]
  mass: 14.006700
- symbol: O # 2
  coordinates: [  0.333332985432215,  0.666666983183674,  0.671076214980000 ]
  mass: 15.999400
- symbol: O # 3
  coordinates: [  0.666666984744047,  0.333332985985145,  0.328923785020000 ]
  mass: 15.999400
- symbol: P # 4
  coordinates: [  0.333332985432215,  0.666666983183674,  0.616489280616622 ]
  mass: 30.973762
- symbol: P # 5
  coordinates: [  0.666666984744047,  0.333332985985145,  0.383510719383378 ]
  mass: 30.973762
- symbol: Sc # 6
  coordinates: [  0.333332985432215,  0.666666983183674,  0.456126567756943 ]
  mass: 44.955912
- symbol: Sc # 7
  coordinates: [  0.666666984744047,  0.333332985985145,  0.543873431762144 ]
  mass: 44.955912

phonon:
- q-position: [    0.0000000,    0.0000000,    0.0000000 ]
  distance:    0.0000000
  band:
  - # 1
    frequency:   -0.0000033724
  - # 2
    frequency:   -0.0000006506
  - # 3
    frequency:    0.0000034618
  - # 4
    frequency:    2.0087244826
  - # 5
    frequency:    2.0087244826
  - # 6
    frequency:    2.4049335975
  - # 7
    frequency:    2.4049335975
  - # 8
    frequency:    4.8085101030
  - # 9
    frequency:    4.8085101030
  - # 10
    frequency:    4.9591751316
  - # 11
    frequency:    4.9591751316
  - # 12
    frequency:    4.9771218809
  - # 13
    frequency:    6.6327277483
  - # 14
    frequency:    6.6327277483
  - # 15
    frequency:    7.8908436631
  - # 16
    frequency:   11.3107689109
  - # 17
    frequency:   13.9013752790
  - # 18
    frequency:   14.5713822775
  - # 19
    frequency:   14.5713822775
  - # 20
    frequency:   34.2485581912
  - # 21
    frequency:   34.2517964657

- q-position: [    0.0050505,    0.0000000,    0.0000000 ]
  distance:    0.0017916
  band:
  - # 1
    frequency:   -0.0118754702
  - # 2
    frequency:    0.0858837314
  - # 3
    frequency:    0.1159499686
  - # 4
    frequency:    2.0051695097
  - # 5
    frequency:    2.0080496419
  - # 6
    frequency:    2.4098265063
  - # 7
    frequency:    2.4107438907
  - # 8
    frequency:    4.8084470481
  - # 9
    frequency:    4.8088810452
  - # 10
    frequency:    4.9449472619
  - # 11
    frequency:    4.9594599929
  - # 12
    frequency:    4.9921470580
  - # 13
    frequency:    6.6330311409
  - # 14
    frequency:    6.6333153792
  - # 15
    frequency:    7.8910809603
  - # 16
    frequency:   11.3100472465
  - # 17
    frequency:   13.9017818462
  - # 18
    frequency:   14.5712564410
  - # 19
    frequency:   14.5715904414
  - # 20
    frequency:   34.2482882358
  - # 21
    frequency:   34.2515286569

- q-position: [    0.0101010,    0.0000000,    0.0000000 ]
  distance:    0.0035831
  band:
  - # 1
    frequency:   -0.0225913770
  - # 2
    frequency:    0.1716507603
  - # 3
    frequency:    0.2315713105
  - # 4
    frequency:    1.9950046134
  - # 5
    frequency:    2.0064743878
  - # 6
    frequency:    2.4239831511
  - # 7
    frequency:    2.4277029398
  - # 8
    frequency:    4.8082599235
  - # 9
    frequency:    4.8099578054
  - # 10
    frequency:    4.9252304088
  - # 11
    frequency:    4.9603103445
  - # 12
    frequency:    5.0142801390
  - # 13
    frequency:    6.6339404959
  - # 14
    frequency:    6.6350782624
  - # 15
    frequency:    7.8917931846
  - # 16
    frequency:   11.3078841880
  - # 17
    frequency:   13.9029978185
  - # 18
    frequency:   14.5708799884
  - # 19
    frequency:   14.5722137594
  - # 20
    frequency:   34.2474789807
  - # 21
    frequency:   34.2507257575

- q-position: [    0.0151515,    0.0000000,    0.0000000 ]
  distance:    0.0053747
  band:
  - # 1
    frequency:   -0.0307682058
  - # 2
    frequency:    0.2571848664
  - # 3
    frequency:    0.3465328697
  - # 4
    frequency:    1.9794699277
  - # 5
    frequency:    2.0051448253
  - # 6
    frequency:    2.4460978827
  - # 7
    frequency:    2.4545948794
  - # 8
    frequency:    4.8079546844
  - # 9
    frequency:    4.8116165035
  - # 10
    frequency:    4.9059151485
  - # 11
    frequency:    4.9617136055
  - # 12
    frequency:    5.0377193979
  - # 13
    frequency:    6.6354533522
  - # 14
    frequency:    6.6380162537
  - # 15
    frequency:    7.8929813488
  - # 16
    frequency:   11.3042855294
  - # 17
    frequency:   13.9050120483
  - # 18
    frequency:   14.5702560839
  - # 19
    frequency:   14.5732487166
  - # 20
    frequency:   34.2461322559
  - # 21
    frequency:   34.2493893467

- q-position: [    0.0202020,    0.0000000,    0.0000000 ]
  distance:    0.0071663
  band:
  - # 1
    frequency:   -0.0343709464
  - # 2
    frequency:    0.3423706081
  - # 3
    frequency:    0.4604987644
  - # 4
    frequency:    1.9600255052
  - # 5
    frequency:    2.0054747421
  - # 6
    frequency:    2.4746036516
  - # 7
    frequency:    2.4898833863
  - # 8
    frequency:    4.8075407362
  - # 9
    frequency:    4.8135798827
  - # 10
    frequency:    4.8876434231
  - # 11
    frequency:    4.9636491703
  - # 12
    frequency:    5.0620426069
  - # 13
    frequency:    6.6375656339
  - # 14
    frequency:    6.6421287331
  - # 15
    frequency:    7.8946471900
  - # 16
    frequency:   11.2992608919
  - # 17
    frequency:   13.9078060885
  - # 18
    frequency:   14.5693899818
  - # 19
    frequency:   14.5746894784
  - # 20
    frequency:   34.2442511019
  - # 21
    frequency:   34.2475220538

- q-position: [    0.0252525,    0.0000000,    0.0000000 ]
  distance:    0.0089578
  band:
  - # 1
    frequency:   -0.0290066545
  - # 2
    frequency:    0.4270932480
  - # 3
    frequency:    0.5731268892
  - # 4
    frequency:    1.9379683550
  - # 5
    frequency:    2.0087821829
  - # 6
    frequency:    2.5080582264
  - # 7
    frequency:    2.5320677272
  - # 8
    frequency:    4.8070302364
  - # 9
    frequency:    4.8152183950
  - # 10
    frequency:    4.8710619588
  - # 11
    frequency:    4.9660888792
  - # 12
    frequency:    5.0871537797
  - # 13
    frequency:    6.6402716889
  - # 14
    frequency:    6.6474140496
  - # 15
    frequency:    7.8967932414
  - # 16
    frequency:   11.2928236721
  - # 17
    frequency:   13.9113543891
  - # 18
    frequency:   14.5682889974
  - # 19
    frequency:   14.5765279240
  - # 20
    frequency:   34.2418397547
  - # 21
    frequency:   34.2451275519

- q-position: [    0.0303030,    0.0000000,    0.0000000 ]
  distance:    0.0107494
  band:
  - # 1
    frequency:    0.0233036880
  - # 2
    frequency:    0.5112381200
  - # 3
    frequency:    0.6840685404
  - # 4
    frequency:    1.9142951169
  - # 5
    frequency:    2.0161077608
  - # 6
    frequency:    2.5452860189
  - # 7
    frequency:    2.5798574216
  - # 8
    frequency:    4.8064372621
  - # 9
    frequency:    4.8150171332
  - # 10
    frequency:    4.8576223496
  - # 11
    frequency:    4.9689975493
  - # 12
    frequency:    5.1130178775
  - # 13
    frequency:    6.6435643413
  - # 14
    frequency:    6.6538687756
  - # 15
    frequency:    7.8994229312
  - # 16
    frequency:   11.2849909699
  - # 17
    frequency:   13.9156245680
  - # 18
    frequency:   14.5669624649
  - # 19
    frequency:   14.5787536942
  - # 20
    frequency:   34.2389036253
  - # 21
    frequency:   34.2422105514

- q-position: [    0.0353535,    0.0000000,    0.0000000 ]
  distance:    0.0125410
  band:
  - # 1
    frequency:    0.0593678324
  - # 2
    frequency:    0.5946892385
  - # 3
    frequency:    0.7929696553
  - # 4
    frequency:    1.8897153275
  - # 5
    frequency:    2.0281709329
  - # 6
    frequency:    2.5853705350
  - # 7
    frequency:    2.6322111383
  - # 8
    frequency:    4.8057769443
  - # 9
    frequency:    4.8102195731
  - # 10
    frequency:    4.8499814672
  - # 11
    frequency:    4.9723334861
  - # 12
    frequency:    5.1396188299
  - # 13
    frequency:    6.6474349582
  - # 14
    frequency:    6.6614867994
  - # 15
    frequency:    7.9025407052
  - # 16
    frequency:   11.2757834985
  - # 17
    frequency:   13.9205777541
  - # 18
    frequency:   14.5654216828
  - # 19
    frequency:   14.5813542523
  - # 20
    frequency:   34.2354492739
  - # 21
    frequency:   34.2387767902

- q-position: [    0.0404040,    0.0000000,    0.0000000 ]
  distance:    0.0143325
  band:
  - # 1
    frequency:    0.0933686393
  - # 2
    frequency:    0.6773269044
  - # 3
    frequency:    0.8994741765
  - # 4
    frequency:    1.8647149535
  - # 5
    frequency:    2.0453911279
  - # 6
    frequency:    2.6275977963
  - # 7
    frequency:    2.6883138255
  - # 8
    frequency:    4.7999062499
  - # 9
    frequency:    4.8050646521
  - # 10
    frequency:    4.8489364179
  - # 11
    frequency:    4.9760489123
  - # 12
    frequency:    5.1669485028
  - # 13
    frequency:    6.6518735280
  - # 14
    frequency:    6.6702582950
  - # 15
    frequency:    7.9061521711
  - # 16
    frequency:   11.2652254768
  - # 17
    frequency:   13.9261689955
  - # 18
    frequency:   14.5636798456
  - # 19
    frequency:   14.5843149561
  - # 20
    frequency:   34.2314843773
  - # 21
    frequency:   34.2348330227

- q-position: [    0.0454545,    0.0000000,    0.0000000 ]
  distance:    0.0161241
  band:
  - # 1
    frequency:    0.1295127692
  - # 2
    frequency:    0.7590239634
  - # 3
    frequency:    1.0032299849
  - # 4
    frequency:    1.8396216796
  - # 5
    frequency:    2.0679282504
  - # 6
    frequency:    2.6713993860
  - # 7
    frequency:    2.7475372571
  - # 8
    frequency:    4.7866004316
  - # 9
    frequency:    4.8043152887
  - # 10
    frequency:    4.8518257109
  - # 11
    frequency:    4.9800902871
  - # 12
    frequency:    5.1950028640
  - # 13
    frequency:    6.6568687507
  - # 14
    frequency:    6.6801686166
  - # 15
    frequency:    7.9102642590
  - # 16
    frequency:   11.2533445063
  - # 17
    frequency:   13.9323477307
  - # 18
    frequency:   14.5617519601
  - # 19
    frequency:   14.5876191436
  - # 20
    frequency:   34.2270176917
  - # 21
    frequency:   34.2303870067

- q-position: [    0.0505051,    0.0000000,    0.0000000 ]
  distance:    0.0179157
  band:
  - # 1
    frequency:    0.1683784705
  - # 2
    frequency:    0.8396401497
  - # 3
    frequency:    1.1038975843
  - # 4
    frequency:    1.8146581789
  - # 5
    frequency:    2.0957231876
  - # 6
    frequency:    2.7163092643
  - # 7
    frequency:    2.8094021335
  - # 8
    frequency:    4.7723152345
  - # 9
    frequency:    4.8035427289
  - # 10
    frequency:    4.8564871185
  - # 11
    frequency:    4.9843985192
  - # 12
    frequency:    5.2237804044
  - # 13
    frequency:    6.6624081372
  - # 14
    frequency:    6.6911971687
  - # 15
    frequency:    7.9148853948
  - # 16
    frequency:   11.2401714343
  - # 17
    frequency:   13.9390583143
  - # 18
    frequency:   14.5596547470
  - # 19
    frequency:   14.5912482280
  - # 20
    frequency:   34.2220590092
  - # 21
    frequency:   34.2254474884

- q-position: [    0.0555556,    0.0000000,    0.0000000 ]
  distance:    0.0197073
  band:
  - # 1
    frequency:    0.2099783802
  - # 2
    frequency:    0.9190134927
  - # 3
    frequency:    1.2011612156
  - # 4
    frequency:    1.7899838471
  - # 5
    frequency:    2.1285323952
  - # 6
    frequency:    2.7619347287
  - # 7
    frequency:    2.8735461681
  - # 8
    frequency:    4.7578693790
  - # 9
    frequency:    4.8027594057
  - # 10
    frequency:    4.8619464083
  - # 11
    frequency:    4.9889091119
  - # 12
    frequency:    5.2532814396
  - # 13
    frequency:    6.6684781171
  - # 14
    frequency:    6.7033163091
  - # 15
    frequency:    7.9200256799
  - # 16
    frequency:   11.2257402048
  - # 17
    frequency:   13.9462405930
  - # 18
    frequency:   14.5574065247
  - # 19
    frequency:   14.5951818042
  - # 20
    frequency:   34.2166191087
  - # 21
    frequency:   34.2200241866

- q-position: [    0.0606061,    0.0000000,    0.0000000 ]
  distance:    0.0214988
  band:
  - # 1
    frequency:    0.2541437489
  - # 2
    frequency:    0.9969468018
  - # 3
    frequency:    1.2947413091
  - # 4
    frequency:    1.7657300619
  - # 5
    frequency:    2.1659562498
  - # 6
    frequency:    2.8079382904
  - # 7
    frequency:    2.9396974992
  - # 8
    frequency:    4.7435705104
  - # 9
    frequency:    4.8019760346
  - # 10
    frequency:    4.8677384990
  - # 11
    frequency:    4.9935522958
  - # 12
    frequency:    5.2835078369
  - # 13
    frequency:    6.6750641527
  - # 14
    frequency:    6.7164903451
  - # 15
    frequency:    7.9256970698
  - # 16
    frequency:   11.2100876992
  - # 17
    frequency:   13.9538305249
  - # 18
    frequency:   14.5550270763
  - # 19
    frequency:   14.5993977647
  - # 20
    frequency:   34.2107097006
  - # 21
    frequency:   34.2141277753

- q-position: [    0.0656566,    0.0000000,    0.0000000 ]
  distance:    0.0232904
  band:
  - # 1
    frequency:    0.3006327706
  - # 2
    frequency:    1.0731851578
  - # 3
    frequency:    1.3844063157
  - # 4
    frequency:    1.7420362226
  - # 5
    frequency:    2.2074632220
  - # 6
    frequency:    2.8540271605
  - # 7
    frequency:    3.0076514969
  - # 8
    frequency:    4.7295355647
  - # 9
    frequency:    4.8012014575
  - # 10
    frequency:    4.8735917954
  - # 11
    frequency:    4.9982532215
  - # 12
    frequency:    5.3144629985
  - # 13
    frequency:    6.6821508580
  - # 14
    frequency:    6.7306746796
  - # 15
    frequency:    7.9319135449
  - # 16
    frequency:   11.1932535689
  - # 17
    frequency:   13.9617608347
  - # 18
    frequency:   14.5525374971
  - # 19
    frequency:   14.6038724239
  - # 20
    frequency:   34.2043433657
  - # 21
    frequency:   34.2077698662

- q-position: [    0.0707071,    0.0000000,    0.0000000 ]
  distance:    0.0250820
  band:
  - # 1
    frequency:    0.3491744285
  - # 2
    frequency:    1.1473755731
  - # 3
    frequency:    1.4699813136
  - # 4
    frequency:    1.7190978483
  - # 5
    frequency:    2.2524129365
  - # 6
    frequency:    2.8999477944
  - # 7
    frequency:    3.0772491259
  - # 8
    frequency:    4.7158044346
  - # 9
    frequency:    4.8004425825
  - # 10
    frequency:    4.8793196261
  - # 11
    frequency:    5.0029322869
  - # 12
    frequency:    5.3461520362
  - # 13
    frequency:    6.6897221205
  - # 14
    frequency:    6.7458151609
  - # 15
    frequency:    7.9386912628
  - # 16
    frequency:   11.1752800609
  - # 17
    frequency:   13.9699616987
  - # 18
    frequency:   14.5499600238
  - # 19
    frequency:   14.6085806496
  - # 20
    frequency:   34.1975334880
  - # 21
    frequency:   34.2009629910

- q-position: [    0.0757576,    0.0000000,    0.0000000 ]
  distance:    0.0268735
  band:
  - # 1
    frequency:    0.3994902430
  - # 2
    frequency:    1.2189884742
  - # 3
    frequency:    1.5513508108
  - # 4
    frequency:    1.6972487905
  - # 5
    frequency:    2.3000811670
  - # 6
    frequency:    2.9454837019
  - # 7
    frequency:    3.1483555305
  - # 8
    frequency:    4.7023844363
  - # 9
    frequency:    4.7997043972
  - # 10
    frequency:    4.8847815107
  - # 11
    frequency:    5.0075056741
  - # 12
    frequency:    5.3785821083
  - # 13
    frequency:    6.6977612244
  - # 14
    frequency:    6.7618476836
  - # 15
    frequency:    7.9460486820
  - # 16
    frequency:   11.1562118378
  - # 17
    frequency:   13.9783614514
  - # 18
    frequency:   14.5473178441
  - # 19
    frequency:   14.6134960027
  - # 20
    frequency:   34.1902941791
  - # 21
    frequency:   34.1937205848

- q-position: [    0.0808081,    0.0000000,    0.0000000 ]
  distance:    0.0286651
  band:
  - # 1
    frequency:    0.4513060011
  - # 2
    frequency:    1.2871516322
  - # 3
    frequency:    1.6284541267
  - # 4
    frequency:    1.6771280753
  - # 5
    frequency:    2.3496886522
  - # 6
    frequency:    2.9904553048
  - # 7
    frequency:    3.2208380884
  - # 8
    frequency:    4.6892716643
  - # 9
    frequency:    4.7989900378
  - # 10
    frequency:    4.8898684900
  - # 11
    frequency:    5.0118861599
  - # 12
    frequency:    5.4117629046
  - # 13
    frequency:    6.7062509729
  - # 14
    frequency:    6.7786980757
  - # 15
    frequency:    7.9540066456
  - # 16
    frequency:   11.1360957958
  - # 17
    frequency:   13.9868873067
  - # 18
    frequency:   14.5446348893
  - # 19
    frequency:   14.6185908806
  - # 20
    frequency:   34.1826401969
  - # 21
    frequency:   34.1860569713

- q-position: [    0.0858586,    0.0000000,    0.0000000 ]
  distance:    0.0304567
  band:
  - # 1
    frequency:    0.5043579143
  - # 2
    frequency:    1.3502757786
  - # 3
    frequency:    1.6600529177
  - # 4
    frequency:    1.7012734732
  - # 5
    frequency:    2.4004335619
  - # 6
    frequency:    3.0347210145
  - # 7
    frequency:    3.2945436931
  - # 8
    frequency:    4.6764647305
  - # 9
    frequency:    4.7983008976
  - # 10
    frequency:    4.8944975010
  - # 11
    frequency:    5.0159842543
  - # 12
    frequency:    5.4457072610
  - # 13
    frequency:    6.7151738090
  - # 14
    frequency:    6.7962822958
  - # 15
    frequency:    7.9625884110
  - # 16
    frequency:   11.1149808788
  - # 17
    frequency:   13.9954660845
  - # 18
    frequency:   14.5419356090
  - # 19
    frequency:   14.6238366667
  - # 20
    frequency:   34.1745868551
  - # 21
    frequency:   34.1779873509

- q-position: [    0.0909091,    0.0000000,    0.0000000 ]
  distance:    0.0322482
  band:
  - # 1
    frequency:    0.5583952720
  - # 2
    frequency:    1.4052320318
  - # 3
    frequency:    1.6488383085
  - # 4
    frequency:    1.7698167176
  - # 5
    frequency:    2.4515252207
  - # 6
    frequency:    3.0781789568
  - # 7
    frequency:    3.3692753572
  - # 8
    frequency:    4.6639769600
  - # 9
    frequency:    4.7976367658
  - # 10
    frequency:    4.8986094242
  - # 11
    frequency:    5.0197097035
  - # 12
    frequency:    5.4804318854
  - # 13
    frequency:    6.7245119316
  - # 14
    frequency:    6.8145069511
  - # 15
    frequency:    7.9718196133
  - # 16
    frequency:   11.0929178927
  - # 17
    frequency:   14.0040249325
  - # 18
    frequency:   14.5392447355
  - # 19
    frequency:   14.6292038827
  - # 20
    frequency:   34.1661499238
  - # 21
    frequency:   34.1695277932

- q-position: [    0.0959596,    0.0000000,    0.0000000 ]
  distance:    0.0340398
  band:
  - # 1
    frequency:    0.6131807612
  - # 2
    frequency:    1.4462013169
  - # 3
    frequency:    1.6489433858
  - # 4
    frequency:    1.8340979928
  - # 5
    frequency:    2.5022152755
  - # 6
    frequency:    3.1207689258
  - # 7
    frequency:    3.4447682354
  - # 8
    frequency:    4.6518501367
  - # 9
    frequency:    4.7969959868
  - # 10
    frequency:    4.9021687290
  - # 11
    frequency:    5.0229733735
  - # 12
    frequency:    5.5159581673
  - # 13
    frequency:    6.7342474067
  - # 14
    frequency:    6.8332701334
  - # 15
    frequency:    7.9817281470
  - # 16
    frequency:   11.0699593198
  - # 17
    frequency:   14.0124920339
  - # 18
    frequency:   14.5365870399
  - # 19
    frequency:   14.6346623436
  - # 20
    frequency:   34.1573455214
  - # 21
    frequency:   34.1606952337

- q-position: [    0.1010101,    0.0000000,    0.0000000 ]
  distance:    0.0358314
  band:
  - # 1
    frequency:    0.6684891987
  - # 2
    frequency:    1.4665635520
  - # 3
    frequency:    1.6665771444
  - # 4
    frequency:    1.8941193861
  - # 5
    frequency:    2.5518224307
  - # 6
    frequency:    3.1624742199
  - # 7
    frequency:    3.5206647390
  - # 8
    frequency:    4.6401720497
  - # 9
    frequency:    4.7963756382
  - # 10
    frequency:    4.9051639092
  - # 11
    frequency:    5.0256895094
  - # 12
    frequency:    5.5523130373
  - # 13
    frequency:    6.7443622707
  - # 14
    frequency:    6.8524625577
  - # 15
    frequency:    7.9923439543
  - # 16
    frequency:   11.0461591335
  - # 17
    frequency:   14.0207972866
  - # 18
    frequency:   14.5339870891
  - # 19
    frequency:   14.6401813138
  - # 20
    frequency:   34.1481899976
  - # 21
    frequency:   34.1515074761

- q-position: [    0.1060606,    0.0000000,    0.0000000 ]
  distance:    0.0376229
  band:
  - # 1
    frequency:    0.7241051684
  - # 2
    frequency:    1.4668832457
  - # 3
    frequency:    1.7007071585
  - # 4
    frequency:    1.9498560290
  - # 5
    frequency:    2.5997480864
  - # 6
    frequency:    3.2033230286
  - # 7
    frequency:    3.5964875332
  - # 8
    frequency:    4.6291000780
  - # 9
    frequency:    4.7957717225
  - # 10
    frequency:    4.9076084693
  - # 11
    frequency:    5.0277783400
  - # 12
    frequency:    5.5895298314
  - # 13
    frequency:    6.7548386259
  - # 14
    frequency:    6.8719689781
  - # 15
    frequency:    8.0036987066
  - # 16
    frequency:   11.0215726153
  - # 17
    frequency:   14.0288729406
  - # 18
    frequency:   14.5314690134
  - # 19
    frequency:   14.6457296645
  - # 20
    frequency:   34.1386998106
  - # 21
    frequency:   34.1419831966

- q-position: [    0.1111111,    0.0000000,    0.0000000 ]
  distance:    0.0394145
  band:
  - # 1
    frequency:    0.7798198762
  - # 2
    frequency:    1.4544342518
  - # 3
    frequency:    1.7435289285
  - # 4
    frequency:    2.0012455690
  - # 5
    frequency:    2.6454820679
  - # 6
    frequency:    3.2433889989
  - # 7
    frequency:    3.6716080881
  - # 8
    frequency:    4.6188932823
  - # 9
    frequency:    4.7951793734
  - # 10
    frequency:    4.9095425404
  - # 11
    frequency:    5.0291689713
  - # 12
    frequency:    5.6276491085
  - # 13
    frequency:    6.7656587244
  - # 14
    frequency:    6.8916698469
  - # 15
    frequency:    8.0158253729
  - # 16
    frequency:   10.9962561742
  - # 17
    frequency:   14.0366541780
  - # 18
    frequency:   14.5290562973
  - # 19
    frequency:   14.6512760290
  - # 20
    frequency:   34.1288914038
  - # 21
    frequency:   34.1321419468

- q-position: [    0.1161616,    0.0000000,    0.0000000 ]
  distance:    0.0412061
  band:
  - # 1
    frequency:    0.8354273898
  - # 2
    frequency:    1.4350548923
  - # 3
    frequency:    1.7886050583
  - # 4
    frequency:    2.0481818095
  - # 5
    frequency:    2.6885994140
  - # 6
    frequency:    3.2827905365
  - # 7
    frequency:    3.7452077242
  - # 8
    frequency:    4.6099553234
  - # 9
    frequency:    4.7945930752
  - # 10
    frequency:    4.9110354663
  - # 11
    frequency:    5.0298024918
  - # 12
    frequency:    5.6667193503
  - # 13
    frequency:    6.7768050425
  - # 14
    frequency:    6.9114431752
  - # 15
    frequency:    8.0287576697
  - # 16
    frequency:   10.9702671680
  - # 17
    frequency:   14.0440796164
  - # 18
    frequency:   14.5267716075
  - # 19
    frequency:   14.6567889580
  - # 20
    frequency:   34.1187810944
  - # 21
    frequency:   34.1220041420

- q-position: [    0.1212121,    0.0000000,    0.0000000 ]
  distance:    0.0429976
  band:
  - # 1
    frequency:    0.8907203145
  - # 2
    frequency:    1.4116303461
  - # 3
    frequency:    1.8323778384
  - # 4
    frequency:    2.0905115456
  - # 5
    frequency:    2.7287504058
  - # 6
    frequency:    3.3216883135
  - # 7
    frequency:    3.8162293466
  - # 8
    frequency:    4.6028884757
  - # 9
    frequency:    4.7940068958
  - # 10
    frequency:    4.9121900015
  - # 11
    frequency:    5.0296351856
  - # 12
    frequency:    5.7067974605
  - # 13
    frequency:    6.7882603404
  - # 14
    frequency:    6.9311665514
  - # 15
    frequency:    8.0425293961
  - # 16
    frequency:   10.9436637285
  - # 17
    frequency:   14.0510917192
  - # 18
    frequency:   14.5246366736
  - # 19
    frequency:   14.6622370713
  - # 20
    frequency:   34.1083849925
  - # 21
    frequency:   34.1115910185

- q-position: [    0.1262626,    0.0000000,    0.0000000 ]
  distance:    0.0447892
  band:
  - # 1
    frequency:    0.9454848427
  - # 2
    frequency:    1.3854321352
  - # 3
    frequency:    1.8728258795
  - # 4
    frequency:    2.1280333312
  - # 5
    frequency:    2.7656465332
  - # 6
    frequency:    3.3602803999
  - # 7
    frequency:    3.8833249414
  - # 8
    frequency:    4.5985514265
  - # 9
    frequency:    4.7934147319
  - # 10
    frequency:    4.9131492192
  - # 11
    frequency:    5.0286417351
  - # 12
    frequency:    5.7479489562
  - # 13
    frequency:    6.8000077099
  - # 14
    frequency:    6.9507192669
  - # 15
    frequency:    8.0571736666
  - # 16
    frequency:   10.9165045889
  - # 17
    frequency:   14.0576370947
  - # 18
    frequency:   14.5226722382
  - # 19
    frequency:   14.6675892073
  - # 20
    frequency:   34.0977189786
  - # 21
    frequency:   34.1009245309

- q-position: [    0.1313131,    0.0000000,    0.0000000 ]
  distance:    0.0465808
  band:
  - # 1
    frequency:    0.9994950130
  - # 2
    frequency:    1.3569921875
  - # 3
    frequency:    1.9085876634
  - # 4
    frequency:    2.1604969565
  - # 5
    frequency:    2.7990450503
  - # 6
    frequency:    3.3987944738
  - # 7
    frequency:    3.9448232737
  - # 8
    frequency:    4.5980934305
  - # 9
    frequency:    4.7928105637
  - # 10
    frequency:    4.9141079839
  - # 11
    frequency:    5.0268182779
  - # 12
    frequency:    5.7902477223
  - # 13
    frequency:    6.8120306069
  - # 14
    frequency:    6.9699844974
  - # 15
    frequency:    8.0727220608
  - # 16
    frequency:   10.8888489151
  - # 17
    frequency:   14.0636666673
  - # 18
    frequency:   14.5208980899
  - # 19
    frequency:   14.6728145672
  - # 20
    frequency:   34.0867987676
  - # 21
    frequency:   34.0900271637

- q-position: [    0.1363636,    0.0000000,    0.0000000 ]
  distance:    0.0483723
  band:
  - # 1
    frequency:    1.0525058980
  - # 2
    frequency:    1.3264853291
  - # 3
    frequency:    1.9385781762
  - # 4
    frequency:    2.1876026224
  - # 5
    frequency:    2.8287343938
  - # 6
    frequency:    3.4374767557
  - # 7
    frequency:    3.9987803638
  - # 8
    frequency:    4.6028981102
  - # 9
    frequency:    4.7921887127
  - # 10
    frequency:    4.9153321593
  - # 11
    frequency:    5.0241851817
  - # 12
    frequency:    5.8337751778
  - # 13
    frequency:    6.8243128705
  - # 14
    frequency:    6.9888514874
  - # 15
    frequency:    8.0892037227
  - # 16
    frequency:   10.8607561389
  - # 17
    frequency:   14.0691357114
  - # 18
    frequency:   14.5193331890
  - # 19
    frequency:   14.6778828564
  - # 20
    frequency:   34.0756400777
  - # 21
    frequency:   34.0789216387

- q-position: [    0.1414141,    0.0000000,    0.0000000 ]
  distance:    0.0501639
  band:
  - # 1
    frequency:    1.1042453058
  - # 2
    frequency:    1.2938901092
  - # 3
    frequency:    1.9618281095
  - # 4
    frequency:    2.2089990547
  - # 5
    frequency:    2.8545222830
  - # 6
    frequency:    3.4765777075
  - # 7
    frequency:    4.0432147568
  - # 8
    frequency:    4.6143287533
  - # 9
    frequency:    4.7915440900
  - # 10
    frequency:    4.9171909399
  - # 11
    frequency:    5.0207894019
  - # 12
    frequency:    5.8786186857
  - # 13
    frequency:    6.8368387261
  - # 14
    frequency:    7.0072176824
  - # 15
    frequency:    8.1066444498
  - # 16
    frequency:   10.8322857961
  - # 17
    frequency:   14.0740037418
  - # 18
    frequency:   14.5179958922
  - # 19
    frequency:   14.6827644187
  - # 20
    frequency:   34.0642588890
  - # 21
    frequency:   34.0676305335

- q-position: [    0.1464646,    0.0000000,    0.0000000 ]
  distance:    0.0519555
  band:
  - # 1
    frequency:    1.1544034069
  - # 2
    frequency:    1.2590563759
  - # 3
    frequency:    1.9774156557
  - # 4
    frequency:    2.2242800394
  - # 5
    frequency:    2.8762279239
  - # 6
    frequency:    3.5163351281
  - # 7
    frequency:    4.0765862824
  - # 8
    frequency:    4.6332071759
  - # 9
    frequency:    4.7908724155
  - # 10
    frequency:    4.9202109642
  - # 11
    frequency:    5.0167063088
  - # 12
    frequency:    5.9248690389
  - # 13
    frequency:    6.8495927762
  - # 14
    frequency:    7.0249907592
  - # 15
    frequency:    8.1250658209
  - # 16
    frequency:   10.8034973660
  - # 17
    frequency:   14.0782342655
  - # 18
    frequency:   14.5169042707
  - # 19
    frequency:   14.6874303670
  - # 20
    frequency:   34.0526717322
  - # 21
    frequency:   34.0561758729

- q-position: [    0.1515152,    0.0000000,    0.0000000 ]
  distance:    0.0537471
  band:
  - # 1
    frequency:    1.2026194709
  - # 2
    frequency:    1.2217303307
  - # 3
    frequency:    1.9844373526
  - # 4
    frequency:    2.2329790522
  - # 5
    frequency:    2.8936795020
  - # 6
    frequency:    3.5569559489
  - # 7
    frequency:    4.0983529372
  - # 8
    frequency:    4.6591799306
  - # 9
    frequency:    4.7901703740
  - # 10
    frequency:    4.9251632686
  - # 11
    frequency:    5.0120409021
  - # 12
    frequency:    5.9726168760
  - # 13
    frequency:    6.8625599764
  - # 14
    frequency:    7.0420905073
  - # 15
    frequency:    8.1444844138
  - # 16
    frequency:   10.7744501150
  - # 17
    frequency:   14.0817944089
  - # 18
    frequency:   14.5160765076
  - # 19
    frequency:   14.6918527060
  - # 20
    frequency:   34.0408959151
  - # 21
    frequency:   34.0445787846