nqpoint: 300    
npath: 3      
segment_nqpoint:
- 100
- 100
- 100
labels:
- [ 'G', 'M' ]
- [ 'M', 'K' ]
- [ 'K', 'G' ]
reciprocal_lattice:
- [   0.27865646,   0.16088238,   0.00000000 ] # a*
- [   0.00000000,   0.32176476,   0.00000000 ] # b*
- [   0.00000000,   0.00000000,   0.04018083 ] # c*
natom: 6      
lattice:
- [     3.588648243076679,     0.000000000000000,     0.000000000000000 ] # a
- [    -1.794324121538339,     3.107860543761817,     0.000000000000000 ] # b
- [     0.000000000000000,     0.000000000000000,    24.887491093789183 ] # c
points:
- symbol: Br # 1
  coordinates: [  0.333332985432215,  0.666666983183674,  0.638372547635145 ]
  mass: 79.904000
- symbol: H # 2
  coordinates: [  0.666666984744047,  0.333332985985145,  0.361627452364855 ]
  mass: 1.007940
- symbol: N # 3
  coordinates: [  0.000000000000000,  0.000000000000000,  0.504749266110172 ]
  mass: 14.006700
- symbol: O # 4
  coordinates: [  0.666666984744047,  0.333332985985145,  0.401313967670371 ]
  mass: 15.999400
- symbol: Y # 5
  coordinates: [  0.333332985432215,  0.666666983183674,  0.452551210075101 ]
  mass: 88.905850
- symbol: Y # 6
  coordinates: [  0.666666984744047,  0.333332985985145,  0.558550126704938 ]
  mass: 88.905850

phonon:
- q-position: [    0.0000000,    0.0000000,    0.0000000 ]
  distance:    0.0000000
  band:
  - # 1
    frequency:   -0.0000123925
  - # 2
    frequency:   -0.0000006260
  - # 3
    frequency:    0.0000120300
  - # 4
    frequency:    2.8599836133
  - # 5
    frequency:    2.8599836134
  - # 6
    frequency:    4.3042201662
  - # 7
    frequency:    4.6793902801
  - # 8
    frequency:    4.6793902801
  - # 9
    frequency:    7.1216539431
  - # 10
    frequency:    7.1216539431
  - # 11
    frequency:    7.2560881774
  - # 12
    frequency:   10.6987470695
  - # 13
    frequency:   11.2304891999
  - # 14
    frequency:   11.4803209228
  - # 15
    frequency:   11.4803209228
  - # 16
    frequency:   14.2333170372
  - # 17
    frequency:   14.2333170372
  - # 18
    frequency:  112.3157553005

- q-position: [    0.0050505,    0.0000000,    0.0000000 ]
  distance:    0.0016251
  band:
  - # 1
    frequency:   -0.0013065187
  - # 2
    frequency:    0.0225952407
  - # 3
    frequency:    0.0570603106
  - # 4
    frequency:    2.8606056434
  - # 5
    frequency:    2.8611429567
  - # 6
    frequency:    4.3032753131
  - # 7
    frequency:    4.6790355404
  - # 8
    frequency:    4.6797694623
  - # 9
    frequency:    7.1208666587
  - # 10
    frequency:    7.1214973146
  - # 11
    frequency:    7.2556169340
  - # 12
    frequency:   10.6977854372
  - # 13
    frequency:   11.2291053821
  - # 14
    frequency:   11.4788025669
  - # 15
    frequency:   11.4805032641
  - # 16
    frequency:   14.2323103586
  - # 17
    frequency:   14.2332699323
  - # 18
    frequency:  112.3148780391

- q-position: [    0.0101010,    0.0000000,    0.0000000 ]
  distance:    0.0032501
  band:
  - # 1
    frequency:   -0.0050755588
  - # 2
    frequency:    0.0460358898
  - # 3
    frequency:    0.1140060834
  - # 4
    frequency:    2.8624711712
  - # 5
    frequency:    2.8646092203
  - # 6
    frequency:    4.3004577961
  - # 7
    frequency:    4.6779739952
  - # 8
    frequency:    4.6808922449
  - # 9
    frequency:    7.1184920727
  - # 10
    frequency:    7.1210281115
  - # 11
    frequency:    7.2542154458
  - # 12
    frequency:   10.6948981093
  - # 13
    frequency:   11.2249607794
  - # 14
    frequency:   11.4742517682
  - # 15
    frequency:   11.4810470407
  - # 16
    frequency:   14.2292964318
  - # 17
    frequency:   14.2331286120
  - # 18
    frequency:  112.3122494423

- q-position: [    0.0151515,    0.0000000,    0.0000000 ]
  distance:    0.0048752
  band:
  - # 1
    frequency:   -0.0109017345
  - # 2
    frequency:    0.0710377353
  - # 3
    frequency:    0.1707238844
  - # 4
    frequency:    2.8655784485
  - # 5
    frequency:    2.8703473139
  - # 6
    frequency:    4.2958172705
  - # 7
    frequency:    4.6762136404
  - # 8
    frequency:    4.6827157718
  - # 9
    frequency:    7.1144931321
  - # 10
    frequency:    7.1202483720
  - # 11
    frequency:    7.2519193760
  - # 12
    frequency:   10.6900776141
  - # 13
    frequency:   11.2180758672
  - # 14
    frequency:   11.4666815476
  - # 15
    frequency:   11.4819425233
  - # 16
    frequency:   14.2242935862
  - # 17
    frequency:   14.2328930710
  - # 18
    frequency:  112.3078790612

- q-position: [    0.0202020,    0.0000000,    0.0000000 ]
  distance:    0.0065003
  band:
  - # 1
    frequency:   -0.0182250450
  - # 2
    frequency:    0.0981226105
  - # 3
    frequency:    0.2271024994
  - # 4
    frequency:    2.8699243606
  - # 5
    frequency:    2.8782994324
  - # 6
    frequency:    4.2894319353
  - # 7
    frequency:    4.6737677167
  - # 8
    frequency:    4.6851730534
  - # 9
    frequency:    7.1088118949
  - # 10
    frequency:    7.1191614651
  - # 11
    frequency:    7.2487846272
  - # 12
    frequency:   10.6833109136
  - # 13
    frequency:   11.2084844842
  - # 14
    frequency:   11.4561143395
  - # 15
    frequency:   11.4831735379
  - # 16
    frequency:   14.2173323750
  - # 17
    frequency:   14.2325633394
  - # 18
    frequency:  112.3017827743

- q-position: [    0.0252525,    0.0000000,    0.0000000 ]
  distance:    0.0081254
  band:
  - # 1
    frequency:   -0.0264220775
  - # 2
    frequency:    0.1276248141
  - # 3
    frequency:    0.2830340574
  - # 4
    frequency:    2.8755041308
  - # 5
    frequency:    2.8883860165
  - # 6
    frequency:    4.2814027678
  - # 7
    frequency:    4.6706545808
  - # 8
    frequency:    4.6881785476
  - # 9
    frequency:    7.1013751516
  - # 10
    frequency:    7.1177720490
  - # 11
    frequency:    7.2448821332
  - # 12
    frequency:   10.6745785578
  - # 13
    frequency:   11.1962332971
  - # 14
    frequency:   11.4425831734
  - # 15
    frequency:   11.4847175262
  - # 16
    frequency:   14.2084555782
  - # 17
    frequency:   14.2321395402
  - # 18
    frequency:  112.2939827286

- q-position: [    0.0303030,    0.0000000,    0.0000000 ]
  distance:    0.0097504
  band:
  - # 1
    frequency:   -0.0348544051
  - # 2
    frequency:    0.1597323525
  - # 3
    frequency:    0.3384151692
  - # 4
    frequency:    2.8823109174
  - # 5
    frequency:    2.9005069876
  - # 6
    frequency:    4.2718471873
  - # 7
    frequency:    4.6668975272
  - # 8
    frequency:    4.6916342409
  - # 9
    frequency:    7.0921018801
  - # 10
    frequency:    7.1160860144
  - # 11
    frequency:    7.2402909778
  - # 12
    frequency:   10.6638535724
  - # 13
    frequency:   11.1813808294
  - # 14
    frequency:   11.4261334926
  - # 15
    frequency:   11.4865456295
  - # 16
    frequency:   14.1977181956
  - # 17
    frequency:   14.2316219699
  - # 18
    frequency:  112.2845072567

- q-position: [    0.0353535,    0.0000000,    0.0000000 ]
  distance:    0.0113755
  band:
  - # 1
    frequency:   -0.0428752495
  - # 2
    frequency:    0.1945310065
  - # 3
    frequency:    0.3931480798
  - # 4
    frequency:    2.8903353165
  - # 5
    frequency:    2.9145431636
  - # 6
    frequency:    4.2608931406
  - # 7
    frequency:    4.6625245611
  - # 8
    frequency:    4.6954352345
  - # 9
    frequency:    7.0809117571
  - # 10
    frequency:    7.1141104144
  - # 11
    frequency:    7.2350906134
  - # 12
    frequency:   10.6511001611
  - # 13
    frequency:   11.1639958153
  - # 14
    frequency:   11.4068257814
  - # 15
    frequency:   11.4886227917
  - # 16
    frequency:   14.1851874235
  - # 17
    frequency:   14.2310111989
  - # 18
    frequency:  112.2733907707

- q-position: [    0.0404040,    0.0000000,    0.0000000 ]
  distance:    0.0130006
  band:
  - # 1
    frequency:   -0.0498036010
  - # 2
    frequency:    0.2320381784
  - # 3
    frequency:    0.4471418285
  - # 4
    frequency:    2.8995647861
  - # 5
    frequency:    2.9303577480
  - # 6
    frequency:    4.2486742605
  - # 7
    frequency:    4.6575681240
  - # 8
    frequency:    4.6994741874
  - # 9
    frequency:    7.0677335518
  - # 10
    frequency:    7.1118533829
  - # 11
    frequency:    7.2293533507
  - # 12
    frequency:   10.6362723454
  - # 13
    frequency:   11.1441545501
  - # 14
    frequency:   11.3847392266
  - # 15
    frequency:   11.4909078808
  - # 16
    frequency:   14.1709426019
  - # 17
    frequency:   14.2303081931
  - # 18
    frequency:  112.2606736337

- q-position: [    0.0454545,    0.0000000,    0.0000000 ]
  distance:    0.0146257
  band:
  - # 1
    frequency:   -0.0548637971
  - # 2
    frequency:    0.2722255089
  - # 3
    frequency:    0.5003134045
  - # 4
    frequency:    2.9099830106
  - # 5
    frequency:    2.9477977875
  - # 6
    frequency:    4.2353263642
  - # 7
    frequency:    4.6520647739
  - # 8
    frequency:    4.7036443535
  - # 9
    frequency:    7.0525121124
  - # 10
    frequency:    7.1093240426
  - # 11
    frequency:    7.2231384008
  - # 12
    frequency:   10.6193127130
  - # 13
    frequency:   11.1219368114
  - # 14
    frequency:   11.3599766868
  - # 15
    frequency:   11.4933538263
  - # 16
    frequency:   14.1550751224
  - # 17
    frequency:   14.2295144533
  - # 18
    frequency:  112.2464020083

- q-position: [    0.0505051,    0.0000000,    0.0000000 ]
  distance:    0.0162507
  band:
  - # 1
    frequency:   -0.0570596292
  - # 2
    frequency:    0.3150331071
  - # 3
    frequency:    0.5525888822
  - # 4
    frequency:    2.9215692332
  - # 5
    frequency:    2.9666954971
  - # 6
    frequency:    4.2209852506
  - # 7
    frequency:    4.6460548231
  - # 8
    frequency:    4.7078412511
  - # 9
    frequency:    7.0352129787
  - # 10
    frequency:    7.1065324060
  - # 11
    frequency:    7.2164884345
  - # 12
    frequency:   10.6001514985
  - # 13
    frequency:   11.0974198528
  - # 14
    frequency:   11.3326712681
  - # 15
    frequency:   11.4959077693
  - # 16
    frequency:   14.1376882814
  - # 17
    frequency:   14.2286321706
  - # 18
    frequency:  112.2306276839

- q-position: [    0.0555556,    0.0000000,    0.0000000 ]
  distance:    0.0178758
  band:
  - # 1
    frequency:   -0.0548599108
  - # 2
    frequency:    0.3603783211
  - # 3
    frequency:    0.6039045115
  - # 4
    frequency:    2.9342975821
  - # 5
    frequency:    2.9868693653
  - # 6
    frequency:    4.2057855848
  - # 7
    frequency:    4.6395819335
  - # 8
    frequency:    4.7119631862
  - # 9
    frequency:    7.0158243232
  - # 10
    frequency:    7.1034892718
  - # 11
    frequency:    7.2094289502
  - # 12
    frequency:   10.5787062708
  - # 13
    frequency:   11.0706699717
  - # 14
    frequency:   11.3029947530
  - # 15
    frequency:   11.4985112228
  - # 16
    frequency:   14.1188970676
  - # 17
    frequency:   14.2276643961
  - # 18
    frequency:  112.2134078818

- q-position: [    0.0606061,    0.0000000,    0.0000000 ]
  distance:    0.0195009
  band:
  - # 1
    frequency:   -0.0450630510
  - # 2
    frequency:    0.4081611327
  - # 3
    frequency:    0.6542077350
  - # 4
    frequency:    2.9481364242
  - # 5
    frequency:    3.0081249703
  - # 6
    frequency:    4.1898605843
  - # 7
    frequency:    4.6326926755
  - # 8
    frequency:    4.7159109119
  - # 9
    frequency:    6.9943566283
  - # 10
    frequency:    7.1002061187
  - # 11
    frequency:    7.2019700390
  - # 12
    frequency:   10.5548825296
  - # 13
    frequency:   11.0417313493
  - # 14
    frequency:   11.2711679069
  - # 15
    frequency:   11.5011002420
  - # 16
    frequency:   14.0988278695
  - # 17
    frequency:   14.2266152210
  - # 18
    frequency:  112.1948050404

- q-position: [    0.0656566,    0.0000000,    0.0000000 ]
  distance:    0.0211260
  band:
  - # 1
    frequency:   -0.0070510230
  - # 2
    frequency:    0.4582674728
  - # 3
    frequency:    0.7034580987
  - # 4
    frequency:    2.9630477808
  - # 5
    frequency:    3.0302554540
  - # 6
    frequency:    4.1733422313
  - # 7
    frequency:    4.6254360498
  - # 8
    frequency:    4.7195867055
  - # 9
    frequency:    6.9708409501
  - # 10
    frequency:    7.0966949991
  - # 11
    frequency:    7.1941096964
  - # 12
    frequency:   10.5285754946
  - # 13
    frequency:   11.0106124516
  - # 14
    frequency:   11.2374721130
  - # 15
    frequency:   11.5036056003
  - # 16
    frequency:   14.0776180938
  - # 17
    frequency:   14.2254899650
  - # 18
    frequency:  112.1748865799

- q-position: [    0.0707071,    0.0000000,    0.0000000 ]
  distance:    0.0227510
  band:
  - # 1
    frequency:    0.0568044463
  - # 2
    frequency:    0.5105712167
  - # 3
    frequency:    0.7516280210
  - # 4
    frequency:    2.9789868408
  - # 5
    frequency:    3.0530416277
  - # 6
    frequency:    4.1563617666
  - # 7
    frequency:    4.6178629770
  - # 8
    frequency:    4.7228931042
  - # 9
    frequency:    6.9453266876
  - # 10
    frequency:    7.0929684365
  - # 11
    frequency:    7.1858377562
  - # 12
    frequency:   10.4996732763
  - # 13
    frequency:   10.9772715478
  - # 14
    frequency:   11.2022606116
  - # 15
    frequency:   11.5059529723
  - # 16
    frequency:   14.0554156843
  - # 17
    frequency:   14.2242953672
  - # 18
    frequency:  112.1537246483

- q-position: [    0.0757576,    0.0000000,    0.0000000 ]
  distance:    0.0243761
  band:
  - # 1
    frequency:    0.0900660008
  - # 2
    frequency:    0.5649352910
  - # 3
    frequency:    0.7987033814
  - # 4
    frequency:    2.9959016054
  - # 5
    frequency:    3.0762517072
  - # 6
    frequency:    4.1390502618
  - # 7
    frequency:    4.6100257584
  - # 8
    frequency:    4.7257314958
  - # 9
    frequency:    6.9178795742
  - # 10
    frequency:    7.0890393267
  - # 11
    frequency:    7.1771397332
  - # 12
    frequency:   10.4680614266
  - # 13
    frequency:   10.9416050578
  - # 14
    frequency:   11.1659656513
  - # 15
    frequency:   11.5080631229
  - # 16
    frequency:   14.0323785357
  - # 17
    frequency:   14.2230397773
  - # 18
    frequency:  112.1313958488

- q-position: [    0.0808081,    0.0000000,    0.0000000 ]
  distance:    0.0260012
  band:
  - # 1
    frequency:    0.1222043678
  - # 2
    frequency:    0.6212121262
  - # 3
    frequency:    0.8446838950
  - # 4
    frequency:    3.0137326966
  - # 5
    frequency:    3.0996407055
  - # 6
    frequency:    4.1215390895
  - # 7
    frequency:    4.6019775103
  - # 8
    frequency:    4.7280007274
  - # 9
    frequency:    6.8885803027
  - # 10
    frequency:    7.0849208476
  - # 11
    frequency:    7.1680001584
  - # 12
    frequency:   10.4336285874
  - # 13
    frequency:   10.9034451571
  - # 14
    frequency:   11.1290954197
  - # 15
    frequency:   11.5098521028
  - # 16
    frequency:   14.0086738003
  - # 17
    frequency:   14.2217333403
  - # 18
    frequency:  112.1079809496

- q-position: [    0.0858586,    0.0000000,    0.0000000 ]
  distance:    0.0276263
  band:
  - # 1
    frequency:    0.1550195679
  - # 2
    frequency:    0.6792435695
  - # 3
    frequency:    0.8895832413
  - # 4
    frequency:    3.0324133539
  - # 5
    frequency:    3.1229495544
  - # 6
    frequency:    4.1039601093
  - # 7
    frequency:    4.5937715776
  - # 8
    frequency:    4.7295958770
  - # 9
    frequency:    6.8575239282
  - # 10
    frequency:    7.0806263775
  - # 11
    frequency:    7.1584052603
  - # 12
    frequency:   10.3962726394
  - # 13
    frequency:   10.8625746770
  - # 14
    frequency:   11.0922133183
  - # 15
    frequency:   11.5112314531
  - # 16
    frequency:   13.9844770878
  - # 17
    frequency:   14.2203881700
  - # 18
    frequency:  112.0835645783

- q-position: [    0.0909091,    0.0000000,    0.0000000 ]
  distance:    0.0292513
  band:
  - # 1
    frequency:    0.1890667442
  - # 2
    frequency:    0.7388603010
  - # 3
    frequency:    0.9334289216
  - # 4
    frequency:    3.0518696392
  - # 5
    frequency:    3.1459040821
  - # 6
    frequency:    4.0864453607
  - # 7
    frequency:    4.5854609309
  - # 8
    frequency:    4.7304073359
  - # 9
    frequency:    6.8248200156
  - # 10
    frequency:    7.0761694248
  - # 11
    frequency:    7.1483450133
  - # 12
    frequency:   10.3559065093
  - # 13
    frequency:   10.8187645688
  - # 14
    frequency:   11.0558951574
  - # 15
    frequency:   11.5121084208
  - # 16
    frequency:   13.9599715645
  - # 17
    frequency:   14.2190185053
  - # 18
    frequency:  112.0582348997

- q-position: [    0.0959596,    0.0000000,    0.0000000 ]
  distance:    0.0308764
  band:
  - # 1
    frequency:    0.2245458992
  - # 2
    frequency:    0.7998807336
  - # 3
    frequency:    0.9762618304
  - # 4
    frequency:    3.0720208575
  - # 5
    frequency:    3.1682140434
  - # 6
    frequency:    4.0691259889
  - # 7
    frequency:    4.5770975536
  - # 8
    frequency:    4.7303203765
  - # 9
    frequency:    6.7905934079
  - # 10
    frequency:    7.0715635697
  - # 11
    frequency:    7.1378146577
  - # 12
    frequency:   10.3124627297
  - # 13
    frequency:   10.7718295791
  - # 14
    frequency:   11.0206695201
  - # 15
    frequency:   11.5123861890
  - # 16
    frequency:   13.9353469589
  - # 17
    frequency:   14.2176408431
  - # 18
    frequency:  112.0320832807

- q-position: [    0.1010101,    0.0000000,    0.0000000 ]
  distance:    0.0325015
  band:
  - # 1
    frequency:    0.2615111908
  - # 2
    frequency:    0.8621093376
  - # 3
    frequency:    1.0181355333
  - # 4
    frequency:    3.0927801925
  - # 5
    frequency:    3.1895724983
  - # 6
    frequency:    4.0521300456
  - # 7
    frequency:    4.5687318244
  - # 8
    frequency:    4.7292154223
  - # 9
    frequency:    6.7549854478
  - # 10
    frequency:    7.0668224196
  - # 11
    frequency:    7.1268158138
  - # 12
    frequency:   10.2658960625
  - # 13
    frequency:   10.7216850511
  - # 14
    frequency:   10.9869590524
  - # 15
    frequency:   11.5119641261
  - # 16
    frequency:   13.9107984888
  - # 17
    frequency:   14.2162740399
  - # 18
    frequency:  112.0052039418

- q-position: [    0.1060606,    0.0000000,    0.0000000 ]
  distance:    0.0341266
  band:
  - # 1
    frequency:    0.2999413801
  - # 2
    frequency:    0.9253342761
  - # 3
    frequency:    1.0591152576
  - # 4
    frequency:    3.1140555449
  - # 5
    frequency:    3.2096559428
  - # 6
    frequency:    4.0355786983
  - # 7
    frequency:    4.5604119067
  - # 8
    frequency:    4.7269693069
  - # 9
    frequency:    6.7181554731
  - # 10
    frequency:    7.0619595781
  - # 11
    frequency:    7.1153573060
  - # 12
    frequency:   10.2161839630
  - # 13
    frequency:   10.6683829310
  - # 14
    frequency:   10.9550447995
  - # 15
    frequency:   11.5107380601
  - # 16
    frequency:   13.8865257223
  - # 17
    frequency:   14.2149393771
  - # 18
    frequency:  111.9776935966

- q-position: [    0.1111111,    0.0000000,    0.0000000 ]
  distance:    0.0357516
  band:
  - # 1
    frequency:    0.3397678108
  - # 2
    frequency:    0.9893241830
  - # 3
    frequency:    1.0992766110
  - # 4
    frequency:    3.1357505506
  - # 5
    frequency:    3.2281257008
  - # 6
    frequency:    4.0195802902
  - # 7
    frequency:    4.5521831513
  - # 8
    frequency:    4.7234578919
  - # 9
    frequency:    6.6802823849
  - # 10
    frequency:    7.0569886281
  - # 11
    frequency:    7.1034557822
  - # 12
    frequency:   10.1633252674
  - # 13
    frequency:   10.6121152810
  - # 14
    frequency:   10.9250648665
  - # 15
    frequency:   11.5086005811
  - # 16
    frequency:   13.8627313903
  - # 17
    frequency:   14.2136605821
  - # 18
    frequency:  111.9496510814

- q-position: [    0.1161616,    0.0000000,    0.0000000 ]
  distance:    0.0373767
  band:
  - # 1
    frequency:    0.3808858236
  - # 2
    frequency:    1.0538238459
  - # 3
    frequency:    1.1387040550
  - # 4
    frequency:    3.1577657466
  - # 5
    frequency:    3.2446311576
  - # 6
    frequency:    4.0042216689
  - # 7
    frequency:    4.5440875267
  - # 8
    frequency:    4.7185605034
  - # 9
    frequency:    6.6415660599
  - # 10
    frequency:    7.0519231288
  - # 11
    frequency:    7.0911361964
  - # 12
    frequency:   10.1073380408
  - # 13
    frequency:   10.5531908840
  - # 14
    frequency:   10.8970408376
  - # 15
    frequency:   11.5054413806
  - # 16
    frequency:   13.8396201688
  - # 17
    frequency:   14.2124637985
  - # 18
    frequency:  111.9211769759

- q-position: [    0.1212121,    0.0000000,    0.0000000 ]
  distance:    0.0390018
  band:
  - # 1
    frequency:    0.4231582260
  - # 2
    frequency:    1.1185484591
  - # 3
    frequency:    1.1774891689
  - # 4
    frequency:    3.1799998455
  - # 5
    frequency:    3.2588153722
  - # 6
    frequency:    3.9895563402
  - # 7
    frequency:    4.5361630899
  - # 8
    frequency:    4.7121667361
  - # 9
    frequency:    6.6022283356
  - # 10
    frequency:    7.0467766262
  - # 11
    frequency:    7.0784321963
  - # 12
    frequency:   10.0482578538
  - # 13
    frequency:   10.4920001525
  - # 14
    frequency:   10.8709154198
  - # 15
    frequency:   11.5011476309
  - # 16
    frequency:   13.8173974468
  - # 17
    frequency:   14.2113775006
  - # 18
    frequency:  111.8923732161

- q-position: [    0.1262626,    0.0000000,    0.0000000 ]
  distance:    0.0406269
  band:
  - # 1
    frequency:    0.4664139069
  - # 2
    frequency:    1.1831759983
  - # 3
    frequency:    1.2157287464
  - # 4
    frequency:    3.2023510729
  - # 5
    frequency:    3.2703233986
  - # 6
    frequency:    3.9755894135
  - # 7
    frequency:    4.5284435123
  - # 8
    frequency:    4.7041862002
  - # 9
    frequency:    6.5625132363
  - # 10
    frequency:    7.0415626748
  - # 11
    frequency:    7.0653864424
  - # 12
    frequency:    9.9861377545
  - # 13
    frequency:   10.4289812031
  - # 14
    frequency:   10.8465871214
  - # 15
    frequency:   11.4956044110
  - # 16
    frequency:   13.7962680942
  - # 17
    frequency:   14.2104323469
  - # 18
    frequency:  111.8633427012

- q-position: [    0.1313131,    0.0000000,    0.0000000 ]
  distance:    0.0422519
  band:
  - # 1
    frequency:    0.5104424451
  - # 2
    frequency:    1.2473371083
  - # 3
    frequency:    1.2535227730
  - # 4
    frequency:    3.2247185202
  - # 5
    frequency:    3.2788132257
  - # 6
    frequency:    3.9622601209
  - # 7
    frequency:    4.5209576796
  - # 8
    frequency:    4.6945617122
  - # 9
    frequency:    6.5226860589
  - # 10
    frequency:    7.0362948707
  - # 11
    frequency:    7.0520508713
  - # 12
    frequency:    9.9210508508
  - # 13
    frequency:   10.3645924998
  - # 14
    frequency:   10.8239355765
  - # 15
    frequency:   11.4886951822
  - # 16
    frequency:   13.7764352453
  - # 17
    frequency:   14.2096609680
  - # 18
    frequency:  111.8341888957

- q-position: [    0.1363636,    0.0000000,    0.0000000 ]
  distance:    0.0438770
  band:
  - # 1
    frequency:    0.5549842826
  - # 2
    frequency:    1.2909723348
  - # 3
    frequency:    1.3106017181
  - # 4
    frequency:    3.2470034630
  - # 5
    frequency:    3.2839686996
  - # 6
    frequency:    3.9494239201
  - # 7
    frequency:    4.5137293828
  - # 8
    frequency:    4.6832861150
  - # 9
    frequency:    6.4830308995
  - # 10
    frequency:    7.0309868925
  - # 11
    frequency:    7.0384869049
  - # 12
    frequency:    9.8530957597
  - # 13
    frequency:   10.2992919505
  - # 14
    frequency:   10.8028372997
  - # 15
    frequency:   11.4803023167
  - # 16
    frequency:   13.7580991033
  - # 17
    frequency:   14.2090976895
  - # 18
    frequency:  111.8050154293

- q-position: [    0.1414141,    0.0000000,    0.0000000 ]
  distance:    0.0455021
  band:
  - # 1
    frequency:    0.5997148988
  - # 2
    frequency:    1.3281775108
  - # 3
    frequency:    1.3724614083
  - # 4
    frequency:    3.2691105980
  - # 5
    frequency:    3.2855134123
  - # 6
    frequency:    3.9368377411
  - # 7
    frequency:    4.5067771215
  - # 8
    frequency:    4.6704222339
  - # 9
    frequency:    6.4438462248
  - # 10
    frequency:    7.0247655966
  - # 11
    frequency:    7.0256525494
  - # 12
    frequency:    9.7824043414
  - # 13
    frequency:   10.2335205750
  - # 14
    frequency:   10.7831742555
  - # 15
    frequency:   11.4703076797
  - # 16
    frequency:   13.7414557762
  - # 17
    frequency:   14.2087781873
  - # 18
    frequency:  111.7759256941

- q-position: [    0.1464646,    0.0000000,    0.0000000 ]
  distance:    0.0471272
  band:
  - # 1
    frequency:    0.6442198934
  - # 2
    frequency:    1.3652352984
  - # 3
    frequency:    1.4323064603
  - # 4
    frequency:    3.2832248100
  - # 5
    frequency:    3.2909491543
  - # 6
    frequency:    3.9241534534
  - # 7
    frequency:    4.5001140375
  - # 8
    frequency:    4.6561242431
  - # 9
    frequency:    6.4054381919
  - # 10
    frequency:    7.0109676947
  - # 11
    frequency:    7.0203058324
  - # 12
    frequency:    9.7091503329
  - # 13
    frequency:   10.1676894313
  - # 14
    frequency:   10.7648378602
  - # 15
    frequency:   11.4585932638
  - # 16
    frequency:   13.7266961434
  - # 17
    frequency:   14.2087390807
  - # 18
    frequency:  111.7470224431

- q-position: [    0.1515152,    0.0000000,    0.0000000 ]
  distance:    0.0487522
  band:
  - # 1
    frequency:    0.6879553922
  - # 2
    frequency:    1.4022376210
  - # 3
    frequency:    1.4893967456
  - # 4
    frequency:    3.2769492448
  - # 5
    frequency:    3.3124338394
  - # 6
    frequency:    3.9109256697
  - # 7
    frequency:    4.4937479989
  - # 8
    frequency:    4.6406568682
  - # 9
    frequency:    6.3681116340
  - # 10
    frequency:    6.9971835938
  - # 11
    frequency:    7.0149609667
  - # 12
    frequency:    9.6335569980
  - # 13
    frequency:   10.1021696290
  - # 14
    frequency:   10.7477303931
  - # 15
    frequency:   11.4450418727
  - # 16
    frequency:   13.7140047557
  - # 17
    frequency:   14.2090174663
  - # 18
    frequency:  111.7184073896

- q-position: [    0.1565657,    0.0000000,    0.0000000 ]
  distance:    0.0503773
  band:
  - # 1
    frequency:    0.7301836946
  - # 2
    frequency:    1.4392694604
  - # 3
    frequency:    1.5428267822
  - # 4
    frequency:    3.2666215942
  - # 5
    frequency:    3.3334855884
  - # 6
    frequency:    3.8966399673
  - # 7
    frequency:    4.4876818493
  - # 8
    frequency:    4.6244065975
  - # 9
    frequency:    6.3321589627
  - # 10
    frequency:    6.9835131309
  - # 11
    frequency:    7.0096324623
  - # 12
    frequency:    9.5559019452
  - # 13
    frequency:   10.0372859478
  - # 14
    frequency:   10.7317650789
  - # 15
    frequency:   11.4295378459
  - # 16
    frequency:   13.7035587658
  - # 17
    frequency:   14.2096504027
  - # 18
    frequency:  111.6901808104

- q-position: [    0.1616162,    0.0000000,    0.0000000 ]
  distance:    0.0520024
  band:
  - # 1
    frequency:    0.7698655790
  - # 2
    frequency:    1.4764071545
  - # 3
    frequency:    1.5914887911
  - # 4
    frequency:    3.2522969676
  - # 5
    frequency:    3.3540320914
  - # 6
    frequency:    3.8807657795
  - # 7
    frequency:    4.4819138370
  - # 8
    frequency:    4.6078772579
  - # 9
    frequency:    6.2978476449
  - # 10
    frequency:    6.9700651696
  - # 11
    frequency:    7.0043351600
  - # 12
    frequency:    9.4765178718
  - # 13
    frequency:    9.9733145171
  - # 14
    frequency:   10.7168655755
  - # 15
    frequency:   11.4119678183
  - # 16
    frequency:   13.6955268872
  - # 17
    frequency:   14.2106743557
  - # 18
    frequency:  111.6624411541

- q-position: [    0.1666667,    0.0000000,    0.0000000 ]
  distance:    0.0536275
  band:
  - # 1
    frequency:    0.8054740224
  - # 2
    frequency:    1.5137168894
  - # 3
    frequency:    1.6340464842
  - # 4
    frequency:    3.2342052799
  - # 5
    frequency:    3.3740080843
  - # 6
    frequency:    3.8628334886
  - # 7
    frequency:    4.4764382272
  - # 8
    frequency:    4.5916625925
  - # 9
    frequency:    6.2654073362
  - # 10
    frequency:    6.9569569012
  - # 11
    frequency:    6.9990842682
  - # 12
    frequency:    9.3957889449
  - # 13
    frequency:    9.9104844197
  - # 14
    frequency:   10.7029652628
  - # 15
    frequency:   11.3922215012
  - # 16
    frequency:   13.6900683809
  - # 17
    frequency:   14.2121246171
  - # 18
    frequency:  111.6352846553

- q-position: [    0.1717172,    0.0000000,    0.0000000 ]
  distance:    0.0552525
  band:
  - # 1
    frequency:    0.8346604776
  - # 2
    frequency:    1.5512534162
  - # 3
    frequency:    1.6689525637
  - # 4
    frequency:    3.2128387235
  - # 5
    frequency:    3.3933553981
  - # 6
    frequency:    3.8425266950
  - # 7
    frequency:    4.4712461012
  - # 8
    frequency:    4.5763928182
  - # 9
    frequency:    6.2350180476
  - # 10
    frequency:    6.9443127771
  - # 11
    frequency:    6.9938953907
  - # 12
    frequency:    9.3141434654
  - # 13
    frequency:    9.8489823808
  - # 14
    frequency:   10.6900065322
  - # 15
    frequency:   11.3701924714
  - # 16
    frequency:   13.6873320661
  - # 17
    frequency:   14.2140347138
  - # 18
    frequency:  111.6088049579

- q-position: [    0.1767677,    0.0000000,    0.0000000 ]
  distance:    0.0568776
  band:
  - # 1
    frequency:    0.8536355634
  - # 2
    frequency:    1.5890590070
  - # 3
    frequency:    1.6945834366
  - # 4
    frequency:    3.1890713714
  - # 5
    frequency:    3.4120227712
  - # 6
    frequency:    3.8197692653
  - # 7
    frequency:    4.4663263301
  - # 8
    frequency:    4.5626611238
  - # 9
    frequency:    6.2068008007
  - # 10
    frequency:    6.9322629737
  - # 11
    frequency:    6.9887845394
  - # 12
    frequency:    9.2320440502
  - # 13
    frequency:    9.7889592639
  - # 14