nqpoint: 300    
npath: 3      
segment_nqpoint:
- 100
- 100
- 100
labels:
- [ 'G', 'M' ]
- [ 'M', 'K' ]
- [ 'K', 'G' ]
reciprocal_lattice:
- [   0.32217076,   0.18600538,   0.00000000 ] # a*
- [   0.00000000,   0.37201075,   0.00000000 ] # b*
- [   0.00000000,   0.00000000,   0.03230935 ] # c*
natom: 8      
lattice:
- [     3.103943992854626,     0.000000000000000,     0.000000000000000 ] # a
- [    -1.551971996427313,     2.688094349736520,     0.000000000000000 ] # b
- [     0.000000000000000,     0.000000000000000,    30.950791139771368 ] # c
points:
- symbol: C # 1
  coordinates: [  0.666666984744047,  0.333332985985145,  0.340747290449198 ]
  mass: 12.010700
- symbol: Cl # 2
  coordinates: [  0.333332985432215,  0.666666983183674,  0.709215833632274 ]
  mass: 35.453000
- symbol: N # 3
  coordinates: [  0.000000000000000,  0.000000000000000,  0.459701479213286 ]
  mass: 14.006700
- symbol: N # 4
  coordinates: [  0.666666984744047,  0.333332985985145,  0.381607406825872 ]
  mass: 14.006700
- symbol: O # 5
  coordinates: [  0.333332985432215,  0.666666983183674,  0.528449370688191 ]
  mass: 15.999400
- symbol: S # 6
  coordinates: [  0.666666984744047,  0.333332985985145,  0.290784166367726 ]
  mass: 32.065000
- symbol: Ti # 7
  coordinates: [  0.333332985432215,  0.666666983183674,  0.421586006119267 ]
  mass: 47.867000
- symbol: Ti # 8
  coordinates: [  0.666666984744047,  0.333332985985145,  0.500118144218697 ]
  mass: 47.867000

phonon:
- q-position: [    0.0000000,    0.0000000,    0.0000000 ]
  distance:    0.0000000
  band:
  - # 1
    frequency:   -0.5369946330
  - # 2
    frequency:   -0.0000027208
  - # 3
    frequency:    0.0000003930
  - # 4
    frequency:    0.0000042034
  - # 5
    frequency:    0.6177316523
  - # 6
    frequency:    0.6177316523
  - # 7
    frequency:    1.8883690483
  - # 8
    frequency:    1.8883690483
  - # 9
    frequency:    2.7797823540
  - # 10
    frequency:    2.7797823540
  - # 11
    frequency:    6.2727823487
  - # 12
    frequency:    8.0117902249
  - # 13
    frequency:    8.0117902249
  - # 14
    frequency:    9.5625700400
  - # 15
    frequency:    9.5625700400
  - # 16
    frequency:    9.8600712998
  - # 17
    frequency:   13.4490305505
  - # 18
    frequency:   13.4490305505
  - # 19
    frequency:   14.1736506029
  - # 20
    frequency:   14.1736506029
  - # 21
    frequency:   15.9157907798
  - # 22
    frequency:   17.4739029180
  - # 23
    frequency:   26.8774137420
  - # 24
    frequency:   54.9272039549

- q-position: [    0.0050505,    0.0000000,    0.0000000 ]
  distance:    0.0018788
  band:
  - # 1
    frequency:   -0.5361061029
  - # 2
    frequency:   -0.0287679759
  - # 3
    frequency:   -0.0078425713
  - # 4
    frequency:    0.0839921295
  - # 5
    frequency:    0.6039532421
  - # 6
    frequency:    0.6101209196
  - # 7
    frequency:    1.8889665254
  - # 8
    frequency:    1.8922775528
  - # 9
    frequency:    2.7820043608
  - # 10
    frequency:    2.7830629976
  - # 11
    frequency:    6.2727840866
  - # 12
    frequency:    8.0119731511
  - # 13
    frequency:    8.0126133524
  - # 14
    frequency:    9.5600556756
  - # 15
    frequency:    9.5626828568
  - # 16
    frequency:    9.8632397211
  - # 17
    frequency:   13.4488963125
  - # 18
    frequency:   13.4492269080
  - # 19
    frequency:   14.1730254313
  - # 20
    frequency:   14.1731131105
  - # 21
    frequency:   15.9153956062
  - # 22
    frequency:   17.4736032842
  - # 23
    frequency:   26.8772708096
  - # 24
    frequency:   54.9268365126

- q-position: [    0.0101010,    0.0000000,    0.0000000 ]
  distance:    0.0037577
  band:
  - # 1
    frequency:   -0.5336037046
  - # 2
    frequency:   -0.0627402955
  - # 3
    frequency:   -0.0387359352
  - # 4
    frequency:    0.1478103292
  - # 5
    frequency:    0.5677513791
  - # 6
    frequency:    0.5873263848
  - # 7
    frequency:    1.8907663334
  - # 8
    frequency:    1.9039280710
  - # 9
    frequency:    2.7886392096
  - # 10
    frequency:    2.7928683849
  - # 11
    frequency:    6.2727936418
  - # 12
    frequency:    8.0125132529
  - # 13
    frequency:    8.0150807190
  - # 14
    frequency:    9.5528389633
  - # 15
    frequency:    9.5630221177
  - # 16
    frequency:    9.8724196123
  - # 17
    frequency:   13.4484941801
  - # 18
    frequency:   13.4498150474
  - # 19
    frequency:   14.1711512012
  - # 20
    frequency:   14.1715017263
  - # 21
    frequency:   15.9142116200
  - # 22
    frequency:   17.4727053715
  - # 23
    frequency:   26.8768424535
  - # 24
    frequency:   54.9257341945

- q-position: [    0.0151515,    0.0000000,    0.0000000 ]
  distance:    0.0056365
  band:
  - # 1
    frequency:   -0.5304823398
  - # 2
    frequency:   -0.1359302236
  - # 3
    frequency:   -0.1083038052
  - # 4
    frequency:    0.1542720073
  - # 5
    frequency:    0.5394088213
  - # 6
    frequency:    0.5499520602
  - # 7
    frequency:    1.8937895784
  - # 8
    frequency:    1.9231018454
  - # 9
    frequency:    2.7995952987
  - # 10
    frequency:    2.8090906483
  - # 11
    frequency:    6.2728240054
  - # 12
    frequency:    8.0133846662
  - # 13
    frequency:    8.0191862599
  - # 14
    frequency:    9.5417472077
  - # 15
    frequency:    9.5635902619
  - # 16
    frequency:    9.8867866245
  - # 17
    frequency:   13.4478258912
  - # 18
    frequency:   13.4507921610
  - # 19
    frequency:   14.1680318052
  - # 20
    frequency:   14.1688197306
  - # 21
    frequency:   15.9122434187
  - # 22
    frequency:   17.4712121406
  - # 23
    frequency:   26.8761299954
  - # 24
    frequency:   54.9238970282

- q-position: [    0.0202020,    0.0000000,    0.0000000 ]
  distance:    0.0075154
  band:
  - # 1
    frequency:   -0.5329632673
  - # 2
    frequency:   -0.3257572939
  - # 3
    frequency:   -0.1740090030
  - # 4
    frequency:    0.1477649626
  - # 5
    frequency:    0.5013545507
  - # 6
    frequency:    0.5698523749
  - # 7
    frequency:    1.8980682340
  - # 8
    frequency:    1.9494540514
  - # 9
    frequency:    2.8147260575
  - # 10
    frequency:    2.8315556635
  - # 11
    frequency:    6.2728967179
  - # 12
    frequency:    8.0145448405
  - # 13
    frequency:    8.0249198091
  - # 14
    frequency:    9.5277944517
  - # 15
    frequency:    9.5643913787
  - # 16
    frequency:    9.9053314078
  - # 17
    frequency:   13.4468943197
  - # 18
    frequency:   13.4521535407
  - # 19
    frequency:   14.1636738585
  - # 20
    frequency:   14.1650725940
  - # 21
    frequency:   15.9094986451
  - # 22
    frequency:   17.4691285119
  - # 23
    frequency:   26.8751356336
  - # 24
    frequency:   54.9213250648

- q-position: [    0.0252525,    0.0000000,    0.0000000 ]
  distance:    0.0093942
  band:
  - # 1
    frequency:   -0.5968703325
  - # 2
    frequency:   -0.4544403811
  - # 3
    frequency:   -0.2680861657
  - # 4
    frequency:    0.1666989937
  - # 5
    frequency:    0.4524593898
  - # 6
    frequency:    0.6475087481
  - # 7
    frequency:    1.9036409974
  - # 8
    frequency:    1.9825401075
  - # 9
    frequency:    2.8338382023
  - # 10
    frequency:    2.8600308102
  - # 11
    frequency:    6.2730417066
  - # 12
    frequency:    8.0159353808
  - # 13
    frequency:    8.0322670157
  - # 14
    frequency:    9.5119325917
  - # 15
    frequency:    9.5654312431
  - # 16
    frequency:    9.9271081312
  - # 17
    frequency:   13.4457034402
  - # 18
    frequency:   13.4538925335
  - # 19
    frequency:   14.1580868928
  - # 20
    frequency:   14.1602679838
  - # 21
    frequency:   15.9059879557
  - # 22
    frequency:   17.4664613435
  - # 23
    frequency:   26.8738624356
  - # 24
    frequency:   54.9180183864

- q-position: [    0.0303030,    0.0000000,    0.0000000 ]
  distance:    0.0112731
  band:
  - # 1
    frequency:   -0.7592926437
  - # 2
    frequency:   -0.4641086354
  - # 3
    frequency:   -0.3874113999
  - # 4
    frequency:    0.1963462106
  - # 5
    frequency:    0.4207848965
  - # 6
    frequency:    0.7443419399
  - # 7
    frequency:    1.9105486053
  - # 8
    frequency:    2.0218464201
  - # 9
    frequency:    2.8567017373
  - # 10
    frequency:    2.8942345636
  - # 11
    frequency:    6.2732970620
  - # 12
    frequency:    8.0174832427
  - # 13
    frequency:    8.0412092314
  - # 14
    frequency:    9.4949454994
  - # 15
    frequency:    9.5667173636
  - # 16
    frequency:    9.9513398239
  - # 17
    frequency:   13.4442582799
  - # 18
    frequency:   13.4560004724
  - # 19
    frequency:   14.1512836307
  - # 20
    frequency:   14.1544157730
  - # 21
    frequency:   15.9017249744
  - # 22
    frequency:   17.4632194012
  - # 23
    frequency:   26.8723143286
  - # 24
    frequency:   54.9139771162

- q-position: [    0.0353535,    0.0000000,    0.0000000 ]
  distance:    0.0131519
  band:
  - # 1
    frequency:   -0.9307847589
  - # 2
    frequency:   -0.5162783956
  - # 3
    frequency:   -0.4483049334
  - # 4
    frequency:    0.2321123681
  - # 5
    frequency:    0.4136331968
  - # 6
    frequency:    0.8494012916
  - # 7
    frequency:    1.9188293341
  - # 8
    frequency:    2.0668211210
  - # 9
    frequency:    2.8830605950
  - # 10
    frequency:    2.9338469754
  - # 11
    frequency:    6.2737087609
  - # 12
    frequency:    8.0191022909
  - # 13
    frequency:    8.0517233746
  - # 14
    frequency:    9.4774411104
  - # 15
    frequency:    9.5682590417
  - # 16
    frequency:    9.9774255514
  - # 17
    frequency:   13.4425648556
  - # 18
    frequency:   13.4584665798
  - # 19
    frequency:   14.1432803456
  - # 20
    frequency:   14.1475280538
  - # 21
    frequency:   15.8967262287
  - # 22
    frequency:   17.4594133202
  - # 23
    frequency:   26.8704960867
  - # 24
    frequency:   54.9092014322

- q-position: [    0.0404040,    0.0000000,    0.0000000 ]
  distance:    0.0150307
  band:
  - # 1
    frequency:   -1.0978212323
  - # 2
    frequency:   -0.6436543153
  - # 3
    frequency:   -0.4234207034
  - # 4
    frequency:    0.2724590628
  - # 5
    frequency:    0.4255764334
  - # 6
    frequency:    0.9587978987
  - # 7
    frequency:    1.9285152427
  - # 8
    frequency:    2.1169012301
  - # 9
    frequency:    2.9126429472
  - # 10
    frequency:    2.9785201817
  - # 11
    frequency:    6.2743303401
  - # 12
    frequency:    8.0206952322
  - # 13
    frequency:    8.0637817786
  - # 14
    frequency:    9.4598819813
  - # 15
    frequency:    9.5700674398
  - # 16
    frequency:   10.0049089053
  - # 17
    frequency:   13.4406300957
  - # 18
    frequency:   13.4612778328
  - # 19
    frequency:   14.1340973124
  - # 20
    frequency:   14.1396191560
  - # 21
    frequency:   15.8910110660
  - # 22
    frequency:   17.4550555590
  - # 23
    frequency:   26.8684133153
  - # 24
    frequency:   54.9036915829

- q-position: [    0.0454545,    0.0000000,    0.0000000 ]
  distance:    0.0169096
  band:
  - # 1
    frequency:   -1.2601917825
  - # 2
    frequency:   -0.7664743866
  - # 3
    frequency:   -0.3904379412
  - # 4
    frequency:    0.3166673578
  - # 5
    frequency:    0.4501629573
  - # 6
    frequency:    1.0709072425
  - # 7
    frequency:    1.9396294681
  - # 8
    frequency:    2.1715341861
  - # 9
    frequency:    2.9451704800
  - # 10
    frequency:    3.0278882555
  - # 11
    frequency:    6.2752225287
  - # 12
    frequency:    8.0221559268
  - # 13
    frequency:    8.0773520288
  - # 14
    frequency:    9.4426212207
  - # 15
    frequency:    9.5721556560
  - # 16
    frequency:   10.0334408780
  - # 17
    frequency:   13.4384617485
  - # 18
    frequency:   13.4644187810
  - # 19
    frequency:   14.1237593583
  - # 20
    frequency:   14.1307056729
  - # 21
    frequency:   15.8846015457
  - # 22
    frequency:   17.4501603464
  - # 23
    frequency:   26.8660724333
  - # 24
    frequency:   54.8974479063

- q-position: [    0.0505051,    0.0000000,    0.0000000 ]
  distance:    0.0187884
  band:
  - # 1
    frequency:   -1.4185070081
  - # 2
    frequency:   -0.8846770334
  - # 3
    frequency:   -0.3477070140
  - # 4
    frequency:    0.3643371966
  - # 5
    frequency:    0.4834090823
  - # 6
    frequency:    1.1849296826
  - # 7
    frequency:    1.9521846497
  - # 8
    frequency:    2.2301931718
  - # 9
    frequency:    2.9803662189
  - # 10
    frequency:    3.0815759470
  - # 11
    frequency:    6.2764528435
  - # 12
    frequency:    8.0233720696
  - # 13
    frequency:    8.0923967995
  - # 14
    frequency:    9.4259320482
  - # 15
    frequency:    9.5745388030
  - # 16
    frequency:   10.0627488642
  - # 17
    frequency:   13.4360682736
  - # 18
    frequency:   13.4678713016
  - # 19
    frequency:   14.1122965230
  - # 20
    frequency:   14.1208064939
  - # 21
    frequency:   15.8775223051
  - # 22
    frequency:   17.4447436201
  - # 23
    frequency:   26.8634806522
  - # 24
    frequency:   54.8904708511

- q-position: [    0.0555556,    0.0000000,    0.0000000 ]
  distance:    0.0206673
  band:
  - # 1
    frequency:   -1.5732536486
  - # 2
    frequency:   -0.9988066192
  - # 3
    frequency:   -0.2912032706
  - # 4
    frequency:    0.4152439601
  - # 5
    frequency:    0.5230520218
  - # 6
    frequency:    1.3004081735
  - # 7
    frequency:    1.9661823759
  - # 8
    frequency:    2.2923867104
  - # 9
    frequency:    3.0179607508
  - # 10
    frequency:    3.1392060695
  - # 11
    frequency:    6.2780951529
  - # 12
    frequency:    8.0242282176
  - # 13
    frequency:    8.1088736967
  - # 14
    frequency:    9.4100290654
  - # 15
    frequency:    9.5772340878
  - # 16
    frequency:   10.0926137109
  - # 17
    frequency:   13.4334587177
  - # 18
    frequency:   13.4716142709
  - # 19
    frequency:   14.0997448465
  - # 20
    frequency:   14.1099428488
  - # 21
    frequency:   15.8698003956
  - # 22
    frequency:   17.4388229594
  - # 23
    frequency:   26.8606459526
  - # 24
    frequency:   54.8827610009

- q-position: [    0.0606061,    0.0000000,    0.0000000 ]
  distance:    0.0225461
  band:
  - # 1
    frequency:   -1.7247464348
  - # 2
    frequency:   -1.1093900502
  - # 3
    frequency:   -0.2103825555
  - # 4
    frequency:    0.4692760664
  - # 5
    frequency:    0.5677384451
  - # 6
    frequency:    1.4170414405
  - # 7
    frequency:    1.9816134493
  - # 8
    frequency:    2.3576635520
  - # 9
    frequency:    3.0576968841
  - # 10
    frequency:    3.2004054695
  - # 11
    frequency:    6.2802292126
  - # 12
    frequency:    8.0246091141
  - # 13
    frequency:    8.1267351180
  - # 14
    frequency:    9.3950825211
  - # 15
    frequency:    9.5802608876
  - # 16
    frequency:   10.1228535695
  - # 17
    frequency:   13.4306425731
  - # 18
    frequency:   13.4756231278
  - # 19
    frequency:   14.0861473024
  - # 20
    frequency:   14.0981383632
  - # 21
    frequency:   15.8614650852
  - # 22
    frequency:   17.4324175107
  - # 23
    frequency:   26.8575770581
  - # 24
    frequency:   54.8743190998

- q-position: [    0.0656566,    0.0000000,    0.0000000 ]
  distance:    0.0244249
  band:
  - # 1
    frequency:   -1.8731704154
  - # 2
    frequency:   -1.2168269288
  - # 3
    frequency:    0.0229474623
  - # 4
    frequency:    0.5263837144
  - # 5
    frequency:    0.6165890780
  - # 6
    frequency:    1.5346024182
  - # 7
    frequency:    1.9984587257
  - # 8
    frequency:    2.4256140188
  - # 9
    frequency:    3.0993329060
  - # 10
    frequency:    3.2648096438
  - # 11
    frequency:    6.2829401748
  - # 12
    frequency:    8.0244032316
  - # 13
    frequency:    8.1459281367
  - # 14
    frequency:    9.3812274022
  - # 15
    frequency:    9.5836408198
  - # 16
    frequency:   10.1533127806
  - # 17
    frequency:   13.4276296177
  - # 18
    frequency:   13.4798692945
  - # 19
    frequency:   14.0715549077
  - # 20
    frequency:   14.0854191294
  - # 21
    frequency:   15.8525476268
  - # 22
    frequency:   17.4255479067
  - # 23
    frequency:   26.8542834067
  - # 24
    frequency:   54.8651460817

- q-position: [    0.0707071,    0.0000000,    0.0000000 ]
  distance:    0.0263038
  band:
  - # 1
    frequency:   -2.0186206885
  - # 2
    frequency:   -1.3213974213
  - # 3
    frequency:    0.2220493570
  - # 4
    frequency:    0.5865239697
  - # 5
    frequency:    0.6689833266
  - # 6
    frequency:    1.6528991908
  - # 7
    frequency:    2.0166903039
  - # 8
    frequency:    2.4958688949
  - # 9
    frequency:    3.1426446556
  - # 10
    frequency:    3.3320661475
  - # 11
    frequency:    6.2863180683
  - # 12
    frequency:    8.0235064268
  - # 13
    frequency:    8.1663944206
  - # 14
    frequency:    9.3685689391
  - # 15
    frequency:    9.5873978001
  - # 16
    frequency:   10.1838542996
  - # 17
    frequency:   13.4244297352
  - # 18
    frequency:   13.4843194081
  - # 19
    frequency:   14.0560280430
  - # 20
    frequency:   14.0718137946
  - # 21
    frequency:   15.8430809887
  - # 22
    frequency:   17.4182361784
  - # 23
    frequency:   26.8507751199
  - # 24
    frequency:   54.8552430997

- q-position: [    0.0757576,    0.0000000,    0.0000000 ]
  distance:    0.0281826
  band:
  - # 1
    frequency:   -2.1611306348
  - # 2
    frequency:   -1.4232893899
  - # 3
    frequency:    0.3190601721
  - # 4
    frequency:    0.6496106637
  - # 5
    frequency:    0.7244504389
  - # 6
    frequency:    1.7717549109
  - # 7
    frequency:    2.0362728773
  - # 8
    frequency:    2.5680967637
  - # 9
    frequency:    3.1874266412
  - # 10
    frequency:    3.4018369699
  - # 11
    frequency:    6.2904572452
  - # 12
    frequency:    8.0218255681
  - # 13
    frequency:    8.1880701935
  - # 14
    frequency:    9.3571857391
  - # 15
    frequency:    9.5915580836
  - # 16
    frequency:   10.2143545742
  - # 17
    frequency:   13.4210527128
  - # 18
    frequency:   13.4889343096
  - # 19
    frequency:   14.0396380343
  - # 20
    frequency:   14.0573536694
  - # 21
    frequency:   15.8330995483
  - # 22
    frequency:   17.4105056607
  - # 23
    frequency:   26.8470629696
  - # 24
    frequency:   54.8446115595

- q-position: [    0.0808081,    0.0000000,    0.0000000 ]
  distance:    0.0300615
  band:
  - # 1
    frequency:   -2.3006910153
  - # 2
    frequency:   -1.5226229229
  - # 3
    frequency:    0.3972046097
  - # 4
    frequency:    0.7154857004
  - # 5
    frequency:    0.7826119449
  - # 6
    frequency:    1.8909968868
  - # 7
    frequency:    2.0571651104
  - # 8
    frequency:    2.6420004923
  - # 9
    frequency:    3.2334924165
  - # 10
    frequency:    3.4738000666
  - # 11
    frequency:    6.2954557849
  - # 12
    frequency:    8.0192819775
  - # 13
    frequency:    8.2108862475
  - # 14
    frequency:    9.3471314535
  - # 15
    frequency:    9.5961502854
  - # 16
    frequency:   10.2447001232
  - # 17
    frequency:   13.4175080156
  - # 18
    frequency:   13.4936677137
  - # 19
    frequency:   14.0224690574
  - # 20
    frequency:   14.0420728609
  - # 21
    frequency:   15.8226387489
  - # 22
    frequency:   17.4023808912
  - # 23
    frequency:   26.8431583415
  - # 24
    frequency:   54.8332531527

- q-position: [    0.0858586,    0.0000000,    0.0000000 ]
  distance:    0.0319403
  band:
  - # 1
    frequency:   -2.4372628785
  - # 2
    frequency:   -1.6194689441
  - # 3
    frequency:    0.4659130349
  - # 4
    frequency:    0.7839206516
  - # 5
    frequency:    0.8431496361
  - # 6
    frequency:    2.0104503721
  - # 7
    frequency:    2.0793209475
  - # 8
    frequency:    2.7173133811
  - # 9
    frequency:    3.2806744009
  - # 10
    frequency:    3.5476502235
  - # 11
    frequency:    6.3014148419
  - # 12
    frequency:    8.0158145159
  - # 13
    frequency:    8.2347680142
  - # 14
    frequency:    9.3384356471
  - # 15
    frequency:    9.6012053720
  - # 16
    frequency:   10.2747853049
  - # 17
    frequency:   13.4138045335
  - # 18
    frequency:   13.4984644752
  - # 19
    frequency:   14.0046204423
  - # 20
    frequency:   14.0260084341
  - # 21
    frequency:   15.8117347217
  - # 22
    frequency:   17.3938875010
  - # 23
    frequency:   26.8390731983
  - # 24
    frequency:   54.8211698926

- q-position: [    0.0909091,    0.0000000,    0.0000000 ]
  distance:    0.0338192
  band:
  - # 1
    frequency:   -2.5707864032
  - # 2
    frequency:   -1.7138626729
  - # 3
    frequency:    0.5288312481
  - # 4
    frequency:    0.8546414173
  - # 5
    frequency:    0.9057868181
  - # 6
    frequency:    2.1026908028
  - # 7
    frequency:    2.1299348630
  - # 8
    frequency:    2.7937953542
  - # 9
    frequency:    3.3288232943
  - # 10
    frequency:    3.6230994119
  - # 11
    frequency:    6.3084379194
  - # 12
    frequency:    8.0113821533
  - # 13
    frequency:    8.2596357026
  - # 14
    frequency:    9.3311043686
  - # 15
    frequency:    9.6067566196
  - # 16
    frequency:   10.3045109358
  - # 17
    frequency:   13.4099502970
  - # 18
    frequency:   13.5032583477
  - # 19
    frequency:   13.9862094663
  - # 20
    frequency:   14.0092006048
  - # 21
    frequency:   15.8004238765
  - # 22
    frequency:   17.3850520969
  - # 23
    frequency:   26.8348200390
  - # 24
    frequency:   54.8083641509

- q-position: [    0.0959596,    0.0000000,    0.0000000 ]
  distance:    0.0356980
  band:
  - # 1
    frequency:   -2.7011870692
  - # 2
    frequency:   -1.8058132636
  - # 3
    frequency:    0.5878518969
  - # 4
    frequency:    0.9273592696
  - # 5
    frequency:    0.9702767579
  - # 6
    frequency:    2.1272226057
  - # 7
    frequency:    2.2492617458
  - # 8
    frequency:    2.8712294673
  - # 9
    frequency:    3.3778072056
  - # 10
    frequency:    3.6998767679
  - # 11
    frequency:    6.3166300453
  - # 12
    frequency:    8.0059658869
  - # 13
    frequency:    8.2854045086
  - # 14
    frequency:    9.3251207848
  - # 15
    frequency:    9.6128395298
  - # 16
    frequency:   10.3337835253
  - # 17
    frequency:   13.4059521593
  - # 18
    frequency:   13.5079691308
  - # 19
    frequency:   13.9673747279
  - # 20
    frequency:   13.9916929710
  - # 21
    frequency:   15.7887424668
  - # 22
    frequency:   17.3759021360
  - # 23
    frequency:   26.8304118572
  - # 24
    frequency:   54.7948386961

- q-position: [    0.1010101,    0.0000000,    0.0000000 ]
  distance:    0.0375768
  band:
  - # 1
    frequency:   -2.8283800485
  - # 2
    frequency:   -1.8953107395
  - # 3
    frequency:    0.6441170392
  - # 4
    frequency:    1.0017948698
  - # 5
    frequency:    1.0363951975
  - # 6
    frequency:    2.1528626984
  - # 7
    frequency:    2.3682326256
  - # 8
    frequency:    2.9494189533
  - # 9
    frequency:    3.4275105860
  - # 10
    frequency:    3.7777283072
  - # 11
    frequency:    6.3260968227
  - # 12
    frequency:    7.9995699216
  - # 13
    frequency:    8.3119849036
  - # 14
    frequency:    9.3204461207
  - # 15
    frequency:    9.6194916973
  - # 16
    frequency:   10.3625149664
  - # 17
    frequency:   13.4018154386
  - # 18
    frequency:   13.5124991280
  - # 19
    frequency:   13.9482801654
  - # 20
    frequency:   13.9735327861
  - # 21
    frequency:   15.7767261356
  - # 22
    frequency:   17.3664657888
  - # 23
    frequency:   26.8258620975
  - # 24
    frequency:   54.7805967318

- q-position: [    0.1060606,    0.0000000,    0.0000000 ]
  distance:    0.0394557
  band:
  - # 1
    frequency:   -2.9522733917
  - # 2
    frequency:   -1.9823310355
  - # 3
    frequency:    0.6983765042
  - # 4
    frequency:    1.0776908803
  - # 5
    frequency:    1.1039352566
  - # 6
    frequency:    2.1795565960
  - # 7
    frequency:    2.4866378951
  - # 8
    frequency:    3.0281850092
  - # 9
    frequency:    3.4778330334
  - # 10
    frequency:    3.8564164650
  - # 11
    frequency:    6.3369433227
  - # 12
    frequency:    7.9922220791
  - # 13
    frequency:    8.3392830073
  - # 14
    frequency:    9.3170210484
  - # 15
    frequency:    9.6267526204
  - # 16
    frequency:   10.3906225698
  - # 17
    frequency:   13.3975435155
  - # 18
    frequency:   13.5167289259
  - # 19
    frequency:   13.9291196927
  - # 20
    frequency:   13.9547712807
  - # 21
    frequency:   15.7644094508
  - # 22
    frequency:   17.3567717926
  - # 23
    frequency:   26.8211846095
  - # 24
    frequency:   54.7656419363

- q-position: [    0.1111111,    0.0000000,    0.0000000 ]
  distance:    0.0413345
  band:
  - # 1
    frequency:   -3.0727703826
  - # 2
    frequency:   -2.0668397104
  - # 3
    frequency:    0.7511477022
  - # 4
    frequency:    1.1548152633
  - # 5
    frequency:    1.1727038033
  - # 6
    frequency:    2.2072496226
  - # 7
    frequency:    2.6042551870
  - # 8
    frequency:    3.1073655534
  - # 9
    frequency:    3.5286880183
  - # 10
    frequency:    3.9357195268
  - # 11
    frequency:    6.3492727850
  - # 12
    frequency:    7.9839734681
  - # 13
    frequency:    8.3672010482
  - # 14
    frequency:    9.3147675689
  - # 15
    frequency:    9.6346634458
  - # 16
    frequency:   10.4180293585
  - # 17
    frequency:   13.3931373809
  - # 18
    frequency:   13.5205127225
  - # 19
    frequency:   13.9101222098
  - # 20
    frequency:   13.9354640381
  - # 21
    frequency:   15.7518254394
  - # 22
    frequency:   17.3468492928
  - # 23
    frequency:   26.8163936015
  - # 24
    frequency:   54.7499785031

- q-position: [    0.1161616,    0.0000000,    0.0000000 ]
  distance:    0.0432134
  band:
  - # 1
    frequency:   -3.1897713109
  - # 2
    frequency:   -2.1487947200
  - # 3
    frequency:    0.8027991198
  - # 4
    frequency:    1.2329592370
  - # 5
    frequency:    1.2425187619
  - # 6
    frequency:    2.2358874451
  - # 7
    frequency:    2.7208473448
  - # 8
    frequency:    3.1868152499
  - # 9
    frequency:    3.5800015660
  - # 10
    frequency:    4.0154309990
  - # 11
    frequency:    6.3631850897
  - # 12
    frequency:    7.9748974981
  - # 13
    frequency:    8.3956379170
  - # 14
    frequency:    9.3135913569
  - # 15
    frequency:    9.6432666404
  - # 16
    frequency:   10.4446645602
  - # 17
    frequency:   13.3885951280
  - # 18
    frequency:   13.5236738776
  - # 19
    frequency:   13.8915563012
  - # 20
    frequency:   13.9156714285
  - # 21
    frequency:   15.7390051322
  - # 22
    frequency:   17.3367276714
  - # 23
    frequency:   26.8115035914
  - # 24
    frequency:   54.7336111802

- q-position: [    0.1212121,    0.0000000,    0.0000000 ]
  distance:    0.0450922
  band:
  - # 1
    frequency:   -3.3031748278
  - # 2
    frequency:   -2.2281485168
  - # 3
    frequency:    0.8535990181
  - # 4
    frequency:    1.3119330920
  - # 5
    frequency:    1.3132070517
  - # 6
    frequency:    2.2654165253
  - # 7
    frequency:    2.8361594744
  - # 8
    frequency:    3.2664072069
  - # 9
    frequency:    3.6317109209
  - # 10
    frequency:    4.0953589491
  - # 11
    frequency:    6.3787749675
  - # 12
    frequency:    7.9650883667
  - # 13
    frequency:    8.4244898141
  - # 14
    frequency:    9.3133844806
  - # 15
    frequency:    9.6526055823
  - # 16
    frequency:   10.4704642468
  - # 17
    frequency:   13.3839113854
  - # 18
    frequency:   13.5260021456
  - # 19
    frequency:   13.8737331437
  - # 20
    frequency:   13.8954591065
  - # 21
    frequency:   15.7259771303
  - # 22
    frequency:   17.3264363620
  - # 23
    frequency:   26.8065293573
  - # 24
    frequency:   54.7165453110

- q-position: [    0.1262626,    0.0000000,    0.0000000 ]
  distance:    0.0469711
  band:
  - # 1
    frequency:   -3.4128790009
  - # 2
    frequency:   -2.3048496605
  - # 3
    frequency:    0.9037459345
  - # 4
    frequency:    1.3846029686
  - # 5
    frequency:    1.3915617261
  - # 6
    frequency:    2.2957845080
  - # 7
    frequency:    2.9499145186
  - # 8
    frequency:    3.3460368971
  - # 9
    frequency:    3.6837632110
  - # 10
    frequency:    4.1753253274
  - # 11
    frequency:    6.3961299223
  - # 12
    frequency:    7.9546591655
  - # 13
    frequency:    8.4536509929
  - # 14
    frequency:    9.3140283750
  - # 15
    frequency:    9.6627240644
  - # 16
    frequency:   10.4953720761
  - # 17
    frequency:   13.3790766878
  - # 18
    frequency:   13.5272552437
  - # 19
    frequency:   13.8570049600
  - # 20
    frequency:   13.8748985722
  - # 21
    frequency:   15.7127672058
  - # 22
    frequency:   17.3160046510
  - # 23
    frequency:   26.8014858865
  - # 24
    frequency:   54.6987868741

- q-position: [    0.1313131,    0.0000000,    0.0000000 ]
  distance:    0.0488499
  band:
  - # 1
    frequency:   -3.5187821455
  - # 2
    frequency:   -2.3788440707
  - # 3
    frequency:    0.9533886706
  - # 4
    frequency:    1.4565468911
  - # 5
    frequency:    1.4716807218
  - # 6
    frequency:    2.3269405656
  - # 7
    frequency:    3.0618066710
  - # 8
    frequency:    3.4256289902
  - # 9
    frequency:    3.7361141282
  - # 10
    frequency:    4.2551652669
  - # 11
    frequency:    6.4153278517
  - # 12
    frequency:    7.9437397550
  - # 13
    frequency:    8.4830145969
  - # 14
    frequency:    9.3153969344
  - # 15
    frequency:    9.6736657072
  - # 16
    frequency:   10.5193400987
  - # 17
    frequency:   13.3740767897
  - # 18
    frequency:   13.5271687261
  - # 19
    frequency:   13.8417550312
  - # 20
    frequency:   13.8540677918
  - # 21
    frequency:   15.6993979490
  - # 22
    frequency:   17.3054614647
  - # 23
    frequency:   26.7963883242
  - # 24
    frequency:   54.6803425223

- q-position: [    0.1363636,    0.0000000,    0.0000000 ]
  distance:    0.0507287
  band:
  - # 1
    frequency:   -3.6207834907
  - # 2
    frequency:   -2.4500760120
  - # 3
    frequency:    1.0026397885
  - # 4
    frequency:    1.5288842362
  - # 5
    frequency:    1.5521332027
  - # 6
    frequency:    2.3588357147
  - # 7