nqpoint: 300    
npath: 3      
segment_nqpoint:
- 100
- 100
- 100
labels:
- [ 'G', 'M' ]
- [ 'M', 'K' ]
- [ 'K', 'G' ]
reciprocal_lattice:
- [   0.28588732,   0.16505712,   0.00000000 ] # a*
- [   0.00000000,   0.33011424,   0.00000000 ] # b*
- [   0.00000000,   0.00000000,   0.03428999 ] # c*
natom: 9      
lattice:
- [     3.497881601889492,     0.000000000000000,     0.000000000000000 ] # a
- [    -1.748940800944746,     3.029254326666980,     0.000000000000000 ] # b
- [     0.000000000000000,     0.000000000000000,    29.163029680533509 ] # c
points:
- symbol: C # 1
  coordinates: [  0.000000000000000,  0.000000000000000,  0.507403499419760 ]
  mass: 12.010700
- symbol: C # 2
  coordinates: [  0.333332985432215,  0.666666983183674,  0.638055766611938 ]
  mass: 12.010700
- symbol: C # 3
  coordinates: [  0.666666984744047,  0.333332985985145,  0.349434141833031 ]
  mass: 12.010700
- symbol: N # 4
  coordinates: [  0.333332985432215,  0.666666983183674,  0.595139912727833 ]
  mass: 14.006700
- symbol: N # 5
  coordinates: [  0.666666984744047,  0.333332985985145,  0.308609911198889 ]
  mass: 14.006700
- symbol: S # 6
  coordinates: [  0.333332985432215,  0.666666983183674,  0.691390088801111 ]
  mass: 32.065000
- symbol: S # 7
  coordinates: [  0.666666984744047,  0.333332985985145,  0.407081793895489 ]
  mass: 32.065000
- symbol: Zr # 8
  coordinates: [  0.333332985432215,  0.666666983183674,  0.465082466989790 ]
  mass: 91.224000
- symbol: Zr # 9
  coordinates: [  0.666666984744047,  0.333332985985145,  0.547665436030960 ]
  mass: 91.224000

phonon:
- q-position: [    0.0000000,    0.0000000,    0.0000000 ]
  distance:    0.0000000
  band:
  - # 1
    frequency:   -0.0000030257
  - # 2
    frequency:    0.0000002601
  - # 3
    frequency:    0.0000036423
  - # 4
    frequency:    0.3799357723
  - # 5
    frequency:    0.3799357723
  - # 6
    frequency:    0.6786302930
  - # 7
    frequency:    0.6786302930
  - # 8
    frequency:    4.2181724756
  - # 9
    frequency:    4.2181724756
  - # 10
    frequency:    4.7679267153
  - # 11
    frequency:    6.1024217781
  - # 12
    frequency:    6.1024217781
  - # 13
    frequency:    6.7046706453
  - # 14
    frequency:    6.7046706453
  - # 15
    frequency:    6.9302252273
  - # 16
    frequency:    8.7274743707
  - # 17
    frequency:   10.7371658321
  - # 18
    frequency:   10.7371658321
  - # 19
    frequency:   14.2471588482
  - # 20
    frequency:   14.2471588482
  - # 21
    frequency:   14.6256783342
  - # 22
    frequency:   15.8469411790
  - # 23
    frequency:   15.8469411790
  - # 24
    frequency:   20.1178631708
  - # 25
    frequency:   27.0920060108
  - # 26
    frequency:   58.1207739265
  - # 27
    frequency:   64.8592647584

- q-position: [    0.0050505,    0.0000000,    0.0000000 ]
  distance:    0.0016672
  band:
  - # 1
    frequency:    0.0022144381
  - # 2
    frequency:    0.0468265327
  - # 3
    frequency:    0.0932392631
  - # 4
    frequency:    0.3824150670
  - # 5
    frequency:    0.3863775015
  - # 6
    frequency:    0.6797916568
  - # 7
    frequency:    0.6833311978
  - # 8
    frequency:    4.2180961691
  - # 9
    frequency:    4.2187199716
  - # 10
    frequency:    4.7675267612
  - # 11
    frequency:    6.1022094502
  - # 12
    frequency:    6.1027287825
  - # 13
    frequency:    6.7047937092
  - # 14
    frequency:    6.7049271487
  - # 15
    frequency:    6.9300381758
  - # 16
    frequency:    8.7269288887
  - # 17
    frequency:   10.7372057736
  - # 18
    frequency:   10.7373397088
  - # 19
    frequency:   14.2471919200
  - # 20
    frequency:   14.2472910294
  - # 21
    frequency:   14.6256048938
  - # 22
    frequency:   15.8467081456
  - # 23
    frequency:   15.8471005750
  - # 24
    frequency:   20.1178250734
  - # 25
    frequency:   27.0919320940
  - # 26
    frequency:   58.1197386586
  - # 27
    frequency:   64.8592031880

- q-position: [    0.0101010,    0.0000000,    0.0000000 ]
  distance:    0.0033345
  band:
  - # 1
    frequency:    0.0087345804
  - # 2
    frequency:    0.0932778462
  - # 3
    frequency:    0.1845089937
  - # 4
    frequency:    0.3898185290
  - # 5
    frequency:    0.4058262354
  - # 6
    frequency:    0.6832784166
  - # 7
    frequency:    0.6972962081
  - # 8
    frequency:    4.2178678607
  - # 9
    frequency:    4.2203592055
  - # 10
    frequency:    4.7663305252
  - # 11
    frequency:    6.1015738131
  - # 12
    frequency:    6.1036497915
  - # 13
    frequency:    6.7051622386
  - # 14
    frequency:    6.7056866087
  - # 15
    frequency:    6.9294853667
  - # 16
    frequency:    8.7252934699
  - # 17
    frequency:   10.7373254087
  - # 18
    frequency:   10.7378609640
  - # 19
    frequency:   14.2472911100
  - # 20
    frequency:   14.2476867951
  - # 21
    frequency:   14.6253848700
  - # 22
    frequency:   15.8460102782
  - # 23
    frequency:   15.8475772069
  - # 24
    frequency:   20.1177107855
  - # 25
    frequency:   27.0917104522
  - # 26
    frequency:   58.1166347936
  - # 27
    frequency:   64.8590185645

- q-position: [    0.0151515,    0.0000000,    0.0000000 ]
  distance:    0.0050017
  band:
  - # 1
    frequency:    0.0192432690
  - # 2
    frequency:    0.1389702269
  - # 3
    frequency:    0.2709515271
  - # 4
    frequency:    0.4020478879
  - # 5
    frequency:    0.4390756282
  - # 6
    frequency:    0.6890998981
  - # 7
    frequency:    0.7201645308
  - # 8
    frequency:    4.2174893859
  - # 9
    frequency:    4.2230804618
  - # 10
    frequency:    4.7643488772
  - # 11
    frequency:    6.1005188909
  - # 12
    frequency:    6.1051847470
  - # 13
    frequency:    6.7057742566
  - # 14
    frequency:    6.7069186583
  - # 15
    frequency:    6.9285921134
  - # 16
    frequency:    8.7225711898
  - # 17
    frequency:   10.7375241701
  - # 18
    frequency:   10.7387284753
  - # 19
    frequency:   14.2474563429
  - # 20
    frequency:   14.2483438089
  - # 21
    frequency:   14.6250191686
  - # 22
    frequency:   15.8448512701
  - # 23
    frequency:   15.8483664171
  - # 24
    frequency:   20.1175203196
  - # 25
    frequency:   27.0913414105
  - # 26
    frequency:   58.1114681412
  - # 27
    frequency:   64.8587111508

- q-position: [    0.0202020,    0.0000000,    0.0000000 ]
  distance:    0.0066690
  band:
  - # 1
    frequency:    0.0333437580
  - # 2
    frequency:    0.1835130620
  - # 3
    frequency:    0.3483755090
  - # 4
    frequency:    0.4189493029
  - # 5
    frequency:    0.4880682940
  - # 6
    frequency:    0.6972760786
  - # 7
    frequency:    0.7514926045
  - # 8
    frequency:    4.2169638119
  - # 9
    frequency:    4.2268677054
  - # 10
    frequency:    4.7615999041
  - # 11
    frequency:    6.0990513395
  - # 12
    frequency:    6.1073334035
  - # 13
    frequency:    6.7066265019
  - # 14
    frequency:    6.7085719807
  - # 15
    frequency:    6.9274015098
  - # 16
    frequency:    8.7187671553
  - # 17
    frequency:   10.7378011171
  - # 18
    frequency:   10.7399403779
  - # 19
    frequency:   14.2476874931
  - # 20
    frequency:   14.2492581652
  - # 21
    frequency:   14.6245093465
  - # 22
    frequency:   15.8432372600
  - # 23
    frequency:   15.8494604755
  - # 24
    frequency:   20.1172536968
  - # 25
    frequency:   27.0908255106
  - # 26
    frequency:   58.1042483678
  - # 27
    frequency:   64.8582813846

- q-position: [    0.0252525,    0.0000000,    0.0000000 ]
  distance:    0.0083362
  band:
  - # 1
    frequency:    0.0506573141
  - # 2
    frequency:    0.2265312635
  - # 3
    frequency:    0.4139931156
  - # 4
    frequency:    0.4403084277
  - # 5
    frequency:    0.5532792432
  - # 6
    frequency:    0.7078443291
  - # 7
    frequency:    0.7909454358
  - # 8
    frequency:    4.2162954492
  - # 9
    frequency:    4.2316988090
  - # 10
    frequency:    4.7581088660
  - # 11
    frequency:    6.0971803723
  - # 12
    frequency:    6.1100951135
  - # 13
    frequency:    6.7077144771
  - # 14
    frequency:    6.7105733278
  - # 15
    frequency:    6.9259757045
  - # 16
    frequency:    8.7138884765
  - # 17
    frequency:   10.7381549415
  - # 18
    frequency:   10.7414940741
  - # 19
    frequency:   14.2479843857
  - # 20
    frequency:   14.2504243716
  - # 21
    frequency:   14.6238576816
  - # 22
    frequency:   15.8411768056
  - # 23
    frequency:   15.8508486287
  - # 24
    frequency:   20.1169109469
  - # 25
    frequency:   27.0901635094
  - # 26
    frequency:   58.0949889698
  - # 27
    frequency:   64.8577298769

- q-position: [    0.0303030,    0.0000000,    0.0000000 ]
  distance:    0.0100035
  band:
  - # 1
    frequency:    0.0708723450
  - # 2
    frequency:    0.2677151066
  - # 3
    frequency:    0.4658173233
  - # 4
    frequency:    0.4706404741
  - # 5
    frequency:    0.6295157775
  - # 6
    frequency:    0.7208688558
  - # 7
    frequency:    0.8384941398
  - # 8
    frequency:    4.2154898676
  - # 9
    frequency:    4.2375458598
  - # 10
    frequency:    4.7539081364
  - # 11
    frequency:    6.0949176583
  - # 12
    frequency:    6.1134685423
  - # 13
    frequency:    6.7090325146
  - # 14
    frequency:    6.7128263462
  - # 15
    frequency:    6.9243974695
  - # 16
    frequency:    8.7079442284
  - # 17
    frequency:   10.7385839776
  - # 18
    frequency:   10.7433862458
  - # 19
    frequency:   14.2483467974
  - # 20
    frequency:   14.2518353227
  - # 21
    frequency:   14.6230672700
  - # 22
    frequency:   15.8386808485
  - # 23
    frequency:   15.8525171688
  - # 24
    frequency:   20.1164921088
  - # 25
    frequency:   27.0893563784
  - # 26
    frequency:   58.0837072382
  - # 27
    frequency:   64.8570574115

- q-position: [    0.0353535,    0.0000000,    0.0000000 ]
  distance:    0.0116707
  band:
  - # 1
    frequency:    0.0937542487
  - # 2
    frequency:    0.3068876011
  - # 3
    frequency:    0.4950172929
  - # 4
    frequency:    0.5232804830
  - # 5
    frequency:    0.7093952777
  - # 6
    frequency:    0.7364522701
  - # 7
    frequency:    0.8945225234
  - # 8
    frequency:    4.2145539152
  - # 9
    frequency:    4.2443755300
  - # 10
    frequency:    4.7490371307
  - # 11
    frequency:    6.0922771958
  - # 12
    frequency:    6.1174513257
  - # 13
    frequency:    6.7105738560
  - # 14
    frequency:    6.7152105242
  - # 15
    frequency:    6.9227717374
  - # 16
    frequency:    8.7009454033
  - # 17
    frequency:   10.7390862130
  - # 18
    frequency:   10.7456128714
  - # 19
    frequency:   14.2487744573
  - # 20
    frequency:   14.2534822640
  - # 21
    frequency:   14.6221421509
  - # 22
    frequency:   15.8357626677
  - # 23
    frequency:   15.8544495207
  - # 24
    frequency:   20.1159972309
  - # 25
    frequency:   27.0884053019
  - # 26
    frequency:   58.0704242126
  - # 27
    frequency:   64.8562649425

- q-position: [    0.0404040,    0.0000000,    0.0000000 ]
  distance:    0.0133379
  band:
  - # 1
    frequency:    0.1191349081
  - # 2
    frequency:    0.3440551206
  - # 3
    frequency:    0.5272511864
  - # 4
    frequency:    0.5748354853
  - # 5
    frequency:    0.7547472531
  - # 6
    frequency:    0.7877441064
  - # 7
    frequency:    0.9595950822
  - # 8
    frequency:    4.2134957414
  - # 9
    frequency:    4.2521494987
  - # 10
    frequency:    4.7435422235
  - # 11
    frequency:    6.0892751651
  - # 12
    frequency:    6.1220396843
  - # 13
    frequency:    6.7123307437
  - # 14
    frequency:    6.7175808304
  - # 15
    frequency:    6.9212265248
  - # 16
    frequency:    8.6929048560
  - # 17
    frequency:   10.7396593036
  - # 18
    frequency:   10.7481692448
  - # 19
    frequency:   14.2492670485
  - # 20
    frequency:   14.2553547452
  - # 21
    frequency:   14.6210874563
  - # 22
    frequency:   15.8324378240
  - # 23
    frequency:   15.8566263488
  - # 24
    frequency:   20.1154263713
  - # 25
    frequency:   27.0873116754
  - # 26
    frequency:   58.0551646246
  - # 27
    frequency:   64.8553535929

- q-position: [    0.0454545,    0.0000000,    0.0000000 ]
  distance:    0.0150052
  band:
  - # 1
    frequency:    0.1468954783
  - # 2
    frequency:    0.3794024367
  - # 3
    frequency:    0.5616693493
  - # 4
    frequency:    0.6264653282
  - # 5
    frequency:    0.7759631467
  - # 6
    frequency:    0.8620491023
  - # 7
    frequency:    1.0336861625
  - # 8
    frequency:    4.2123248215
  - # 9
    frequency:    4.2608249053
  - # 10
    frequency:    4.7374766623
  - # 11
    frequency:    6.0859297628
  - # 12
    frequency:    6.1272280091
  - # 13
    frequency:    6.7142945212
  - # 14
    frequency:    6.7197689467
  - # 15
    frequency:    6.9199123209
  - # 16
    frequency:    8.6838372414
  - # 17
    frequency:   10.7403005895
  - # 18
    frequency:   10.7510499995
  - # 19
    frequency:   14.2498242095
  - # 20
    frequency:   14.2574405601
  - # 21
    frequency:   14.6199095862
  - # 22
    frequency:   15.8287240945
  - # 23
    frequency:   15.8590256809
  - # 24
    frequency:   20.1147795989
  - # 25
    frequency:   27.0860771035
  - # 26
    frequency:   58.0379568329
  - # 27
    frequency:   64.8543246517

- q-position: [    0.0505051,    0.0000000,    0.0000000 ]
  distance:    0.0166724
  band:
  - # 1
    frequency:    0.1769496110
  - # 2
    frequency:    0.4132284894
  - # 3
    frequency:    0.5973046625
  - # 4
    frequency:    0.6785359749
  - # 5
    frequency:    0.8003573046
  - # 6
    frequency:    0.9321040254
  - # 7
    frequency:    1.1155118996
  - # 8
    frequency:    4.2110519826
  - # 9
    frequency:    4.2703548176
  - # 10
    frequency:    4.7309004835
  - # 11
    frequency:    6.0822610209
  - # 12
    frequency:    6.1330084287
  - # 13
    frequency:    6.7164557390
  - # 14
    frequency:    6.7215873385
  - # 15
    frequency:    6.9189986926
  - # 16
    frequency:    8.6737589483
  - # 17
    frequency:   10.7410071140
  - # 18
    frequency:   10.7542491343
  - # 19
    frequency:   14.2504455358
  - # 20
    frequency:   14.2597256728
  - # 21
    frequency:   14.6186164067
  - # 22
    frequency:   15.8246413969
  - # 23
    frequency:   15.8616230506
  - # 24
    frequency:   20.1140569932
  - # 25
    frequency:   27.0847033975
  - # 26
    frequency:   58.0188327467
  - # 27
    frequency:   64.8531795713

- q-position: [    0.0555556,    0.0000000,    0.0000000 ]
  distance:    0.0183397
  band:
  - # 1
    frequency:    0.2092299568
  - # 2
    frequency:    0.4458615018
  - # 3
    frequency:    0.6331940387
  - # 4
    frequency:    0.7311058360
  - # 5
    frequency:    0.8281971229
  - # 6
    frequency:    0.9990515732
  - # 7
    frequency:    1.2029510345
  - # 8
    frequency:    4.2096894298
  - # 9
    frequency:    4.2806886944
  - # 10
    frequency:    4.7238804390
  - # 11
    frequency:    6.0782906155
  - # 12
    frequency:    6.1393703673
  - # 13
    frequency:    6.7188042632
  - # 14
    frequency:    6.7228374861
  - # 15
    frequency:    6.9186667664
  - # 16
    frequency:    8.6626880295
  - # 17
    frequency:   10.7417756444
  - # 18
    frequency:   10.7577600431
  - # 19
    frequency:   14.2511305825
  - # 20
    frequency:   14.2621941297
  - # 21
    frequency:   14.6172174700
  - # 22
    frequency:   15.8202117053
  - # 23
    frequency:   15.8643916557
  - # 24
    frequency:   20.1132586455
  - # 25
    frequency:   27.0831925724
  - # 26
    frequency:   57.9978277419
  - # 27
    frequency:   64.8519199645

- q-position: [    0.0606061,    0.0000000,    0.0000000 ]
  distance:    0.0200069
  band:
  - # 1
    frequency:    0.2436784781
  - # 2
    frequency:    0.4775953314
  - # 3
    frequency:    0.6685136385
  - # 4
    frequency:    0.7841210746
  - # 5
    frequency:    0.8596851826
  - # 6
    frequency:    1.0642046675
  - # 7
    frequency:    1.2939847231
  - # 8
    frequency:    4.2082507713
  - # 9
    frequency:    4.2917728233
  - # 10
    frequency:    4.7164899454
  - # 11
    frequency:    6.0740416657
  - # 12
    frequency:    6.1463000972
  - # 13
    frequency:    6.7213293850
  - # 14
    frequency:    6.7233230651
  - # 15
    frequency:    6.9190967984
  - # 16
    frequency:    8.6506441306
  - # 17
    frequency:   10.7426026949
  - # 18
    frequency:   10.7615755472
  - # 19
    frequency:   14.2518788660
  - # 20
    frequency:   14.2648279548
  - # 21
    frequency:   14.6157242526
  - # 22
    frequency:   15.8154589564
  - # 23
    frequency:   15.8673025316
  - # 24
    frequency:   20.1123846593
  - # 25
    frequency:   27.0815468444
  - # 26
    frequency:   57.9749805662
  - # 27
    frequency:   64.8505476007

- q-position: [    0.0656566,    0.0000000,    0.0000000 ]
  distance:    0.0216742
  band:
  - # 1
    frequency:    0.2802400815
  - # 2
    frequency:    0.5086610377
  - # 3
    frequency:    0.7026958845
  - # 4
    frequency:    0.8374918724
  - # 5
    frequency:    0.8948665485
  - # 6
    frequency:    1.1284998192
  - # 7
    frequency:    1.3871314227
  - # 8
    frequency:    4.2067510408
  - # 9
    frequency:    4.3035507117
  - # 10
    frequency:    4.7088090684
  - # 11
    frequency:    6.0695385277
  - # 12
    frequency:    6.1537802841
  - # 13
    frequency:    6.7228673745
  - # 14
    frequency:    6.7240199285
  - # 15
    frequency:    6.9204515294
  - # 16
    frequency:    8.6376484199
  - # 17
    frequency:   10.7434845511
  - # 18
    frequency:   10.7656879300
  - # 19
    frequency:   14.2526898671
  - # 20
    frequency:   14.2676070317
  - # 21
    frequency:   14.6141504081
  - # 22
    frequency:   15.8104089471
  - # 23
    frequency:   15.8703247403
  - # 24
    frequency:   20.1114351510
  - # 25
    frequency:   27.0797686270
  - # 26
    frequency:   57.9503332366
  - # 27
    frequency:   64.8490644025

- q-position: [    0.0707071,    0.0000000,    0.0000000 ]
  distance:    0.0233414
  band:
  - # 1
    frequency:    0.3188587828
  - # 2
    frequency:    0.5392247899
  - # 3
    frequency:    0.7354865367
  - # 4
    frequency:    0.8911221315
  - # 5
    frequency:    0.9335695157
  - # 6
    frequency:    1.1924807256
  - # 7
    frequency:    1.4814054482
  - # 8
    frequency:    4.2052067167
  - # 9
    frequency:    4.3159634124
  - # 10
    frequency:    4.7009245590
  - # 11
    frequency:    6.0648065861
  - # 12
    frequency:    6.1617895200
  - # 13
    frequency:    6.7213321160
  - # 14
    frequency:    6.7268643548
  - # 15
    frequency:    6.9228582267
  - # 16
    frequency:    8.6237235190
  - # 17
    frequency:   10.7444172961
  - # 18
    frequency:   10.7700889751
  - # 19
    frequency:   14.2535630332
  - # 20
    frequency:   14.2705089730
  - # 21
    frequency:   14.6125120305
  - # 22
    frequency:   15.8050892234
  - # 23
    frequency:   15.8734255708
  - # 24
    frequency:   20.1104102505
  - # 25
    frequency:   27.0778605276
  - # 26
    frequency:   57.9239309273
  - # 27
    frequency:   64.8474724416

- q-position: [    0.0757576,    0.0000000,    0.0000000 ]
  distance:    0.0250087
  band:
  - # 1
    frequency:    0.3594756449
  - # 2
    frequency:    0.5693982234
  - # 3
    frequency:    0.7669115510
  - # 4
    frequency:    0.9449206160
  - # 5
    frequency:    0.9754243384
  - # 6
    frequency:    1.2564265843
  - # 7
    frequency:    1.5761554467
  - # 8
    frequency:    4.2036357345
  - # 9
    frequency:    4.3289497593
  - # 10
    frequency:    4.6929299596
  - # 11
    frequency:    6.0598720430
  - # 12
    frequency:    6.1703018294
  - # 13
    frequency:    6.7186328783
  - # 14
    frequency:    6.7298508621
  - # 15
    frequency:    6.9263940672
  - # 16
    frequency:    8.6088934393
  - # 17
    frequency:   10.7453968387
  - # 18
    frequency:   10.7747700050
  - # 19
    frequency:   14.2544977821
  - # 20
    frequency:   14.2735089823
  - # 21
    frequency:   14.6108279198
  - # 22
    frequency:   15.7995289611
  - # 23
    frequency:   15.8765707518
  - # 24
    frequency:   20.1093101022
  - # 25
    frequency:   27.0758253431
  - # 26
    frequency:   57.8958218501
  - # 27
    frequency:   64.8457739338

- q-position: [    0.0808081,    0.0000000,    0.0000000 ]
  distance:    0.0266759
  band:
  - # 1
    frequency:    0.4020278809
  - # 2
    frequency:    0.5992517335
  - # 3
    frequency:    0.7971749018
  - # 4
    frequency:    0.9988045543
  - # 5
    frequency:    1.0199484395
  - # 6
    frequency:    1.3204621344
  - # 7
    frequency:    1.6709335068
  - # 8
    frequency:    4.2020574925
  - # 9
    frequency:    4.3424464924
  - # 10
    frequency:    4.6849258016
  - # 11
    frequency:    6.0547617097
  - # 12
    frequency:    6.1792861328
  - # 13
    frequency:    6.7147469143
  - # 14
    frequency:    6.7329674802
  - # 15
    frequency:    6.9310792876
  - # 16
    frequency:    8.5931835223
  - # 17
    frequency:   10.7464189413
  - # 18
    frequency:   10.7797219227
  - # 19
    frequency:   14.2554935047
  - # 20
    frequency:   14.2765797162
  - # 21
    frequency:   14.6091198399
  - # 22
    frequency:   15.7937588396
  - # 23
    frequency:   15.8797246730
  - # 24
    frequency:   20.1081348653
  - # 25
    frequency:   27.0736660560
  - # 26
    frequency:   57.8660571263
  - # 27
    frequency:   64.8439712353

- q-position: [    0.0858586,    0.0000000,    0.0000000 ]
  distance:    0.0283431
  band:
  - # 1
    frequency:    0.4464486810
  - # 2
    frequency:    0.6288263412
  - # 3
    frequency:    0.8265468193
  - # 4
    frequency:    1.0527001924
  - # 5
    frequency:    1.0666430708
  - # 6
    frequency:    1.3846267135
  - # 7
    frequency:    1.7654120514
  - # 8
    frequency:    4.2004928484
  - # 9
    frequency:    4.3563882458
  - # 10
    frequency:    4.6770199181
  - # 11
    frequency:    6.0495027995
  - # 12
    frequency:    6.1887056426
  - # 13
    frequency:    6.7097114562
  - # 14
    frequency:    6.7362021589
  - # 15
    frequency:    6.9368798792
  - # 16
    frequency:    8.5766203881
  - # 17
    frequency:   10.7474792506
  - # 18
    frequency:   10.7849352548
  - # 19
    frequency:   14.2565495689
  - # 20
    frequency:   14.2796911574
  - # 21
    frequency:   14.6074127566
  - # 22
    frequency:   15.7878109070
  - # 23
    frequency:   15.8828506145
  - # 24
    frequency:   20.1068847151
  - # 25
    frequency:   27.0713858290
  - # 26
    frequency:   57.8346906513
  - # 27
    frequency:   64.8420668369

- q-position: [    0.0909091,    0.0000000,    0.0000000 ]
  distance:    0.0300104
  band:
  - # 1
    frequency:    0.4926674584
  - # 2
    frequency:    0.6581428800
  - # 3
    frequency:    0.8552867260
  - # 4
    frequency:    1.1065421802
  - # 5
    frequency:    1.1150583811
  - # 6
    frequency:    1.4489137451
  - # 7
    frequency:    1.8593343543
  - # 8
    frequency:    4.1989641047
  - # 9
    frequency:    4.3707073730
  - # 10
    frequency:    4.6693278948
  - # 11
    frequency:    6.0441227257
  - # 12
    frequency:    6.1985171624
  - # 13
    frequency:    6.7036143961
  - # 14
    frequency:    6.7395428507
  - # 15
    frequency:    6.9437180215
  - # 16
    frequency:    8.5592318918
  - # 17
    frequency:   10.7485733271
  - # 18
    frequency:   10.7904001947
  - # 19
    frequency:   14.2576653232
  - # 20
    frequency:   14.2828105155
  - # 21
    frequency:   14.6057350364
  - # 22
    frequency:   15.7817184398
  - # 23
    frequency:   15.8859109817
  - # 24
    frequency:   20.1055598433
  - # 25
    frequency:   27.0689880007
  - # 26
    frequency:   57.8017789515
  - # 27
    frequency:   64.8400633593

- q-position: [    0.0959596,    0.0000000,    0.0000000 ]
  distance:    0.0316776
  band:
  - # 1
    frequency:    0.5406103152
  - # 2
    frequency:    0.6872086187
  - # 3
    frequency:    0.8836079109
  - # 4
    frequency:    1.1602725881
  - # 5
    frequency:    1.1648197054
  - # 6
    frequency:    1.5132927025
  - # 7
    frequency:    1.9524851691
  - # 8
    frequency:    4.1974949807
  - # 9
    frequency:    4.3853335848
  - # 10
    frequency:    4.6619736813
  - # 11
    frequency:    6.0386489043
  - # 12
    frequency:    6.2086702566
  - # 13
    frequency:    6.6965814244
  - # 14
    frequency:    6.7429775871
  - # 15
    frequency:    6.9514861956
  - # 16
    frequency:    8.5410470900
  - # 17
    frequency:   10.7496966767
  - # 18
    frequency:   10.7961066477
  - # 19
    frequency:   14.2588401010
  - # 20
    frequency:   14.2859021766
  - # 21
    frequency:   14.6041185846
  - # 22
    frequency:   15.7755157953
  - # 23
    frequency:   15.8888675441
  - # 24
    frequency:   20.1041604596
  - # 25
    frequency:   27.0664760794
  - # 26
    frequency:   57.7673810351
  - # 27
    frequency:   64.8379635473

- q-position: [    0.1010101,    0.0000000,    0.0000000 ]
  distance:    0.0333449
  band:
  - # 1
    frequency:    0.5902006034
  - # 2
    frequency:    0.7160218491
  - # 3
    frequency:    0.9116703076
  - # 4
    frequency:    1.2138398853
  - # 5
    frequency:    1.2156281347
  - # 6
    frequency:    1.5777212575
  - # 7
    frequency:    2.0446729275
  - # 8
    frequency:    4.1961105708
  - # 9
    frequency:    4.4001933828
  - # 10
    frequency:    4.6550903711
  - # 11
    frequency:    6.0331085631
  - # 12
    frequency:    6.2191062543
  - # 13
    frequency:    6.6887636829
  - # 14
    frequency:    6.7464945498
  - # 15
    frequency:    6.9600609500
  - # 16
    frequency:    8.5220962182
  - # 17
    frequency:   10.7508447809
  - # 18
    frequency:   10.8020442756
  - # 19
    frequency:   14.2600732248
  - # 20
    frequency:   14.2889277299
  - # 21
    frequency:   14.6025988925
  - # 22
    frequency:   15.7692382592
  - # 23
    frequency:   15.8916816747
  - # 24
    frequency:   20.1026867921
  - # 25
    frequency:   27.0638537376
  - # 26
    frequency:   57.7315582362
  - # 27
    frequency:   64.8357702647

- q-position: [    0.1060606,    0.0000000,    0.0000000 ]
  distance:    0.0350121
  band:
  - # 1
    frequency:    0.6413595038
  - # 2
    frequency:    0.7445749928
  - # 3
    frequency:    0.9395864432
  - # 4
    frequency:    1.2671980108
  - # 5
    frequency:    1.2672497003
  - # 6
    frequency:    1.6421519903
  - # 7
    frequency:    2.1357186234
  - # 8
    frequency:    4.1948372852
  - # 9
    frequency:    4.4152092955
  - # 10
    frequency:    4.6488211287
  - # 11
    frequency:    6.0275285591
  - # 12
    frequency:    6.2297570553
  - # 13
    frequency:    6.6803284274
  - # 14
    frequency:    6.7500821358
  - # 15
    frequency:    6.9693138548
  - # 16
    frequency:    8.5024106797
  - # 17
    frequency:   10.7520131279
  - # 18
    frequency:   10.8082025414
  - # 19
    frequency:   14.2613640104
  - # 20
    frequency:   14.2918461034
  - # 21
    frequency:   14.6012149606
  - # 22
    frequency:   15.7629218867
  - # 23
    frequency:   15.8943145902
  - # 24
    frequency:   20.1011390889
  - # 25
    frequency:   27.0611248058
  - # 26
    frequency:   57.6943740527
  - # 27
    frequency:   64.8334864877

- q-position: [    0.1111111,    0.0000000,    0.0000000 ]
  distance:    0.0366794
  band:
  - # 1
    frequency:    0.6940065782
  - # 2
    frequency:    0.7728566751
  - # 3
    frequency:    0.9674312953
  - # 4
    frequency:    1.3195019431
  - # 5
    frequency:    1.3203055763
  - # 6
    frequency:    1.7065360743
  - # 7
    frequency:    2.2254486618
  - # 8
    frequency:    4.1937027735
  - # 9
    frequency:    4.4302989888
  - # 10
    frequency:    4.6433201697
  - # 11
    frequency:    6.0219352039
  - # 12
    frequency:    6.2405437175
  - # 13
    frequency:    6.6714534366
  - # 14
    frequency:    6.7537290180
  - # 15
    frequency:    6.9791189231
  - # 16
    frequency:    8.4820230484
  - # 17
    frequency:   10.7531972425
  - # 18
    frequency:   10.8145707539
  - # 19
    frequency:   14.2627117719
  - # 20
    frequency:   14.2946138482
  - # 21
    frequency:   14.6000090595
  - # 22
    frequency:   15.7566033407
  - # 23
    frequency:   15.8967275882
  - # 24
    frequency:   20.0995176192
  - # 25
    frequency:   27.0582932658
  - # 26
    frequency:   57.6558939797
  - # 27
    frequency:   64.8311152994

- q-position: [    0.1161616,    0.0000000,    0.0000000 ]
  distance:    0.0383466
  band:
  - # 1
    frequency:    0.7480602713
  - # 2
    frequency:    0.8008531028
  - # 3
    frequency:    0.9952518348
  - # 4
    frequency:    1.3722417173
  - # 5
    frequency:    1.3731252041
  - # 6
    frequency:    1.7708252630
  - # 7
    frequency:    2.3136901578
  - # 8
    frequency:    4.1927358282
  - # 9
    frequency:    4.4453744585
  - # 10
    frequency:    4.6387535536
  - # 11
    frequency:    6.0163540996
  - # 12
    frequency:    6.2513748371
  - # 13
    frequency:    6.6623247431
  - # 14
    frequency:    6.7574242002
  - # 15
    frequency:    6.9893569087
  - # 16
    frequency:    8.4609670842
  - # 17
    frequency:   10.7543927158
  - # 18
    frequency:   10.8211381104
  - # 19
    frequency:   14.2641158259
  - # 20
    frequency:   14.2971856087
  - # 21
    frequency:   14.5990262881
  - # 22
    frequency:   15.7503197251
  - # 23
    frequency:   15.8988822805
  - # 24
    frequency:   20.0978226749
  - # 25
    frequency:   27.0553632438
  - # 26
    frequency:   57.6161853370
  - # 27
    frequency:   64.8286598833

- q-position: [    0.1212121,    0.0000000,    0.0000000 ]
  distance:    0.0400138
  band:
  - # 1
    frequency:    0.8034383488
  - # 2
    frequency:    0.8285489794
  - # 3
    frequency:    1.0230748603
  - # 4
    frequency:    1.4253553554
  - # 5
    frequency:    1.4256229889
  - # 6
    frequency:    1.8349729154
  - # 7
    frequency:    2.4002678448
  - # 8
    frequency:    4.1919662685
  - # 9
    frequency:    4.4603417849
  - # 10
    frequency:    4.6352992531