nqpoint: 300    
npath: 3      
segment_nqpoint:
- 100
- 100
- 100
labels:
- [ 'G', 'M' ]
- [ 'M', 'K' ]
- [ 'K', 'G' ]
reciprocal_lattice:
- [   0.28588732,   0.16505712,   0.00000000 ] # a*
- [   0.00000000,   0.33011424,   0.00000000 ] # b*
- [   0.00000000,   0.00000000,   0.03428999 ] # c*
natom: 9      
lattice:
- [     3.497881601889492,     0.000000000000000,     0.000000000000000 ] # a
- [    -1.748940800944746,     3.029254326666980,     0.000000000000000 ] # b
- [     0.000000000000000,     0.000000000000000,    29.163029680533509 ] # c
points:
- symbol: C # 1
  coordinates: [  0.000000000000000,  0.000000000000000,  0.507403499419760 ]
  mass: 12.010700
- symbol: C # 2
  coordinates: [  0.333332985432215,  0.666666983183674,  0.638055766611938 ]
  mass: 12.010700
- symbol: C # 3
  coordinates: [  0.666666984744047,  0.333332985985145,  0.349434141833031 ]
  mass: 12.010700
- symbol: N # 4
  coordinates: [  0.333332985432215,  0.666666983183674,  0.595139912727833 ]
  mass: 14.006700
- symbol: N # 5
  coordinates: [  0.666666984744047,  0.333332985985145,  0.308609911198889 ]
  mass: 14.006700
- symbol: S # 6
  coordinates: [  0.333332985432215,  0.666666983183674,  0.691390088801111 ]
  mass: 32.065000
- symbol: S # 7
  coordinates: [  0.666666984744047,  0.333332985985145,  0.407081793895489 ]
  mass: 32.065000
- symbol: Zr # 8
  coordinates: [  0.333332985432215,  0.666666983183674,  0.465082466989790 ]
  mass: 91.224000
- symbol: Zr # 9
  coordinates: [  0.666666984744047,  0.333332985985145,  0.547665436030960 ]
  mass: 91.224000

phonon:
- q-position: [    0.0000000,    0.0000000,    0.0000000 ]
  distance:    0.0000000
  band:
  - # 1
    frequency:   -0.0000006211
  - # 2
    frequency:   -0.0000002856
  - # 3
    frequency:    0.0000002462
  - # 4
    frequency:    0.4518102050
  - # 5
    frequency:    0.4518102050
  - # 6
    frequency:    0.8483375382
  - # 7
    frequency:    0.8483375382
  - # 8
    frequency:    4.0089926563
  - # 9
    frequency:    4.0089926563
  - # 10
    frequency:    4.5651183918
  - # 11
    frequency:    5.9862762594
  - # 12
    frequency:    5.9862762594
  - # 13
    frequency:    6.5908056425
  - # 14
    frequency:    6.5908056425
  - # 15
    frequency:    6.7606729763
  - # 16
    frequency:    8.5689280770
  - # 17
    frequency:   10.7162354846
  - # 18
    frequency:   10.7162354846
  - # 19
    frequency:   14.1798911718
  - # 20
    frequency:   14.1798911718
  - # 21
    frequency:   14.4509221569
  - # 22
    frequency:   15.7705327268
  - # 23
    frequency:   15.7705327268
  - # 24
    frequency:   20.1175098099
  - # 25
    frequency:   27.0895955647
  - # 26
    frequency:   58.1975599657
  - # 27
    frequency:   64.8611297557

- q-position: [    0.0050505,    0.0000000,    0.0000000 ]
  distance:    0.0016672
  band:
  - # 1
    frequency:   -0.0695310920
  - # 2
    frequency:    0.0662987151
  - # 3
    frequency:    0.1120100960
  - # 4
    frequency:    0.4540104173
  - # 5
    frequency:    0.4591005167
  - # 6
    frequency:    0.8489485750
  - # 7
    frequency:    0.8506835878
  - # 8
    frequency:    4.0095463836
  - # 9
    frequency:    4.0101733487
  - # 10
    frequency:    4.5652035393
  - # 11
    frequency:    5.9863459122
  - # 12
    frequency:    5.9869013664
  - # 13
    frequency:    6.5911336820
  - # 14
    frequency:    6.5911963449
  - # 15
    frequency:    6.7609202068
  - # 16
    frequency:    8.5687386342
  - # 17
    frequency:   10.7163276659
  - # 18
    frequency:   10.7164949765
  - # 19
    frequency:   14.1800746045
  - # 20
    frequency:   14.1801112455
  - # 21
    frequency:   14.4513019004
  - # 22
    frequency:   15.7712719094
  - # 23
    frequency:   15.7715639744
  - # 24
    frequency:   20.1174835648
  - # 25
    frequency:   27.0895337653
  - # 26
    frequency:   58.1963497969
  - # 27
    frequency:   64.8610650471

- q-position: [    0.0101010,    0.0000000,    0.0000000 ]
  distance:    0.0033345
  band:
  - # 1
    frequency:   -0.0895854970
  - # 2
    frequency:    0.1321905140
  - # 3
    frequency:    0.1974311921
  - # 4
    frequency:    0.4606242946
  - # 5
    frequency:    0.4801964775
  - # 6
    frequency:    0.8507910243
  - # 7
    frequency:    0.8577043133
  - # 8
    frequency:    4.0112030911
  - # 9
    frequency:    4.0137036791
  - # 10
    frequency:    4.5654581572
  - # 11
    frequency:    5.9865535665
  - # 12
    frequency:    5.9887730582
  - # 13
    frequency:    6.5921044423
  - # 14
    frequency:    6.5923659556
  - # 15
    frequency:    6.7616710970
  - # 16
    frequency:    8.5681693542
  - # 17
    frequency:   10.7166037429
  - # 18
    frequency:   10.7172722419
  - # 19
    frequency:   14.1806234177
  - # 20
    frequency:   14.1807703350
  - # 21
    frequency:   14.4524371144
  - # 22
    frequency:   15.7734839246
  - # 23
    frequency:   15.7746504838
  - # 24
    frequency:   20.1174047577
  - # 25
    frequency:   27.0893483715
  - # 26
    frequency:   58.1927224233
  - # 27
    frequency:   64.8608710289

- q-position: [    0.0151515,    0.0000000,    0.0000000 ]
  distance:    0.0050017
  band:
  - # 1
    frequency:   -0.1063619701
  - # 2
    frequency:    0.1971943871
  - # 3
    frequency:    0.2849436863
  - # 4
    frequency:    0.4717151722
  - # 5
    frequency:    0.5132334715
  - # 6
    frequency:    0.8538948157
  - # 7
    frequency:    0.8693560054
  - # 8
    frequency:    4.0139494138
  - # 9
    frequency:    4.0195487359
  - # 10
    frequency:    4.5658798071
  - # 11
    frequency:    5.9868953288
  - # 12
    frequency:    5.9918804715
  - # 13
    frequency:    6.5936780725
  - # 14
    frequency:    6.5943070085
  - # 15
    frequency:    6.7629530808
  - # 16
    frequency:    8.5672173841
  - # 17
    frequency:   10.7170623172
  - # 18
    frequency:   10.7185636630
  - # 19
    frequency:   14.1815331867
  - # 20
    frequency:   14.1818650553
  - # 21
    frequency:   14.4543158366
  - # 22
    frequency:   15.7771522151
  - # 23
    frequency:   15.7797705744
  - # 24
    frequency:   20.1172731729
  - # 25
    frequency:   27.0890393965
  - # 26
    frequency:   58.1866872290
  - # 27
    frequency:   64.8605480232

- q-position: [    0.0202020,    0.0000000,    0.0000000 ]
  distance:    0.0066690
  band:
  - # 1
    frequency:   -0.1207989215
  - # 2
    frequency:    0.2606589013
  - # 3
    frequency:    0.3727672141
  - # 4
    frequency:    0.4874701654
  - # 5
    frequency:    0.5561325443
  - # 6
    frequency:    0.8583167241
  - # 7
    frequency:    0.8855955022
  - # 8
    frequency:    4.0177632681
  - # 9
    frequency:    4.0276514060
  - # 10
    frequency:    4.5664645451
  - # 11
    frequency:    5.9873647751
  - # 12
    frequency:    5.9962055794
  - # 13
    frequency:    6.5957889986
  - # 14
    frequency:    6.5970071366
  - # 15
    frequency:    6.7648112430
  - # 16
    frequency:    8.5658779726
  - # 17
    frequency:   10.7177010648
  - # 18
    frequency:   10.7203632541
  - # 19
    frequency:   14.1827966328
  - # 20
    frequency:   14.1833897968
  - # 21
    frequency:   14.4569184181
  - # 22
    frequency:   15.7822493209
  - # 23
    frequency:   15.7868881806
  - # 24
    frequency:   20.1170884530
  - # 25
    frequency:   27.0886068654
  - # 26
    frequency:   58.1782598063
  - # 27
    frequency:   64.8600965663

- q-position: [    0.0252525,    0.0000000,    0.0000000 ]
  distance:    0.0083362
  band:
  - # 1
    frequency:   -0.1319799146
  - # 2
    frequency:    0.3216286686
  - # 3
    frequency:    0.4594852227
  - # 4
    frequency:    0.5083235570
  - # 5
    frequency:    0.6071831384
  - # 6
    frequency:    0.8641527067
  - # 7
    frequency:    0.9064300438
  - # 8
    frequency:    4.0226141344
  - # 9
    frequency:    4.0379339126
  - # 10
    frequency:    4.5672070983
  - # 11
    frequency:    5.9879530465
  - # 12
    frequency:    6.0017233071
  - # 13
    frequency:    6.5983475275
  - # 14
    frequency:    6.6004491859
  - # 15
    frequency:    6.7673070228
  - # 16
    frequency:    8.5641444770
  - # 17
    frequency:   10.7185167457
  - # 18
    frequency:   10.7226627261
  - # 19
    frequency:   14.1844037639
  - # 20
    frequency:   14.1853367711
  - # 21
    frequency:   14.4602179437
  - # 22
    frequency:   15.7887370834
  - # 23
    frequency:   15.7959529630
  - # 24
    frequency:   20.1168501008
  - # 25
    frequency:   27.0880508188
  - # 26
    frequency:   58.1674618842
  - # 27
    frequency:   64.8595174061

- q-position: [    0.0303030,    0.0000000,    0.0000000 ]
  distance:    0.0100035
  band:
  - # 1
    frequency:   -0.1389365105
  - # 2
    frequency:    0.3787204665
  - # 3
    frequency:    0.5350695164
  - # 4
    frequency:    0.5438554324
  - # 5
    frequency:    0.6651599723
  - # 6
    frequency:    0.8715599226
  - # 7
    frequency:    0.9320023270
  - # 8
    frequency:    4.0284634456
  - # 9
    frequency:    4.0502998323
  - # 10
    frequency:    4.5681011072
  - # 11
    frequency:    5.9886489814
  - # 12
    frequency:    6.0084016860
  - # 13
    frequency:    6.6012427171
  - # 14
    frequency:    6.6046113732
  - # 15
    frequency:    6.7705157715
  - # 16
    frequency:    8.5620083736
  - # 17
    frequency:   10.7195052183
  - # 18
    frequency:   10.7254515751
  - # 19
    frequency:   14.1863420628
  - # 20
    frequency:   14.1876960707
  - # 21
    frequency:   14.4641807962
  - # 22
    frequency:   15.7965669333
  - # 23
    frequency:   15.8069004832
  - # 24
    frequency:   20.1165574830
  - # 25
    frequency:   27.0873713185
  - # 26
    frequency:   58.1543212287
  - # 27
    frequency:   64.8588115003

- q-position: [    0.0353535,    0.0000000,    0.0000000 ]
  distance:    0.0116707
  band:
  - # 1
    frequency:   -0.1405128282
  - # 2
    frequency:    0.4302842946
  - # 3
    frequency:    0.5686755166
  - # 4
    frequency:    0.6247706732
  - # 5
    frequency:    0.7289763782
  - # 6
    frequency:    0.8807950711
  - # 7
    frequency:    0.9627349800
  - # 8
    frequency:    4.0352650715
  - # 9
    frequency:    4.0646364737
  - # 10
    frequency:    4.5691394290
  - # 11
    frequency:    5.9894392804
  - # 12
    frequency:    6.0162020414
  - # 13
    frequency:    6.6043469914
  - # 14
    frequency:    6.6094674854
  - # 15
    frequency:    6.7745226826
  - # 16
    frequency:    8.5594592752
  - # 17
    frequency:   10.7206614573
  - # 18
    frequency:   10.7287171931
  - # 19
    frequency:   14.1885967165
  - # 20
    frequency:   14.1904557385
  - # 21
    frequency:   14.4687673444
  - # 22
    frequency:   15.8056802627
  - # 23
    frequency:   15.8196524547
  - # 24
    frequency:   20.1162098343
  - # 25
    frequency:   27.0865684542
  - # 26
    frequency:   58.1388715158
  - # 27
    frequency:   64.8579800131

- q-position: [    0.0404040,    0.0000000,    0.0000000 ]
  distance:    0.0133379
  band:
  - # 1
    frequency:   -0.1349661842
  - # 2
    frequency:    0.4753101911
  - # 3
    frequency:    0.6093207766
  - # 4
    frequency:    0.7016992833
  - # 5
    frequency:    0.7968480620
  - # 6
    frequency:    0.8922800790
  - # 7
    frequency:    0.9995605956
  - # 8
    frequency:    4.0429658924
  - # 9
    frequency:    4.0808174877
  - # 10
    frequency:    4.5703144965
  - # 11
    frequency:    5.9903087026
  - # 12
    frequency:    6.0250792052
  - # 13
    frequency:    6.6075228266
  - # 14
    frequency:    6.6149871189
  - # 15
    frequency:    6.7794167664
  - # 16
    frequency:    8.5564849565
  - # 17
    frequency:   10.7219795769
  - # 18
    frequency:   10.7324449991
  - # 19
    frequency:   14.1911508782
  - # 20
    frequency:   14.1936018431
  - # 21
    frequency:   14.4739327274
  - # 22
    frequency:   15.8160088819
  - # 23
    frequency:   15.8341170881
  - # 24
    frequency:   20.1158062623
  - # 25
    frequency:   27.0856423523
  - # 26
    frequency:   58.1211521782
  - # 27
    frequency:   64.8570243114

- q-position: [    0.0454545,    0.0000000,    0.0000000 ]
  distance:    0.0150052
  band:
  - # 1
    frequency:   -0.1190410879
  - # 2
    frequency:    0.5144844927
  - # 3
    frequency:    0.6552409134
  - # 4
    frequency:    0.7750936386
  - # 5
    frequency:    0.8655336009
  - # 6
    frequency:    0.9067087430
  - # 7
    frequency:    1.0441626045
  - # 8
    frequency:    4.0515064486
  - # 9
    frequency:    4.0987055798
  - # 10
    frequency:    4.5716187261
  - # 11
    frequency:    5.9912402888
  - # 12
    frequency:    6.0349817423
  - # 13
    frequency:    6.6106314190
  - # 14
    frequency:    6.6211359557
  - # 15
    frequency:    6.7852829546
  - # 16
    frequency:    8.5530713903
  - # 17
    frequency:   10.7234528576
  - # 18
    frequency:   10.7366185864
  - # 19
    frequency:   14.1939859522
  - # 20
    frequency:   14.1971185562
  - # 21
    frequency:   14.4796277098
  - # 22
    frequency:   15.8274755635
  - # 23
    frequency:   15.8501895468
  - # 24
    frequency:   20.1153457535
  - # 25
    frequency:   27.0845931854
  - # 26
    frequency:   58.1012082254
  - # 27
    frequency:   64.8559459609

- q-position: [    0.0505051,    0.0000000,    0.0000000 ]
  distance:    0.0166724
  band:
  - # 1
    frequency:   -0.0839119345
  - # 2
    frequency:    0.5497152521
  - # 3
    frequency:    0.7030636584
  - # 4
    frequency:    0.8460225420
  - # 5
    frequency:    0.9251896952
  - # 6
    frequency:    0.9308857049
  - # 7
    frequency:    1.0987174258
  - # 8
    frequency:    4.0608216556
  - # 9
    frequency:    4.1181552031
  - # 10
    frequency:    4.5730449710
  - # 11
    frequency:    5.9922156081
  - # 12
    frequency:    6.0458521792
  - # 13
    frequency:    6.6135425899
  - # 14
    frequency:    6.6278760728
  - # 15
    frequency:    6.7921930773
  - # 16
    frequency:    8.5492027972
  - # 17
    frequency:   10.7250737788
  - # 18
    frequency:   10.7412198865
  - # 19
    frequency:   14.1970818937
  - # 20
    frequency:   14.2009882269
  - # 21
    frequency:   14.4857995788
  - # 22
    frequency:   15.8399946690
  - # 23
    frequency:   15.8677525264
  - # 24
    frequency:   20.1148271799
  - # 25
    frequency:   27.0834211832
  - # 26
    frequency:   58.0790900398
  - # 27
    frequency:   64.8547467206

- q-position: [    0.0555556,    0.0000000,    0.0000000 ]
  distance:    0.0183397
  band:
  - # 1
    frequency:    0.0612289783
  - # 2
    frequency:    0.5828013152
  - # 3
    frequency:    0.7490683076
  - # 4
    frequency:    0.9154342389
  - # 5
    frequency:    0.9493191735
  - # 6
    frequency:    0.9900857095
  - # 7
    frequency:    1.1643458017
  - # 8
    frequency:    4.0708415724
  - # 9
    frequency:    4.1390151296
  - # 10
    frequency:    4.5745870135
  - # 11
    frequency:    5.9932150238
  - # 12
    frequency:    6.0576272223
  - # 13
    frequency:    6.6161445148
  - # 14
    frequency:    6.6351662822
  - # 15
    frequency:    6.8001971216
  - # 16
    frequency:    8.5448617119
  - # 17
    frequency:   10.7268340556
  - # 18
    frequency:   10.7462293433
  - # 19
    frequency:   14.2004175126
  - # 20
    frequency:   14.2051914508
  - # 21
    frequency:   14.4923930580
  - # 22
    frequency:   15.8534728599
  - # 23
    frequency:   15.8866769701
  - # 24
    frequency:   20.1142493056
  - # 25
    frequency:   27.0821266447
  - # 26
    frequency:   58.0548531491
  - # 27
    frequency:   64.8534285376

- q-position: [    0.0606061,    0.0000000,    0.0000000 ]
  distance:    0.0200069
  band:
  - # 1
    frequency:    0.1370159086
  - # 2
    frequency:    0.6148962571
  - # 3
    frequency:    0.7900626363
  - # 4
    frequency:    0.9808395296
  - # 5
    frequency:    0.9837725088
  - # 6
    frequency:    1.0435001326
  - # 7
    frequency:    1.2396039532
  - # 8
    frequency:    4.0814922096
  - # 9
    frequency:    4.1611308146
  - # 10
    frequency:    4.5762400942
  - # 11
    frequency:    5.9942179749
  - # 12
    frequency:    6.0702379474
  - # 13
    frequency:    6.6183515485
  - # 14
    frequency:    6.6429624961
  - # 15
    frequency:    6.8093165006
  - # 16
    frequency:    8.5400290684
  - # 17
    frequency:   10.7287246814
  - # 18
    frequency:   10.7516260975
  - # 19
    frequency:   14.2039707748
  - # 20
    frequency:   14.2097071304
  - # 21
    frequency:   14.4993512135
  - # 22
    frequency:   15.8678098866
  - # 23
    frequency:   15.9068229234
  - # 24
    frequency:   20.1136107949
  - # 25
    frequency:   27.0807099509
  - # 26
    frequency:   58.0285579763
  - # 27
    frequency:   64.8519935413

- q-position: [    0.0656566,    0.0000000,    0.0000000 ]
  distance:    0.0216742
  band:
  - # 1
    frequency:    0.1964477540
  - # 2
    frequency:    0.6466254353
  - # 3
    frequency:    0.8242935671
  - # 4
    frequency:    1.0206097004
  - # 5
    frequency:    1.0507239733
  - # 6
    frequency:    1.0938357400
  - # 7
    frequency:    1.3215549257
  - # 8
    frequency:    4.0926963661
  - # 9
    frequency:    4.1843464950
  - # 10
    frequency:    4.5780014767
  - # 11
    frequency:    5.9952032686
  - # 12
    frequency:    6.0836099462
  - # 13
    frequency:    6.6201087433
  - # 14
    frequency:    6.6512181147
  - # 15
    frequency:    6.8195407319
  - # 16
    frequency:    8.5346843076
  - # 17
    frequency:   10.7307359750
  - # 18
    frequency:   10.7573881781
  - # 19
    frequency:   14.2077190937
  - # 20
    frequency:   14.2145125249
  - # 21
    frequency:   14.5066163332
  - # 22
    frequency:   15.8828994510
  - # 23
    frequency:   15.9280405320
  - # 24
    frequency:   20.1129102201
  - # 25
    frequency:   27.0791715788
  - # 26
    frequency:   58.0002695698
  - # 27
    frequency:   64.8504440363

- q-position: [    0.0707071,    0.0000000,    0.0000000 ]
  distance:    0.0233414
  band:
  - # 1
    frequency:    0.2524682871
  - # 2
    frequency:    0.6783005078
  - # 3
    frequency:    0.8520574746
  - # 4
    frequency:    1.0677780074
  - # 5
    frequency:    1.1141732284
  - # 6
    frequency:    1.1453099129
  - # 7
    frequency:    1.4076235393
  - # 8
    frequency:    4.1043744813
  - # 9
    frequency:    4.2085069775
  - # 10
    frequency:    4.5798710515
  - # 11
    frequency:    5.9961493791
  - # 12
    frequency:    6.0976634093
  - # 13
    frequency:    6.6213925776
  - # 14
    frequency:    6.6598844307
  - # 15
    frequency:    6.8308280110
  - # 16
    frequency:    8.5288055108
  - # 17
    frequency:   10.7328576341
  - # 18
    frequency:   10.7634926962
  - # 19
    frequency:   14.2116396042
  - # 20
    frequency:   14.2195832872
  - # 21
    frequency:   14.5141307645
  - # 22
    frequency:   15.8986301356
  - # 23
    frequency:   15.9501711740
  - # 24
    frequency:   20.1121460704
  - # 25
    frequency:   27.0775121157
  - # 26
    frequency:   57.9700573133
  - # 27
    frequency:   64.8487824958

- q-position: [    0.0757576,    0.0000000,    0.0000000 ]
  distance:    0.0250087
  band:
  - # 1
    frequency:    0.3077710849
  - # 2
    frequency:    0.7100639459
  - # 3
    frequency:    0.8749681802
  - # 4
    frequency:    1.1203671015
  - # 5
    frequency:    1.1696158204
  - # 6
    frequency:    1.2037010917
  - # 7
    frequency:    1.4961180976
  - # 8
    frequency:    4.1164454928
  - # 9
    frequency:    4.2334590932
  - # 10
    frequency:    4.5818519847
  - # 11
    frequency:    5.9970347493
  - # 12
    frequency:    6.1123131281
  - # 13
    frequency:    6.6222084781
  - # 14
    frequency:    6.6689110466
  - # 15
    frequency:    6.8431090956
  - # 16
    frequency:    8.5223695592
  - # 17
    frequency:   10.7350787925
  - # 18
    frequency:   10.7699160427
  - # 19
    frequency:   14.2157094178
  - # 20
    frequency:   14.2248934881
  - # 21
    frequency:   14.5218376994
  - # 22
    frequency:   15.9148863901
  - # 23
    frequency:   15.9730487190
  - # 24
    frequency:   20.1113167611
  - # 25
    frequency:   27.0757322740
  - # 26
    frequency:   57.9379946195
  - # 27
    frequency:   64.8470115540

- q-position: [    0.0808081,    0.0000000,    0.0000000 ]
  distance:    0.0266759
  band:
  - # 1
    frequency:    0.3633256597
  - # 2
    frequency:    0.7419691934
  - # 3
    frequency:    0.8947292624
  - # 4
    frequency:    1.1764190192
  - # 5
    frequency:    1.2182329999
  - # 6
    frequency:    1.2684857752
  - # 7
    frequency:    1.5860070933
  - # 8
    frequency:    4.1288276886
  - # 9
    frequency:    4.2590528024
  - # 10
    frequency:    4.5839514286
  - # 11
    frequency:    5.9978380913
  - # 12
    frequency:    6.1274683952
  - # 13
    frequency:    6.6225864344
  - # 14
    frequency:    6.6782462997
  - # 15
    frequency:    6.8562932030
  - # 16
    frequency:    8.5153523254
  - # 17
    frequency:   10.7373880844
  - # 18
    frequency:   10.7766340839
  - # 19
    frequency:   14.2199058534
  - # 20
    frequency:   14.2304156257
  - # 21
    frequency:   14.5296819019
  - # 22
    frequency:   15.9315495664
  - # 23
    frequency:   15.9965008954
  - # 24
    frequency:   20.1104206429
  - # 25
    frequency:   27.0738329067
  - # 26
    frequency:   57.9041586079
  - # 27
    frequency:   64.8451339983

- q-position: [    0.0858586,    0.0000000,    0.0000000 ]
  distance:    0.0283431
  band:
  - # 1
    frequency:    0.4195346728
  - # 2
    frequency:    0.7740231470
  - # 3
    frequency:    0.9125846918
  - # 4
    frequency:    1.2344997984
  - # 5
    frequency:    1.2644223528
  - # 6
    frequency:    1.3355700952
  - # 7
    frequency:    1.6766478866
  - # 8
    frequency:    4.1414395447
  - # 9
    frequency:    4.2851419366
  - # 10
    frequency:    4.5861813172
  - # 11
    frequency:    5.9985386806
  - # 12
    frequency:    6.1430327888
  - # 13
    frequency:    6.6225761259
  - # 14
    frequency:    6.6878376907
  - # 15
    frequency:    6.8702745008
  - # 16
    frequency:    8.5077288943
  - # 17
    frequency:   10.7397737120
  - # 18
    frequency:   10.7836223557
  - # 19
    frequency:   14.2242066431
  - # 20
    frequency:   14.2361206213
  - # 21
    frequency:   14.5376103762
  - # 22
    frequency:   15.9484989895
  - # 23
    frequency:   16.0203507489
  - # 24
    frequency:   20.1094560127
  - # 25
    frequency:   27.0718150221
  - # 26
    frequency:   57.8686297684
  - # 27
    frequency:   64.8431527612

- q-position: [    0.0909091,    0.0000000,    0.0000000 ]
  distance:    0.0300104
  band:
  - # 1
    frequency:    0.4765593531
  - # 2
    frequency:    0.8062086562
  - # 3
    frequency:    0.9293244809
  - # 4
    frequency:    1.2936693211
  - # 5
    frequency:    1.3098993743
  - # 6
    frequency:    1.4033528649
  - # 7
    frequency:    1.7676147696
  - # 8
    frequency:    4.1542005409
  - # 9
    frequency:    4.3115845574
  - # 10
    frequency:    4.5885592916
  - # 11
    frequency:    5.9991166421
  - # 12
    frequency:    6.1589038299
  - # 13
    frequency:    6.6222426429
  - # 14
    frequency:    6.6976323104
  - # 15
    frequency:    6.8849381024
  - # 16
    frequency:    8.4994738197
  - # 17
    frequency:   10.7422235193
  - # 18
    frequency:   10.7908562531
  - # 19
    frequency:   14.2285901126
  - # 20
    frequency:   14.2419778005
  - # 21
    frequency:   14.5455729753
  - # 22
    frequency:   15.9656130527
  - # 23
    frequency:   16.0444181684
  - # 24
    frequency:   20.1084211237
  - # 25
    frequency:   27.0696797995
  - # 26
    frequency:   57.8314916145
  - # 27
    frequency:   64.8410709115

- q-position: [    0.0959596,    0.0000000,    0.0000000 ]
  distance:    0.0316776
  band:
  - # 1
    frequency:    0.5344426730
  - # 2
    frequency:    0.8384965430
  - # 3
    frequency:    0.9454286782
  - # 4
    frequency:    1.3533235630
  - # 5
    frequency:    1.3551928505
  - # 6
    frequency:    1.4713199805
  - # 7
    frequency:    1.8586032362
  - # 8
    frequency:    4.1670319463
  - # 9
    frequency:    4.3382428901
  - # 10
    frequency:    4.5911098235
  - # 11
    frequency:    5.9995532232
  - # 12
    frequency:    6.1749725135
  - # 13
    frequency:    6.6216633659
  - # 14
    frequency:    6.7075772607
  - # 15
    frequency:    6.9001649869
  - # 16
    frequency:    8.4905614126
  - # 17
    frequency:   10.7447250696
  - # 18
    frequency:   10.7983112147
  - # 19
    frequency:   14.2330353364
  - # 20
    frequency:   14.2479548615
  - # 21
    frequency:   14.5535229557
  - # 22
    frequency:   15.9827703261
  - # 23
    frequency:   16.0685214554
  - # 24
    frequency:   20.1073141980
  - # 25
    frequency:   27.0674286037
  - # 26
    frequency:   57.7928303258
  - # 27
    frequency:   64.8388916461

- q-position: [    0.1010101,    0.0000000,    0.0000000 ]
  distance:    0.0333449
  band:
  - # 1
    frequency:    0.5931649228
  - # 2
    frequency:    0.8708519871
  - # 3
    frequency:    0.9611872952
  - # 4
    frequency:    1.4004808495
  - # 5
    frequency:    1.4130668063
  - # 6
    frequency:    1.5392561959
  - # 7
    frequency:    1.9493773226
  - # 8
    frequency:    4.1798575707
  - # 9
    frequency:    4.3649827428
  - # 10
    frequency:    4.5938656563
  - # 11
    frequency:    5.9998310514
  - # 12
    frequency:    6.1911227369
  - # 13
    frequency:    6.6209261155
  - # 14
    frequency:    6.7176200656
  - # 15
    frequency:    6.9158356958
  - # 16
    frequency:    8.4809660652
  - # 17
    frequency:   10.7472657270
  - # 18
    frequency:   10.8059629003
  - # 19
    frequency:   14.2375222688
  - # 20
    frequency:   14.2540178320
  - # 21
    frequency:   14.5614174813
  - # 22
    frequency:   15.9998506629
  - # 23
    frequency:   16.0924789122
  - # 24
    frequency:   20.1061334385
  - # 25
    frequency:   27.0650629993
  - # 26
    frequency:   57.7527343843
  - # 27
    frequency:   64.8366182802

- q-position: [    0.1060606,    0.0000000,    0.0000000 ]
  distance:    0.0350121
  band:
  - # 1
    frequency:    0.6526719222
  - # 2
    frequency:    0.9032376403
  - # 3
    frequency:    0.9767768393
  - # 4
    frequency:    1.4458172652
  - # 5
    frequency:    1.4726307470
  - # 6
    frequency:    1.6070442279
  - # 7
    frequency:    2.0397398928
  - # 8
    frequency:    4.1926044757
  - # 9
    frequency:    4.3916722431
  - # 10
    frequency:    4.5968697624
  - # 11
    frequency:    5.9999343731
  - # 12
    frequency:    6.2072306839
  - # 13
    frequency:    6.6201283852
  - # 14
    frequency:    6.7277090679
  - # 15
    frequency:    6.9318329228
  - # 16
    frequency:    8.4706626078
  - # 17
    frequency:   10.7498327420
  - # 18
    frequency:   10.8137873600
  - # 19
    frequency:   14.2420318535
  - # 20
    frequency:   14.2601310164
  - # 21
    frequency:   14.5692180805
  - # 22
    frequency:   16.0167362938
  - # 23
    frequency:   16.1161104249
  - # 24
    frequency:   20.1048770425
  - # 25
    frequency:   27.0625847643
  - # 26
    frequency:   57.7112942039
  - # 27
    frequency:   64.8342542391

- q-position: [    0.1111111,    0.0000000,    0.0000000 ]
  distance:    0.0366794
  band:
  - # 1
    frequency:    0.7128905930
  - # 2
    frequency:    0.9356142344
  - # 3
    frequency:    0.9923066799
  - # 4
    frequency:    1.4912041718
  - # 5
    frequency:    1.5318264822
  - # 6
    frequency:    1.6746064087
  - # 7
    frequency:    2.1295152255
  - # 8
    frequency:    4.2052036422
  - # 9
    frequency:    4.4181795692
  - # 10
    frequency:    4.6001781640
  - # 11
    frequency:    5.9998492712
  - # 12
    frequency:    6.2231642805
  - # 13
    frequency:    6.6193773005
  - # 14
    frequency:    6.7377938088
  - # 15
    frequency:    6.9480432281
  - # 16
    frequency:    8.4596266987
  - # 17
    frequency:   10.7524133390
  - # 18
    frequency:   10.8217611953
  - # 19
    frequency:   14.2465461117
  - # 20
    frequency:   14.2662569386
  - # 21
    frequency:   14.5768910619
  - # 22
    frequency:   16.0333128951
  - # 23
    frequency:   16.1392390183
  - # 24
    frequency:   20.1035432166
  - # 25
    frequency:   27.0599959026
  - # 26
    frequency:   57.6686017584
  - # 27
    frequency:   64.8318030484

- q-position: [    0.1161616,    0.0000000,    0.0000000 ]
  distance:    0.0383466
  band:
  - # 1
    frequency:    0.7737380948
  - # 2
    frequency:    0.9679369205
  - # 3
    frequency:    1.0078501837
  - # 4
    frequency:    1.5366200395
  - # 5
    frequency:    1.5905161681
  - # 6
    frequency:    1.7418842247
  - # 7
    frequency:    2.2185383920
  - # 8
    frequency:    4.2175905909
  - # 9
    frequency:    4.4443690833
  - # 10
    frequency:    4.6038642332
  - # 11
    frequency:    5.9995638600
  - # 12
    frequency:    6.2387829211
  - # 13
    frequency:    6.6187898587
  - # 14
    frequency:    6.7478253858
  - # 15
    frequency:    6.9643581126
  - # 16
    frequency:    8.4478352449
  - # 17
    frequency:   10.7549948073
  - # 18
    frequency:   10.8298617093
  - # 19
    frequency:   14.2510482141
  - # 20
    frequency:   14.2723562839
  - # 21
    frequency:   14.5844078869
  - # 22
    frequency:   16.0494706207
  - # 23
    frequency:   16.1616923604
  - # 24
    frequency:   20.1021301929
  - # 25
    frequency:   27.0572986555
  - # 26
    frequency:   57.6247502080
  - # 27
    frequency:   64.8292683244

- q-position: [    0.1212121,    0.0000000,    0.0000000 ]
  distance:    0.0400138
  band:
  - # 1
    frequency:    0.8351274165
  - # 2
    frequency:    1.0001313208
  - # 3
    frequency:    1.0234849444
  - # 4
    frequency:    1.5820324602
  - # 5
    frequency:    1.6485960171
  - # 6
    frequency:    1.8088299064
  - # 7
    frequency:    2.3066485237
  - # 8
    frequency:    4.2297059542
  - # 9
    frequency:    4.4700947819
  - # 10
    frequency:    4.6080255699