nqpoint: 300    
npath: 3      
segment_nqpoint:
- 100
- 100
- 100
labels:
- [ 'G', 'M' ]
- [ 'M', 'K' ]
- [ 'K', 'G' ]
reciprocal_lattice:
- [   0.30157010,   0.17411158,   0.00000000 ] # a*
- [   0.00000000,   0.34822315,   0.00000000 ] # b*
- [   0.00000000,   0.00000000,   0.03575881 ] # c*
natom: 8      
lattice:
- [     3.315978637115338,     0.000000000000000,     0.000000000000000 ] # a
- [    -1.657989318557669,     2.871721738153989,     0.000000000000000 ] # b
- [     0.000000000000000,     0.000000000000000,    27.965140018473285 ] # c
points:
- symbol: C # 1
  coordinates: [  0.333332985432215,  0.666666983183674,  0.622690667812305 ]
  mass: 12.010700
- symbol: N # 2
  coordinates: [  0.000000000000000,  0.000000000000000,  0.488409406219605 ]
  mass: 14.006700
- symbol: N # 3
  coordinates: [  0.333332985432215,  0.666666983183674,  0.577945537563914 ]
  mass: 14.006700
- symbol: O # 4
  coordinates: [  0.666666984744047,  0.333332985985145,  0.321829248630787 ]
  mass: 15.999400
- symbol: P # 5
  coordinates: [  0.666666984744047,  0.333332985985145,  0.375264656168645 ]
  mass: 30.973762
- symbol: S # 6
  coordinates: [  0.333332985432215,  0.666666983183674,  0.678170751369213 ]
  mass: 32.065000
- symbol: Sc # 7
  coordinates: [  0.333332985432215,  0.666666983183674,  0.445818545029986 ]
  mass: 44.955912
- symbol: Sc # 8
  coordinates: [  0.666666984744047,  0.333332985985145,  0.531901713820246 ]
  mass: 44.955912

phonon:
- q-position: [    0.0000000,    0.0000000,    0.0000000 ]
  distance:    0.0000000
  band:
  - # 1
    frequency:   -0.0000010236
  - # 2
    frequency:    0.0000010868
  - # 3
    frequency:    0.0000017895
  - # 4
    frequency:    0.5386878594
  - # 5
    frequency:    0.5386878594
  - # 6
    frequency:    0.8779221999
  - # 7
    frequency:    0.8779221999
  - # 8
    frequency:    4.1780526486
  - # 9
    frequency:    4.1780526486
  - # 10
    frequency:    4.8037174976
  - # 11
    frequency:    5.5383443263
  - # 12
    frequency:    5.5383443263
  - # 13
    frequency:    7.9179218305
  - # 14
    frequency:    8.1177443142
  - # 15
    frequency:    8.1177443142
  - # 16
    frequency:   10.7354788476
  - # 17
    frequency:   13.2548624872
  - # 18
    frequency:   13.2548624872
  - # 19
    frequency:   13.8318984778
  - # 20
    frequency:   14.2241933019
  - # 21
    frequency:   14.2241933019
  - # 22
    frequency:   27.3401204380
  - # 23
    frequency:   34.2083965211
  - # 24
    frequency:   58.3823208501

- q-position: [    0.0050505,    0.0000000,    0.0000000 ]
  distance:    0.0017587
  band:
  - # 1
    frequency:   -0.1316027452
  - # 2
    frequency:   -0.0524099385
  - # 3
    frequency:    0.1358712677
  - # 4
    frequency:    0.5414082013
  - # 5
    frequency:    0.5501246444
  - # 6
    frequency:    0.8882483954
  - # 7
    frequency:    0.8982037852
  - # 8
    frequency:    4.1786948729
  - # 9
    frequency:    4.1791183703
  - # 10
    frequency:    4.8038642307
  - # 11
    frequency:    5.5387001165
  - # 12
    frequency:    5.5391824261
  - # 13
    frequency:    7.9175032692
  - # 14
    frequency:    8.1177619058
  - # 15
    frequency:    8.1185942060
  - # 16
    frequency:   10.7347992290
  - # 17
    frequency:   13.2547978988
  - # 18
    frequency:   13.2549236421
  - # 19
    frequency:   13.8316801052
  - # 20
    frequency:   14.2242855194
  - # 21
    frequency:   14.2245847127
  - # 22
    frequency:   27.3399901135
  - # 23
    frequency:   34.2081391812
  - # 24
    frequency:   58.3811817216

- q-position: [    0.0101010,    0.0000000,    0.0000000 ]
  distance:    0.0035174
  band:
  - # 1
    frequency:   -0.2038586510
  - # 2
    frequency:   -0.0958893412
  - # 3
    frequency:    0.2289941487
  - # 4
    frequency:    0.5493708999
  - # 5
    frequency:    0.5812692363
  - # 6
    frequency:    0.9175541749
  - # 7
    frequency:    0.9541254801
  - # 8
    frequency:    4.1806188656
  - # 9
    frequency:    4.1822947350
  - # 10
    frequency:    4.8043227109
  - # 11
    frequency:    5.5397668022
  - # 12
    frequency:    5.5416907171
  - # 13
    frequency:    7.9162648432
  - # 14
    frequency:    8.1178146094
  - # 15
    frequency:    8.1211264073
  - # 16
    frequency:   10.7327622965
  - # 17
    frequency:   13.2546049118
  - # 18
    frequency:   13.2551068644
  - # 19
    frequency:   13.8310260966
  - # 20
    frequency:   14.2245620417
  - # 21
    frequency:   14.2257579968
  - # 22
    frequency:   27.3395995526
  - # 23
    frequency:   34.2073676092
  - # 24
    frequency:   58.3777669251

- q-position: [    0.0151515,    0.0000000,    0.0000000 ]
  distance:    0.0052761
  band:
  - # 1
    frequency:   -0.2597679837
  - # 2
    frequency:   -0.1230936384
  - # 3
    frequency:    0.3286048548
  - # 4
    frequency:    0.5621454054
  - # 5
    frequency:    0.6271738379
  - # 6
    frequency:    0.9618541119
  - # 7
    frequency:    1.0353244286
  - # 8
    frequency:    4.1838165226
  - # 9
    frequency:    4.1875193470
  - # 10
    frequency:    4.8051475016
  - # 11
    frequency:    5.5415423402
  - # 12
    frequency:    5.5458515193
  - # 13
    frequency:    7.9142553965
  - # 14
    frequency:    8.1179022083
  - # 15
    frequency:    8.1252914303
  - # 16
    frequency:   10.7293738065
  - # 17
    frequency:   13.2542858640
  - # 18
    frequency:   13.2554114279
  - # 19
    frequency:   13.8299397554
  - # 20
    frequency:   14.2250224770
  - # 21
    frequency:   14.2277103260
  - # 22
    frequency:   27.3389499904
  - # 23
    frequency:   34.2060831481
  - # 24
    frequency:   58.3720842166

- q-position: [    0.0202020,    0.0000000,    0.0000000 ]
  distance:    0.0070348
  band:
  - # 1
    frequency:   -0.2994716725
  - # 2
    frequency:   -0.1270575484
  - # 3
    frequency:    0.4329367520
  - # 4
    frequency:    0.5792982320
  - # 5
    frequency:    0.6847793107
  - # 6
    frequency:    1.0167483674
  - # 7
    frequency:    1.1324072743
  - # 8
    frequency:    4.1882741317
  - # 9
    frequency:    4.1946882660
  - # 10
    frequency:    4.8064286025
  - # 11
    frequency:    5.5440233646
  - # 12
    frequency:    5.5516364800
  - # 13
    frequency:    7.9115476610
  - # 14
    frequency:    8.1180243345
  - # 15
    frequency:    8.1310154877
  - # 16
    frequency:   10.7246433073
  - # 17
    frequency:   13.2538446628
  - # 18
    frequency:   13.2558361231
  - # 19
    frequency:   13.8284265104
  - # 20
    frequency:   14.2256661724
  - # 21
    frequency:   14.2304370422
  - # 22
    frequency:   27.3380434787
  - # 23
    frequency:   34.2042880334
  - # 24
    frequency:   58.3641464846

- q-position: [    0.0252525,    0.0000000,    0.0000000 ]
  distance:    0.0087935
  band:
  - # 1
    frequency:   -0.3255062747
  - # 2
    frequency:   -0.0929098477
  - # 3
    frequency:    0.5401742638
  - # 4
    frequency:    0.6004531661
  - # 5
    frequency:    0.7523534255
  - # 6
    frequency:    1.0785771172
  - # 7
    frequency:    1.2389794977
  - # 8
    frequency:    4.1939720737
  - # 9
    frequency:    4.2036562158
  - # 10
    frequency:    4.8082899979
  - # 11
    frequency:    5.5472052450
  - # 12
    frequency:    5.5590081174
  - # 13
    frequency:    7.9082284004
  - # 14
    frequency:    8.1181804580
  - # 15
    frequency:    8.1382103755
  - # 16
    frequency:   10.7185840712
  - # 17
    frequency:   13.2532868002
  - # 18
    frequency:   13.2563792594
  - # 19
    frequency:   13.8264938068
  - # 20
    frequency:   14.2264922136
  - # 21
    frequency:   14.2339317360
  - # 22
    frequency:   27.3368828744
  - # 23
    frequency:   34.2019853895
  - # 24
    frequency:   58.3539716946

- q-position: [    0.0303030,    0.0000000,    0.0000000 ]
  distance:    0.0105522
  band:
  - # 1
    frequency:   -0.3404944919
  - # 2
    frequency:    0.0987464298
  - # 3
    frequency:    0.6252723724
  - # 4
    frequency:    0.6484413568
  - # 5
    frequency:    0.8289344786
  - # 6
    frequency:    1.1446612336
  - # 7
    frequency:    1.3510382226
  - # 8
    frequency:    4.2008844245
  - # 9
    frequency:    4.2142371640
  - # 10
    frequency:    4.8108874963
  - # 11
    frequency:    5.5510821654
  - # 12
    frequency:    5.5679217515
  - # 13
    frequency:    7.9043891145
  - # 14
    frequency:    8.1183698723
  - # 15
    frequency:    8.1467828052
  - # 16
    frequency:   10.7112130019
  - # 17
    frequency:   13.2526193737
  - # 18
    frequency:   13.2570386677
  - # 19
    frequency:   13.8241509619
  - # 20
    frequency:   14.2274994235
  - # 21
    frequency:   14.2381863476
  - # 22
    frequency:   27.3354718249
  - # 23
    frequency:   34.1991792243
  - # 24
    frequency:   58.3415828102

- q-position: [    0.0353535,    0.0000000,    0.0000000 ]
  distance:    0.0123109
  band:
  - # 1
    frequency:   -0.3463273114
  - # 2
    frequency:    0.2009405322
  - # 3
    frequency:    0.6534494776
  - # 4
    frequency:    0.7556131731
  - # 5
    frequency:    0.9141925052
  - # 6
    frequency:    1.2131336841
  - # 7
    frequency:    1.4660607340
  - # 8
    frequency:    4.2089784773
  - # 9
    frequency:    4.2262056214
  - # 10
    frequency:    4.8144056423
  - # 11
    frequency:    5.5556472227
  - # 12
    frequency:    5.5783276347
  - # 13
    frequency:    7.9001190407
  - # 14
    frequency:    8.1185916776
  - # 15
    frequency:    8.1566414528
  - # 16
    frequency:   10.7025505187
  - # 17
    frequency:   13.2518511095
  - # 18
    frequency:   13.2578117046
  - # 19
    frequency:   13.8214089969
  - # 20
    frequency:   14.2286863622
  - # 21
    frequency:   14.2431912817
  - # 22
    frequency:   27.3338147490
  - # 23
    frequency:   34.1958744217
  - # 24
    frequency:   58.3270076937

- q-position: [    0.0404040,    0.0000000,    0.0000000 ]
  distance:    0.0140696
  band:
  - # 1
    frequency:   -0.3440519900
  - # 2
    frequency:    0.2895401600
  - # 3
    frequency:    0.6847235720
  - # 4
    frequency:    0.8596644180
  - # 5
    frequency:    1.0080347680
  - # 6
    frequency:    1.2827066357
  - # 7
    frequency:    1.5823969704
  - # 8
    frequency:    4.2182142147
  - # 9
    frequency:    4.2392991670
  - # 10
    frequency:    4.8190533298
  - # 11
    frequency:    5.5608925412
  - # 12
    frequency:    5.5901730976
  - # 13
    frequency:    7.8955009539
  - # 14
    frequency:    8.1188447608
  - # 15
    frequency:    8.1677012184
  - # 16
    frequency:   10.6926204194
  - # 17
    frequency:   13.2509923879
  - # 18
    frequency:   13.2586952564
  - # 19
    frequency:   13.8182804511
  - # 20
    frequency:   14.2300513255
  - # 21
    frequency:   14.2489355306
  - # 22
    frequency:   27.3319168133
  - # 23
    frequency:   34.1920767329
  - # 24
    frequency:   58.3102789851

- q-position: [    0.0454545,    0.0000000,    0.0000000 ]
  distance:    0.0158283
  band:
  - # 1
    frequency:   -0.3339097151
  - # 2
    frequency:    0.3742550260
  - # 3
    frequency:    0.7189028501
  - # 4
    frequency:    0.9595167336
  - # 5
    frequency:    1.1097358961
  - # 6
    frequency:    1.3524875601
  - # 7
    frequency:    1.6989267158
  - # 8
    frequency:    4.2285437625
  - # 9
    frequency:    4.2532228587
  - # 10
    frequency:    4.8250575908
  - # 11
    frequency:    5.5668094000
  - # 12
    frequency:    5.6034045393
  - # 13
    frequency:    7.8906094101
  - # 14
    frequency:    8.1191277745
  - # 15
    frequency:    8.1798850574
  - # 16
    frequency:   10.6814497258
  - # 17
    frequency:   13.2500552681
  - # 18
    frequency:   13.2596857458
  - # 19
    frequency:   13.8147791878
  - # 20
    frequency:   14.2315923438
  - # 21
    frequency:   14.2554067963
  - # 22
    frequency:   27.3297839053
  - # 23
    frequency:   34.1877927657
  - # 24
    frequency:   58.2914339611

- q-position: [    0.0505051,    0.0000000,    0.0000000 ]
  distance:    0.0175870
  band:
  - # 1
    frequency:   -0.3153003289
  - # 2
    frequency:    0.4565600018
  - # 3
    frequency:    0.7558916480
  - # 4
    frequency:    1.0555154389
  - # 5
    frequency:    1.2174168784
  - # 6
    frequency:    1.4218556486
  - # 7
    frequency:    1.8148728724
  - # 8
    frequency:    4.2399108679
  - # 9
    frequency:    4.2676562642
  - # 10
    frequency:    4.8326549576
  - # 11
    frequency:    5.5733883687
  - # 12
    frequency:    5.6179691268
  - # 13
    frequency:    7.8855107203
  - # 14
    frequency:    8.1194391153
  - # 15
    frequency:    8.1931240931
  - # 16
    frequency:   10.6690685135
  - # 17
    frequency:   13.2490535115
  - # 18
    frequency:   13.2607791391
  - # 19
    frequency:   13.8109201990
  - # 20
    frequency:   14.2333071799
  - # 21
    frequency:   14.2625916080
  - # 22
    frequency:   27.3274226024
  - # 23
    frequency:   34.1830299718
  - # 24
    frequency:   58.2705143749

- q-position: [    0.0555556,    0.0000000,    0.0000000 ]
  distance:    0.0193457
  band:
  - # 1
    frequency:   -0.2864875092
  - # 2
    frequency:    0.5364362765
  - # 3
    frequency:    0.7957174439
  - # 4
    frequency:    1.1488028724
  - # 5
    frequency:    1.3286149668
  - # 6
    frequency:    1.4903840482
  - # 7
    frequency:    1.9296994112
  - # 8
    frequency:    4.2522504490
  - # 9
    frequency:    4.2822637328
  - # 10
    frequency:    4.8420799173
  - # 11
    frequency:    5.5806194478
  - # 12
    frequency:    5.6338161017
  - # 13
    frequency:    7.8802639510
  - # 14
    frequency:    8.1197769024
  - # 15
    frequency:    8.2073567175
  - # 16
    frequency:   10.6555097311
  - # 17
    frequency:   13.2480025994
  - # 18
    frequency:   13.2619709548
  - # 19
    frequency:   13.8067194134
  - # 20
    frequency:   14.2351933274
  - # 21
    frequency:   14.2704754295
  - # 22
    frequency:   27.3248401376
  - # 23
    frequency:   34.1777966319
  - # 24
    frequency:   58.2475662772

- q-position: [    0.0606061,    0.0000000,    0.0000000 ]
  distance:    0.0211044
  band:
  - # 1
    frequency:   -0.2435360072
  - # 2
    frequency:    0.6133397377
  - # 3
    frequency:    0.8385471080
  - # 4
    frequency:    1.2404573977
  - # 5
    frequency:    1.4410880421
  - # 6
    frequency:    1.5577926356
  - # 7
    frequency:    2.0430546846
  - # 8
    frequency:    4.2654882662
  - # 9
    frequency:    4.2967081044
  - # 10
    frequency:    4.8535504187
  - # 11
    frequency:    5.5884922064
  - # 12
    frequency:    5.6508976269
  - # 13
    frequency:    7.8749224096
  - # 14
    frequency:    8.1201389580
  - # 15
    frequency:    8.2225272212
  - # 16
    frequency:   10.6408090106
  - # 17
    frequency:   13.2469197452
  - # 18
    frequency:   13.2632562744
  - # 19
    frequency:   13.8021935120
  - # 20
    frequency:   14.2372480084
  - # 21
    frequency:   14.2790427555
  - # 22
    frequency:   27.3220443614
  - # 23
    frequency:   34.1721018391
  - # 24
    frequency:   58.2226398203

- q-position: [    0.0656566,    0.0000000,    0.0000000 ]
  distance:    0.0228631
  band:
  - # 1
    frequency:   -0.1756997276
  - # 2
    frequency:    0.6864793372
  - # 3
    frequency:    0.8846584812
  - # 4
    frequency:    1.3311843550
  - # 5
    frequency:    1.5530745236
  - # 6
    frequency:    1.6239202222
  - # 7
    frequency:    2.1547385957
  - # 8
    frequency:    4.2795407705
  - # 9
    frequency:    4.3106672622
  - # 10
    frequency:    4.8672512045
  - # 11
    frequency:    5.5969959130
  - # 12
    frequency:    5.6691691377
  - # 13
    frequency:    7.8695352617
  - # 14
    frequency:    8.1205227902
  - # 15
    frequency:    8.2385843063
  - # 16
    frequency:   10.6250044742
  - # 17
    frequency:   13.2458238975
  - # 18
    frequency:   13.2646297536
  - # 19
    frequency:   13.7973597536
  - # 20
    frequency:   14.2394681705
  - # 21
    frequency:   14.2882771957
  - # 22
    frequency:   27.3190437014
  - # 23
    frequency:   34.1659554797
  - # 24
    frequency:   58.1957890457

- q-position: [    0.0707071,    0.0000000,    0.0000000 ]
  distance:    0.0246218
  band:
  - # 1
    frequency:    0.0595000551
  - # 2
    frequency:    0.7550325623
  - # 3
    frequency:    0.9343003447
  - # 4
    frequency:    1.4213702662
  - # 5
    frequency:    1.6632010099
  - # 6
    frequency:    1.6887087914
  - # 7
    frequency:    2.2646809528
  - # 8
    frequency:    4.2943151793
  - # 9
    frequency:    4.3238519029
  - # 10
    frequency:    4.8833168114
  - # 11
    frequency:    5.6061196512
  - # 12
    frequency:    5.6885891826
  - # 13
    frequency:    7.8641490782
  - # 14
    frequency:    8.1209255801
  - # 15
    frequency:    8.2554796843
  - # 16
    frequency:   10.6081365402
  - # 17
    frequency:   13.2447357332
  - # 18
    frequency:   13.2660856360
  - # 19
    frequency:   13.7922358093
  - # 20
    frequency:   14.2418504845
  - # 21
    frequency:   14.2981615481
  - # 22
    frequency:   27.3158471180
  - # 23
    frequency:   34.1593682116
  - # 24
    frequency:   58.1670716569

- q-position: [    0.0757576,    0.0000000,    0.0000000 ]
  distance:    0.0263805
  band:
  - # 1
    frequency:    0.2103430072
  - # 2
    frequency:    0.8184629439
  - # 3
    frequency:    0.9873966226
  - # 4
    frequency:    1.5112015727
  - # 5
    frequency:    1.7521947433
  - # 6
    frequency:    1.7703381855
  - # 7
    frequency:    2.3729225989
  - # 8
    frequency:    4.3097098292
  - # 9
    frequency:    4.3360219939
  - # 10
    frequency:    4.9018170079
  - # 11
    frequency:    5.6158524158
  - # 12
    frequency:    5.7091187648
  - # 13
    frequency:    7.8588092151
  - # 14
    frequency:    8.1213441733
  - # 15
    frequency:    8.2731668551
  - # 16
    frequency:   10.5902477326
  - # 17
    frequency:   13.2436776382
  - # 18
    frequency:   13.2676177682
  - # 19
    frequency:   13.7868396085
  - # 20
    frequency:   14.2443913412
  - # 21
    frequency:   14.3086778622
  - # 22
    frequency:   27.3124640582
  - # 23
    frequency:   34.1523514407
  - # 24
    frequency:   58.1365487793

- q-position: [    0.0808081,    0.0000000,    0.0000000 ]
  distance:    0.0281392
  band:
  - # 1
    frequency:    0.3026039057
  - # 2
    frequency:    0.8768378453
  - # 3
    frequency:    1.0432321779
  - # 4
    frequency:    1.6007513063
  - # 5
    frequency:    1.8145033964
  - # 6
    frequency:    1.8735028152
  - # 7
    frequency:    2.4795932023
  - # 8
    frequency:    4.3256148408
  - # 9
    frequency:    4.3469991245
  - # 10
    frequency:    4.9227477261
  - # 11
    frequency:    5.6261831804
  - # 12
    frequency:    5.7307202130
  - # 13
    frequency:    7.8535609909
  - # 14
    frequency:    8.1217750783
  - # 15
    frequency:    8.2916001020
  - # 16
    frequency:   10.5713824981
  - # 17
    frequency:   13.2426736745
  - # 18
    frequency:   13.2692196150
  - # 19
    frequency:   13.7811891932
  - # 20
    frequency:   14.2470868487
  - # 21
    frequency:   14.3198074948
  - # 22
    frequency:   27.3089044070
  - # 23
    frequency:   34.1449172948
  - # 24
    frequency:   58.1042847069

- q-position: [    0.0858586,    0.0000000,    0.0000000 ]
  distance:    0.0298979
  band:
  - # 1
    frequency:    0.3818815224
  - # 2
    frequency:    0.9308517481
  - # 3
    frequency:    1.1004283172
  - # 4
    frequency:    1.6900297607
  - # 5
    frequency:    1.8758435203
  - # 6
    frequency:    1.9718102245
  - # 7
    frequency:    2.5848815974
  - # 8
    frequency:    4.3419131222
  - # 9
    frequency:    4.3566726969
  - # 10
    frequency:    4.9460298071
  - # 11
    frequency:    5.6371009329
  - # 12
    frequency:    5.7533556359
  - # 13
    frequency:    7.8484506593
  - # 14
    frequency:    8.1222144705
  - # 15
    frequency:    8.3107337002
  - # 16
    frequency:   10.5515870336
  - # 17
    frequency:   13.2417495331
  - # 18
    frequency:   13.2708842775
  - # 19
    frequency:   13.7753025803
  - # 20
    frequency:   14.2499328296
  - # 21
    frequency:   14.3315311604
  - # 22
    frequency:   27.3051784366
  - # 23
    frequency:   34.1370785943
  - # 24
    frequency:   58.0703466396

- q-position: [    0.0909091,    0.0000000,    0.0000000 ]
  distance:    0.0316567
  band:
  - # 1
    frequency:    0.4553397522
  - # 2
    frequency:    0.9815006535
  - # 3
    frequency:    1.1572688508
  - # 4
    frequency:    1.7790116097
  - # 5
    frequency:    1.9364988463
  - # 6
    frequency:    2.0644634629
  - # 7
    frequency:    2.6889973184
  - # 8
    frequency:    4.3584817174
  - # 9
    frequency:    4.3649995204
  - # 10
    frequency:    4.9715162466
  - # 11
    frequency:    5.6485946733
  - # 12
    frequency:    5.7769850426
  - # 13
    frequency:    7.8435261923
  - # 14
    frequency:    8.1226582047
  - # 15
    frequency:    8.3305213223
  - # 16
    frequency:   10.5309091291
  - # 17
    frequency:   13.2409324704
  - # 18
    frequency:   13.2726045106
  - # 19
    frequency:   13.7691976314
  - # 20
    frequency:   14.2529248194
  - # 21
    frequency:   14.3438289794
  - # 22
    frequency:   27.3012967540
  - # 23
    frequency:   34.1288488216
  - # 24
    frequency:   58.0348044107

- q-position: [    0.0959596,    0.0000000,    0.0000000 ]
  distance:    0.0334154
  band:
  - # 1
    frequency:    0.5256777186
  - # 2
    frequency:    1.0297221249
  - # 3
    frequency:    1.2120660948
  - # 4
    frequency:    1.8676490383
  - # 5
    frequency:    1.9968137534
  - # 6
    frequency:    2.1507651843
  - # 7
    frequency:    2.7921256816
  - # 8
    frequency:    4.3719982452
  - # 9
    frequency:    4.3751934860
  - # 10
    frequency:    4.9990067354
  - # 11
    frequency:    5.6606533703
  - # 12
    frequency:    5.8015642458
  - # 13
    frequency:    7.8388378930
  - # 14
    frequency:    8.1231018348
  - # 15
    frequency:    8.3509156152
  - # 16
    frequency:   10.5093980272
  - # 17
    frequency:   13.2402512287
  - # 18
    frequency:   13.2743727419
  - # 19
    frequency:   13.7628919284
  - # 20
    frequency:   14.2560580647
  - # 21
    frequency:   14.3566805240
  - # 22
    frequency:   27.2972702474
  - # 23
    frequency:   34.1202420871
  - # 24
    frequency:   57.9977302081

- q-position: [    0.1010101,    0.0000000,    0.0000000 ]
  distance:    0.0351741
  band:
  - # 1
    frequency:    0.5941946477
  - # 2
    frequency:    1.0762290085
  - # 3
    frequency:    1.2633410164
  - # 4
    frequency:    1.9558758407
  - # 5
    frequency:    2.0571711710
  - # 6
    frequency:    2.2301397084
  - # 7
    frequency:    2.8943824437
  - # 8
    frequency:    4.3777414450
  - # 9
    frequency:    4.3919190821
  - # 10
    frequency:    5.0282668954
  - # 11
    frequency:    5.6732658779
  - # 12
    frequency:    5.8270427024
  - # 13
    frequency:    7.8344388554
  - # 14
    frequency:    8.1235406421
  - # 15
    frequency:    8.3718679231
  - # 16
    frequency:   10.4871043058
  - # 17
    frequency:   13.2397359397
  - # 18
    frequency:   13.2761810908
  - # 19
    frequency:   13.7564026536
  - # 20
    frequency:   14.2593275227
  - # 21
    frequency:   14.3700648657
  - # 22
    frequency:   27.2931100313
  - # 23
    frequency:   34.1112730929
  - # 24
    frequency:   57.9591982884

- q-position: [    0.1060606,    0.0000000,    0.0000000 ]
  distance:    0.0369328
  band:
  - # 1
    frequency:    0.6615907175
  - # 2
    frequency:    1.1215030116
  - # 3
    frequency:    1.3098514100
  - # 4
    frequency:    2.0436034995
  - # 5
    frequency:    2.1179625812
  - # 6
    frequency:    2.3021553130
  - # 7
    frequency:    2.9957757228
  - # 8
    frequency:    4.3823486136
  - # 9
    frequency:    4.4085291782
  - # 10
    frequency:    5.0590491602
  - # 11
    frequency:    5.6864208119
  - # 12
    frequency:    5.8533614795
  - # 13
    frequency:    7.8303852880
  - # 14
    frequency:    8.1239696708
  - # 15
    frequency:    8.3933281307
  - # 16
    frequency:   10.4640797837
  - # 17
    frequency:   13.2394180107
  - # 18
    frequency:   13.2780213869
  - # 19
    frequency:   13.7497464750
  - # 20
    frequency:   14.2627278623
  - # 21
    frequency:   14.3839606236
  - # 22
    frequency:   27.2888273914
  - # 23
    frequency:   34.1019570946
  - # 24
    frequency:   57.9192846887

- q-position: [    0.1111111,    0.0000000,    0.0000000 ]
  distance:    0.0386915
  band:
  - # 1
    frequency:    0.7282604259
  - # 2
    frequency:    1.1658445286
  - # 3
    frequency:    1.3505688414
  - # 4
    frequency:    2.1307053736
  - # 5
    frequency:    2.1795528198
  - # 6
    frequency:    2.3665437383
  - # 7
    frequency:    3.0961810112
  - # 8
    frequency:    4.3859830042
  - # 9
    frequency:    4.4248968640
  - # 10
    frequency:    5.0911126524
  - # 11
    frequency:    5.7001063937
  - # 12
    frequency:    5.8804515574
  - # 13
    frequency:    7.8267367117
  - # 14
    frequency:    8.1243837712
  - # 15
    frequency:    8.4152446040
  - # 16
    frequency:   10.4403774546
  - # 17
    frequency:   13.2393299936
  - # 18
    frequency:   13.2798851892
  - # 19
    frequency:   13.7429394351
  - # 20
    frequency:   14.2662534664
  - # 21
    frequency:   14.3983460156
  - # 22
    frequency:   27.2844337286
  - # 23
    frequency:   34.0923098606
  - # 24
    frequency:   57.8780669351

- q-position: [    0.1161616,    0.0000000,    0.0000000 ]
  distance:    0.0404502
  band:
  - # 1
    frequency:    0.7944220732
  - # 2
    frequency:    1.2094198373
  - # 3
    frequency:    1.3846573803
  - # 4
    frequency:    2.2169739346
  - # 5
    frequency:    2.2422452656
  - # 6
    frequency:    2.4232299950
  - # 7
    frequency:    3.1953302281
  - # 8
    frequency:    4.3888545332
  - # 9
    frequency:    4.4409001346
  - # 10
    frequency:    5.1242402532
  - # 11
    frequency:    5.7143102684
  - # 12
    frequency:    5.9082326880
  - # 13
    frequency:    7.8235560377
  - # 14
    frequency:    8.1247776492
  - # 15
    frequency:    8.4375642076
  - # 16
    frequency:   10.4160514517
  - # 17
    frequency:   13.2395054361
  - # 18
    frequency:   13.2817638037
  - # 19
    frequency:   13.7359968436
  - # 20
    frequency:   14.2698984359
  - # 21
    frequency:   14.4131989128
  - # 22
    frequency:   27.2799405042
  - # 23
    frequency:   34.0823476294
  - # 24
    frequency:   57.8356237507

- q-position: [    0.1212121,    0.0000000,    0.0000000 ]
  distance:    0.0422089
  band:
  - # 1
    frequency:    0.8601817284
  - # 2
    frequency:    1.2522832518
  - # 3
    frequency:    1.4114691456
  - # 4
    frequency:    2.3019983133
  - # 5
    frequency:    2.3062544597
  - # 6
    frequency:    2.4724285781
  - # 7
    frequency:    3.2928104019
  - # 8
    frequency:    4.3912303239
  - # 9
    frequency:    4.4564243778
  - # 10
    frequency:    5.1582519241
  - # 11
    frequency:    5.7290193094
  - # 12
    frequency:    5.9366129999
  - # 13
    frequency:    7.8209095308
  - # 14
    frequency:    8.1251459211
  - # 15
    frequency:    8.4602323772
  - # 16
    frequency:   10.3911570439
  - # 17
    frequency:   13.2399787161
  - # 18
    frequency:   13.2836483006
  - # 19
    frequency:   13.7289331742
  - # 20
    frequency:   14.2736565963
  - # 21
    frequency:   14.4284968963
  - # 22
    frequency:   27.2753591844
  - # 23
    frequency:   34.0720870650
  - # 24
    frequency:   57.7920347654

- q-position: [    0.1262626,    0.0000000,    0.0000000 ]
  distance:    0.0439676
  band:
  - # 1
    frequency:    0.9255666254
  - # 2
    frequency:    1.2943518557
  - # 3
    frequency:    1.4305727818
  - # 4
    frequency:    2.3716919253
  - # 5
    frequency:    2.3847471191
  - # 6
    frequency:    2.5150276300
  - # 7
    frequency:    3.3880644139
  - # 8
    frequency:    4.3934540356
  - # 9
    frequency:    4.4713647647
  - # 10
    frequency:    5.1930139905
  - # 11
    frequency:    5.7442194230
  - # 12
    frequency:    5.9654894961
  - # 13
    frequency:    7.8188666547
  - # 14
    frequency:    8.1254831723
  - # 15
    frequency:    8.4831932297
  - # 16
    frequency:   10.3657506693
  - # 17
    frequency:   13.2407848587
  - # 18
    frequency:   13.2855295303
  - # 19
    frequency:   13.7217619658
  - # 20
    frequency:   14.2775215064
  - # 21
    frequency:   14.4442173174
  - # 22
    frequency:   27.2707011862
  - # 23
    frequency:   34.0615452105
  - # 24
    frequency:   57.7473802285

- q-position: [    0.1313131,    0.0000000,    0.0000000 ]
  distance:    0.0457263
  band:
  - # 1
    frequency:    0.9905421367
  - # 2
    frequency:    1.3352410159
  - # 3
    frequency:    1.4419039387
  - # 4
    frequency:    2.4385672066
  - # 5
    frequency:    2.4618219074
  - # 6
    frequency:    2.5543023815
  - # 7
    frequency:    3.4803863438
  - # 8
    frequency:    4.3959746902
  - # 9
    frequency:    4.4856284550
  - # 10
    frequency:    5.2284444730
  - # 11
    frequency:    5.7598953674
  - # 12
    frequency:    5.9947495103
  - # 13
    frequency:    7.8174997993
  - # 14
    frequency:    8.1257840185
  - # 15
    frequency:    8.5063896913
  - # 16
    frequency:   10.3398900053
  - # 17
    frequency:   13.2419593362
  - # 18
    frequency:   13.2873981381
  - # 19
    frequency:   13.7144957285
  - # 20
    frequency:   14.2814864698
  - # 21
    frequency:   14.4603373602
  - # 22
    frequency:   27.2659778249
  - # 23
    frequency:   34.0507394408
  - # 24
    frequency:   57.7017407250

- q-position: [    0.1363636,    0.0000000,    0.0000000 ]
  distance:    0.0474850
  band:
  - # 1
    frequency:    1.0550183094
  - # 2
    frequency:    1.3734145652
  - # 3
    frequency:    1.4465851946
  - # 4
    frequency:    2.5068017292
  - # 5
    frequency:    2.5216427291
  - # 6
    frequency:    2.6017014569
  - # 7