nqpoint: 300    
npath: 3      
segment_nqpoint:
- 100
- 100
- 100
labels:
- [ 'G', 'M' ]
- [ 'M', 'K' ]
- [ 'K', 'G' ]
reciprocal_lattice:
- [   0.30157010,   0.17411158,   0.00000000 ] # a*
- [   0.00000000,   0.34822315,   0.00000000 ] # b*
- [   0.00000000,   0.00000000,   0.03575881 ] # c*
natom: 8      
lattice:
- [     3.315978637115338,     0.000000000000000,     0.000000000000000 ] # a
- [    -1.657989318557669,     2.871721738153989,     0.000000000000000 ] # b
- [     0.000000000000000,     0.000000000000000,    27.965140018473285 ] # c
points:
- symbol: C # 1
  coordinates: [  0.333332985432215,  0.666666983183674,  0.622690667812305 ]
  mass: 12.010700
- symbol: N # 2
  coordinates: [  0.000000000000000,  0.000000000000000,  0.488409406219605 ]
  mass: 14.006700
- symbol: N # 3
  coordinates: [  0.333332985432215,  0.666666983183674,  0.577945537563914 ]
  mass: 14.006700
- symbol: O # 4
  coordinates: [  0.666666984744047,  0.333332985985145,  0.321829248630787 ]
  mass: 15.999400
- symbol: P # 5
  coordinates: [  0.666666984744047,  0.333332985985145,  0.375264656168645 ]
  mass: 30.973762
- symbol: S # 6
  coordinates: [  0.333332985432215,  0.666666983183674,  0.678170751369213 ]
  mass: 32.065000
- symbol: Sc # 7
  coordinates: [  0.333332985432215,  0.666666983183674,  0.445818545029986 ]
  mass: 44.955912
- symbol: Sc # 8
  coordinates: [  0.666666984744047,  0.333332985985145,  0.531901713820246 ]
  mass: 44.955912

phonon:
- q-position: [    0.0000000,    0.0000000,    0.0000000 ]
  distance:    0.0000000
  band:
  - # 1
    frequency:   -0.0000122018
  - # 2
    frequency:   -0.0000003775
  - # 3
    frequency:    0.0000143998
  - # 4
    frequency:    0.8238462986
  - # 5
    frequency:    0.8238462987
  - # 6
    frequency:    2.7245155846
  - # 7
    frequency:    2.7245155846
  - # 8
    frequency:    4.7968898669
  - # 9
    frequency:    5.0753354387
  - # 10
    frequency:    5.0753354387
  - # 11
    frequency:    5.4450250214
  - # 12
    frequency:    5.4450250214
  - # 13
    frequency:    7.9113702728
  - # 14
    frequency:    8.0859987010
  - # 15
    frequency:    8.0859987010
  - # 16
    frequency:   10.6782428349
  - # 17
    frequency:   13.2534820849
  - # 18
    frequency:   13.2534820849
  - # 19
    frequency:   13.7477955718
  - # 20
    frequency:   14.3417254281
  - # 21
    frequency:   14.3417254281
  - # 22
    frequency:   27.3163305506
  - # 23
    frequency:   34.2088031293
  - # 24
    frequency:   58.3259021485

- q-position: [    0.0050505,    0.0000000,    0.0000000 ]
  distance:    0.0017587
  band:
  - # 1
    frequency:    0.0024060678
  - # 2
    frequency:    0.0574112469
  - # 3
    frequency:    0.1124917640
  - # 4
    frequency:    0.8251054322
  - # 5
    frequency:    0.8294924095
  - # 6
    frequency:    2.7243173691
  - # 7
    frequency:    2.7244320261
  - # 8
    frequency:    4.7966737125
  - # 9
    frequency:    5.0746041042
  - # 10
    frequency:    5.0750354268
  - # 11
    frequency:    5.4454564211
  - # 12
    frequency:    5.4459880056
  - # 13
    frequency:    7.9109429211
  - # 14
    frequency:    8.0860139977
  - # 15
    frequency:    8.0868129432
  - # 16
    frequency:   10.6776861519
  - # 17
    frequency:   13.2534413588
  - # 18
    frequency:   13.2535673372
  - # 19
    frequency:   13.7477625436
  - # 20
    frequency:   14.3418248629
  - # 21
    frequency:   14.3420804258
  - # 22
    frequency:   27.3162439102
  - # 23
    frequency:   34.2085439368
  - # 24
    frequency:   58.3248969644

- q-position: [    0.0101010,    0.0000000,    0.0000000 ]
  distance:    0.0035174
  band:
  - # 1
    frequency:    0.0094769657
  - # 2
    frequency:    0.1147330875
  - # 3
    frequency:    0.2246886462
  - # 4
    frequency:    0.8288644112
  - # 5
    frequency:    0.8461481411
  - # 6
    frequency:    2.7237253616
  - # 7
    frequency:    2.7242029575
  - # 8
    frequency:    4.7960116231
  - # 9
    frequency:    5.0724126539
  - # 10
    frequency:    5.0741516066
  - # 11
    frequency:    5.4467509235
  - # 12
    frequency:    5.4488753394
  - # 13
    frequency:    7.9096802117
  - # 14
    frequency:    8.0860595792
  - # 15
    frequency:    8.0892360310
  - # 16
    frequency:   10.6760172378
  - # 17
    frequency:   13.2533197480
  - # 18
    frequency:   13.2538225662
  - # 19
    frequency:   13.7476631003
  - # 20
    frequency:   14.3421229988
  - # 21
    frequency:   14.3431449489
  - # 22
    frequency:   27.3159841247
  - # 23
    frequency:   34.2077668295
  - # 24
    frequency:   58.3218830719

- q-position: [    0.0151515,    0.0000000,    0.0000000 ]
  distance:    0.0052761
  band:
  - # 1
    frequency:    0.0208106082
  - # 2
    frequency:    0.1718729929
  - # 3
    frequency:    0.3362913954
  - # 4
    frequency:    0.8350688524
  - # 5
    frequency:    0.8730267848
  - # 6
    frequency:    2.7227476457
  - # 7
    frequency:    2.7238945958
  - # 8
    frequency:    4.7948622897
  - # 9
    frequency:    5.0687688916
  - # 10
    frequency:    5.0727335949
  - # 11
    frequency:    5.4489093022
  - # 12
    frequency:    5.4536816420
  - # 13
    frequency:    7.9076364947
  - # 14
    frequency:    8.0861345221
  - # 15
    frequency:    8.0932127543
  - # 16
    frequency:   10.6732394903
  - # 17
    frequency:   13.2531189602
  - # 18
    frequency:   13.2542461926
  - # 19
    frequency:   13.7474961682
  - # 20
    frequency:   14.3426193292
  - # 21
    frequency:   14.3449175880
  - # 22
    frequency:   27.3155516015
  - # 23
    frequency:   34.2064732165
  - # 24
    frequency:   58.3168654468

- q-position: [    0.0202020,    0.0000000,    0.0000000 ]
  distance:    0.0070348
  band:
  - # 1
    frequency:    0.0358592310
  - # 2
    frequency:    0.2287319741
  - # 3
    frequency:    0.4469919025
  - # 4
    frequency:    0.8436310003
  - # 5
    frequency:    0.9089888578
  - # 6
    frequency:    2.7213982513
  - # 7
    frequency:    2.7236219676
  - # 8
    frequency:    4.7931556396
  - # 9
    frequency:    5.0636862773
  - # 10
    frequency:    5.0708669533
  - # 11
    frequency:    5.4519324209
  - # 12
    frequency:    5.4603963590
  - # 13
    frequency:    7.9048915823
  - # 14
    frequency:    8.0862372950
  - # 15
    frequency:    8.0986619289
  - # 16
    frequency:   10.6693585467
  - # 17
    frequency:   13.2528418585
  - # 18
    frequency:   13.2548356007
  - # 19
    frequency:   13.7472599666
  - # 20
    frequency:   14.3433130071
  - # 21
    frequency:   14.3473959931
  - # 22
    frequency:   27.3149470187
  - # 23
    frequency:   34.2046654424
  - # 24
    frequency:   58.3098523687

- q-position: [    0.0252525,    0.0000000,    0.0000000 ]
  distance:    0.0087935
  band:
  - # 1
    frequency:    0.0540414165
  - # 2
    frequency:    0.2852007705
  - # 3
    frequency:    0.5564681966
  - # 4
    frequency:    0.8544338825
  - # 5
    frequency:    0.9527151793
  - # 6
    frequency:    2.7196980045
  - # 7
    frequency:    2.7235559290
  - # 8
    frequency:    4.7907917477
  - # 9
    frequency:    5.0571845205
  - # 10
    frequency:    5.0686762543
  - # 11
    frequency:    5.4558206767
  - # 12
    frequency:    5.4690018819
  - # 13
    frequency:    7.9015388987
  - # 14
    frequency:    8.0863657698
  - # 15
    frequency:    8.1054883379
  - # 16
    frequency:   10.6643822475
  - # 17
    frequency:   13.2524924868
  - # 18
    frequency:   13.2555871620
  - # 19
    frequency:   13.7469520209
  - # 20
    frequency:   14.3442028406
  - # 21
    frequency:   14.3505768743
  - # 22
    frequency:   27.3141713251
  - # 23
    frequency:   34.2023467812
  - # 24
    frequency:   58.3008554007

- q-position: [    0.0303030,    0.0000000,    0.0000000 ]
  distance:    0.0105522
  band:
  - # 1
    frequency:    0.0748182338
  - # 2
    frequency:    0.3411552444
  - # 3
    frequency:    0.6643776912
  - # 4
    frequency:    0.8673368711
  - # 5
    frequency:    1.0028464350
  - # 6
    frequency:    2.7176757393
  - # 7
    frequency:    2.7239329499
  - # 8
    frequency:    4.7876408058
  - # 9
    frequency:    5.0492902622
  - # 10
    frequency:    5.0663270934
  - # 11
    frequency:    5.4605733655
  - # 12
    frequency:    5.4794717223
  - # 13
    frequency:    7.8976748087
  - # 14
    frequency:    8.0865172377
  - # 15
    frequency:    8.1135935283
  - # 16
    frequency:   10.6583205857
  - # 17
    frequency:   13.2520761032
  - # 18
    frequency:   13.2564962680
  - # 19
    frequency:   13.7465691803
  - # 20
    frequency:   14.3452872868
  - # 21
    frequency:   14.3544560006
  - # 22
    frequency:   27.3132257391
  - # 23
    frequency:   34.1995214284
  - # 24
    frequency:   58.2898893617

- q-position: [    0.0353535,    0.0000000,    0.0000000 ]
  distance:    0.0123109
  band:
  - # 1
    frequency:    0.0977230382
  - # 2
    frequency:    0.3964505369
  - # 3
    frequency:    0.7703454094
  - # 4
    frequency:    0.8821825784
  - # 5
    frequency:    1.0580717251
  - # 6
    frequency:    2.7153698940
  - # 7
    frequency:    2.7250673730
  - # 8
    frequency:    4.7835455663
  - # 9
    frequency:    5.0400377387
  - # 10
    frequency:    5.0640251995
  - # 11
    frequency:    5.4661880659
  - # 12
    frequency:    5.4917691940
  - # 13
    frequency:    7.8933911024
  - # 14
    frequency:    8.0866884292
  - # 15
    frequency:    8.1228834828
  - # 16
    frequency:   10.6511856448
  - # 17
    frequency:   13.2515992212
  - # 18
    frequency:   13.2575573720
  - # 19
    frequency:   13.7461076405
  - # 20
    frequency:   14.3465644452
  - # 21
    frequency:   14.3590282009
  - # 22
    frequency:   27.3121117477
  - # 23
    frequency:   34.1961944901
  - # 24
    frequency:   58.2769722897

- q-position: [    0.0404040,    0.0000000,    0.0000000 ]
  distance:    0.0140696
  band:
  - # 1
    frequency:    0.1223563981
  - # 2
    frequency:    0.4509133617
  - # 3
    frequency:    0.8739391536
  - # 4
    frequency:    0.8988052151
  - # 5
    frequency:    1.1171810015
  - # 6
    frequency:    2.7128305072
  - # 7
    frequency:    2.7273653497
  - # 8
    frequency:    4.7783277688
  - # 9
    frequency:    5.0294693411
  - # 10
    frequency:    5.0620108947
  - # 11
    frequency:    5.4726601231
  - # 12
    frequency:    5.5058468632
  - # 13
    frequency:    7.8887709567
  - # 14
    frequency:    8.0868755388
  - # 15
    frequency:    8.1332728439
  - # 16
    frequency:   10.6429915249
  - # 17
    frequency:   13.2510696569
  - # 18
    frequency:   13.2587640379
  - # 19
    frequency:   13.7455629692
  - # 20
    frequency:   14.3480320495
  - # 21
    frequency:   14.3642873650
  - # 22
    frequency:   27.3108311046
  - # 23
    frequency:   34.1923719702
  - # 24
    frequency:   58.2621253988

- q-position: [    0.0454545,    0.0000000,    0.0000000 ]
  distance:    0.0158283
  band:
  - # 1
    frequency:    0.1483622463
  - # 2
    frequency:    0.5043315767
  - # 3
    frequency:    0.9170408526
  - # 4
    frequency:    0.9746130011
  - # 5
    frequency:    1.1791177274
  - # 6
    frequency:    2.7101216246
  - # 7
    frequency:    2.7313386913
  - # 8
    frequency:    4.7717996243
  - # 9
    frequency:    5.0176360076
  - # 10
    frequency:    5.0605478147
  - # 11
    frequency:    5.4799822823
  - # 12
    frequency:    5.5216468010
  - # 13
    frequency:    7.8838876884
  - # 14
    frequency:    8.0870742533
  - # 15
    frequency:    8.1446863712
  - # 16
    frequency:   10.6337542617
  - # 17
    frequency:   13.2504965796
  - # 18
    frequency:   13.2601089966
  - # 19
    frequency:   13.7449301369
  - # 20
    frequency:   14.3496874589
  - # 21
    frequency:   14.3702264458
  - # 22
    frequency:   27.3093858292
  - # 23
    frequency:   34.1880607552
  - # 24
    frequency:   58.2453730272

- q-position: [    0.0505051,    0.0000000,    0.0000000 ]
  distance:    0.0175870
  band:
  - # 1
    frequency:    0.1753967859
  - # 2
    frequency:    0.5564399028
  - # 3
    frequency:    0.9367403956
  - # 4
    frequency:    1.0715793015
  - # 5
    frequency:    1.2430897899
  - # 6
    frequency:    2.7073241055
  - # 7
    frequency:    2.7376152972
  - # 8
    frequency:    4.7637802499
  - # 9
    frequency:    5.0045974215
  - # 10
    frequency:    5.0599061603
  - # 11
    frequency:    5.4881444898
  - # 12
    frequency:    5.5391014950
  - # 13
    frequency:    7.8788053204
  - # 14
    frequency:    8.0872797853
  - # 15
    frequency:    8.1570586064
  - # 16
    frequency:   10.6234917380
  - # 17
    frequency:   13.2498905652
  - # 18
    frequency:   13.2615842075
  - # 19
    frequency:   13.7442035483
  - # 20
    frequency:   14.3515276487
  - # 21
    frequency:   14.3768374637
  - # 22
    frequency:   27.3077782039
  - # 23
    frequency:   34.1832685966
  - # 24
    frequency:   58.2267425783

- q-position: [    0.0555556,    0.0000000,    0.0000000 ]
  distance:    0.0193457
  band:
  - # 1
    frequency:    0.2030954153
  - # 2
    frequency:    0.6069005177
  - # 3
    frequency:    0.9577863272
  - # 4
    frequency:    1.1635424727
  - # 5
    frequency:    1.3088213191
  - # 6
    frequency:    2.7045387844
  - # 7
    frequency:    2.7469405956
  - # 8
    frequency:    4.7541151486
  - # 9
    frequency:    4.9904220098
  - # 10
    frequency:    5.0603426410
  - # 11
    frequency:    5.4971338516
  - # 12
    frequency:    5.5581351815
  - # 13
    frequency:    7.8735801061
  - # 14
    frequency:    8.0874869089
  - # 15
    frequency:    8.1703325974
  - # 16
    frequency:   10.6122235915
  - # 17
    frequency:   13.2492636482
  - # 18
    frequency:   13.2631809265
  - # 19
    frequency:   13.7433770783
  - # 20
    frequency:   14.3535492022
  - # 21
    frequency:   14.3841115124
  - # 22
    frequency:   27.3060107718
  - # 23
    frequency:   34.1780040910
  - # 24
    frequency:   58.2062644544

- q-position: [    0.0606061,    0.0000000,    0.0000000 ]
  distance:    0.0211044
  band:
  - # 1
    frequency:    0.2310380776
  - # 2
    frequency:    0.6552776438
  - # 3
    frequency:    0.9801139976
  - # 4
    frequency:    1.2482920045
  - # 5
    frequency:    1.3769623572
  - # 6
    frequency:    2.7018898864
  - # 7
    frequency:    2.7601620161
  - # 8
    frequency:    4.7426951089
  - # 9
    frequency:    4.9751867546
  - # 10
    frequency:    5.0620809960
  - # 11
    frequency:    5.5069347238
  - # 12
    frequency:    5.5786653501
  - # 13
    frequency:    7.8682624144
  - # 14
    frequency:    8.0876900005
  - # 15
    frequency:    8.1844582718
  - # 16
    frequency:   10.5999711211
  - # 17
    frequency:   13.2486293717
  - # 18
    frequency:   13.2648897763
  - # 19
    frequency:   13.7424441083
  - # 20
    frequency:   14.3557483019
  - # 21
    frequency:   14.3920387678
  - # 22
    frequency:   27.3040863342
  - # 23
    frequency:   34.1722766584
  - # 24
    frequency:   58.1839719833

- q-position: [    0.0656566,    0.0000000,    0.0000000 ]
  distance:    0.0228631
  band:
  - # 1
    frequency:    0.2587101154
  - # 2
    frequency:    0.7010071304
  - # 3
    frequency:    1.0037364404
  - # 4
    frequency:    1.3226783304
  - # 5
    frequency:    1.4491457387
  - # 6
    frequency:    2.6995285146
  - # 7
    frequency:    2.7781873305
  - # 8
    frequency:    4.7294703409
  - # 9
    frequency:    4.9589768392
  - # 10
    frequency:    5.0652974926
  - # 11
    frequency:    5.5175288987
  - # 12
    frequency:    5.6006042179
  - # 13
    frequency:    7.8628986252
  - # 14
    frequency:    8.0878830822
  - # 15
    frequency:    8.1993908071
  - # 16
    frequency:   10.5867571947
  - # 17
    frequency:   13.2480028324
  - # 18
    frequency:   13.2667008208
  - # 19
    frequency:   13.7413975643
  - # 20
    frequency:   14.3581207225
  - # 21
    frequency:   14.4006084993
  - # 22
    frequency:   27.3020079465
  - # 23
    frequency:   34.1660965179
  - # 24
    frequency:   58.1599013371

- q-position: [    0.0707071,    0.0000000,    0.0000000 ]
  distance:    0.0246218
  band:
  - # 1
    frequency:    0.2854529797
  - # 2
    frequency:    0.7433669610
  - # 3
    frequency:    1.0287668295
  - # 4
    frequency:    1.3840966188
  - # 5
    frequency:    1.5265753595
  - # 6
    frequency:    2.6976359115
  - # 7
    frequency:    2.8019103418
  - # 8
    frequency:    4.7144569042
  - # 9
    frequency:    4.9418851451
  - # 10
    frequency:    5.0701144920
  - # 11
    frequency:    5.5288958529
  - # 12
    frequency:    5.6238600397
  - # 13
    frequency:    7.8575328555
  - # 14
    frequency:    8.0880598688
  - # 15
    frequency:    8.2150891704
  - # 16
    frequency:   10.5726061610
  - # 17
    frequency:   13.2474007170
  - # 18
    frequency:   13.2686036404
  - # 19
    frequency:   13.7402299560
  - # 20
    frequency:   14.3606618254
  - # 21
    frequency:   14.4098090844
  - # 22
    frequency:   27.2997789154
  - # 23
    frequency:   34.1594746610
  - # 24
    frequency:   58.1340914457

- q-position: [    0.0757576,    0.0000000,    0.0000000 ]
  distance:    0.0263805
  band:
  - # 1
    frequency:    0.3103957136
  - # 2
    frequency:    0.7814635341
  - # 3
    frequency:    1.0554237946
  - # 4
    frequency:    1.4321562841
  - # 5
    frequency:    1.6084679559
  - # 6
    frequency:    2.6964260595
  - # 7
    frequency:    2.8321065559
  - # 8
    frequency:    4.6977350291
  - # 9
    frequency:    4.9240116179
  - # 10
    frequency:    5.0766025653
  - # 11
    frequency:    5.5410130260
  - # 12
    frequency:    5.6483381896
  - # 13
    frequency:    7.8522084446
  - # 14
    frequency:    8.0882138176
  - # 15
    frequency:    8.2315148920
  - # 16
    frequency:   10.5575437684
  - # 17
    frequency:   13.2468413296
  - # 18
    frequency:   13.2705874081
  - # 19
    frequency:   13.7389334158
  - # 20
    frequency:   14.3633665547
  - # 21
    frequency:   14.4196280266
  - # 22
    frequency:   27.2974027937
  - # 23
    frequency:   34.1524228236
  - # 24
    frequency:   58.1065839026

- q-position: [    0.0808081,    0.0000000,    0.0000000 ]
  distance:    0.0281392
  band:
  - # 1
    frequency:    0.3323522378
  - # 2
    frequency:    0.8142570116
  - # 3
    frequency:    1.0839962995
  - # 4
    frequency:    1.4678497349
  - # 5
    frequency:    1.6930201421
  - # 6
    frequency:    2.6961470202
  - # 7
    frequency:    2.8693166122
  - # 8
    frequency:    4.6794413957
  - # 9
    frequency:    4.9054625126
  - # 10
    frequency:    5.0847891387
  - # 11
    frequency:    5.5538561082
  - # 12
    frequency:    5.6739420007
  - # 13
    frequency:    7.8469691882
  - # 14
    frequency:    8.0883381804
  - # 15
    frequency:    8.2486310789
  - # 16
    frequency:   10.5415970946
  - # 17
    frequency:   13.2463446061
  - # 18
    frequency:   13.2726409652
  - # 19
    frequency:   13.7374997381
  - # 20
    frequency:   14.3662294369
  - # 21
    frequency:   14.4300519767
  - # 22
    frequency:   27.2948833762
  - # 23
    frequency:   34.1449534555
  - # 24
    frequency:   58.0774228649

- q-position: [    0.0858586,    0.0000000,    0.0000000 ]
  distance:    0.0298979
  band:
  - # 1
    frequency:    0.3496576184
  - # 2
    frequency:    0.8406410402
  - # 3
    frequency:    1.1147525390
  - # 4
    frequency:    1.4922698928
  - # 5
    frequency:    1.7788232377
  - # 6
    frequency:    2.6970802745
  - # 7
    frequency:    2.9137491327
  - # 8
    frequency:    4.6597586399
  - # 9
    frequency:    4.8863495213
  - # 10
    frequency:    5.0946704255
  - # 11
    frequency:    5.5673993196
  - # 12
    frequency:    5.7005733863
  - # 13
    frequency:    7.8418603358
  - # 14
    frequency:    8.0884260582
  - # 15
    frequency:    8.2664016434
  - # 16
    frequency:   10.5247944882
  - # 17
    frequency:   13.2459321138
  - # 18
    frequency:   13.2747528947
  - # 19
    frequency:   13.7359204189
  - # 20
    frequency:   14.3692445822
  - # 21
    frequency:   14.4410667585
  - # 22
    frequency:   27.2922246938
  - # 23
    frequency:   34.1370796876
  - # 24
    frequency:   58.0466549470

- q-position: [    0.0909091,    0.0000000,    0.0000000 ]
  distance:    0.0316567
  band:
  - # 1
    frequency:    0.3598894745
  - # 2
    frequency:    0.8595514553
  - # 3
    frequency:    1.1478174326
  - # 4
    frequency:    1.5064894849
  - # 5
    frequency:    1.8650840721
  - # 6
    frequency:    2.6995372399
  - # 7
    frequency:    2.9652355011
  - # 8
    frequency:    4.6389051199
  - # 9
    frequency:    4.8667887923
  - # 10
    frequency:    5.1062236589
  - # 11
    frequency:    5.5816156710
  - # 12
    frequency:    5.7281332844
  - # 13
    frequency:    7.8369293787
  - # 14
    frequency:    8.0884704579
  - # 15
    frequency:    8.2847907147
  - # 16
    frequency:   10.5071655276
  - # 17
    frequency:   13.2456270348
  - # 18
    frequency:   13.2769115929
  - # 19
    frequency:   13.7341866936
  - # 20
    frequency:   14.3724056898
  - # 21
    frequency:   14.4526573968
  - # 22
    frequency:   27.2894310078
  - # 23
    frequency:   34.1288152978
  - # 24
    frequency:   58.0143291096

- q-position: [    0.0959596,    0.0000000,    0.0000000 ]
  distance:    0.0334154
  band:
  - # 1
    frequency:    0.3593478694
  - # 2
    frequency:    0.8700304650
  - # 3
    frequency:    1.1830902048
  - # 4
    frequency:    1.5118423918
  - # 5
    frequency:    1.9513976965
  - # 6
    frequency:    2.7038522143
  - # 7
    frequency:    3.0232512966
  - # 8
    frequency:    4.6171269423
  - # 9
    frequency:    4.8468998404
  - # 10
    frequency:    5.1194177143
  - # 11
    frequency:    5.5964772022
  - # 12
    frequency:    5.7565219755
  - # 13
    frequency:    7.8322266548
  - # 14
    frequency:    8.0884643499
  - # 15
    frequency:    8.3037621958
  - # 16
    frequency:   10.4887409975
  - # 17
    frequency:   13.2454541299
  - # 18
    frequency:   13.2791053364
  - # 19
    frequency:   13.7322895763
  - # 20
    frequency:   14.3757060574
  - # 21
    frequency:   14.4648081506
  - # 22
    frequency:   27.2865068028
  - # 23
    frequency:   34.1201746748
  - # 24
    frequency:   57.9804965423

- q-position: [    0.1010101,    0.0000000,    0.0000000 ]
  distance:    0.0351741
  band:
  - # 1
    frequency:    0.3419198233
  - # 2
    frequency:    0.8711842674
  - # 3
    frequency:    1.2202597140
  - # 4
    frequency:    1.5101253150
  - # 5
    frequency:    2.0375573382
  - # 6
    frequency:    2.7103712812
  - # 7
    frequency:    3.0869921074
  - # 8
    frequency:    4.5946931814
  - # 9
    frequency:    4.8268043615
  - # 10
    frequency:    5.1342213573
  - # 11
    frequency:    5.6119551944
  - # 12
    frequency:    5.7856393223
  - # 13
    frequency:    7.8278057944
  - # 14
    frequency:    8.0884007271
  - # 15
    frequency:    8.3232794348
  - # 16
    frequency:   10.4695528876
  - # 17
    frequency:   13.2454396836
  - # 18
    frequency:   13.2813223459
  - # 19
    frequency:   13.7302198966
  - # 20
    frequency:   14.3791385938
  - # 21
    frequency:   14.4775025489
  - # 22
    frequency:   27.2834567801
  - # 23
    frequency:   34.1111727804
  - # 24
    frequency:   57.9452105415

- q-position: [    0.1060606,    0.0000000,    0.0000000 ]
  distance:    0.0369328
  band:
  - # 1
    frequency:    0.2957835990
  - # 2
    frequency:    0.8620446134
  - # 3
    frequency:    1.2588980392
  - # 4
    frequency:    1.5036704700
  - # 5
    frequency:    2.1234510095
  - # 6
    frequency:    2.7194372866
  - # 7
    frequency:    3.1554729947
  - # 8
    frequency:    4.5718945547
  - # 9
    frequency:    4.8066249623
  - # 10
    frequency:    5.1506091413
  - # 11
    frequency:    5.6280203576
  - # 12
    frequency:    5.8153849782
  - # 13
    frequency:    7.8237240255
  - # 14
    frequency:    8.0882726648
  - # 15
    frequency:    8.3433049795
  - # 16
    frequency:   10.4496344154
  - # 17
    frequency:   13.2456114262
  - # 18
    frequency:   13.2835508436
  - # 19
    frequency:   13.7279683373
  - # 20
    frequency:   14.3826958361
  - # 21
    frequency:   14.4907234301
  - # 22
    frequency:   27.2802858490
  - # 23
    frequency:   34.1018251097
  - # 24
    frequency:   57.9085263843

- q-position: [    0.1111111,    0.0000000,    0.0000000 ]
  distance:    0.0386915
  band:
  - # 1
    frequency:    0.1856428267
  - # 2
    frequency:    0.8413845270
  - # 3
    frequency:    1.2985639253
  - # 4
    frequency:    1.4952895502
  - # 5
    frequency:    2.2090108185
  - # 6
    frequency:    2.7313718051
  - # 7
    frequency:    3.2276203281
  - # 8
    frequency:    4.5490456191
  - # 9
    frequency:    4.7864838285
  - # 10
    frequency:    5.1685653481
  - # 11
    frequency:    5.6446429947
  - # 12
    frequency:    5.8456586050
  - # 13
    frequency:    7.8200423494
  - # 14
    frequency:    8.0880733802
  - # 15
    frequency:    8.3638003933
  - # 16
    frequency:   10.4290200743
  - # 17
    frequency:   13.2459984347
  - # 18
    frequency:   13.2857791064
  - # 19
    frequency:   13.7255254713
  - # 20
    frequency:   14.3863699718
  - # 21
    frequency:   14.5044529852
  - # 22
    frequency:   27.2769991184
  - # 23
    frequency:   34.0921476503
  - # 24
    frequency:   57.8705011973

- q-position: [    0.1161616,    0.0000000,    0.0000000 ]
  distance:    0.0404502
  band:
  - # 1
    frequency:   -0.2213777127
  - # 2
    frequency:    0.8074967425
  - # 3
    frequency:    1.3388693580
  - # 4
    frequency:    1.4880461465
  - # 5
    frequency:    2.2941888619
  - # 6
    frequency:    2.7464559044
  - # 7
    frequency:    3.3023368453
  - # 8
    frequency:    4.5264907128
  - # 9
    frequency:    4.7665013601
  - # 10
    frequency:    5.1880864384
  - # 11
    frequency:    5.6617931431
  - # 12
    frequency:    5.8763601385
  - # 13
    frequency:    7.8168255948
  - # 14
    frequency:    8.0877962920
  - # 15
    frequency:    8.3847261124
  - # 16
    frequency:   10.4077457120
  - # 17
    frequency:   13.2466310096
  - # 18
    frequency:   13.2879955117
  - # 19
    frequency:   13.7228817983
  - # 20
    frequency:   14.3901528650
  - # 21
    frequency:   14.5186728029
  - # 22
    frequency:   27.2736018875
  - # 23
    frequency:   34.0821568399
  - # 24
    frequency:   57.8311938220

- q-position: [    0.1212121,    0.0000000,    0.0000000 ]
  distance:    0.0422089
  band:
  - # 1
    frequency:   -0.4112514126
  - # 2
    frequency:    0.7578519585
  - # 3
    frequency:    1.3795046211
  - # 4
    frequency:    1.4848344832
  - # 5
    frequency:    2.3789459461
  - # 6
    frequency:    2.7649121868
  - # 7
    frequency:    3.3785345536
  - # 8
    frequency:    4.5046142680
  - # 9
    frequency:    4.7467948107
  - # 10
    frequency:    5.2091823934
  - # 11
    frequency:    5.6794406974
  - # 12
    frequency:    5.9073901340
  - # 13
    frequency:    7.8141423512
  - # 14
    frequency:    8.0874350794
  - # 15
    frequency:    8.4060413276
  - # 16
    frequency:   10.3858486374
  - # 17
    frequency:   13.2475405287
  - # 18
    frequency:   13.2901885783
  - # 19
    frequency:   13.7200277819
  - # 20
    frequency:   14.3940360862
  - # 21
    frequency:   14.5333639186
  - # 22
    frequency:   27.2700996353
  - # 23
    frequency:   34.0718695230
  - # 24
    frequency:   57.7906646768

- q-position: [    0.1262626,    0.0000000,    0.0000000 ]
  distance:    0.0439676
  band:
  - # 1
    frequency:   -0.5746629731
  - # 2
    frequency:    0.6883891983
  - # 3
    frequency:    1.4202371388
  - # 4
    frequency:    1.4878768339
  - # 5
    frequency:    2.4632464370
  - # 6
    frequency:    2.7868907444
  - # 7
    frequency:    3.4551386454
  - # 8
    frequency:    4.4838566095
  - # 9
    frequency:    4.7274769743
  - # 10
    frequency:    5.2318771912
  - # 11
    frequency:    5.6975555152
  - # 12
    frequency:    5.9386502254
  - # 13
    frequency:    7.8120647790
  - # 14
    frequency:    8.0869837394
  - # 15
    frequency:    8.4277038797
  - # 16
    frequency:   10.3633677609
  - # 17
    frequency:   13.2487592779
  - # 18
    frequency:   13.2923469999
  - # 19
    frequency:   13.7169538866
  - # 20
    frequency:   14.3980109480
  - # 21
    frequency:   14.5485068650
  - # 22
    frequency:   27.2664980099
  - # 23
    frequency:   34.0613029057
  - # 24
    frequency:   57.7489756157

- q-position: [    0.1313131,    0.0000000,    0.0000000 ]
  distance:    0.0457263
  band:
  - # 1
    frequency:   -0.7308150289
  - # 2
    frequency:    0.5916536117
  - # 3
    frequency:    1.4608991287
  - # 4
    frequency:    1.4983846799
  - # 5
    frequency:    2.5470560171
  - # 6
    frequency:    2.8124611271
  - # 7
    frequency:    3.5310683785
  - # 8
    frequency:    4.4647367582
  - # 9
    frequency:    4.7086549661
  - # 10
    frequency:    5.2562085176
  - # 11
    frequency:    5.7161075065
  - # 12
    frequency:    5.9700437288
  - # 13
    frequency:    7.8106682907
  - # 14
    frequency:    8.0864366429
  - # 15
    frequency:    8.4496701571
  - # 16
    frequency:   10.3403437680
  - # 17
    frequency:   13.2503202585
  - # 18
    frequency:   13.2944596731
  - # 19
    frequency:   13.7136506164
  - # 20
    frequency:   14.4020685437
  - # 21
    frequency:   14.5640817251
  - # 22
    frequency:   27.2628028170
  - # 23
    frequency:   34.0504745103
  - # 24
    frequency:   57.7061897844

- q-position: [    0.1363636,    0.0000000,    0.0000000 ]
  distance:    0.0474850
  band:
  - # 1
    frequency:   -0.8831671178
  - # 2
    frequency:    0.4500923701
  - # 3
    frequency:    1.5013728771
  - # 4
    frequency:    1.5165600836
  - # 5
    frequency:    2.6303407999
  - # 6
    frequency:    2.8416113015
  - # 7