nqpoint: 300    
npath: 3      
segment_nqpoint:
- 100
- 100
- 100
labels:
- [ 'G', 'M' ]
- [ 'M', 'K' ]
- [ 'K', 'G' ]
reciprocal_lattice:
- [   0.29911302,   0.17269298,   0.00000000 ] # a*
- [   0.00000000,   0.34538596,   0.00000000 ] # b*
- [   0.00000000,   0.00000000,   0.03685307 ] # c*
natom: 8      
lattice:
- [     3.343217945970054,     0.000000000000000,     0.000000000000000 ] # a
- [    -1.671608972985027,     2.895311671577192,     0.000000000000000 ] # b
- [     0.000000000000000,     0.000000000000000,    27.134777894021095 ] # c
points:
- symbol: C # 1
  coordinates: [  0.333332985432215,  0.666666983183674,  0.624099873276815 ]
  mass: 12.010700
- symbol: C # 2
  coordinates: [  0.666666984744048,  0.333332985985145,  0.388878747257568 ]
  mass: 12.010700
- symbol: N # 3
  coordinates: [  0.000000000000000,  0.000000000000000,  0.526905652650649 ]
  mass: 14.006700
- symbol: N # 4
  coordinates: [  0.333332985432215,  0.666666983183674,  0.668322326604226 ]
  mass: 14.006700
- symbol: N # 5
  coordinates: [  0.666666984744048,  0.333332985985145,  0.435032831252915 ]
  mass: 14.006700
- symbol: S # 6
  coordinates: [  0.666666984744048,  0.333332985985145,  0.331677673395774 ]
  mass: 32.065000
- symbol: Sc # 7
  coordinates: [  0.333332985432215,  0.666666983183674,  0.481853552550019 ]
  mass: 44.955912
- symbol: Sc # 8
  coordinates: [  0.666666984744048,  0.333332985985145,  0.571525577169783 ]
  mass: 44.955912

phonon:
- q-position: [    0.0000000,    0.0000000,    0.0000000 ]
  distance:    0.0000000
  band:
  - # 1
    frequency:   -2.0620396861
  - # 2
    frequency:   -2.0620396860
  - # 3
    frequency:   -0.0000300952
  - # 4
    frequency:    0.0000006462
  - # 5
    frequency:    0.0000251889
  - # 6
    frequency:    0.5931154330
  - # 7
    frequency:    0.5931154336
  - # 8
    frequency:    4.8431600603
  - # 9
    frequency:    4.8431600603
  - # 10
    frequency:    5.3554675273
  - # 11
    frequency:    8.0146544385
  - # 12
    frequency:    8.0146544386
  - # 13
    frequency:    8.3841499589
  - # 14
    frequency:    8.3841499589
  - # 15
    frequency:    8.4224560718
  - # 16
    frequency:   10.6928311268
  - # 17
    frequency:   12.5159705752
  - # 18
    frequency:   12.5159705753
  - # 19
    frequency:   13.0931419853
  - # 20
    frequency:   14.0029278690
  - # 21
    frequency:   14.0029278691
  - # 22
    frequency:   27.1126513461
  - # 23
    frequency:   57.7874466037
  - # 24
    frequency:   61.9419907844

- q-position: [    0.0050505,    0.0000000,    0.0000000 ]
  distance:    0.0017444
  band:
  - # 1
    frequency:   -2.0619189289
  - # 2
    frequency:   -2.0615721663
  - # 3
    frequency:    0.0028931192
  - # 4
    frequency:    0.0840764252
  - # 5
    frequency:    0.1120874698
  - # 6
    frequency:    0.5961647652
  - # 7
    frequency:    0.6012566745
  - # 8
    frequency:    4.8432329131
  - # 9
    frequency:    4.8438997297
  - # 10
    frequency:    5.3553779474
  - # 11
    frequency:    8.0146563411
  - # 12
    frequency:    8.0148838262
  - # 13
    frequency:    8.3838380457
  - # 14
    frequency:    8.3841616681
  - # 15
    frequency:    8.4232363028
  - # 16
    frequency:   10.6919532185
  - # 17
    frequency:   12.5158260156
  - # 18
    frequency:   12.5160086504
  - # 19
    frequency:   13.0933329620
  - # 20
    frequency:   14.0030170595
  - # 21
    frequency:   14.0033100475
  - # 22
    frequency:   27.1125484931
  - # 23
    frequency:   57.7865620409
  - # 24
    frequency:   61.9418961699

- q-position: [    0.0101010,    0.0000000,    0.0000000 ]
  distance:    0.0034887
  band:
  - # 1
    frequency:   -2.0615610035
  - # 2
    frequency:   -2.0601803848
  - # 3
    frequency:    0.0113376208
  - # 4
    frequency:    0.1674103798
  - # 5
    frequency:    0.2237800000
  - # 6
    frequency:    0.6054230981
  - # 7
    frequency:    0.6251435936
  - # 8
    frequency:    4.8434534433
  - # 9
    frequency:    4.8461123577
  - # 10
    frequency:    5.3551135846
  - # 11
    frequency:    8.0146614108
  - # 12
    frequency:    8.0155710884
  - # 13
    frequency:    8.3829529952
  - # 14
    frequency:    8.3841963848
  - # 15
    frequency:    8.4255261166
  - # 16
    frequency:   10.6893235845
  - # 17
    frequency:   12.5153927218
  - # 18
    frequency:   12.5161204925
  - # 19
    frequency:   13.0939055755
  - # 20
    frequency:   14.0032844025
  - # 21
    frequency:   14.0044559601
  - # 22
    frequency:   27.1122401709
  - # 23
    frequency:   57.7839098652
  - # 24
    frequency:   61.9416125726

- q-position: [    0.0151515,    0.0000000,    0.0000000 ]
  distance:    0.0052331
  band:
  - # 1
    frequency:   -2.0609787027
  - # 2
    frequency:   -2.0578962147
  - # 3
    frequency:    0.0247817950
  - # 4
    frequency:    0.2490990956
  - # 5
    frequency:    0.3346062916
  - # 6
    frequency:    0.6212640070
  - # 7
    frequency:    0.6634159815
  - # 8
    frequency:    4.8438275517
  - # 9
    frequency:    4.8497787736
  - # 10
    frequency:    5.3546876628
  - # 11
    frequency:    8.0146677380
  - # 12
    frequency:    8.0167134330
  - # 13
    frequency:    8.3816146003
  - # 14
    frequency:    8.3842528822
  - # 15
    frequency:    8.4292052396
  - # 16
    frequency:   10.6849544404
  - # 17
    frequency:   12.5146718465
  - # 18
    frequency:   12.5162990313
  - # 19
    frequency:   13.0948588603
  - # 20
    frequency:   14.0037292132
  - # 21
    frequency:   14.0063637361
  - # 22
    frequency:   27.1117270894
  - # 23
    frequency:   57.7794946117
  - # 24
    frequency:   61.9411407303

- q-position: [    0.0202020,    0.0000000,    0.0000000 ]
  distance:    0.0069775
  band:
  - # 1
    frequency:   -2.0601925547
  - # 2
    frequency:   -2.0547712950
  - # 3
    frequency:    0.0426075800
  - # 4
    frequency:    0.3279024507
  - # 5
    frequency:    0.4439349713
  - # 6
    frequency:    0.6444413646
  - # 7
    frequency:    0.7144521223
  - # 8
    frequency:    4.8443650220
  - # 9
    frequency:    4.8548669206
  - # 10
    frequency:    5.3541225390
  - # 11
    frequency:    8.0146721518
  - # 12
    frequency:    8.0183059112
  - # 13
    frequency:    8.3799523088
  - # 14
    frequency:    8.3843291324
  - # 15
    frequency:    8.4341437161
  - # 16
    frequency:   10.6788659586
  - # 17
    frequency:   12.5136652986
  - # 18
    frequency:   12.5165327472
  - # 19
    frequency:   13.0961911550
  - # 20
    frequency:   14.0043503540
  - # 21
    frequency:   14.0090302541
  - # 22
    frequency:   27.1110104296
  - # 23
    frequency:   57.7733238259
  - # 24
    frequency:   61.9404818699

- q-position: [    0.0252525,    0.0000000,    0.0000000 ]
  distance:    0.0087219
  band:
  - # 1
    frequency:   -2.0592297139
  - # 2
    frequency:   -2.0508749676
  - # 3
    frequency:    0.0643205457
  - # 4
    frequency:    0.4021028332
  - # 5
    frequency:    0.5508986010
  - # 6
    frequency:    0.6762044705
  - # 7
    frequency:    0.7768908421
  - # 8
    frequency:    4.8450794456
  - # 9
    frequency:    4.8613316784
  - # 10
    frequency:    5.3534501912
  - # 11
    frequency:    8.0146702383
  - # 12
    frequency:    8.0203409914
  - # 13
    frequency:    8.3780698326
  - # 14
    frequency:    8.3844223328
  - # 15
    frequency:    8.4402377215
  - # 16
    frequency:   10.6710859971
  - # 17
    frequency:   12.5123757248
  - # 18
    frequency:   12.5168060557
  - # 19
    frequency:   13.0979000282
  - # 20
    frequency:   14.0051462386
  - # 21
    frequency:   14.0124511361
  - # 22
    frequency:   27.1100918404
  - # 23
    frequency:   57.7654080451
  - # 24
    frequency:   61.9396377031

- q-position: [    0.0303030,    0.0000000,    0.0000000 ]
  distance:    0.0104662
  band:
  - # 1
    frequency:   -2.0581225582
  - # 2
    frequency:   -2.0462916805
  - # 3
    frequency:    0.0895990093
  - # 4
    frequency:    0.4696604268
  - # 5
    frequency:    0.6544109906
  - # 6
    frequency:    0.7181368535
  - # 7
    frequency:    0.8498633511
  - # 8
    frequency:    4.8459881152
  - # 9
    frequency:    4.8691145751
  - # 10
    frequency:    5.3527129237
  - # 11
    frequency:    8.0146563669
  - # 12
    frequency:    8.0228079960
  - # 13
    frequency:    8.3760400925
  - # 14
    frequency:    8.3845289404
  - # 15
    frequency:    8.4474151760
  - # 16
    frequency:   10.6616497364
  - # 17
    frequency:   12.5108064850
  - # 18
    frequency:   12.5170998227
  - # 19
    frequency:   13.0999821789
  - # 20
    frequency:   14.0061148393
  - # 21
    frequency:   14.0166207396
  - # 22
    frequency:   27.1089734334
  - # 23
    frequency:   57.7557607713
  - # 24
    frequency:   61.9386104205

- q-position: [    0.0353535,    0.0000000,    0.0000000 ]
  distance:    0.0122106
  band:
  - # 1
    frequency:   -2.0569071169
  - # 2
    frequency:   -2.0411180714
  - # 3
    frequency:    0.1182587702
  - # 4
    frequency:    0.5290678081
  - # 5
    frequency:    0.7534610115
  - # 6
    frequency:    0.7713045366
  - # 7
    frequency:    0.9327735882
  - # 8
    frequency:    4.8471118895
  - # 9
    frequency:    4.8781433589
  - # 10
    frequency:    5.3519643100
  - # 11
    frequency:    8.0146237240
  - # 12
    frequency:    8.0256924297
  - # 13
    frequency:    8.3739138977
  - # 14
    frequency:    8.3846447151
  - # 15
    frequency:    8.4556277285
  - # 16
    frequency:   10.6505992397
  - # 17
    frequency:   12.5089616199
  - # 18
    frequency:   12.5173919902
  - # 19
    frequency:   13.1024333194
  - # 20
    frequency:   14.0072536954
  - # 21
    frequency:   14.0215321487
  - # 22
    frequency:   27.1076577776
  - # 23
    frequency:   57.7443984380
  - # 24
    frequency:   61.9374026839

- q-position: [    0.0404040,    0.0000000,    0.0000000 ]
  distance:    0.0139550
  band:
  - # 1
    frequency:   -2.0556214589
  - # 2
    frequency:   -2.0354599275
  - # 3
    frequency:    0.1501971782
  - # 4
    frequency:    0.5805135222
  - # 5
    frequency:    0.8350979459
  - # 6
    frequency:    0.8477125016
  - # 7
    frequency:    1.0246769494
  - # 8
    frequency:    4.8484750272
  - # 9
    frequency:    4.8883313923
  - # 10
    frequency:    5.3512703913
  - # 11
    frequency:    8.0145643562
  - # 12
    frequency:    8.0289752326
  - # 13
    frequency:    8.3717302838
  - # 14
    frequency:    8.3847647704
  - # 15
    frequency:    8.4648411543
  - # 16
    frequency:   10.6379829557
  - # 17
    frequency:   12.5068458136
  - # 18
    frequency:   12.5176582879
  - # 19
    frequency:   13.1052480463
  - # 20
    frequency:   14.0085599241
  - # 21
    frequency:   14.0271771631
  - # 22
    frequency:   27.1061478915
  - # 23
    frequency:   57.7313403683
  - # 24
    frequency:   61.9360176177

- q-position: [    0.0454545,    0.0000000,    0.0000000 ]
  distance:    0.0156994
  band:
  - # 1
    frequency:   -2.0543041598
  - # 2
    frequency:   -2.0294291659
  - # 3
    frequency:    0.1853473643
  - # 4
    frequency:    0.6258475515
  - # 5
    frequency:    0.9072713958
  - # 6
    frequency:    0.9378438527
  - # 7
    frequency:    1.1238847294
  - # 8
    frequency:    4.8501049927
  - # 9
    frequency:    4.8995768452
  - # 10
    frequency:    5.3507111381
  - # 11
    frequency:    8.0144692217
  - # 12
    frequency:    8.0326319965
  - # 13
    frequency:    8.3695243980
  - # 14
    frequency:    8.3848836300
  - # 15
    frequency:    8.4750282370
  - # 16
    frequency:   10.6238551804
  - # 17
    frequency:   12.5044643494
  - # 18
    frequency:   12.5178730034
  - # 19
    frequency:   13.1084197066
  - # 20
    frequency:   14.0100302326
  - # 21
    frequency:   14.0335462871
  - # 22
    frequency:   27.1044472352
  - # 23
    frequency:   57.7166087262
  - # 24
    frequency:   61.9344587972

- q-position: [    0.0505051,    0.0000000,    0.0000000 ]
  distance:    0.0174437
  band:
  - # 1
    frequency:   -2.0529929432
  - # 2
    frequency:   -2.0231409121
  - # 3
    frequency:    0.2236488505
  - # 4
    frequency:    0.6673208988
  - # 5
    frequency:    0.9852067064
  - # 6
    frequency:    1.0251141460
  - # 7
    frequency:    1.2283385811
  - # 8
    frequency:    4.8520322323
  - # 9
    frequency:    4.9117616867
  - # 10
    frequency:    5.3503821606
  - # 11
    frequency:    8.0143282522
  - # 12
    frequency:    8.0366321825
  - # 13
    frequency:    8.3673326279
  - # 14
    frequency:    8.3849952891
  - # 15
    frequency:    8.4861644007
  - # 16
    frequency:   10.6082754989
  - # 17
    frequency:   12.5018230605
  - # 18
    frequency:   12.5180097852
  - # 19
    frequency:   13.1119402686
  - # 20
    frequency:   14.0116609327
  - # 21
    frequency:   14.0406287184
  - # 22
    frequency:   27.1025596998
  - # 23
    frequency:   57.7002284617
  - # 24
    frequency:   61.9327302373

- q-position: [    0.0555556,    0.0000000,    0.0000000 ]
  distance:    0.0191881
  band:
  - # 1
    frequency:   -2.0517235609
  - # 2
    frequency:   -2.0167106970
  - # 3
    frequency:    0.2650312809
  - # 4
    frequency:    0.7066709508
  - # 5
    frequency:    1.0668291618
  - # 6
    frequency:    1.1106923476
  - # 7
    frequency:    1.3362302894
  - # 8
    frequency:    4.8542899227
  - # 9
    frequency:    4.9247505244
  - # 10
    frequency:    5.3503965999
  - # 11
    frequency:    8.0141304238
  - # 12
    frequency:    8.0409383857
  - # 13
    frequency:    8.3651956788
  - # 14
    frequency:    8.3850932784
  - # 15
    frequency:    8.4982253380
  - # 16
    frequency:   10.5913082241
  - # 17
    frequency:   12.4989282766
  - # 18
    frequency:   12.5180424503
  - # 19
    frequency:   13.1158002042
  - # 20
    frequency:   14.0134479568
  - # 21
    frequency:   14.0484123376
  - # 22
    frequency:   27.1004895969
  - # 23
    frequency:   57.6822272472
  - # 24
    frequency:   61.9308363779

- q-position: [    0.0606061,    0.0000000,    0.0000000 ]
  distance:    0.0209325
  band:
  - # 1
    frequency:   -2.0505289453
  - # 2
    frequency:   -2.0102517530
  - # 3
    frequency:    0.3094066117
  - # 4
    frequency:    0.7449878389
  - # 5
    frequency:    1.1507409420
  - # 6
    frequency:    1.1953714633
  - # 7
    frequency:    1.4462474653
  - # 8
    frequency:    4.8569136924
  - # 9
    frequency:    4.9383894337
  - # 10
    frequency:    5.3508870484
  - # 11
    frequency:    8.0138638395
  - # 12
    frequency:    8.0455056966
  - # 13
    frequency:    8.3631603118
  - # 14
    frequency:    8.3851707312
  - # 15
    frequency:    8.5111858711
  - # 16
    frequency:   10.5730218492
  - # 17
    frequency:   12.4957867653
  - # 18
    frequency:   12.5179457741
  - # 19
    frequency:   13.1199883915
  - # 20
    frequency:   14.0153868760
  - # 21
    frequency:   14.0568836992
  - # 22
    frequency:   27.0982416462
  - # 23
    frequency:   57.6626354089
  - # 24
    frequency:   61.9287820691

- q-position: [    0.0656566,    0.0000000,    0.0000000 ]
  distance:    0.0226769
  band:
  - # 1
    frequency:   -2.0494386356
  - # 2
    frequency:   -2.0038723821
  - # 3
    frequency:    0.3566662464
  - # 4
    frequency:    0.7828916613
  - # 5
    frequency:    1.2360426495
  - # 6
    frequency:    1.2796037656
  - # 7
    frequency:    1.5575079806
  - # 8
    frequency:    4.8599413166
  - # 9
    frequency:    4.9525050610
  - # 10
    frequency:    5.3520072005
  - # 11
    frequency:    8.0135158219
  - # 12
    frequency:    8.0502812235
  - # 13
    frequency:    8.3612802235
  - # 14
    frequency:    8.3852204490
  - # 15
    frequency:    8.5250194993
  - # 16
    frequency:   10.5534885272
  - # 17
    frequency:   12.4924056715
  - # 18
    frequency:   12.5176962391
  - # 19
    frequency:   13.1244920429
  - # 20
    frequency:   14.0174729195
  - # 21
    frequency:   14.0660280266
  - # 22
    frequency:   27.0958209616
  - # 23
    frequency:   57.6414858505
  - # 24
    frequency:   61.9265725545

- q-position: [    0.0707071,    0.0000000,    0.0000000 ]
  distance:    0.0244212
  band:
  - # 1
    frequency:   -2.0484784570
  - # 2
    frequency:   -1.9976733907
  - # 3
    frequency:    0.4066809716
  - # 4
    frequency:    0.8207148979
  - # 5
    frequency:    1.3221490285
  - # 6
    frequency:    1.3636169264
  - # 7
    frequency:    1.6694212850
  - # 8
    frequency:    4.8634123879
  - # 9
    frequency:    4.9669045013
  - # 10
    frequency:    5.3539327301
  - # 11
    frequency:    8.0130730161
  - # 12
    frequency:    8.0552038535
  - # 13
    frequency:    8.3596163356
  - # 14
    frequency:    8.3852349673
  - # 15
    frequency:    8.5396982830
  - # 16
    frequency:   10.5327835900
  - # 17
    frequency:   12.4887924530
  - # 18
    frequency:   12.5172727267
  - # 19
    frequency:   13.1292966666
  - # 20
    frequency:   14.0197009960
  - # 21
    frequency:   14.0758292092
  - # 22
    frequency:   27.0932330371
  - # 23
    frequency:   57.6188139712
  - # 24
    frequency:   61.9242134530

- q-position: [    0.0757576,    0.0000000,    0.0000000 ]
  distance:    0.0261656
  band:
  - # 1
    frequency:   -2.0476704155
  - # 2
    frequency:   -1.9917456280
  - # 3
    frequency:    0.4593025235
  - # 4
    frequency:    0.8586240740
  - # 5
    frequency:    1.4086651492
  - # 6
    frequency:    1.4475079534
  - # 7
    frequency:    1.7815777510
  - # 8
    frequency:    4.8673679633
  - # 9
    frequency:    4.9813767121
  - # 10
    frequency:    5.3568606255
  - # 11
    frequency:    8.0125215045
  - # 12
    frequency:    8.0602043530
  - # 13
    frequency:    8.3582365981
  - # 14
    frequency:    8.3852066184
  - # 15
    frequency:    8.5551928584
  - # 16
    frequency:   10.5109851154
  - # 17
    frequency:   12.4849548150
  - # 18
    frequency:   12.5166571362
  - # 19
    frequency:   13.1343860624
  - # 20
    frequency:   14.0220657165
  - # 21
    frequency:   14.0862698059
  - # 22
    frequency:   27.0904837309
  - # 23
    frequency:   57.5946575771
  - # 24
    frequency:   61.9217107400

- q-position: [    0.0808081,    0.0000000,    0.0000000 ]
  distance:    0.0279100
  band:
  - # 1
    frequency:   -2.0470327632
  - # 2
    frequency:   -1.9861677177
  - # 3
    frequency:    0.5143661812
  - # 4
    frequency:    0.8966916963
  - # 5
    frequency:    1.4953122531
  - # 6
    frequency:    1.5313019583
  - # 7
    frequency:    1.8936774241
  - # 8
    frequency:    4.8718501901
  - # 9
    frequency:    4.9956964893
  - # 10
    frequency:    5.3610059591
  - # 11
    frequency:    8.0118469311
  - # 12
    frequency:    8.0652059268
  - # 13
    frequency:    8.3572152982
  - # 14
    frequency:    8.3851275908
  - # 15
    frequency:    8.5714724680
  - # 16
    frequency:   10.4881735496
  - # 17
    frequency:   12.4809006430
  - # 18
    frequency:   12.5158349249
  - # 19
    frequency:   13.1397423563
  - # 20
    frequency:   14.0245614188
  - # 21
    frequency:   14.0973310539
  - # 22
    frequency:   27.0875792483
  - # 23
    frequency:   57.5690567872
  - # 24
    frequency:   61.9190707266

- q-position: [    0.0858586,    0.0000000,    0.0000000 ]
  distance:    0.0296544
  band:
  - # 1
    frequency:   -2.0465801866
  - # 2
    frequency:   -1.9810041152
  - # 3
    frequency:    0.5716940662
  - # 4
    frequency:    0.9349373864
  - # 5
    frequency:    1.5818844654
  - # 6
    frequency:    1.6149858007
  - # 7
    frequency:    2.0054869360
  - # 8
    frequency:    4.8769019130
  - # 9
    frequency:    5.0096321289
  - # 10
    frequency:    5.3665949700
  - # 11
    frequency:    8.0110346362
  - # 12
    frequency:    8.0701253691
  - # 13
    frequency:    8.3566318002
  - # 14
    frequency:    8.3849899845
  - # 15
    frequency:    8.5885049434
  - # 16
    frequency:   10.4644313898
  - # 17
    frequency:   12.4766379359
  - # 18
    frequency:   12.5147955600
  - # 19
    frequency:   13.1453460726
  - # 20
    frequency:   14.0271821929
  - # 21
    frequency:   14.1089928855
  - # 22
    frequency:   27.0845261236
  - # 23
    frequency:   57.5420539337
  - # 24
    frequency:   61.9163000383

- q-position: [    0.0909091,    0.0000000,    0.0000000 ]
  distance:    0.0313987
  band:
  - # 1
    frequency:   -2.0463240751
  - # 2
    frequency:   -1.9763036424
  - # 3
    frequency:    0.6310989270
  - # 4
    frequency:    0.9733513382
  - # 5
    frequency:    1.6682233213
  - # 6
    frequency:    1.6985267425
  - # 7
    frequency:    2.1168135758
  - # 8
    frequency:    4.8825662642
  - # 9
    frequency:    5.0229575857
  - # 10
    frequency:    5.3738536542
  - # 11
    frequency:    8.0100697998
  - # 12
    frequency:    8.0748749328
  - # 13
    frequency:    8.3565686175
  - # 14
    frequency:    8.3847858606
  - # 15
    frequency:    8.6062566135
  - # 16
    frequency:   10.4398429313
  - # 17
    frequency:   12.4721747389
  - # 18
    frequency:   12.5135328842
  - # 19
    frequency:   13.1511762419
  - # 20
    frequency:   14.0299219081
  - # 21
    frequency:   14.1212339524
  - # 22
    frequency:   27.0813312020
  - # 23
    frequency:   57.5136934569
  - # 24
    frequency:   61.9134055924

- q-position: [    0.0959596,    0.0000000,    0.0000000 ]
  distance:    0.0331431
  band:
  - # 1
    frequency:   -2.0462728318
  - # 2
    frequency:   -1.9720986430
  - # 3
    frequency:    0.6923882116
  - # 4
    frequency:    1.0119077918
  - # 5
    frequency:    1.7542024476
  - # 6
    frequency:    1.7818826701
  - # 7
    frequency:    2.2274893393
  - # 8
    frequency:    4.8888862407
  - # 9
    frequency:    5.0354689720
  - # 10
    frequency:    5.3829920299
  - # 11
    frequency:    8.0089375930
  - # 12
    frequency:    8.0793649927
  - # 13
    frequency:    8.3571087418
  - # 14
    frequency:    8.3845072865
  - # 15
    frequency:    8.6246921262
  - # 16
    frequency:   10.4144940806
  - # 17
    frequency:   12.4675190786
  - # 18
    frequency:   12.5120453933
  - # 19
    frequency:   13.1572105416
  - # 20
    frequency:   14.0327742410
  - # 21
    frequency:   14.1340316591
  - # 22
    frequency:   27.0780016187
  - # 23
    frequency:   57.4840217953
  - # 24
    frequency:   61.9103945748

- q-position: [    0.1010101,    0.0000000,    0.0000000 ]
  distance:    0.0348875
  band:
  - # 1
    frequency:   -2.0464321997
  - # 2
    frequency:   -1.9684048570
  - # 3
    frequency:    0.7553682078
  - # 4
    frequency:    1.0505728348
  - # 5
    frequency:    1.8397180963
  - # 6
    frequency:    1.8650076554
  - # 7
    frequency:    2.3373607466
  - # 8
    frequency:    4.8959042701
  - # 9
    frequency:    5.0470035918
  - # 10
    frequency:    5.3941858935
  - # 11
    frequency:    8.0076233360
  - # 12
    frequency:    8.0835074860
  - # 13
    frequency:    8.3583322490
  - # 14
    frequency:    8.3841463749
  - # 15
    frequency:    8.6437741838
  - # 16
    frequency:   10.3884722388
  - # 17
    frequency:   12.4626788993
  - # 18
    frequency:   12.5103364317
  - # 19
    frequency:   13.1634254645
  - # 20
    frequency:   14.0357327043
  - # 21
    frequency:   14.1473622062
  - # 22
    frequency:   27.0745447785
  - # 23
    frequency:   57.4530872714
  - # 24
    frequency:   61.9072744150

- q-position: [    0.1060606,    0.0000000,    0.0000000 ]
  distance:    0.0366318
  band:
  - # 1
    frequency:   -2.0468055796
  - # 2
    frequency:   -1.9652220468
  - # 3
    frequency:    0.8198480229
  - # 4
    frequency:    1.0893089391
  - # 5
    frequency:    1.9246831210
  - # 6
    frequency:    1.9478549431
  - # 7
    frequency:    2.4462820287
  - # 8
    frequency:    4.9036617705
  - # 9
    frequency:    5.0574579318
  - # 10
    frequency:    5.4075596559
  - # 11
    frequency:    8.0061126614
  - # 12
    frequency:    8.0872199496
  - # 13
    frequency:    8.3603123455
  - # 14
    frequency:    8.3836953177
  - # 15
    frequency:    8.6634631956
  - # 16
    frequency:   10.3618662571
  - # 17
    frequency:   12.4576620023
  - # 18
    frequency:   12.5084143093
  - # 19
    frequency:   13.1697965097
  - # 20
    frequency:   14.0387906765
  - # 21
    frequency:   14.1612006438
  - # 22
    frequency:   27.0709683344
  - # 23
    frequency:   57.4209399724
  - # 24
    frequency:   61.9040527618

- q-position: [    0.1111111,    0.0000000,    0.0000000 ]
  distance:    0.0383762
  band:
  - # 1
    frequency:   -2.0473943288
  - # 2
    frequency:   -1.9625353295
  - # 3
    frequency:    0.8856431772
  - # 4
    frequency:    1.1280775904
  - # 5
    frequency:    2.0090230279
  - # 6
    frequency:    2.0303785103
  - # 7
    frequency:    2.5541103124
  - # 8
    frequency:    4.9121987066
  - # 9
    frequency:    5.0668002019
  - # 10
    frequency:    5.4231746790
  - # 11
    frequency:    8.0043916798
  - # 12
    frequency:    8.0904297925
  - # 13
    frequency:    8.3631112104
  - # 14
    frequency:    8.3831464153
  - # 15
    frequency:    8.6837168554
  - # 16
    frequency:   10.3347664675
  - # 17
    frequency:   12.4524759887
  - # 18
    frequency:   12.5062923473
  - # 19
    frequency:   13.1762983893
  - # 20
    frequency:   14.0419414322
  - # 21
    frequency:   14.1755209342
  - # 22
    frequency:   27.0672801641
  - # 23
    frequency:   57.3876316279
  - # 24
    frequency:   61.9007374571

- q-position: [    0.1161616,    0.0000000,    0.0000000 ]
  distance:    0.0401206
  band:
  - # 1
    frequency:   -2.0481980297
  - # 2
    frequency:   -1.9603170971
  - # 3
    frequency:    0.9525786258
  - # 4
    frequency:    1.1668407902
  - # 5
    frequency:    2.0926733074
  - # 6
    frequency:    2.1125338343
  - # 7
    frequency:    2.6607020115
  - # 8
    frequency:    4.9215531472
  - # 9
    frequency:    5.0750740569
  - # 10
    frequency:    5.4410264908
  - # 11
    frequency:    8.0024471467
  - # 12
    frequency:    8.0930782658
  - # 13
    frequency:    8.3667761532
  - # 14
    frequency:    8.3824921023
  - # 15
    frequency:    8.7044896465
  - # 16
    frequency:   10.3072647953
  - # 17
    frequency:   12.4471282061
  - # 18
    frequency:   12.5039888586
  - # 19
    frequency:   13.1829052459
  - # 20
    frequency:   14.0451781725
  - # 21
    frequency:   14.1902960255
  - # 22
    frequency:   27.0634883477
  - # 23
    frequency:   57.3532154835
  - # 24
    frequency:   61.8973365095

- q-position: [    0.1212121,    0.0000000,    0.0000000 ]
  distance:    0.0418650
  band:
  - # 1
    frequency:   -2.0492147282
  - # 2
    frequency:   -1.9585293563
  - # 3
    frequency:    1.0204910780
  - # 4
    frequency:    1.2055618851
  - # 5
    frequency:    2.1755775778
  - # 6
    frequency:    2.1942782210
  - # 7
    frequency:    2.7659099587
  - # 8
    frequency:    4.9317608283
  - # 9
    frequency:    5.0823928778
  - # 10
    frequency:    5.4610515063
  - # 11
    frequency:    8.0002666288
  - # 12
    frequency:    8.0951235256
  - # 13
    frequency:    8.3713366836
  - # 14
    frequency:    8.3817249692
  - # 15
    frequency:    8.7257322818
  - # 16
    frequency:   10.2794549578
  - # 17
    frequency:   12.4416256995
  - # 18
    frequency:   12.5015270698
  - # 19
    frequency:   13.1895908740
  - # 20
    frequency:   14.0484940561
  - # 21
    frequency:   14.2054979343
  - # 22
    frequency:   27.0596011430
  - # 23
    frequency:   57.3177461715
  - # 24
    frequency:   61.8938580679

- q-position: [    0.1262626,    0.0000000,    0.0000000 ]
  distance:    0.0436093
  band:
  - # 1
    frequency:   -2.0504411393
  - # 2
    frequency:   -1.9571262915
  - # 3
    frequency:    1.0892305549
  - # 4
    frequency:    1.2442059932
  - # 5
    frequency:    2.2576862563
  - # 6
    frequency:    2.2755708924
  - # 7
    frequency:    2.8695810058
  - # 8
    frequency:    4.9428547258
  - # 9
    frequency:    5.0889270024
  - # 10
    frequency:    5.4831408610
  - # 11
    frequency:    7.9978386654
  - # 12
    frequency:    8.0965422606
  - # 13
    frequency:    8.3768030070
  - # 14
    frequency:    8.3808377838
  - # 15
    frequency:    8.7473910769
  - # 16
    frequency:   10.2514327580
  - # 17
    frequency:   12.4359751680
  - # 18
    frequency:   12.4989349892
  - # 19
    frequency:   13.1963289407
  - # 20
    frequency:   14.0518822293
  - # 21
    frequency:   14.2210978379
  - # 22
    frequency:   27.0556269611
  - # 23
    frequency:   57.2812795789
  - # 24
    frequency:   61.8903103939

- q-position: [    0.1313131,    0.0000000,    0.0000000 ]
  distance:    0.0453537
  band:
  - # 1
    frequency:   -2.0518728239
  - # 2
    frequency:   -1.9560568582
  - # 3
    frequency:    1.1586611943
  - # 4
    frequency:    1.2827401894
  - # 5
    frequency:    2.3389555821
  - # 6
    frequency:    2.3563729443
  - # 7
    frequency:    2.9715539395
  - # 8
    frequency:    4.9548646424
  - # 9
    frequency:    5.0948879635
  - # 10
    frequency:    5.5071572876
  - # 11
    frequency:    7.9951529250
  - # 12
    frequency:    8.0973296065
  - # 13
    frequency:    8.3798235107
  - # 14
    frequency:    8.3831662171
  - # 15
    frequency:    8.7694072584
  - # 16
    frequency:   10.2232964842
  - # 17
    frequency:   12.4301829259
  - # 18
    frequency:   12.4962452279
  - # 19
    frequency:   13.2030932013
  - # 20
    frequency:   14.0553358571
  - # 21
    frequency:   14.2370661736
  - # 22
    frequency:   27.0515743408
  - # 23
    frequency:   57.2438727128
  - # 24
    frequency:   61.8867018348

- q-position: [    0.1363636,    0.0000000,    0.0000000 ]
  distance:    0.0470981
  band:
  - # 1
    frequency:   -2.0535043391
  - # 2
    frequency:   -1.9552672385
  - # 3
    frequency:    1.2286613689
  - # 4
    frequency:    1.3211335478
  - # 5
    frequency:    2.4193468780
  - # 6
    frequency:    2.4366472397
  - # 7