nqpoint: 300    
npath: 3      
segment_nqpoint:
- 100
- 100
- 100
labels:
- [ 'G', 'M' ]
- [ 'M', 'K' ]
- [ 'K', 'G' ]
reciprocal_lattice:
- [   0.29740973,   0.17170959,   0.00000000 ] # a*
- [   0.00000000,   0.34341918,   0.00000000 ] # b*
- [   0.00000000,   0.00000000,   0.04146958 ] # c*
natom: 6      
lattice:
- [     3.362364760677228,     0.000000000000000,     0.000000000000000 ] # a
- [    -1.681182380338614,     2.911893299529541,     0.000000000000000 ] # b
- [     0.000000000000000,     0.000000000000000,    24.114059180199920 ] # c
points:
- symbol: C # 1
  coordinates: [  0.000000000000000,  0.000000000000000,  0.521858066705066 ]
  mass: 12.010700
- symbol: F # 2
  coordinates: [  0.333332985432215,  0.666666983183674,  0.626773745027966 ]
  mass: 18.998403
- symbol: H # 3
  coordinates: [  0.666666984744047,  0.333332985985145,  0.373226254972033 ]
  mass: 1.007940
- symbol: O # 4
  coordinates: [  0.666666984744047,  0.333332985985145,  0.414163066474881 ]
  mass: 15.999400
- symbol: Zr # 5
  coordinates: [  0.333332985432215,  0.666666983183674,  0.470048372279440 ]
  mass: 91.224000
- symbol: Zr # 6
  coordinates: [  0.666666984744047,  0.333332985985145,  0.571980846302213 ]
  mass: 91.224000

phonon:
- q-position: [    0.0000000,    0.0000000,    0.0000000 ]
  distance:    0.0000000
  band:
  - # 1
    frequency:   -0.0000024568
  - # 2
    frequency:   -0.0000003753
  - # 3
    frequency:    0.0000026026
  - # 4
    frequency:    4.6822508103
  - # 5
    frequency:    4.6822508103
  - # 6
    frequency:    5.4997274502
  - # 7
    frequency:    5.4997274502
  - # 8
    frequency:    7.0338589119
  - # 9
    frequency:    7.1320845985
  - # 10
    frequency:    7.1320845985
  - # 11
    frequency:   11.6820580086
  - # 12
    frequency:   12.4569191734
  - # 13
    frequency:   14.4586734178
  - # 14
    frequency:   14.4586734178
  - # 15
    frequency:   16.1739874747
  - # 16
    frequency:   17.7431220616
  - # 17
    frequency:   17.7431220616
  - # 18
    frequency:  111.2999271545

- q-position: [    0.0050505,    0.0000000,    0.0000000 ]
  distance:    0.0017344
  band:
  - # 1
    frequency:   -0.0340830172
  - # 2
    frequency:    0.0676692935
  - # 3
    frequency:    0.1090980033
  - # 4
    frequency:    4.6826971473
  - # 5
    frequency:    4.6830036897
  - # 6
    frequency:    5.5004978887
  - # 7
    frequency:    5.5006153932
  - # 8
    frequency:    7.0332008834
  - # 9
    frequency:    7.1321707347
  - # 10
    frequency:    7.1331989839
  - # 11
    frequency:   11.6815380739
  - # 12
    frequency:   12.4561464057
  - # 13
    frequency:   14.4582876789
  - # 14
    frequency:   14.4590513258
  - # 15
    frequency:   16.1742111331
  - # 16
    frequency:   17.7437330343
  - # 17
    frequency:   17.7442036877
  - # 18
    frequency:  111.2994541276

- q-position: [    0.0101010,    0.0000000,    0.0000000 ]
  distance:    0.0034689
  band:
  - # 1
    frequency:    0.0171103003
  - # 2
    frequency:    0.1353723793
  - # 3
    frequency:    0.2066561752
  - # 4
    frequency:    4.6840297716
  - # 5
    frequency:    4.6852588625
  - # 6
    frequency:    5.5028054363
  - # 7
    frequency:    5.5032762306
  - # 8
    frequency:    7.0312998982
  - # 9
    frequency:    7.1324293584
  - # 10
    frequency:    7.1364658811
  - # 11
    frequency:   11.6799765233
  - # 12
    frequency:   12.4538305126
  - # 13
    frequency:   14.4571369402
  - # 14
    frequency:   14.4601835791
  - # 15
    frequency:   16.1748796721
  - # 16
    frequency:   17.7455611814
  - # 17
    frequency:   17.7474416917
  - # 18
    frequency:  111.2980385542

- q-position: [    0.0151515,    0.0000000,    0.0000000 ]
  distance:    0.0052033
  band:
  - # 1
    frequency:    0.0555021756
  - # 2
    frequency:    0.2031422662
  - # 3
    frequency:    0.3062766616
  - # 4
    frequency:    4.6862296607
  - # 5
    frequency:    4.6890059914
  - # 6
    frequency:    5.5066387733
  - # 7
    frequency:    5.5077009359
  - # 8
    frequency:    7.0283422445
  - # 9
    frequency:    7.1328611153
  - # 10
    frequency:    7.1416895734
  - # 11
    frequency:   11.6773681592
  - # 12
    frequency:   12.4499786966
  - # 13
    frequency:   14.4552406708
  - # 14
    frequency:   14.4620657792
  - # 15
    frequency:   16.1759858207
  - # 16
    frequency:   17.7485922344
  - # 17
    frequency:   17.7528154297
  - # 18
    frequency:  111.2956909277

- q-position: [    0.0202020,    0.0000000,    0.0000000 ]
  distance:    0.0069378
  band:
  - # 1
    frequency:    0.0847247794
  - # 2
    frequency:    0.2710104167
  - # 3
    frequency:    0.4066966914
  - # 4
    frequency:    4.6892655659
  - # 5
    frequency:    4.6942280413
  - # 6
    frequency:    5.5119789802
  - # 7
    frequency:    5.5138742978
  - # 8
    frequency:    7.0245571010
  - # 9
    frequency:    7.1334670855
  - # 10
    frequency:    7.1486253301
  - # 11
    frequency:   11.6737044591
  - # 12
    frequency:   12.4446028711
  - # 13
    frequency:   14.4526314283
  - # 14
    frequency:   14.4646906418
  - # 15
    frequency:   16.1775175858
  - # 16
    frequency:   17.7528025618
  - # 17
    frequency:   17.7602904325
  - # 18
    frequency:  111.2924286422

- q-position: [    0.0252525,    0.0000000,    0.0000000 ]
  distance:    0.0086722
  band:
  - # 1
    frequency:    0.1127215208
  - # 2
    frequency:    0.3390060205
  - # 3
    frequency:    0.5075693916
  - # 4
    frequency:    4.6930946807
  - # 5
    frequency:    4.7009015631
  - # 6
    frequency:    5.5187994659
  - # 7
    frequency:    5.5217746792
  - # 8
    frequency:    7.0201577536
  - # 9
    frequency:    7.1342487873
  - # 10
    frequency:    7.1570384283
  - # 11
    frequency:   11.6689737857
  - # 12
    frequency:   12.4377195250
  - # 13
    frequency:   14.4493550016
  - # 14
    frequency:   14.4680480658
  - # 15
    frequency:   16.1794584393
  - # 16
    frequency:   17.7581593914
  - # 17
    frequency:   17.7698183280
  - # 18
    frequency:  111.2882758505

- q-position: [    0.0303030,    0.0000000,    0.0000000 ]
  distance:    0.0104066
  band:
  - # 1
    frequency:    0.1408477865
  - # 2
    frequency:    0.4071553236
  - # 3
    frequency:    0.6087852986
  - # 4
    frequency:    4.6976635447
  - # 5
    frequency:    4.7089970785
  - # 6
    frequency:    5.5270658791
  - # 7
    frequency:    5.5313737017
  - # 8
    frequency:    7.0153144927
  - # 9
    frequency:    7.1352081822
  - # 10
    frequency:    7.1667315816
  - # 11
    frequency:   11.6631616796
  - # 12
    frequency:   12.4293495352
  - # 13
    frequency:   14.4454705689
  - # 14
    frequency:   14.4721252263
  - # 15
    frequency:   16.1817875739
  - # 16
    frequency:   17.7646211192
  - # 17
    frequency:   17.7813367632
  - # 18
    frequency:  111.2832632684

- q-position: [    0.0353535,    0.0000000,    0.0000000 ]
  distance:    0.0121411
  band:
  - # 1
    frequency:    0.1696723665
  - # 2
    frequency:    0.4754810267
  - # 3
    frequency:    0.7103109624
  - # 4
    frequency:    4.7029091566
  - # 5
    frequency:    4.7184795523
  - # 6
    frequency:    5.5367360176
  - # 7
    frequency:    5.5426358723
  - # 8
    frequency:    7.0101517186
  - # 9
    frequency:    7.1363476776
  - # 10
    frequency:    7.1775482430
  - # 11
    frequency:   11.6562512353
  - # 12
    frequency:   12.4195179290
  - # 13
    frequency:   14.4410508348
  - # 14
    frequency:   14.4769066916
  - # 15
    frequency:   16.1844802258
  - # 16
    frequency:   17.7721377007
  - # 17
    frequency:   17.7947693549
  - # 18
    frequency:  111.2774279237

- q-position: [    0.0404040,    0.0000000,    0.0000000 ]
  distance:    0.0138755
  band:
  - # 1
    frequency:    0.1995207253
  - # 2
    frequency:    0.5440017635
  - # 3
    frequency:    0.8121411230
  - # 4
    frequency:    4.7087602594
  - # 5
    frequency:    4.7293089383
  - # 6
    frequency:    5.5477597506
  - # 7
    frequency:    5.5555181776
  - # 8
    frequency:    7.0047558991
  - # 9
    frequency:    7.1376701261
  - # 10
    frequency:    7.1893651259
  - # 11
    frequency:   11.6482235575
  - # 12
    frequency:   12.4082536011
  - # 13
    frequency:   14.4361821047
  - # 14
    frequency:   14.4823745588
  - # 15
    frequency:   16.1875080546
  - # 16
    frequency:   17.7806511234
  - # 17
    frequency:   17.8100256997
  - # 18
    frequency:  111.2708128555

- q-position: [    0.0454545,    0.0000000,    0.0000000 ]
  distance:    0.0156100
  band:
  - # 1
    frequency:    0.2306101706
  - # 2
    frequency:    0.6127316683
  - # 3
    frequency:    0.9142811807
  - # 4
    frequency:    4.7151387578
  - # 5
    frequency:    4.7414407787
  - # 6
    frequency:    5.5600789721
  - # 7
    frequency:    5.5699696676
  - # 8
    frequency:    6.9991858289
  - # 9
    frequency:    7.1391788187
  - # 10
    frequency:    7.2020824890
  - # 11
    frequency:   11.6390582949
  - # 12
    frequency:   12.3955889885
  - # 13
    frequency:   14.4309642534
  - # 14
    frequency:   14.4885086068
  - # 15
    frequency:   16.1908395720
  - # 16
    frequency:   17.7900959530
  - # 17
    frequency:   17.8270014775
  - # 18
    frequency:  111.2634667639

- q-position: [    0.0505051,    0.0000000,    0.0000000 ]
  distance:    0.0173444
  band:
  - # 1
    frequency:    0.2630969436
  - # 2
    frequency:    0.6816800379
  - # 3
    frequency:    1.0167395846
  - # 4
    frequency:    4.7219612255
  - # 5
    frequency:    4.7548268409
  - # 6
    frequency:    5.5736276053
  - # 7
    frequency:    5.5859310564
  - # 8
    frequency:    6.9934816481
  - # 9
    frequency:    7.1408774693
  - # 10
    frequency:    7.2156157154
  - # 11
    frequency:   11.6287342484
  - # 12
    frequency:   12.3815597106
  - # 13
    frequency:   14.4255105475
  - # 14
    frequency:   14.4952864630
  - # 15
    frequency:   16.1944406066
  - # 16
    frequency:   17.8003999509
  - # 17
    frequency:   17.8455786798
  - # 18
    frequency:  111.2554436138

- q-position: [    0.0555556,    0.0000000,    0.0000000 ]
  distance:    0.0190788
  band:
  - # 1
    frequency:    0.2970964433
  - # 2
    frequency:    0.7508510884
  - # 3
    frequency:    1.1195240169
  - # 4
    frequency:    4.7291404581
  - # 5
    frequency:    4.7694157682
  - # 6
    frequency:    5.5883316780
  - # 7
    frequency:    5.6033343631
  - # 8
    frequency:    6.9876717668
  - # 9
    frequency:    7.1427701873
  - # 10
    frequency:    7.2298890309
  - # 11
    frequency:   11.6172300465
  - # 12
    frequency:   12.3662041836
  - # 13
    frequency:   14.4199472848
  - # 14
    frequency:   14.5026837792
  - # 15
    frequency:   16.1982747914
  - # 16
    frequency:   17.8114847548
  - # 17
    frequency:   17.8656259893
  - # 18
    frequency:  111.2468021962

- q-position: [    0.0606061,    0.0000000,    0.0000000 ]
  distance:    0.0208133
  band:
  - # 1
    frequency:    0.3326934896
  - # 2
    frequency:    0.8202438065
  - # 3
    frequency:    1.2226392201
  - # 4
    frequency:    4.7365870277
  - # 5
    frequency:    4.7851537280
  - # 6
    frequency:    5.6041094873
  - # 7
    frequency:    5.6221026157
  - # 8
    frequency:    6.9817778702
  - # 9
    frequency:    7.1448614357
  - # 10
    frequency:    7.2448311795
  - # 11
    frequency:   11.6045248795
  - # 12
    frequency:   12.3495632181
  - # 13
    frequency:   14.4144132226
  - # 14
    frequency:   14.5106744149
  - # 15
    frequency:   16.2023040595
  - # 16
    frequency:   17.8232666179
  - # 17
    frequency:   17.8869993339
  - # 18
    frequency:  111.2376056505

- q-position: [    0.0656566,    0.0000000,    0.0000000 ]
  distance:    0.0225477
  band:
  - # 1
    frequency:    0.3699483678
  - # 2
    frequency:    0.8898518909
  - # 3
    frequency:    1.3260856092
  - # 4
    frequency:    4.7442108004
  - # 5
    frequency:    4.8019850366
  - # 6
    frequency:    5.6208718714
  - # 7
    frequency:    5.6421496363
  - # 8
    frequency:    6.9758184398
  - # 9
    frequency:    7.1471559704
  - # 10
    frequency:    7.2603726109
  - # 11
    frequency:   11.5905992809
  - # 12
    frequency:   12.3316796141
  - # 13
    frequency:   14.4090587755
  - # 14
    frequency:   14.5192306240
  - # 15
    frequency:   16.2064891315
  - # 16
    frequency:   17.8356571968
  - # 17
    frequency:   17.9095426270
  - # 18
    frequency:  111.2279209515

- q-position: [    0.0707071,    0.0000000,    0.0000000 ]
  distance:    0.0242822
  band:
  - # 1
    frequency:    0.4089008875
  - # 2
    frequency:    0.9596637785
  - # 3
    frequency:    1.4298582936
  - # 4
    frequency:    4.7519223794
  - # 5
    frequency:    4.8198527452
  - # 6
    frequency:    5.6385226009
  - # 7
    frequency:    5.6633799236
  - # 8
    frequency:    6.9698112090
  - # 9
    frequency:    7.1496587589
  - # 10
    frequency:    7.2764437554
  - # 11
    frequency:   11.5754359413
  - # 12
    frequency:   12.3125977650
  - # 13
    frequency:   14.4040449720
  - # 14
    frequency:   14.5283232425
  - # 15
    frequency:   16.2107899820
  - # 16
    frequency:   17.8485643827
  - # 17
    frequency:   17.9330887014
  - # 18
    frequency:  111.2178183660

- q-position: [    0.0757576,    0.0000000,    0.0000000 ]
  distance:    0.0260166
  band:
  - # 1
    frequency:    0.4495734092
  - # 2
    frequency:    1.0296627461
  - # 3
    frequency:    1.5339463330
  - # 4
    frequency:    4.7596344458
  - # 5
    frequency:    4.8386991741
  - # 6
    frequency:    5.6569588990
  - # 7
    frequency:    5.6856886421
  - # 8
    frequency:    6.9637748806
  - # 9
    frequency:    7.1523748738
  - # 10
    frequency:    7.2929740518
  - # 11
    frequency:   11.5590205366
  - # 12
    frequency:   12.2923632871
  - # 13
    frequency:   14.3995421734
  - # 14
    frequency:   14.5379218745
  - # 15
    frequency:   16.2151662728
  - # 16
    frequency:   17.8618931656
  - # 17
    frequency:   17.9574604306
  - # 18
    frequency:  111.2073708829

- q-position: [    0.0808081,    0.0000000,    0.0000000 ]
  distance:    0.0277510
  band:
  - # 1
    frequency:    0.4919732741
  - # 2
    frequency:    1.0998270808
  - # 3
    frequency:    1.6383321378
  - # 4
    frequency:    4.7672629734
  - # 5
    frequency:    4.8584663854
  - # 6
    frequency:    5.6760720947
  - # 7
    frequency:    5.7089617236
  - # 8
    frequency:    6.9577303460
  - # 9
    frequency:    7.1553093598
  - # 10
    frequency:    7.3098914807
  - # 11
    frequency:   11.5413425496
  - # 12
    frequency:   12.2710226883
  - # 13
    frequency:   14.3957285644
  - # 14
    frequency:   14.5479950743
  - # 15
    frequency:   16.2195777421
  - # 16
    frequency:   17.8755465241
  - # 17
    frequency:   17.9824720277
  - # 18
    frequency:  111.1966536220

- q-position: [    0.0858586,    0.0000000,    0.0000000 ]
  distance:    0.0294855
  band:
  - # 1
    frequency:    0.5360948508
  - # 2
    frequency:    1.1701303078
  - # 3
    frequency:    1.7429909678
  - # 4
    frequency:    4.7747283035
  - # 5
    frequency:    4.8790965874
  - # 6
    frequency:    5.6957484070
  - # 7
    frequency:    5.7330760855
  - # 8
    frequency:    6.9517015697
  - # 9
    frequency:    7.1584670705
  - # 10
    frequency:    7.3271224325
  - # 11
    frequency:   11.5223960600
  - # 12
    frequency:   12.2486230892
  - # 13
    frequency:   14.3927884385
  - # 14
    frequency:   14.5585105244
  - # 15
    frequency:   16.2239845449
  - # 16
    frequency:   17.8894263306
  - # 17
    frequency:   18.0079305018
  - # 18
    frequency:  111.1857432262

- q-position: [    0.0909091,    0.0000000,    0.0000000 ]
  distance:    0.0312199
  band:
  - # 1
    frequency:    0.5819213108
  - # 2
    frequency:    1.2405414674
  - # 3
    frequency:    1.8478905040
  - # 4
    frequency:    4.7819560696
  - # 5
    frequency:    4.9005324714
  - # 6
    frequency:    5.7158698529
  - # 7
    frequency:    5.7578999632
  - # 8
    frequency:    6.9457162505
  - # 9
    frequency:    7.1618524742
  - # 10
    frequency:    7.3445917882
  - # 11
    frequency:   11.5021804806
  - # 12
    frequency:   12.2252120080
  - # 13
    frequency:   14.3909103085
  - # 14
    frequency:   14.5694352063
  - # 15
    frequency:   16.2283475410
  - # 16
    frequency:   17.9034342629
  - # 17
    frequency:   18.0336372469
  - # 18
    frequency:  111.1747172430

- q-position: [    0.0959596,    0.0000000,    0.0000000 ]
  distance:    0.0329544
  band:
  - # 1
    frequency:    0.6294261932
  - # 2
    frequency:    1.3110254306
  - # 3
    frequency:    1.9529904774
  - # 4
    frequency:    4.7888779724
  - # 5
    frequency:    4.9227174799
  - # 6
    frequency:    5.7363152694
  - # 7
    frequency:    5.7832933588
  - # 8
    frequency:    6.9398063282
  - # 9
    frequency:    7.1654694271
  - # 10
    frequency:    7.3622231323
  - # 11
    frequency:   11.4807012111
  - # 12
    frequency:   12.2008372159
  - # 13
    frequency:   14.3902848805
  - # 14
    frequency:   14.5807355648
  - # 15
    frequency:   16.2326285300
  - # 16
    frequency:   17.9174727140
  - # 17
    frequency:   18.0593897349
  - # 18
    frequency:  111.1636534989

- q-position: [    0.1010101,    0.0000000,    0.0000000 ]
  distance:    0.0346888
  band:
  - # 1
    frequency:    0.6785747984
  - # 2
    frequency:    1.3815432458
  - # 3
    frequency:    2.0582423471
  - # 4
    frequency:    4.7954324071
  - # 5
    frequency:    4.9455960152
  - # 6
    frequency:    5.7569614316
  - # 7
    frequency:    5.8091086055
  - # 8
    frequency:    6.9340083746
  - # 9
    frequency:    7.1693209148
  - # 10
    frequency:    7.3799390418
  - # 11
    frequency:   11.4579701880
  - # 12
    frequency:   12.1755466649
  - # 13
    frequency:   14.3911029357
  - # 14
    frequency:   14.5923776661
  - # 15
    frequency:   16.2367904379
  - # 16
    frequency:   17.9314456893
  - # 17
    frequency:   18.0849832805
  - # 18
    frequency:  111.1526294739

- q-position: [    0.1060606,    0.0000000,    0.0000000 ]
  distance:    0.0364232
  band:
  - # 1
    frequency:    0.7293254365
  - # 2
    frequency:    1.4520525069
  - # 3
    frequency:    2.1635890214
  - # 4
    frequency:    4.8015649509
  - # 5
    frequency:    4.9691135945
  - # 6
    frequency:    5.7776842486
  - # 7
    frequency:    5.8351910557
  - # 8
    frequency:    6.9283638797
  - # 9
    frequency:    7.1734087639
  - # 10
    frequency:    7.3976614161
  - # 11
    frequency:   11.4340063091
  - # 12
    frequency:   12.1493884831
  - # 13
    frequency:   14.3935531689
  - # 14
    frequency:   14.6043273480
  - # 15
    frequency:   16.2407974580
  - # 16
    frequency:   17.9452596834
  - # 17
    frequency:   18.1102128466
  - # 18
    frequency:  111.1417216802

- q-position: [    0.1111111,    0.0000000,    0.0000000 ]
  distance:    0.0381577
  band:
  - # 1
    frequency:    0.7816305472
  - # 2
    frequency:    1.5225077362
  - # 3
    frequency:    2.2689646162
  - # 4
    frequency:    4.8072287210
  - # 5
    frequency:    4.9932169623
  - # 6
    frequency:    5.7983600174
  - # 7
    frequency:    5.8613799031
  - # 8
    frequency:    6.9229194274
  - # 9
    frequency:    7.1777333261
  - # 10
    frequency:    7.4153118243
  - # 11
    frequency:   11.4088357162
  - # 12
    frequency:   12.1224110295
  - # 13
    frequency:   14.3978200336
  - # 14
    frequency:   14.6165503646
  - # 15
    frequency:   16.2446151549
  - # 16
    frequency:   17.9588245268
  - # 17
    frequency:   18.1348748578
  - # 18
    frequency:  111.1310050511

- q-position: [    0.1161616,    0.0000000,    0.0000000 ]
  distance:    0.0398921
  band:
  - # 1
    frequency:    0.8354377075
  - # 2
    frequency:    1.5928607755
  - # 3
    frequency:    2.3742942488
  - # 4
    frequency:    4.8123846153
  - # 5
    frequency:    5.0178541740
  - # 6
    frequency:    5.8188667080
  - # 7
    frequency:    5.8875091653
  - # 8
    frequency:    6.9177267299
  - # 9
    frequency:    7.1822931420
  - # 10
    frequency:    7.4328118570
  - # 11
    frequency:   11.3824919259
  - # 12
    frequency:   12.0946629908
  - # 13
    frequency:   14.4040816447
  - # 14
    frequency:   14.6290125245
  - # 15
    frequency:   16.2482105376
  - # 16
    frequency:   17.9720541957
  - # 17
    frequency:   18.1587689936
  - # 18
    frequency:  111.1205523443

- q-position: [    0.1212121,    0.0000000,    0.0000000 ]
  distance:    0.0416266
  band:
  - # 1
    frequency:    0.8906905386
  - # 2
    frequency:    1.6630611805
  - # 3
    frequency:    2.4794938605
  - # 4
    frequency:    4.8170014469
  - # 5
    frequency:    5.0429746606
  - # 6
    frequency:    5.8390852592
  - # 7
    frequency:    5.9134088580
  - # 8
    frequency:    6.9128424786
  - # 9
    frequency:    7.1870845912
  - # 10
    frequency:    7.4500834761
  - # 11
    frequency:   11.3550158049
  - # 12
    frequency:   12.0661935016
  - # 13
    frequency:   14.4125077851
  - # 14
    frequency:   14.6416798249
  - # 15
    frequency:   16.2515521108
  - # 16
    frequency:   17.9848675755
  - # 17
    frequency:   18.1816999327
  - # 18
    frequency:  111.1104335663

- q-position: [    0.1262626,    0.0000000,    0.0000000 ]
  distance:    0.0433610
  band:
  - # 1
    frequency:    0.9473295206
  - # 2
    frequency:    1.7330566118
  - # 3
    frequency:    2.5844700677
  - # 4
    frequency:    4.8210559852
  - # 5
    frequency:    5.0685292900
  - # 6
    frequency:    5.8589008573
  - # 7
    frequency:    5.9389064109
  - # 8
    frequency:    6.9083279481
  - # 9
    frequency:    7.1921015387
  - # 10
    frequency:    7.4670493599
  - # 11
    frequency:   11.3264553915
  - # 12
    frequency:   12.0370522662
  - # 13
    frequency:   14.4232580572
  - # 14
    frequency:   14.6545185814
  - # 15
    frequency:   16.2546099096
  - # 16
    frequency:   17.9971891720
  - # 17
    frequency:   18.2034790267
  - # 18
    frequency:  111.1007154214

- q-position: [    0.1313131,    0.0000000,    0.0000000 ]
  distance:    0.0450954
  band:
  - # 1
    frequency:    1.0052927247
  - # 2
    frequency:    1.8027932218
  - # 3
    frequency:    2.6891200346
  - # 4
    frequency:    4.8245329144
  - # 5
    frequency:    5.0944704351
  - # 6
    frequency:    5.8782041741
  - # 7
    frequency:    5.9638283837
  - # 8
    frequency:    6.9042482818
  - # 9
    frequency:    7.1973349915
  - # 10
    frequency:    7.4836332453
  - # 11
    frequency:   11.2968655723
  - # 12
    frequency:   12.0072896588
  - # 13
    frequency:   14.4364802172
  - # 14
    frequency:   14.6674955547
  - # 15
    frequency:   16.2573555280
  - # 16
    frequency:   18.0089497629
  - # 17
    frequency:   18.2239258805
  - # 18
    frequency:  111.0914607908

- q-position: [    0.1363636,    0.0000000,    0.0000000 ]
  distance:    0.0468299
  band:
  - # 1
    frequency:    1.0645164689
  - # 2
    frequency:    1.8722160319
  - # 3
    frequency:    2.7933313640
  - # 4
    frequency:    4.8274247172
  - # 5
    frequency:    5.1207520616
  - # 6
    frequency:    5.8968925376
  - # 7
    frequency:    5.9880025462
  - # 8
    frequency:    6.9006713777
  - # 9
    frequency:    7.2027727781
  - # 10
    frequency:    7.4997602710
  - # 11
    frequency:   11.2663076293
  - # 12
    frequency:   11.9769567836
  - # 13
    frequency:   14.4523087130
  - # 14
    frequency:   14.6805780753
  - # 15
    frequency:   16.2597621445
  - # 16
    frequency:   18.0200869846
  - # 17
    frequency:   18.2428698253
  - # 18
    frequency:  111.0827282463

- q-position: [    0.1414141,    0.0000000,    0.0000000 ]
  distance:    0.0485643
  band:
  - # 1
    frequency:    1.1249359041
  - # 2
    frequency:    1.9412692989
  - # 3
    frequency:    2.8969820042
  - # 4
    frequency:    4.8297314955
  - # 5
    frequency:    5.1473298450
  - # 6
    frequency:    5.9148710128
  - # 7
    frequency:    6.0112603865
  - # 8
    frequency:    6.8976663001
  - # 9
    frequency:    7.2083992686
  - # 10
    frequency:    7.5153573258
  - # 11
    frequency:   11.2348486726
  - # 12
    frequency:   11.9461054776
  - # 13
    frequency:   14.4708634472
  - # 14
    frequency:   14.6937341668
  - # 15
    frequency:   16.2618045517
  - # 16
    frequency:   18.0305458482
  - # 17
    frequency:   18.2601512683
  - # 18
    frequency:  111.0745716021

- q-position: [    0.1464646,    0.0000000,    0.0000000 ]
  distance:    0.0502988
  band:
  - # 1
    frequency:    1.1864855361
  - # 2
    frequency:    2.0098968689
  - # 3
    frequency:    2.9999401642
  - # 4
    frequency:    4.8314607312
  - # 5
    frequency:    5.1741613248
  - # 6
    frequency:    5.9320533668
  - # 7
    frequency:    6.0334400921
  - # 8
    frequency:    6.8953011580
  - # 9
    frequency:    7.2141951507
  - # 10
    frequency:    7.5303534085
  - # 11
    frequency:   11.2025609799
  - # 12
    frequency:   11.9147882483
  - # 13
    frequency:   14.4922487670
  - # 14
    frequency:   14.7069326686
  - # 15
    frequency:   16.2634591946
  - # 16
    frequency:   18.0402791812
  - # 17
    frequency:   18.2756229110
  - # 18
    frequency:  111.0670395092

- q-position: [    0.1515152,    0.0000000,    0.0000000 ]
  distance:    0.0520332
  band:
  - # 1
    frequency:    1.2490996870
  - # 2
    frequency:    2.0780425173
  - # 3
    frequency:    3.1020642387
  - # 4
    frequency:    4.8326269963
  - # 5
    frequency:    5.2012061029
  - # 6
    frequency:    5.9483628980
  - # 7
    frequency:    6.0543900107
  - # 8
    frequency:    6.8936404362
  - # 9
    frequency:    7.2201372802
  - # 10
    frequency:    7.5446800054
  - # 11
    frequency:   11.1695212645
  - # 12
    frequency:   11.8830581409
  - # 13
    frequency:   14.5165526817
  - # 14
    frequency:   14.7201433581
  - # 15
    frequency:   16.2647042204
  - # 16
    frequency:   18.0492479905
  - # 17
    frequency:   18.2891508277
  - # 18
    frequency:  111.0601750963

- q-position: [    0.1565657,    0.0000000,    0.0000000 ]
  distance:    0.0537676
  band:
  - # 1
    frequency:    1.3127129027
  - # 2
    frequency:    2.1456502743
  - # 3
    frequency:    3.2032027374
  - # 4
    frequency:    4.8332516154
  - # 5
    frequency:    5.2284260887
  - # 6
    frequency:    5.9637331101
  - # 7
    frequency:    6.0739725376
  - # 8
    frequency:    6.8927418213
  - # 9
    frequency:    7.2261986194
  - # 10
    frequency:    7.5582714924
  - # 11
    frequency:   11.1358098892
  - # 12
    frequency:   11.8509685398
  - # 13
    frequency:   14.5438462932
  - # 14
    frequency:   14.7333370730
  - # 15
    frequency:   16.2655195440
  - # 16
    frequency:   18.0574217448
  - # 17
    frequency:   18.3006153985
  - # 18
    frequency:  111.0540156586

- q-position: [    0.1616162,    0.0000000,    0.0000000 ]
  distance:    0.0555021
  band:
  - # 1
    frequency:    1.3772603072
  - # 2
    frequency:    2.2126647345
  - # 3
    frequency:    3.3031942218
  - # 4
    frequency:    4.8333622858
  - # 5
    frequency:    5.2557857900
  - # 6
    frequency:    5.9781082148
  - # 7
    frequency:    6.0920682945
  - # 8
    frequency:    6.8926526543
  - # 9
    frequency:    7.2323482775
  - # 10
    frequency:    7.5710655672
  - # 11
    frequency:   11.1015100489
  - # 12
    frequency:   11.8185729135
  - # 13
    frequency:   14.5741834257
  - # 14
    frequency:   14.7464858328
  - # 15
    frequency:   16.2658869312
  - # 16
    frequency:   18.0647785737
  - # 17
    frequency:   18.3099120960
  - # 18
    frequency:  111.0485923988

- q-position: [    0.1666667,    0.0000000,    0.0000000 ]
  distance:    0.0572365
  band:
  - # 1
    frequency:    1.4426779103
  - # 2
    frequency:    2.2790313528
  - # 3
    frequency:    3.4018672532
  - # 4
    frequency:    4.8329926599
  - # 5
    frequency:    5.2832526461
  - # 6
    frequency:    5.9914434532
  - # 7
    frequency:    6.1085803678
  - # 8
    frequency:    6.8934062363
  - # 9
    frequency:    7.2385516608
  - # 10
    frequency:    7.5830037187
  - # 11
    frequency:   11.0667069345
  - # 12
    frequency:   11.7859245162
  - # 13
    frequency:   14.6076004278
  - # 14
    frequency:   14.7595629605
  - # 15
    frequency:   16.2657901022
  - # 16
    frequency:   18.0713053822
  - # 17
    frequency:   18.3169521231
  - # 18
    frequency:  111.0439302221

- q-position: [    0.1717172,    0.0000000,    0.0000000 ]
  distance:    0.0589710
  band:
  - # 1
    frequency:    1.5089028689
  - # 2
    frequency:    2.3446967233
  - # 3
    frequency:    3.4990403609
  - # 4
    frequency:    4.8321818922
  - # 5
    frequency:    5.3107973895
  - # 6
    frequency:    6.0037052301
  - # 7
    frequency:    6.1234382907
  - # 8
    frequency:    6.8950183013
  - # 9
    frequency:    7.2447707383
  - # 10
    frequency:    7.5940317373
  - # 11
    frequency:   11.0314868973
  - # 12
    frequency:   11.7530760627
  - # 13
    frequency:   14.6441161237
  - # 14
    frequency:   14.7725432026
  - # 15
    frequency:   16.2652148586
  - # 16
    frequency:   18.0769978813
  - # 17
    frequency:   18.3216629018
  - # 18
    frequency:  111.0400475854

- q-position: [    0.1767677,    0.0000000,    0.0000000 ]
  distance:    0.0607054
  band:
  - # 1
    frequency:    1.5758737066
  - # 2
    frequency:    2.4096088438
  - # 3
    frequency:    3.5945220504
  - # 4
    frequency:    4.8309741556
  - # 5
    frequency:    5.3383944171
  - # 6
    frequency:    6.0148710613
  - # 7
    frequency:    6.1366013948
  - # 8
    frequency:    6.8974840287
  - # 9
    frequency:    7.2509644193
  - # 10
    frequency:    7.6041002722
  - # 11
    frequency:   10.9959366224
  - # 12
    frequency:   11.7200793951
  - # 13
    frequency:   14.6837318848
  - # 14