nqpoint: 300    
npath: 3      
segment_nqpoint:
- 100
- 100
- 100
labels:
- [ 'G', 'M' ]
- [ 'M', 'K' ]
- [ 'K', 'G' ]
reciprocal_lattice:
- [   0.31793890,   0.18356211,   0.00000000 ] # a*
- [   0.00000000,   0.36712422,   0.00000000 ] # b*
- [   0.00000000,   0.00000000,   0.03809139 ] # c*
natom: 7      
lattice:
- [     3.145258378796880,     0.000000000000000,     0.000000000000000 ] # a
- [    -1.572629189398440,     2.723873657504261,     0.000000000000000 ] # b
- [     0.000000000000000,     0.000000000000000,    26.252654364220856 ] # c
points:
- symbol: C # 1
  coordinates: [  0.000000000000000,  0.000000000000000,  0.514174709964327 ]
  mass: 12.010700
- symbol: C # 2
  coordinates: [  0.333332985432215,  0.666666983183674,  0.611301395606363 ]
  mass: 12.010700
- symbol: N # 3
  coordinates: [  0.333332985432215,  0.666666983183674,  0.657177522884471 ]
  mass: 14.006700
- symbol: O # 4
  coordinates: [  0.666666984744047,  0.333332985985145,  0.342822477115529 ]
  mass: 15.999400
- symbol: P # 5
  coordinates: [  0.666666984744047,  0.333332985985145,  0.399601536558353 ]
  mass: 30.973762
- symbol: Ti # 6
  coordinates: [  0.333332985432215,  0.666666983183674,  0.470755220421715 ]
  mass: 47.867000
- symbol: Ti # 7
  coordinates: [  0.666666984744047,  0.333332985985145,  0.558350925153466 ]
  mass: 47.867000

phonon:
- q-position: [    0.0000000,    0.0000000,    0.0000000 ]
  distance:    0.0000000
  band:
  - # 1
    frequency:   -2.4145399080
  - # 2
    frequency:   -2.4145399080
  - # 3
    frequency:   -1.5679874848
  - # 4
    frequency:   -1.5679874848
  - # 5
    frequency:   -0.0000031137
  - # 6
    frequency:   -0.0000004896
  - # 7
    frequency:    0.0000043405
  - # 8
    frequency:    4.5762487979
  - # 9
    frequency:    4.5762487979
  - # 10
    frequency:    5.8530324894
  - # 11
    frequency:    6.3755835298
  - # 12
    frequency:    6.3755835298
  - # 13
    frequency:    8.6298851005
  - # 14
    frequency:    8.6298851005
  - # 15
    frequency:    9.6091201488
  - # 16
    frequency:   11.1189826761
  - # 17
    frequency:   17.9032122123
  - # 18
    frequency:   18.1601292650
  - # 19
    frequency:   18.1601292650
  - # 20
    frequency:   34.4910428249
  - # 21
    frequency:   60.4671104321

- q-position: [    0.0050505,    0.0000000,    0.0000000 ]
  distance:    0.0018542
  band:
  - # 1
    frequency:   -2.4135902995
  - # 2
    frequency:   -2.4117565122
  - # 3
    frequency:   -1.5672008362
  - # 4
    frequency:   -1.5665024213
  - # 5
    frequency:    0.0024880466
  - # 6
    frequency:    0.0699888183
  - # 7
    frequency:    0.1151274594
  - # 8
    frequency:    4.5766270549
  - # 9
    frequency:    4.5770629791
  - # 10
    frequency:    5.8523912889
  - # 11
    frequency:    6.3757266916
  - # 12
    frequency:    6.3765197527
  - # 13
    frequency:    8.6300428695
  - # 14
    frequency:    8.6307840336
  - # 15
    frequency:    9.6092240439
  - # 16
    frequency:   11.1186050912
  - # 17
    frequency:   17.9029036899
  - # 18
    frequency:   18.1597400655
  - # 19
    frequency:   18.1601655510
  - # 20
    frequency:   34.4907942032
  - # 21
    frequency:   60.4669808059

- q-position: [    0.0101010,    0.0000000,    0.0000000 ]
  distance:    0.0037083
  band:
  - # 1
    frequency:   -2.4107453444
  - # 2
    frequency:   -2.4034328880
  - # 3
    frequency:   -1.5648403066
  - # 4
    frequency:   -1.5620556547
  - # 5
    frequency:    0.0099622561
  - # 6
    frequency:    0.1400213580
  - # 7
    frequency:    0.2305331892
  - # 8
    frequency:    4.5777606324
  - # 9
    frequency:    4.5795005147
  - # 10
    frequency:    5.8504808543
  - # 11
    frequency:    6.3761572478
  - # 12
    frequency:    6.3793249917
  - # 13
    frequency:    8.6305154894
  - # 14
    frequency:    8.6334772785
  - # 15
    frequency:    9.6095352669
  - # 16
    frequency:   11.1174720851
  - # 17
    frequency:   17.9019773351
  - # 18
    frequency:   18.1585743461
  - # 19
    frequency:   18.1602728137
  - # 20
    frequency:   34.4900488087
  - # 21
    frequency:   60.4665924142

- q-position: [    0.0151515,    0.0000000,    0.0000000 ]
  distance:    0.0055625
  band:
  - # 1
    frequency:   -2.4060167096
  - # 2
    frequency:   -2.3896491566
  - # 3
    frequency:   -1.5609041542
  - # 4
    frequency:   -1.5546733125
  - # 5
    frequency:    0.0224513770
  - # 6
    frequency:    0.2101416781
  - # 7
    frequency:    0.3464919781
  - # 8
    frequency:    4.5796459392
  - # 9
    frequency:    4.5835463166
  - # 10
    frequency:    5.8473402349
  - # 11
    frequency:    6.3768783985
  - # 12
    frequency:    6.3839893281
  - # 13
    frequency:    8.6313009027
  - # 14
    frequency:    8.6379542213
  - # 15
    frequency:    9.6100524423
  - # 16
    frequency:   11.1155829255
  - # 17
    frequency:   17.9004308266
  - # 18
    frequency:   18.1566377119
  - # 19
    frequency:   18.1604462819
  - # 20
    frequency:   34.4888080510
  - # 21
    frequency:   60.4659467152

- q-position: [    0.0202020,    0.0000000,    0.0000000 ]
  distance:    0.0074167
  band:
  - # 1
    frequency:   -2.3994240277
  - # 2
    frequency:   -2.3705401712
  - # 3
    frequency:   -1.5553895078
  - # 4
    frequency:   -1.5444017267
  - # 5
    frequency:    0.0400016913
  - # 6
    frequency:    0.2803945010
  - # 7
    frequency:    0.4632708246
  - # 8
    frequency:    4.5822769536
  - # 9
    frequency:    4.5891750299
  - # 10
    frequency:    5.8430330830
  - # 11
    frequency:    6.3778954364
  - # 12
    frequency:    6.3904973943
  - # 13
    frequency:    8.6323956935
  - # 14
    frequency:    8.6441973321
  - # 15
    frequency:    9.6107733173
  - # 16
    frequency:   11.1129364689
  - # 17
    frequency:   17.8982604359
  - # 18
    frequency:   18.1539394008
  - # 19
    frequency:   18.1606780509
  - # 20
    frequency:   34.4870742753
  - # 21
    frequency:   60.4650461331

- q-position: [    0.0252525,    0.0000000,    0.0000000 ]
  distance:    0.0092708
  band:
  - # 1
    frequency:   -2.3909951753
  - # 2
    frequency:   -2.3462970785
  - # 3
    frequency:   -1.5482924189
  - # 4
    frequency:   -1.5313113403
  - # 5
    frequency:    0.0626738588
  - # 6
    frequency:    0.3508255150
  - # 7
    frequency:    0.5811230698
  - # 8
    frequency:    4.5856451715
  - # 9
    frequency:    4.5963507294
  - # 10
    frequency:    5.8376457517
  - # 11
    frequency:    6.3792156862
  - # 12
    frequency:    6.3988298900
  - # 13
    frequency:    8.6337951060
  - # 14
    frequency:    8.6521823886
  - # 15
    frequency:    9.6116948224
  - # 16
    frequency:   11.1095312745
  - # 17
    frequency:   17.8954612358
  - # 18
    frequency:   18.1504921257
  - # 19
    frequency:   18.1609571534
  - # 20
    frequency:   34.4848507555
  - # 21
    frequency:   60.4638940488

- q-position: [    0.0303030,    0.0000000,    0.0000000 ]
  distance:    0.0111250
  band:
  - # 1
    frequency:   -2.3807666564
  - # 2
    frequency:   -2.3171686957
  - # 3
    frequency:   -1.5396079451
  - # 4
    frequency:   -1.5155015341
  - # 5
    frequency:    0.0905378735
  - # 6
    frequency:    0.4214816373
  - # 7
    frequency:    0.7002804543
  - # 8
    frequency:    4.5897395390
  - # 9
    frequency:    4.6050265151
  - # 10
    frequency:    5.8312850442
  - # 11
    frequency:    6.3808484192
  - # 12
    frequency:    6.4089653160
  - # 13
    frequency:    8.6354930715
  - # 14
    frequency:    8.6618787598
  - # 15
    frequency:    9.6128131594
  - # 16
    frequency:   11.1053657619
  - # 17
    frequency:   17.8920273905
  - # 18
    frequency:   18.1463118568
  - # 19
    frequency:   18.1612696573
  - # 20
    frequency:   34.4821416850
  - # 21
    frequency:   60.4624947869

- q-position: [    0.0353535,    0.0000000,    0.0000000 ]
  distance:    0.0129791
  band:
  - # 1
    frequency:   -2.3687840815
  - # 2
    frequency:   -2.2834619978
  - # 3
    frequency:   -1.5293302721
  - # 4
    frequency:   -1.4971054834
  - # 5
    frequency:    0.1236652650
  - # 6
    frequency:    0.4924112224
  - # 7
    frequency:    0.8209429447
  - # 8
    frequency:    4.5945463724
  - # 9
    frequency:    4.6151440258
  - # 10
    frequency:    5.8240758905
  - # 11
    frequency:    6.3828047441
  - # 12
    frequency:    6.4208816705
  - # 13
    frequency:    8.6374822409
  - # 14
    frequency:    8.6732497222
  - # 15
    frequency:    9.6141239187
  - # 16
    frequency:   11.1004384111
  - # 17
    frequency:   17.8879525239
  - # 18
    frequency:   18.1414175425
  - # 19
    frequency:   18.1615987896
  - # 20
    frequency:   34.4789521649
  - # 21
    frequency:   60.4608535988

- q-position: [    0.0404040,    0.0000000,    0.0000000 ]
  distance:    0.0148333
  band:
  - # 1
    frequency:   -2.3551027309
  - # 2
    frequency:   -2.2455410141
  - # 3
    frequency:   -1.5174528892
  - # 4
    frequency:   -1.4762935379
  - # 5
    frequency:    0.1621176139
  - # 6
    frequency:    0.5636641924
  - # 7
    frequency:    0.9432667038
  - # 8
    frequency:    4.6000492732
  - # 9
    frequency:    4.6266328976
  - # 10
    frequency:    5.8161591740
  - # 11
    frequency:    6.3850974733
  - # 12
    frequency:    6.4345579034
  - # 13
    frequency:    8.6397540242
  - # 14
    frequency:    8.6862527769
  - # 15
    frequency:    9.6156222297
  - # 16
    frequency:   11.0947480016
  - # 17
    frequency:   17.8832301607
  - # 18
    frequency:   18.1358307752
  - # 19
    frequency:   18.1619250860
  - # 20
    frequency:   34.4752881894
  - # 21
    frequency:   60.4589766430

- q-position: [    0.0454545,    0.0000000,    0.0000000 ]
  distance:    0.0166875
  band:
  - # 1
    frequency:   -2.3397881792
  - # 2
    frequency:   -2.2038237124
  - # 3
    frequency:   -1.5039688330
  - # 4
    frequency:   -1.4532727375
  - # 5
    frequency:    0.2059304721
  - # 6
    frequency:    0.6352920667
  - # 7
    frequency:    1.0673512388
  - # 8
    frequency:    4.6062290427
  - # 9
    frequency:    4.6394102025
  - # 10
    frequency:    5.8076898422
  - # 11
    frequency:    6.3877409664
  - # 12
    frequency:    6.4499750088
  - # 13
    frequency:    8.6422986350
  - # 14
    frequency:    8.7008399366
  - # 15
    frequency:    9.6173029486
  - # 16
    frequency:   11.0882938896
  - # 17
    frequency:   17.8778542318
  - # 18
    frequency:   18.1295754048
  - # 19
    frequency:   18.1622265624
  - # 20
    frequency:   34.4711566288
  - # 21
    frequency:   60.4568709605

- q-position: [    0.0505051,    0.0000000,    0.0000000 ]
  distance:    0.0185416
  band:
  - # 1
    frequency:   -2.3229169566
  - # 2
    frequency:   -2.1587770871
  - # 3
    frequency:   -1.4888710179
  - # 4
    frequency:   -1.4282789562
  - # 5
    frequency:    0.2550922068
  - # 6
    frequency:    0.7073478633
  - # 7
    frequency:    1.1932274179
  - # 8
    frequency:    4.6130636046
  - # 9
    frequency:    4.6533799122
  - # 10
    frequency:    5.7988353478
  - # 11
    frequency:    6.3907509485
  - # 12
    frequency:    6.4671167118
  - # 13
    frequency:    8.6451051398
  - # 14
    frequency:    8.7169579473
  - # 15
    frequency:    9.6191608888
  - # 16
    frequency:   11.0810763194
  - # 17
    frequency:   17.8718196343
  - # 18
    frequency:   18.1226771127
  - # 19
    frequency:   18.1624789095
  - # 20
    frequency:   34.4665652106
  - # 21
    frequency:   60.4545444487

- q-position: [    0.0555556,    0.0000000,    0.0000000 ]
  distance:    0.0203958
  band:
  - # 1
    frequency:   -2.3045772056
  - # 2
    frequency:   -2.1109116805
  - # 3
    frequency:   -1.4721526751
  - # 4
    frequency:   -1.4015570372
  - # 5
    frequency:    0.3095184030
  - # 6
    frequency:    0.7798858402
  - # 7
    frequency:    1.3208484946
  - # 8
    frequency:    4.6205279428
  - # 9
    frequency:    4.6684324439
  - # 10
    frequency:    5.7897743914
  - # 11
    frequency:    6.3941443070
  - # 12
    frequency:    6.4859697682
  - # 13
    frequency:    8.6481615117
  - # 14
    frequency:    8.7345484172
  - # 15
    frequency:    9.6211910993
  - # 16
    frequency:   11.0730967659
  - # 17
    frequency:   17.8651228287
  - # 18
    frequency:   18.1151629545
  - # 19
    frequency:   18.1626557065
  - # 20
    frequency:   34.4615224970
  - # 21
    frequency:   60.4520058301

- q-position: [    0.0606061,    0.0000000,    0.0000000 ]
  distance:    0.0222500
  band:
  - # 1
    frequency:   -2.2848692857
  - # 2
    frequency:   -2.0607779871
  - # 3
    frequency:   -1.4538079213
  - # 4
    frequency:   -1.3733236809
  - # 5
    frequency:    0.3690244576
  - # 6
    frequency:    0.8529610504
  - # 7
    frequency:    1.4500862538
  - # 8
    frequency:    4.6285940611
  - # 9
    frequency:    4.6844443639
  - # 10
    frequency:    5.7806958778
  - # 11
    frequency:    6.3979388640
  - # 12
    frequency:    6.5065239307
  - # 13
    frequency:    8.6514546876
  - # 14
    frequency:    8.7535478228
  - # 15
    frequency:    9.6233891990
  - # 16
    frequency:   11.0643583076
  - # 17
    frequency:   17.8577624554
  - # 18
    frequency:   18.1070608930
  - # 19
    frequency:   18.1627286515
  - # 20
    frequency:   34.4560378613
  - # 21
    frequency:   60.4492646187

- q-position: [    0.0656566,    0.0000000,    0.0000000 ]
  distance:    0.0241041
  band:
  - # 1
    frequency:   -2.2639062669
  - # 2
    frequency:   -2.0089681969
  - # 3
    frequency:   -1.4338324810
  - # 4
    frequency:   -1.3437087050
  - # 5
    frequency:    0.4333016678
  - # 6
    frequency:    0.9266286823
  - # 7
    frequency:    1.5807337481
  - # 8
    frequency:    4.6372309742
  - # 9
    frequency:    4.7012783425
  - # 10
    frequency:    5.7717979585
  - # 11
    frequency:    6.4021531280
  - # 12
    frequency:    6.5287716473
  - # 13
    frequency:    8.6549706278
  - # 14
    frequency:    8.7738873705
  - # 15
    frequency:    9.6257517729
  - # 16
    frequency:   11.0548660239
  - # 17
    frequency:   17.8497399457
  - # 18
    frequency:   18.0983993378
  - # 19
    frequency:   18.1626678084
  - # 20
    frequency:   34.4501214609
  - # 21
    frequency:   60.4463310832

- q-position: [    0.0707071,    0.0000000,    0.0000000 ]
  distance:    0.0259583
  band:
  - # 1
    frequency:   -2.2418142436
  - # 2
    frequency:   -1.9561267948
  - # 3
    frequency:   -1.4122245806
  - # 4
    frequency:   -1.3126736613
  - # 5
    frequency:    0.5019044415
  - # 6
    frequency:    1.0009431669
  - # 7
    frequency:    1.7125148985
  - # 8
    frequency:    4.6464047360
  - # 9
    frequency:    4.7187834828
  - # 10
    frequency:    5.7632870034
  - # 11
    frequency:    6.4068060225
  - # 12
    frequency:    6.5527075591
  - # 13
    frequency:    8.6586943784
  - # 14
    frequency:    8.7954926941
  - # 15
    frequency:    9.6282768415
  - # 16
    frequency:   11.0446274186
  - # 17
    frequency:   17.8410600998
  - # 18
    frequency:   18.0892067191
  - # 19
    frequency:   18.1624418664
  - # 20
    frequency:   34.4437842095
  - # 21
    frequency:   60.4432162074

- q-position: [    0.0757576,    0.0000000,    0.0000000 ]
  distance:    0.0278124
  band:
  - # 1
    frequency:   -2.2187323964
  - # 2
    frequency:   -1.9029716306
  - # 3
    frequency:   -1.3889860286
  - # 4
    frequency:   -1.2799131833
  - # 5
    frequency:    0.5742563996
  - # 6
    frequency:    1.0759570476
  - # 7
    frequency:    1.8450998193
  - # 8
    frequency:    4.6560785116
  - # 9
    frequency:    4.7367961693
  - # 10
    frequency:    5.7553763209
  - # 11
    frequency:    6.4119165960
  - # 12
    frequency:    6.5783278476
  - # 13
    frequency:    8.6626101353
  - # 14
    frequency:    8.8182833744
  - # 15
    frequency:    9.6309644111
  - # 16
    frequency:   11.0336528629
  - # 17
    frequency:   17.8317316042
  - # 18
    frequency:   18.0795111188
  - # 19
    frequency:   18.1620184089
  - # 20
    frequency:   34.4370377459
  - # 21
    frequency:   60.4399316469

- q-position: [    0.0808081,    0.0000000,    0.0000000 ]
  distance:    0.0296666
  band:
  - # 1
    frequency:   -2.1948127321
  - # 2
    frequency:   -1.8503218442
  - # 3
    frequency:   -1.3641234880
  - # 4
    frequency:   -1.2447531460
  - # 5
    frequency:    0.6496794813
  - # 6
    frequency:    1.1517196219
  - # 7
    frequency:    1.9781235947
  - # 8
    frequency:    4.6662127010
  - # 9
    frequency:    4.7551416142
  - # 10
    frequency:    5.7482844241
  - # 11
    frequency:    6.4175037118
  - # 12
    frequency:    6.6056294747
  - # 13
    frequency:    8.6667013101
  - # 14
    frequency:    8.8421722691
  - # 15
    frequency:    9.6338171153
  - # 16
    frequency:   11.0219560617
  - # 17
    frequency:   17.8217674574
  - # 18
    frequency:   18.0693399866
  - # 19
    frequency:   18.1613641919
  - # 20
    frequency:   34.4298944013
  - # 21
    frequency:   60.4364896842

- q-position: [    0.0858586,    0.0000000,    0.0000000 ]
  distance:    0.0315208
  band:
  - # 1
    frequency:   -2.1702194422
  - # 2
    frequency:   -1.7991192642
  - # 3
    frequency:   -1.3376499313
  - # 4
    frequency:   -1.2060687877
  - # 5
    frequency:    0.7274430655
  - # 6
    frequency:    1.2282753905
  - # 7
    frequency:    2.1112057426
  - # 8
    frequency:    4.6767651160
  - # 9
    frequency:    4.7736362928
  - # 10
    frequency:    5.7422326331
  - # 11
    frequency:    6.4235857214
  - # 12
    frequency:    6.6346093405
  - # 13
    frequency:    8.6709505962
  - # 14
    frequency:    8.8670646489
  - # 15
    frequency:    9.6368409584
  - # 16
    frequency:   11.0095545375
  - # 17
    frequency:   17.8111852772
  - # 18
    frequency:   18.0587199644
  - # 19
    frequency:   18.1604454263
  - # 20
    frequency:   34.4223671654
  - # 21
    frequency:   60.4329031806

- q-position: [    0.0909091,    0.0000000,    0.0000000 ]
  distance:    0.0333749
  band:
  - # 1
    frequency:   -2.1451278450
  - # 2
    frequency:   -1.7504168317
  - # 3
    frequency:   -1.3095862590
  - # 4
    frequency:   -1.1622518452
  - # 5
    frequency:    0.8068228455
  - # 6
    frequency:    1.3056623732
  - # 7
    frequency:    2.2439678663
  - # 8
    frequency:    4.6876912177
  - # 9
    frequency:    4.7920914598
  - # 10
    frequency:    5.7374418078
  - # 11
    frequency:    6.4301801230
  - # 12
    frequency:    6.6652633795
  - # 13
    frequency:    8.6753400375
  - # 14
    frequency:    8.8928571371
  - # 15
    frequency:    9.6400461671
  - # 16
    frequency:   10.9964701364
  - # 17
    frequency:   17.8000074668
  - # 18
    frequency:   18.0476768379
  - # 19
    frequency:   18.1592280645
  - # 20
    frequency:   34.4144696496
  - # 21
    frequency:   60.4291855258

- q-position: [    0.0959596,    0.0000000,    0.0000000 ]
  distance:    0.0352291
  band:
  - # 1
    frequency:   -2.1197229046
  - # 2
    frequency:   -1.7053003129
  - # 3
    frequency:   -1.2799630431
  - # 4
    frequency:   -1.1112498336
  - # 5
    frequency:    0.8871559900
  - # 6
    frequency:    1.3839103753
  - # 7
    frequency:    2.3760477903
  - # 8
    frequency:    4.6989444125
  - # 9
    frequency:    4.8103178964
  - # 10
    frequency:    5.7341280522
  - # 11
    frequency:    6.4373032077
  - # 12
    frequency:    6.6975856053
  - # 13
    frequency:    8.6798510966
  - # 14
    frequency:    8.9194364593
  - # 15
    frequency:    9.6434481539
  - # 16
    frequency:   10.9827295543
  - # 17
    frequency:   17.7882612228
  - # 18
    frequency:   18.0362356293
  - # 19
    frequency:   18.1576780867
  - # 20
    frequency:   34.4062160492
  - # 21
    frequency:   60.4253505856

- q-position: [    0.1010101,    0.0000000,    0.0000000 ]
  distance:    0.0370833
  band:
  - # 1
    frequency:   -2.0941973639
  - # 2
    frequency:   -1.6647278879
  - # 3
    frequency:   -1.2488223496
  - # 4
    frequency:   -1.0506645171
  - # 5
    frequency:    0.9678817730
  - # 6
    frequency:    1.4630393089
  - # 7
    frequency:    2.5071094529
  - # 8
    frequency:    4.7104764110
  - # 9
    frequency:    4.8281319472
  - # 10
    frequency:    5.7324973234
  - # 11
    frequency:    6.4449696986
  - # 12
    frequency:    6.7315671165
  - # 13
    frequency:    8.6844647250
  - # 14
    frequency:    8.9466780188
  - # 15
    frequency:    9.6470685867
  - # 16
    frequency:   10.9683648873
  - # 17
    frequency:   17.7759783767
  - # 18
    frequency:   18.0244208366
  - # 19
    frequency:   18.1557617848
  - # 20
    frequency:   34.3976211046
  - # 21
    frequency:   60.4214126473

- q-position: [    0.1060606,    0.0000000,    0.0000000 ]
  distance:    0.0389374
  band:
  - # 1
    frequency:   -2.0687495707
  - # 2
    frequency:   -1.6293283218
  - # 3
    frequency:   -1.2162195864
  - # 4
    frequency:   -0.9778141364
  - # 5
    frequency:    1.0485632041
  - # 6
    frequency:    1.5430576859
  - # 7
    frequency:    2.6368486649
  - # 8
    frequency:    4.7222376458
  - # 9
    frequency:    4.8453627442
  - # 10
    frequency:    5.7327390400
  - # 11
    frequency:    6.4531923840
  - # 12
    frequency:    6.7671950734
  - # 13
    frequency:    8.6891614342
  - # 14
    frequency:    8.9744443293
  - # 15
    frequency:    9.6509365414
  - # 16
    frequency:   10.9534142097
  - # 17
    frequency:   17.7631950666
  - # 18
    frequency:   18.0122568166
  - # 19
    frequency:   18.1534460436
  - # 20
    frequency:   34.3887000598
  - # 21
    frequency:   60.4173863636

- q-position: [    0.1111111,    0.0000000,    0.0000000 ]
  distance:    0.0407916
  band:
  - # 1
    frequency:   -2.0435811138
  - # 2
    frequency:   -1.5992563370
  - # 3
    frequency:   -1.1822253327
  - # 4
    frequency:   -0.8895474254
  - # 5
    frequency:    1.1288913540
  - # 6
    frequency:    1.6239613969
  - # 7
    frequency:    2.7649953742
  - # 8
    frequency:    4.7341777475
  - # 9
    frequency:    4.8618602959
  - # 10
    frequency:    5.7350190052
  - # 11
    frequency:    6.4619817533
  - # 12
    frequency:    6.8044516608
  - # 13
    frequency:    8.6939213679
  - # 14
    frequency:    9.0025833660
  - # 15
    frequency:    9.6550896868
  - # 16
    frequency:   10.9379221827
  - # 17
    frequency:   17.7499512484
  - # 18
    frequency:   17.9997683026
  - # 19
    frequency:   18.1506986137
  - # 20
    frequency:   34.3794686212
  - # 21
    frequency:   60.4132866947

- q-position: [    0.1161616,    0.0000000,    0.0000000 ]
  distance:    0.0426457
  band:
  - # 1
    frequency:   -2.0188944137
  - # 2
    frequency:   -1.5741898368
  - # 3
    frequency:   -1.1469271222
  - # 4
    frequency:   -0.7814296981
  - # 5
    frequency:    1.2086774324
  - # 6
    frequency:    1.7057328725
  - # 7
    frequency:    2.8913132894
  - # 8
    frequency:    4.7462460733
  - # 9
    frequency:    4.8775038688
  - # 10
    frequency:    5.7394722108
  - # 11
    frequency:    6.4713456378
  - # 12
    frequency:    6.8433130548
  - # 13
    frequency:    8.6987243760
  - # 14
    frequency:    9.0309269363
  - # 15
    frequency:    9.6595754075
  - # 16
    frequency:   10.9219407019
  - # 17
    frequency:   17.7362900550
  - # 18
    frequency:   17.9869810424
  - # 19
    frequency:   18.1474883773
  - # 20
    frequency:   34.3699429142
  - # 21
    frequency:   60.4091288495

- q-position: [    0.1212121,    0.0000000,    0.0000000 ]
  distance:    0.0444999
  band:
  - # 1
    frequency:   -1.9948904180
  - # 2
    frequency:   -1.5534610461
  - # 3
    frequency:   -1.1104311882
  - # 4
    frequency:   -0.6452853797
  - # 5
    frequency:    1.2878380439
  - # 6
    frequency:    1.7883406937
  - # 7
    frequency:    3.0155976979
  - # 8
    frequency:    4.7583922838
  - # 9
    frequency:    4.8922098711
  - # 10
    frequency:    5.7461963106
  - # 11
    frequency:    6.4812888653
  - # 12
    frequency:    6.8837484158
  - # 13
    frequency:    8.7035500894
  - # 14
    frequency:    9.0592892397
  - # 15
    frequency:    9.6644517042
  - # 16
    frequency:   10.9055295880
  - # 17
    frequency:   17.7222570210
  - # 18
    frequency:   17.9739225370
  - # 19
    frequency:   18.1437856028
  - # 20
    frequency:   34.3601394395
  - # 21
    frequency:   60.4049282250

- q-position: [    0.1262626,    0.0000000,    0.0000000 ]
  distance:    0.0463541
  band:
  - # 1
    frequency:   -1.9717665395
  - # 2
    frequency:   -1.5362370109
  - # 3
    frequency:   -1.0728642239
  - # 4
    frequency:   -0.4597429758
  - # 5
    frequency:    1.3663776424
  - # 6
    frequency:    1.8717396761
  - # 7
    frequency:    3.1376721560
  - # 8
    frequency:    4.7705669598
  - # 9
    frequency:    4.9059383458
  - # 10
    frequency:    5.7552466564
  - # 11
    frequency:    6.4918129327
  - # 12
    frequency:    6.9257189365
  - # 13
    frequency:    8.7083779979
  - # 14
    frequency:    9.0874658771
  - # 15
    frequency:    9.6697876144
  - # 16
    frequency:   10.8887573279
  - # 17
    frequency:   17.7078991899
  - # 18
    frequency:   17.9606228603
  - # 19
    frequency:   18.1395621872
  - # 20
    frequency:   34.3500750286
  - # 21
    frequency:   60.4007003455

- q-position: [    0.1313131,    0.0000000,    0.0000000 ]
  distance:    0.0482082
  band:
  - # 1
    frequency:   -1.9497149357
  - # 2
    frequency:   -1.5216696669
  - # 3
    frequency:   -1.0343752597
  - # 4
    frequency:    0.0391857900
  - # 5
    frequency:    1.4443703379
  - # 6
    frequency:    1.9558714039
  - # 7
    frequency:    3.2573845321
  - # 8
    frequency:    4.7827222536
  - # 9
    frequency:    4.9186972735
  - # 10
    frequency:    5.7666337132
  - # 11
    frequency:    6.5029157063
  - # 12
    frequency:    6.9691769717
  - # 13
    frequency:    8.7131875288
  - # 14
    frequency:    9.1152336949
  - # 15
    frequency:    9.6756627757
  - # 16
    frequency:   10.8717018715
  - # 17
    frequency:   17.6932641216
  - # 18
    frequency:   17.9471155382
  - # 19
    frequency:   18.1347918845
  - # 20
    frequency:   34.3397667983
  - # 21
    frequency:   60.3964608009

- q-position: [    0.1363636,    0.0000000,    0.0000000 ]
  distance:    0.0500624
  band:
  - # 1
    frequency:   -1.9289211834
  - # 2
    frequency:   -1.5089857616
  - # 3
    frequency:   -0.9951378114
  - # 4
    frequency:    0.4684663191
  - # 5
    frequency:    1.5219417276
  - # 6
    frequency:    2.0406651505
  - # 7
    frequency:    3.3746026868
  - # 8
    frequency:    4.7948125649
  - # 9
    frequency:    4.9305441823
  - # 10
    frequency:    5.7803233833
  - # 11
    frequency:    6.5145911546
  - # 12
    frequency:    7.0140652843
  - # 13
    frequency:    8.7179581277
  - # 14
    frequency:    9.1423519879
  - # 15
    frequency:    9.6821656155
  - # 16
    frequency:   10.8544514863
  - # 17
    frequency:   17.6783988169
  - # 18
    frequency:   17.9334384696
  - # 19
    frequency:   18.1294505190
  - # 20
    frequency:   34.3292321052
  - # 21
    frequency:   60.3922251845

- q-position: [    0.1414141,    0.0000000,    0.0000000 ]
  distance:    0.0519166
  band:
  - # 1
    frequency:   -1.9095633429
  - # 2
    frequency:   -1.4975251783
  - # 3
    frequency:   -0.9553524932
  - # 4
    frequency:    0.6631191935
  - # 5
    frequency:    1.5992506320
  - # 6
    frequency:    2.1260390852
  - # 7
    frequency:    3.4892099078
  - # 8
    frequency:    4.8067952346
  - # 9
    frequency:    4.9415850371
  - # 10
    frequency:    5.7962403231
  - # 11
    frequency:    6.5268291219
  - # 12
    frequency:    7.0603164347
  - # 13
    frequency:    8.7226693419
  - # 14
    frequency:    9.1685657080
  - # 15
    frequency:    9.6893895299
  - # 16
    frequency:   10.8371056664
  - # 17
    frequency:   17.6633485774
  - # 18
    frequency:   17.9196348676
  - # 19
    frequency:   18.1235161811
  - # 20
    frequency:   34.3184885002
  - # 21
    frequency:   60.3880090308

- q-position: [    0.1464646,    0.0000000,    0.0000000 ]
  distance:    0.0537707
  band:
  - # 1
    frequency:   -1.8918113591
  - # 2
    frequency:   -1.4867476596
  - # 3
    frequency:   -0.9152503111
  - # 4
    frequency:    0.8122976290
  - # 5
    frequency:    1.6764705635
  - # 6
    frequency:    2.2119016508
  - # 7
    frequency:    3.6011000813
  - # 8
    frequency:    4.8186312496
  - # 9
    frequency:    4.9519708913
  - # 10
    frequency:    5.8142738625
  - # 11
    frequency:    6.5396151487
  - # 12
    frequency:    7.1078523405
  - # 13
    frequency:    8.7273009047
  - # 14
    frequency:    9.1936113624
  - # 15
    frequency:    9.6974263912
  - # 16
    frequency:   10.8197760806
  - # 17
    frequency:   17.6481558172
  - # 18
    frequency:   17.9057542025
  - # 19
    frequency:   18.1169694062
  - # 20
    frequency:   34.3075536817
  - # 21
    frequency:   60.3838277540

- q-position: [    0.1515152,    0.0000000,    0.0000000 ]
  distance:    0.0556249
  band:
  - # 1
    frequency:   -1.8758267100
  - # 2
    frequency:   -1.4762244641
  - # 3
    frequency:   -0.8750968463
  - # 4
    frequency:    0.9367158792
  - # 5
    frequency:    1.7537713055
  - # 6
    frequency:    2.2981529889
  - # 7
    frequency:    3.7101724699
  - # 8
    frequency:    4.8302859510
  - # 9
    frequency:    4.9618932172
  - # 10
    frequency:    5.8342857469
  - # 11
    frequency:    6.5529303447
  - # 12
    frequency:    7.1565840276
  - # 13
    frequency:    8.7318328214
  - # 14
    frequency:    9.2172261188
  - # 15
    frequency:    9.7063569026
  - # 16
    frequency:   10.8025875270
  - # 17
    frequency:   17.6328588512
  - # 18
    frequency:   17.8918531231
  - # 19
    frequency:   18.1097933333
  - # 20
    frequency:   34.2964454507
  - # 21
    frequency:   60.3796965855