nqpoint: 300    
npath: 3      
segment_nqpoint:
- 100
- 100
- 100
labels:
- [ 'G', 'M' ]
- [ 'M', 'K' ]
- [ 'K', 'G' ]
reciprocal_lattice:
- [   0.29093997,   0.16797427,   0.00000000 ] # a*
- [   0.00000000,   0.33594854,   0.00000000 ] # b*
- [   0.00000000,   0.00000000,   0.03782732 ] # c*
natom: 7      
lattice:
- [     3.437135123897745,     0.000000000000000,     0.000000000000000 ] # a
- [    -1.718567561948872,     2.976646333520970,     0.000000000000000 ] # b
- [     0.000000000000000,     0.000000000000000,    26.435921012358584 ] # c
points:
- symbol: C # 1
  coordinates: [  0.000000000000000,  0.000000000000000,  0.454231070089016 ]
  mass: 12.010700
- symbol: C # 2
  coordinates: [  0.333332985432215,  0.666666983183674,  0.600734190624654 ]
  mass: 12.010700
- symbol: Cl # 3
  coordinates: [  0.666666984744047,  0.333332985985145,  0.340445865146615 ]
  mass: 35.453000
- symbol: N # 4
  coordinates: [  0.333332985432215,  0.666666983183674,  0.553361774653079 ]
  mass: 14.006700
- symbol: S # 5
  coordinates: [  0.333332985432215,  0.666666983183674,  0.659554134853385 ]
  mass: 32.065000
- symbol: Zr # 6
  coordinates: [  0.333332985432215,  0.666666983183674,  0.408663185394991 ]
  mass: 91.224000
- symbol: Zr # 7
  coordinates: [  0.666666984744047,  0.333332985985145,  0.500850957459729 ]
  mass: 91.224000

phonon:
- q-position: [    0.0000000,    0.0000000,    0.0000000 ]
  distance:    0.0000000
  band:
  - # 1
    frequency:   -0.0000208168
  - # 2
    frequency:    0.0000002976
  - # 3
    frequency:    0.0000178107
  - # 4
    frequency:    1.2948460259
  - # 5
    frequency:    1.2948460260
  - # 6
    frequency:    4.1175319135
  - # 7
    frequency:    4.1175319136
  - # 8
    frequency:    5.2490576395
  - # 9
    frequency:    5.5357796377
  - # 10
    frequency:    5.5357796377
  - # 11
    frequency:    6.5993549135
  - # 12
    frequency:    6.5993549136
  - # 13
    frequency:    7.5138510344
  - # 14
    frequency:    9.5929682130
  - # 15
    frequency:   14.1077048700
  - # 16
    frequency:   14.1077048701
  - # 17
    frequency:   15.2994156437
  - # 18
    frequency:   16.8919640555
  - # 19
    frequency:   16.8919640555
  - # 20
    frequency:   27.0699779225
  - # 21
    frequency:   57.8005374571

- q-position: [    0.0050505,    0.0000000,    0.0000000 ]
  distance:    0.0016967
  band:
  - # 1
    frequency:    0.0022192620
  - # 2
    frequency:    0.0610075227
  - # 3
    frequency:    0.1114267918
  - # 4
    frequency:    1.2951674728
  - # 5
    frequency:    1.2976042877
  - # 6
    frequency:    4.1176180917
  - # 7
    frequency:    4.1185608408
  - # 8
    frequency:    5.2483084902
  - # 9
    frequency:    5.5357752384
  - # 10
    frequency:    5.5365274106
  - # 11
    frequency:    6.5993238938
  - # 12
    frequency:    6.5997873417
  - # 13
    frequency:    7.5135604301
  - # 14
    frequency:    9.5922332382
  - # 15
    frequency:   14.1077544021
  - # 16
    frequency:   14.1079164546
  - # 17
    frequency:   15.2992765003
  - # 18
    frequency:   16.8916550513
  - # 19
    frequency:   16.8921449137
  - # 20
    frequency:   27.0698878102
  - # 21
    frequency:   57.7995837906

- q-position: [    0.0101010,    0.0000000,    0.0000000 ]
  distance:    0.0033934
  band:
  - # 1
    frequency:    0.0088371082
  - # 2
    frequency:    0.1219982529
  - # 3
    frequency:    0.2227268482
  - # 4
    frequency:    1.2961345149
  - # 5
    frequency:    1.3058414772
  - # 6
    frequency:    4.1178766885
  - # 7
    frequency:    4.1216402871
  - # 8
    frequency:    5.2460861890
  - # 9
    frequency:    5.5357620342
  - # 10
    frequency:    5.5387481051
  - # 11
    frequency:    6.5992312938
  - # 12
    frequency:    6.6010822899
  - # 13
    frequency:    7.5126900419
  - # 14
    frequency:    9.5900295912
  - # 15
    frequency:   14.1079029400
  - # 16
    frequency:   14.1085508020
  - # 17
    frequency:   15.2988592945
  - # 18
    frequency:   16.8907292791
  - # 19
    frequency:   16.8926853278
  - # 20
    frequency:   27.0696176452
  - # 21
    frequency:   57.7967244756

- q-position: [    0.0151515,    0.0000000,    0.0000000 ]
  distance:    0.0050901
  band:
  - # 1
    frequency:    0.0197376181
  - # 2
    frequency:    0.1829543007
  - # 3
    frequency:    0.3337678195
  - # 4
    frequency:    1.2977553486
  - # 5
    frequency:    1.3194502512
  - # 6
    frequency:    4.1183078934
  - # 7
    frequency:    4.1267483342
  - # 8
    frequency:    5.2424627256
  - # 9
    frequency:    5.5357400117
  - # 10
    frequency:    5.5423772923
  - # 11
    frequency:    6.5990784860
  - # 12
    frequency:    6.6032327662
  - # 13
    frequency:    7.5112441458
  - # 14
    frequency:    9.5863610997
  - # 15
    frequency:   14.1081503095
  - # 16
    frequency:   14.1096066966
  - # 17
    frequency:   15.2981646984
  - # 18
    frequency:   16.8891904567
  - # 19
    frequency:   16.8935788353
  - # 20
    frequency:   27.0691679418
  - # 21
    frequency:   57.7919645613

- q-position: [    0.0202020,    0.0000000,    0.0000000 ]
  distance:    0.0067868
  band:
  - # 1
    frequency:    0.0347411464
  - # 2
    frequency:    0.2438555200
  - # 3
    frequency:    0.4444055278
  - # 4
    frequency:    1.3000439467
  - # 5
    frequency:    1.3382689122
  - # 6
    frequency:    4.1189120305
  - # 7
    frequency:    4.1338487380
  - # 8
    frequency:    5.2375477152
  - # 9
    frequency:    5.5357091679
  - # 10
    frequency:    5.5473179397
  - # 11
    frequency:    6.5988677391
  - # 12
    frequency:    6.6062271737
  - # 13
    frequency:    7.5092298750
  - # 14
    frequency:    9.5812341271
  - # 15
    frequency:   14.1084962204
  - # 16
    frequency:   14.1110821216
  - # 17
    frequency:   15.2971938267
  - # 18
    frequency:   16.8870447683
  - # 19
    frequency:   16.8948147276
  - # 20
    frequency:   27.0685395560
  - # 21
    frequency:   57.7853124485

- q-position: [    0.0252525,    0.0000000,    0.0000000 ]
  distance:    0.0084835
  band:
  - # 1
    frequency:    0.0536212902
  - # 2
    frequency:    0.3046782468
  - # 3
    frequency:    0.5544764504
  - # 4
    frequency:    1.3030205573
  - # 5
    frequency:    1.3621043489
  - # 6
    frequency:    4.1196895701
  - # 7
    frequency:    4.1428913445
  - # 8
    frequency:    5.2314761977
  - # 9
    frequency:    5.5356695374
  - # 10
    frequency:    5.5534525883
  - # 11
    frequency:    6.5986021905
  - # 12
    frequency:    6.6100493936
  - # 13
    frequency:    7.5066572295
  - # 14
    frequency:    9.5746575490
  - # 15
    frequency:   14.1089402672
  - # 16
    frequency:   14.1129742730
  - # 17
    frequency:   15.2959482298
  - # 18
    frequency:   16.8843008461
  - # 19
    frequency:   16.8963781419
  - # 20
    frequency:   27.0677336825
  - # 21
    frequency:   57.7767798680

- q-position: [    0.0303030,    0.0000000,    0.0000000 ]
  distance:    0.0101803
  band:
  - # 1
    frequency:    0.0761235333
  - # 2
    frequency:    0.3653938544
  - # 3
    frequency:    0.6637880776
  - # 4
    frequency:    1.3067124668
  - # 5
    frequency:    1.3907596883
  - # 6
    frequency:    4.1206411461
  - # 7
    frequency:    4.1538126428
  - # 8
    frequency:    5.2243965101
  - # 9
    frequency:    5.5356212306
  - # 10
    frequency:    5.5606554569
  - # 11
    frequency:    6.5982858082
  - # 12
    frequency:    6.6146788971
  - # 13
    frequency:    7.5035390901
  - # 14
    frequency:    9.5666427207
  - # 15
    frequency:   14.1094819300
  - # 16
    frequency:   14.1152795785
  - # 17
    frequency:   15.2944298834
  - # 18
    frequency:   16.8809697445
  - # 19
    frequency:   16.8982501891
  - # 20
    frequency:   27.0667518519
  - # 21
    frequency:   57.7663818507

- q-position: [    0.0353535,    0.0000000,    0.0000000 ]
  distance:    0.0118770
  band:
  - # 1
    frequency:    0.1019825525
  - # 2
    frequency:    0.4259670397
  - # 3
    frequency:    0.7721061252
  - # 4
    frequency:    1.3111550992
  - # 5
    frequency:    1.4240644398
  - # 6
    frequency:    4.1217675767
  - # 7
    frequency:    4.1665364290
  - # 8
    frequency:    5.2164604071
  - # 9
    frequency:    5.5355644810
  - # 10
    frequency:    5.5688023068
  - # 11
    frequency:    6.5979233413
  - # 12
    frequency:    6.6200908826
  - # 13
    frequency:    7.4998912348
  - # 14
    frequency:    9.5572034369
  - # 15
    frequency:   14.1101205751
  - # 16
    frequency:   14.1179937205
  - # 17
    frequency:   15.2926411779
  - # 18
    frequency:   16.8770649079
  - # 19
    frequency:   16.9004081135
  - # 20
    frequency:   27.0655959258
  - # 21
    frequency:   57.7541366884

- q-position: [    0.0404040,    0.0000000,    0.0000000 ]
  distance:    0.0135737
  band:
  - # 1
    frequency:    0.1309362488
  - # 2
    frequency:    0.4863537246
  - # 3
    frequency:    0.8791375138
  - # 4
    frequency:    1.3163935576
  - # 5
    frequency:    1.4619060593
  - # 6
    frequency:    4.1230698896
  - # 7
    frequency:    4.1809745512
  - # 8
    frequency:    5.2078163287
  - # 9
    frequency:    5.5354997002
  - # 10
    frequency:    5.5777771789
  - # 11
    frequency:    6.5975202608
  - # 12
    frequency:    6.6262564354
  - # 13
    frequency:    7.4957323595
  - # 14
    frequency:    9.5463558840
  - # 15
    frequency:   14.1108554565
  - # 16
    frequency:   14.1211116633
  - # 17
    frequency:   15.2905849055
  - # 18
    frequency:   16.8726021301
  - # 19
    frequency:   16.9028254841
  - # 20
    frequency:   27.0642680921
  - # 21
    frequency:   57.7400658873

- q-position: [    0.0454545,    0.0000000,    0.0000000 ]
  distance:    0.0152704
  band:
  - # 1
    frequency:    0.1627357275
  - # 2
    frequency:    0.5464984152
  - # 3
    frequency:    0.9845084630
  - # 4
    frequency:    1.3224847549
  - # 5
    frequency:    1.5042626205
  - # 6
    frequency:    4.1245493508
  - # 7
    frequency:    4.1970277003
  - # 8
    frequency:    5.1986056991
  - # 9
    frequency:    5.5354275397
  - # 10
    frequency:    5.5874761327
  - # 11
    frequency:    6.5970826908
  - # 12
    frequency:    6.6331427041
  - # 13
    frequency:    7.4910841008
  - # 14
    frequency:    9.5341185862
  - # 15
    frequency:   14.1116857169
  - # 16
    frequency:   14.1246276825
  - # 17
    frequency:   15.2882642484
  - # 18
    frequency:   16.8675995078
  - # 19
    frequency:   16.9054724134
  - # 20
    frequency:   27.0627708585
  - # 21
    frequency:   57.7241941125

- q-position: [    0.0505051,    0.0000000,    0.0000000 ]
  distance:    0.0169671
  band:
  - # 1
    frequency:    0.1971513656
  - # 2
    frequency:    0.6063308136
  - # 3
    frequency:    1.0877390440
  - # 4
    frequency:    1.3295003368
  - # 5
    frequency:    1.5512352347
  - # 6
    frequency:    4.1262074974
  - # 7
    frequency:    4.2145862133
  - # 8
    frequency:    5.1889616171
  - # 9
    frequency:    5.5353489570
  - # 10
    frequency:    5.5978086393
  - # 11
    frequency:    6.5966173298
  - # 12
    frequency:    6.6407130910
  - # 13
    frequency:    7.4859710609
  - # 14
    frequency:    9.5205123463
  - # 15
    frequency:   14.1126103894
  - # 16
    frequency:   14.1285353973
  - # 17
    frequency:   15.2856827670
  - # 18
    frequency:   16.8620773859
  - # 19
    frequency:   16.9083158016
  - # 20
    frequency:   27.0611070459
  - # 21
    frequency:   57.7065491247

- q-position: [    0.0555556,    0.0000000,    0.0000000 ]
  distance:    0.0186638
  band:
  - # 1
    frequency:    0.2339756405
  - # 2
    frequency:    0.6657614094
  - # 3
    frequency:    1.1882212444
  - # 4
    frequency:    1.3375306638
  - # 5
    frequency:    1.6030737153
  - # 6
    frequency:    4.1280461722
  - # 7
    frequency:    4.2335308553
  - # 8
    frequency:    5.1790091832
  - # 9
    frequency:    5.5352652852
  - # 10
    frequency:    5.6086973979
  - # 11
    frequency:    6.5961313640
  - # 12
    frequency:    6.6489274523
  - # 13
    frequency:    7.4804208330
  - # 14
    frequency:    9.5055601828
  - # 15
    frequency:   14.1136283992
  - # 16
    frequency:   14.1328278030
  - # 17
    frequency:   15.2828443909
  - # 18
    frequency:   16.8560582971
  - # 19
    frequency:   16.9113196022
  - # 20
    frequency:   27.0592797806
  - # 21
    frequency:   57.6871617090

- q-position: [    0.0606061,    0.0000000,    0.0000000 ]
  distance:    0.0203605
  band:
  - # 1
    frequency:    0.2730235762
  - # 2
    frequency:    0.7246757175
  - # 3
    frequency:    1.2852199212
  - # 4
    frequency:    1.3466901873
  - # 5
    frequency:    1.6601768798
  - # 6
    frequency:    4.1300675612
  - # 7
    frequency:    4.2537335496
  - # 8
    frequency:    5.1688668200
  - # 9
    frequency:    5.5351783026
  - # 10
    frequency:    5.6200772340
  - # 11
    frequency:    6.5956323728
  - # 12
    frequency:    6.6577423061
  - # 13
    frequency:    7.4744640258
  - # 14
    frequency:    9.4892872632
  - # 15
    frequency:   14.1147385648
  - # 16
    frequency:   14.1374973046
  - # 17
    frequency:   15.2797534117
  - # 18
    frequency:   16.8495668934
  - # 19
    frequency:   16.9144451060
  - # 20
    frequency:   27.0572924854
  - # 21
    frequency:   57.6660655960

- q-position: [    0.0656566,    0.0000000,    0.0000000 ]
  distance:    0.0220572
  band:
  - # 1
    frequency:    0.3141316328
  - # 2
    frequency:    0.7829267876
  - # 3
    frequency:    1.3571245891
  - # 4
    frequency:    1.3779335690
  - # 5
    frequency:    1.7230313227
  - # 6
    frequency:    4.1322742327
  - # 7
    frequency:    4.2750580299
  - # 8
    frequency:    5.1586481169
  - # 9
    frequency:    5.5350903015
  - # 10
    frequency:    5.6318935592
  - # 11
    frequency:    6.5951282280
  - # 12
    frequency:    6.6671110463
  - # 13
    frequency:    7.4681342842
  - # 14
    frequency:    9.4717208361
  - # 15
    frequency:   14.1159396006
  - # 16
    frequency:   14.1425357488
  - # 17
    frequency:   15.2764144798
  - # 18
    frequency:   16.8426298721
  - # 19
    frequency:   16.9176512395
  - # 20
    frequency:   27.0551488711
  - # 21
    frequency:   57.6432973756

- q-position: [    0.0707071,    0.0000000,    0.0000000 ]
  distance:    0.0237539
  band:
  - # 1
    frequency:    0.3571557074
  - # 2
    frequency:    0.8403256908
  - # 3
    frequency:    1.3690199835
  - # 4
    frequency:    1.4656543630
  - # 5
    frequency:    1.7920498313
  - # 6
    frequency:    4.1346691770
  - # 7
    frequency:    4.2973603974
  - # 8
    frequency:    5.1484639042
  - # 9
    frequency:    5.5350041524
  - # 10
    frequency:    5.6441006995
  - # 11
    frequency:    6.5946269868
  - # 12
    frequency:    6.6769841630
  - # 13
    frequency:    7.4614683035
  - # 14
    frequency:    9.4528901620
  - # 15
    frequency:   14.1172301184
  - # 16
    frequency:   14.1479344551
  - # 17
    frequency:   15.2728326055
  - # 18
    frequency:   16.8352758938
  - # 19
    frequency:   16.9208948756
  - # 20
    frequency:   27.0528529257
  - # 21
    frequency:   57.6188964031

- q-position: [    0.0757576,    0.0000000,    0.0000000 ]
  distance:    0.0254506
  band:
  - # 1
    frequency:    0.4019687401
  - # 2
    frequency:    0.8966300549
  - # 3
    frequency:    1.3826141052
  - # 4
    frequency:    1.5480098241
  - # 5
    frequency:    1.8673275721
  - # 6
    frequency:    4.1372558468
  - # 7
    frequency:    4.3204895739
  - # 8
    frequency:    5.1384243802
  - # 9
    frequency:    5.5349233619
  - # 10
    frequency:    5.6566602680
  - # 11
    frequency:    6.5941367818
  - # 12
    frequency:    6.6873094705
  - # 13
    frequency:    7.4545058318
  - # 14
    frequency:    9.4328264440
  - # 15
    frequency:   14.1186086300
  - # 16
    frequency:   14.1536842439
  - # 17
    frequency:   15.2690131649
  - # 18
    frequency:   16.8275354948
  - # 19
    frequency:   16.9241311509
  - # 20
    frequency:   27.0504089043
  - # 21
    frequency:   57.5929046992

- q-position: [    0.0808081,    0.0000000,    0.0000000 ]
  distance:    0.0271474
  band:
  - # 1
    frequency:    0.4484582520
  - # 2
    frequency:    0.9515317607
  - # 3
    frequency:    1.3982083760
  - # 4
    frequency:    1.6251526080
  - # 5
    frequency:    1.9484498693
  - # 6
    frequency:    4.1400381960
  - # 7
    frequency:    4.3442876584
  - # 8
    frequency:    5.1286411976
  - # 9
    frequency:    5.5348521227
  - # 10
    frequency:    5.6695396731
  - # 11
    frequency:    6.5936657079
  - # 12
    frequency:    6.6980323473
  - # 13
    frequency:    7.4472896558
  - # 14
    frequency:    9.4115627592
  - # 15
    frequency:   14.1200735487
  - # 16
    frequency:   14.1597754617
  - # 17
    frequency:   15.2649619112
  - # 18
    frequency:   16.8194409928
  - # 19
    frequency:   16.9273137880
  - # 20
    frequency:   27.0478213179
  - # 21
    frequency:   57.5653668423

- q-position: [    0.0858586,    0.0000000,    0.0000000 ]
  distance:    0.0288441
  band:
  - # 1
    frequency:    0.4965240131
  - # 2
    frequency:    1.0046472131
  - # 3
    frequency:    1.4161774333
  - # 4
    frequency:    1.6977362748
  - # 5
    frequency:    2.0345139233
  - # 6
    frequency:    4.1430207175
  - # 7
    frequency:    4.3685902141
  - # 8
    frequency:    5.1192294478
  - # 9
    frequency:    5.5347953512
  - # 10
    frequency:    5.6827107957
  - # 11
    frequency:    6.5932217085
  - # 12
    frequency:    6.7090959939
  - # 13
    frequency:    7.4398655599
  - # 14
    frequency:    9.3891339926
  - # 15
    frequency:   14.1216231928
  - # 16
    frequency:   14.1661980026
  - # 17
    frequency:   15.2606849914
  - # 18
    frequency:   16.8110263856
  - # 19
    frequency:   16.9303954195
  - # 20
    frequency:   27.0450949211
  - # 21
    frequency:   57.5363298555

- q-position: [    0.0909091,    0.0000000,    0.0000000 ]
  distance:    0.0305408
  band:
  - # 1
    frequency:    0.5460759451
  - # 2
    frequency:    1.0555177510
  - # 3
    frequency:    1.4369685586
  - # 4
    frequency:    1.7666846804
  - # 5
    frequency:    2.1243569448
  - # 6
    frequency:    4.1462084774
  - # 7
    frequency:    4.3932265450
  - # 8
    frequency:    5.1103094892
  - # 9
    frequency:    5.5347587122
  - # 10
    frequency:    5.6961488408
  - # 11
    frequency:    6.5928124622
  - # 12
    frequency:    6.7204417155
  - # 13
    frequency:    7.4322822519
  - # 14
    frequency:    9.3655767714
  - # 15
    frequency:   14.1232557872
  - # 16
    frequency:   14.1729413250
  - # 17
    frequency:   15.2561889688
  - # 18
    frequency:   16.8023272441
  - # 19
    frequency:   16.9333279097
  - # 20
    frequency:   27.0422347003
  - # 21
    frequency:   57.5058430873

- q-position: [    0.0959596,    0.0000000,    0.0000000 ]
  distance:    0.0322375
  band:
  - # 1
    frequency:    0.5970322988
  - # 2
    frequency:    1.1036330591
  - # 3
    frequency:    1.4610781412
  - # 4
    frequency:    1.8329303233
  - # 5
    frequency:    2.2168154281
  - # 6
    frequency:    4.1496071459
  - # 7
    frequency:    4.4180200628
  - # 8
    frequency:    5.1020085394
  - # 9
    frequency:    5.5347486291
  - # 10
    frequency:    5.7098313523
  - # 11
    frequency:    6.5924452730
  - # 12
    frequency:    6.7320092430
  - # 13
    frequency:    7.4245912391
  - # 14
    frequency:    9.3409294032
  - # 15
    frequency:   14.1249694670
  - # 16
    frequency:   14.1799944641
  - # 17
    frequency:   15.2514808509
  - # 18
    frequency:   16.7933805986
  - # 19
    frequency:   16.9360626725
  - # 20
    frequency:   27.0392458603
  - # 21
    frequency:   57.4739580859

- q-position: [    0.1010101,    0.0000000,    0.0000000 ]
  distance:    0.0339342
  band:
  - # 1
    frequency:    0.6493181113
  - # 2
    frequency:    1.1484922123
  - # 3
    frequency:    1.4889905481
  - # 4
    frequency:    1.8972578984
  - # 5
    frequency:    2.3108793321
  - # 6
    frequency:    4.1532230221
  - # 7
    frequency:    4.4427889057
  - # 8
    frequency:    5.0944618995
  - # 9
    frequency:    5.5347722759
  - # 10
    frequency:    5.7237373743
  - # 11
    frequency:    6.5921269638
  - # 12
    frequency:    6.7437371028
  - # 13
    frequency:    7.4168466425
  - # 14
    frequency:    9.3152318162
  - # 15
    frequency:   14.1267622797
  - # 16
    frequency:   14.1873460391
  - # 17
    frequency:   15.2465681229
  - # 18
    frequency:   16.7842248194
  - # 19
    frequency:   16.9385509815
  - # 20
    frequency:   27.0361338112
  - # 21
    frequency:   57.4407284695

- q-position: [    0.1060606,    0.0000000,    0.0000000 ]
  distance:    0.0356309
  band:
  - # 1
    frequency:    0.7028639216
  - # 2
    frequency:    1.1897050829
  - # 3
    frequency:    1.5210766687
  - # 4
    frequency:    1.9602611347
  - # 5
    frequency:    2.4057330862
  - # 6
    frequency:    4.1570630524
  - # 7
    frequency:    4.4673470506
  - # 8
    frequency:    5.0878136048
  - # 9
    frequency:    5.5348375517
  - # 10
    frequency:    5.7378467381
  - # 11
    frequency:    6.5918637773
  - # 12
    frequency:    6.7555630544
  - # 13
    frequency:    7.4091049283
  - # 14
    frequency:    9.2885255024
  - # 15
    frequency:   14.1286321893
  - # 16
    frequency:   14.1949842553
  - # 17
    frequency:   15.2414587847
  - # 18
    frequency:   16.7748994907
  - # 19
    frequency:   16.9407442728
  - # 20
    frequency:   27.0329041547
  - # 21
    frequency:   57.4062097910

- q-position: [    0.1111111,    0.0000000,    0.0000000 ]
  distance:    0.0373276
  band:
  - # 1
    frequency:    0.7576047167
  - # 2
    frequency:    1.2271054236
  - # 3
    frequency:    1.5574808198
  - # 4
    frequency:    2.0223618857
  - # 5
    frequency:    2.5007344411
  - # 6
    frequency:    4.1611348410
  - # 7
    frequency:    4.4915062515
  - # 8
    frequency:    5.0822161994
  - # 9
    frequency:    5.5349530361
  - # 10
    frequency:    5.7521394596
  - # 11
    frequency:    6.5916612835
  - # 12
    frequency:    6.7674246131
  - # 13
    frequency:    7.4014245366
  - # 14
    frequency:    9.2608534637
  - # 15
    frequency:   14.1305770792
  - # 16
    frequency:   14.2028969015
  - # 17
    frequency:   15.2361613936
  - # 18
    frequency:   16.7654452785
  - # 19
    frequency:   16.9425944349
  - # 20
    frequency:   27.0295626694
  - # 21
    frequency:   57.3704593982

- q-position: [    0.1161616,    0.0000000,    0.0000000 ]
  distance:    0.0390243
  band:
  - # 1
    frequency:    0.8134790754
  - # 2
    frequency:    1.2608168585
  - # 3
    frequency:    1.5980547790
  - # 4
    frequency:    2.0838483328
  - # 5
    frequency:    2.5953742841
  - # 6
    frequency:    4.1654466504
  - # 7
    frequency:    4.5150792325
  - # 8
    frequency:    5.0778292346
  - # 9
    frequency:    5.5351279252
  - # 10
    frequency:    5.7665952297
  - # 11
    frequency:    6.5915242975
  - # 12
    frequency:    6.7792596777
  - # 13
    frequency:    7.3938653827
  - # 14
    frequency:    9.2322601609
  - # 15
    frequency:   14.1325947563
  - # 16
    frequency:   14.2110713418
  - # 17
    frequency:   15.2306851079
  - # 18
    frequency:   16.7559037933
  - # 19
    frequency:   16.9440540878
  - # 20
    frequency:   27.0261152966
  - # 21
    frequency:   57.3335362904

- q-position: [    0.1212121,    0.0000000,    0.0000000 ]
  distance:    0.0407210
  band:
  - # 1
    frequency:    0.8704284758
  - # 2
    frequency:    1.2912269233
  - # 3
    frequency:    1.6423838031
  - # 4
    frequency:    2.1449116070
  - # 5
    frequency:    2.6892381012
  - # 6
    frequency:    4.1700073907
  - # 7
    frequency:    4.5378846196
  - # 8
    frequency:    5.0748160288
  - # 9
    frequency:    5.5353719482
  - # 10
    frequency:    5.7811929872
  - # 11
    frequency:    6.5914568078
  - # 12
    frequency:    6.7910072860
  - # 13
    frequency:    7.3864882064
  - # 14
    frequency:    9.2027914642
  - # 15
    frequency:   14.1346829553
  - # 16
    frequency:   14.2194945035
  - # 17
    frequency:   15.2250397339
  - # 18
    frequency:   16.7463174460
  - # 19
    frequency:   16.9450768473
  - # 20
    frequency:   27.0225681248
  - # 21
    frequency:   57.2955009711

- q-position: [    0.1262626,    0.0000000,    0.0000000 ]
  distance:    0.0424177
  band:
  - # 1
    frequency:    0.9283967386
  - # 2
    frequency:    1.3188843795
  - # 3
    frequency:    1.6898894042
  - # 4
    frequency:    2.2056746066
  - # 5
    frequency:    2.7819753012
  - # 6
    frequency:    4.1748265968
  - # 7
    frequency:    4.5597540464
  - # 8
    frequency:    5.0733382599
  - # 9
    frequency:    5.5356952662
  - # 10
    frequency:    5.7959105652
  - # 11
    frequency:    6.5914619160
  - # 12
    frequency:    6.8026085137
  - # 13
    frequency:    7.3793537456
  - # 14
    frequency:    9.1724946072
  - # 15
    frequency:   14.1368393431
  - # 16
    frequency:   14.2281528602
  - # 17
    frequency:   15.2192357731
  - # 18
    frequency:   16.7367292986
  - # 19
    frequency:   16.9456175750
  - # 20
    frequency:   27.0189273747
  - # 21
    frequency:   57.2564152976

- q-position: [    0.1313131,    0.0000000,    0.0000000 ]
  distance:    0.0441145
  band:
  - # 1
    frequency:    0.9873295789
  - # 2
    frequency:    1.3443799625
  - # 3
    frequency:    1.7399487228
  - # 4
    frequency:    2.2662128947
  - # 5
    frequency:    2.8732765316
  - # 6
    frequency:    4.1799143915
  - # 7
    frequency:    4.5805416287
  - # 8
    frequency:    5.0735481856
  - # 9
    frequency:    5.5361083537
  - # 10
    frequency:    5.8107244060
  - # 11
    frequency:    6.5915417896
  - # 12
    frequency:    6.8140075327
  - # 13
    frequency:    7.3725217142
  - # 14
    frequency:    9.1414181412
  - # 15
    frequency:   14.1390615241
  - # 16
    frequency:   14.2370324116
  - # 17
    frequency:   15.2132844682
  - # 18
    frequency:   16.7271829095
  - # 19
    frequency:   16.9456326122
  - # 20
    frequency:   27.0151993834
  - # 21
    frequency:   57.2163423283

- q-position: [    0.1363636,    0.0000000,    0.0000000 ]
  distance:    0.0458112
  band:
  - # 1
    frequency:    1.0471742457
  - # 2
    frequency:    1.3682601713
  - # 3
    frequency:    1.7919808878
  - # 4
    frequency:    2.3265693166
  - # 5
    frequency:    2.9628573795
  - # 6
    frequency:    4.1852814328
  - # 7
    frequency:    4.6001354908
  - # 8
    frequency:    5.0755787731
  - # 9
    frequency:    5.5366218649
  - # 10
    frequency:    5.8256093438
  - # 11
    frequency:    6.5916976279
  - # 12
    frequency:    6.8251528292
  - # 13
    frequency:    7.3660495746
  - # 14
    frequency:    9.1096118911
  - # 15
    frequency:   14.1413470454
  - # 16
    frequency:   14.2461186598
  - # 17
    frequency:   15.2071978472
  - # 18
    frequency:   16.7177221734
  - # 19
    frequency:   16.9450799984
  - # 20
    frequency:   27.0113905880
  - # 21
    frequency:   57.1753461671

- q-position: [    0.1414141,    0.0000000,    0.0000000 ]
  distance:    0.0475079
  band:
  - # 1
    frequency:    1.1078792282
  - # 2
    frequency:    1.3909863782
  - # 3
    frequency:    1.8454880795
  - # 4
    frequency:    2.3867640809
  - # 5
    frequency:    3.0504467893
  - # 6
    frequency:    4.1909388461
  - # 7
    frequency:    4.6184702431
  - # 8
    frequency:    5.0795327642
  - # 9
    frequency:    5.5372464882
  - # 10
    frequency:    5.8405384572
  - # 11
    frequency:    6.5919296415
  - # 12
    frequency:    6.8359985697
  - # 13
    frequency:    7.3599911099
  - # 14
    frequency:    9.0771269118
  - # 15
    frequency:   14.1436934029
  - # 16
    frequency:   14.2553965833
  - # 17
    frequency:   15.2009887632
  - # 18
    frequency:   16.7083911554
  - # 19
    frequency:   16.9439196729
  - # 20
    frequency:   27.0075075100
  - # 21
    frequency:   57.1334918068

- q-position: [    0.1464646,    0.0000000,    0.0000000 ]
  distance:    0.0492046
  band:
  - # 1
    frequency:    1.1693940165
  - # 2
    frequency:    1.4129271715
  - # 3
    frequency:    1.9000633835
  - # 4
    frequency:    2.4468016892
  - # 5
    frequency:    3.1357789317
  - # 6
    frequency:    4.1968981383
  - # 7
    frequency:    4.6355384341
  - # 8
    frequency:    5.0854725256
  - # 9
    frequency:    5.5379927899
  - # 10
    frequency:    5.8554829975
  - # 11
    frequency:    6.5922370453
  - # 12
    frequency:    6.8465060794
  - # 13
    frequency:    7.3543948207
  - # 14
    frequency:    9.0440154438
  - # 15
    frequency:   14.1460980476
  - # 16
    frequency:   14.2648506095
  - # 17
    frequency:   15.1946709293
  - # 18
    frequency:   16.6992339216
  - # 19
    frequency:   16.9421136600
  - # 20
    frequency:   27.0035567378
  - # 21
    frequency:   57.0908449711

- q-position: [    0.1515152,    0.0000000,    0.0000000 ]
  distance:    0.0509013
  band:
  - # 1
    frequency:    1.2316689014
  - # 2
    frequency:    1.4343675991
  - # 3
    frequency:    1.9553817613
  - # 4
    frequency:    2.5066757113
  - # 5
    frequency:    3.2185877209
  - # 6
    frequency:    4.2031710953
  - # 7
    frequency:    4.6513984101
  - # 8
    frequency:    5.0934130556
  - # 9
    frequency:    5.5388710526
  - # 10
    frequency:    5.8704124015
  - # 11
    frequency:    6.5926180646
  - # 12
    frequency:    6.8566453688
  - # 13
    frequency:    7.3493022012
  - # 14
    frequency:    9.0103308688
  - # 15
    frequency:   14.1485583922
  - # 16
    frequency:   14.2744645865
  - # 17
    frequency:   15.1882589454
  - # 18
    frequency:   16.6902943645
  - # 19
    frequency:   16.9396262385
  - # 20
    frequency:   26.9995449106
  - # 21