nqpoint: 300    
npath: 3      
segment_nqpoint:
- 100
- 100
- 100
labels:
- [ 'G', 'M' ]
- [ 'M', 'K' ]
- [ 'K', 'G' ]
reciprocal_lattice:
- [   0.29522802,   0.17044997,   0.00000000 ] # a*
- [   0.00000000,   0.34089995,   0.00000000 ] # b*
- [   0.00000000,   0.00000000,   0.03778091 ] # c*
natom: 7      
lattice:
- [     3.387212407555127,     0.000000000000000,     0.000000000000000 ] # a
- [    -1.693606203777563,     2.933411992953014,     0.000000000000000 ] # b
- [     0.000000000000000,     0.000000000000000,    26.468394804862399 ] # c
points:
- symbol: C # 1
  coordinates: [  0.000000000000000,  0.000000000000000,  0.515704921183686 ]
  mass: 12.010700
- symbol: N # 2
  coordinates: [  0.333332985432214,  0.666666983183674,  0.610110348078992 ]
  mass: 14.006700
- symbol: O # 3
  coordinates: [  0.333332985432214,  0.666666983183674,  0.659971824269954 ]
  mass: 15.999400
- symbol: O # 4
  coordinates: [  0.666666984744047,  0.333332985985145,  0.340028175730046 ]
  mass: 15.999400
- symbol: P # 5
  coordinates: [  0.666666984744047,  0.333332985985145,  0.396434619592236 ]
  mass: 30.973762
- symbol: Zr # 6
  coordinates: [  0.333332985432214,  0.666666983183674,  0.471354469826037 ]
  mass: 91.224000
- symbol: Zr # 7
  coordinates: [  0.666666984744047,  0.333332985985145,  0.570586778792008 ]
  mass: 91.224000

phonon:
- q-position: [    0.0000000,    0.0000000,    0.0000000 ]
  distance:    0.0000000
  band:
  - # 1
    frequency:   -5.0771188355
  - # 2
    frequency:   -5.0771188355
  - # 3
    frequency:   -0.0000115145
  - # 4
    frequency:   -0.0000002856
  - # 5
    frequency:    0.0000091853
  - # 6
    frequency:    1.3411325946
  - # 7
    frequency:    1.3411325947
  - # 8
    frequency:    3.7003330184
  - # 9
    frequency:    3.7003330185
  - # 10
    frequency:    4.5264766581
  - # 11
    frequency:    4.5264766581
  - # 12
    frequency:    5.2046007229
  - # 13
    frequency:    8.2515233385
  - # 14
    frequency:    8.8470775728
  - # 15
    frequency:    9.9292765576
  - # 16
    frequency:    9.9292765576
  - # 17
    frequency:   14.7020344621
  - # 18
    frequency:   14.7020344621
  - # 19
    frequency:   16.2400731498
  - # 20
    frequency:   34.1875385555
  - # 21
    frequency:   39.8812482027

- q-position: [    0.0050505,    0.0000000,    0.0000000 ]
  distance:    0.0017217
  band:
  - # 1
    frequency:   -5.0773186099
  - # 2
    frequency:   -5.0759326190
  - # 3
    frequency:    0.0016361119
  - # 4
    frequency:    0.0638482415
  - # 5
    frequency:    0.1080925532
  - # 6
    frequency:    1.3409976612
  - # 7
    frequency:    1.3438470939
  - # 8
    frequency:    3.7007733206
  - # 9
    frequency:    3.7018830052
  - # 10
    frequency:    4.5264165812
  - # 11
    frequency:    4.5266082106
  - # 12
    frequency:    5.2049659565
  - # 13
    frequency:    8.2510097835
  - # 14
    frequency:    8.8460118012
  - # 15
    frequency:    9.9291781360
  - # 16
    frequency:    9.9305659128
  - # 17
    frequency:   14.7022366968
  - # 18
    frequency:   14.7025320308
  - # 19
    frequency:   16.2400099451
  - # 20
    frequency:   34.1873392164
  - # 21
    frequency:   39.8805125185

- q-position: [    0.0101010,    0.0000000,    0.0000000 ]
  distance:    0.0034434
  band:
  - # 1
    frequency:   -5.0779175378
  - # 2
    frequency:   -5.0723770420
  - # 3
    frequency:    0.0065316081
  - # 4
    frequency:    0.1276375797
  - # 5
    frequency:    0.2159968294
  - # 6
    frequency:    1.3405955845
  - # 7
    frequency:    1.3519814151
  - # 8
    frequency:    3.7020927123
  - # 9
    frequency:    3.7065228918
  - # 10
    frequency:    4.5262373984
  - # 11
    frequency:    4.5270029657
  - # 12
    frequency:    5.2060618680
  - # 13
    frequency:    8.2494700432
  - # 14
    frequency:    8.8428397207
  - # 15
    frequency:    9.9288836949
  - # 16
    frequency:    9.9344103728
  - # 17
    frequency:   14.7028425961
  - # 18
    frequency:   14.7040242109
  - # 19
    frequency:   16.2398198026
  - # 20
    frequency:   34.1867415757
  - # 21
    frequency:   39.8783068718

- q-position: [    0.0151515,    0.0000000,    0.0000000 ]
  distance:    0.0051652
  band:
  - # 1
    frequency:   -5.0789144266
  - # 2
    frequency:   -5.0664612831
  - # 3
    frequency:    0.0146560664
  - # 4
    frequency:    0.1913066500
  - # 5
    frequency:    0.3235131005
  - # 6
    frequency:    1.3399348766
  - # 7
    frequency:    1.3655109682
  - # 8
    frequency:    3.7042866528
  - # 9
    frequency:    3.7142226681
  - # 10
    frequency:    4.5259422955
  - # 11
    frequency:    4.5276612198
  - # 12
    frequency:    5.2078890867
  - # 13
    frequency:    8.2469069957
  - # 14
    frequency:    8.8376351915
  - # 15
    frequency:    9.9283957024
  - # 16
    frequency:    9.9407408323
  - # 17
    frequency:   14.7038497480
  - # 18
    frequency:   14.7065094277
  - # 19
    frequency:   16.2395011441
  - # 20
    frequency:   34.1857467613
  - # 21
    frequency:   39.8746354757

- q-position: [    0.0202020,    0.0000000,    0.0000000 ]
  distance:    0.0068869
  band:
  - # 1
    frequency:   -5.0803072708
  - # 2
    frequency:   -5.0582005143
  - # 3
    frequency:    0.0259587661
  - # 4
    frequency:    0.2547889306
  - # 5
    frequency:    0.4304181971
  - # 6
    frequency:    1.3390309051
  - # 7
    frequency:    1.3844043550
  - # 8
    frequency:    3.7073475872
  - # 9
    frequency:    3.7249330049
  - # 10
    frequency:    4.5255367262
  - # 11
    frequency:    4.5285834781
  - # 12
    frequency:    5.2104486547
  - # 13
    frequency:    8.2433257793
  - # 14
    frequency:    8.8305154537
  - # 15
    frequency:    9.9277182636
  - # 16
    frequency:    9.9494475452
  - # 17
    frequency:   14.7052541380
  - # 18
    frequency:   14.7099850668
  - # 19
    frequency:   16.2390513612
  - # 20
    frequency:   34.1843566498
  - # 21
    frequency:   39.8695053402

- q-position: [    0.0252525,    0.0000000,    0.0000000 ]
  distance:    0.0086086
  band:
  - # 1
    frequency:   -5.0820932250
  - # 2
    frequency:   -5.0476157105
  - # 3
    frequency:    0.0403711967
  - # 4
    frequency:    0.3180095461
  - # 5
    frequency:    0.5364525825
  - # 6
    frequency:    1.3379078233
  - # 7
    frequency:    1.4086369838
  - # 8
    frequency:    3.7112649643
  - # 9
    frequency:    3.7385862315
  - # 10
    frequency:    4.5250286333
  - # 11
    frequency:    4.5297704713
  - # 12
    frequency:    5.2137420181
  - # 13
    frequency:    8.2387342868
  - # 14
    frequency:    8.8216332426
  - # 15
    frequency:    9.9268571083
  - # 16
    frequency:    9.9603873825
  - # 17
    frequency:   14.7070501581
  - # 18
    frequency:   14.7144474897
  - # 19
    frequency:   16.2384668482
  - # 20
    frequency:   34.1825738609
  - # 21
    frequency:   39.8629262536

- q-position: [    0.0303030,    0.0000000,    0.0000000 ]
  distance:    0.0103303
  band:
  - # 1
    frequency:   -5.0842685679
  - # 2
    frequency:   -5.0347333839
  - # 3
    frequency:    0.0578092121
  - # 4
    frequency:    0.3808812201
  - # 5
    frequency:    0.6413065069
  - # 6
    frequency:    1.3366016176
  - # 7
    frequency:    1.4382084777
  - # 8
    frequency:    3.7160252634
  - # 9
    frequency:    3.7550976016
  - # 10
    frequency:    4.5244287685
  - # 11
    frequency:    4.5312231794
  - # 12
    frequency:    5.2177710179
  - # 13
    frequency:    8.2331438226
  - # 14
    frequency:    8.8111673140
  - # 15
    frequency:    9.9258195725
  - # 16
    frequency:    9.9733924668
  - # 17
    frequency:   14.7092306188
  - # 18
    frequency:   14.7198920528
  - # 19
    frequency:   16.2377430478
  - # 20
    frequency:   34.1804017499
  - # 21
    frequency:   39.8549107574

- q-position: [    0.0353535,    0.0000000,    0.0000000 ]
  distance:    0.0120520
  band:
  - # 1
    frequency:   -5.0868286572
  - # 2
    frequency:   -5.0195852418
  - # 3
    frequency:    0.0781754064
  - # 4
    frequency:    0.4432988891
  - # 5
    frequency:    0.7446061689
  - # 6
    frequency:    1.3351646933
  - # 7
    frequency:    1.4731617591
  - # 8
    frequency:    3.7216120265
  - # 9
    frequency:    3.7743667522
  - # 10
    frequency:    4.5237511250
  - # 11
    frequency:    4.5329428612
  - # 12
    frequency:    5.2225378839
  - # 13
    frequency:    8.2265698839
  - # 14
    frequency:    8.7993124728
  - # 15
    frequency:    9.9246145753
  - # 16
    frequency:    9.9882791339
  - # 17
    frequency:   14.7117867654
  - # 18
    frequency:   14.7263131320
  - # 19
    frequency:   16.2368745098
  - # 20
    frequency:   34.1778443981
  - # 21
    frequency:   39.8454741133

- q-position: [    0.0404040,    0.0000000,    0.0000000 ]
  distance:    0.0137737
  band:
  - # 1
    frequency:   -5.0897678784
  - # 2
    frequency:   -5.0022077688
  - # 3
    frequency:    0.1013615378
  - # 4
    frequency:    0.5051322679
  - # 5
    frequency:    0.8459026133
  - # 6
    frequency:    1.3336726595
  - # 7
    frequency:    1.5136000370
  - # 8
    frequency:    3.7280058976
  - # 9
    frequency:    3.7962792451
  - # 10
    frequency:    4.5230135026
  - # 11
    frequency:    4.5349310911
  - # 12
    frequency:    5.2280452351
  - # 13
    frequency:    8.2190330137
  - # 14
    frequency:    8.7862700359
  - # 15
    frequency:    9.9232525898
  - # 16
    frequency:   10.0048563445
  - # 17
    frequency:   14.7147082978
  - # 18
    frequency:   14.7337041486
  - # 19
    frequency:   16.2358549614
  - # 20
    frequency:   34.1749066016
  - # 21
    frequency:   39.8346342640

- q-position: [    0.0454545,    0.0000000,    0.0000000 ]
  distance:    0.0154955
  band:
  - # 1
    frequency:   -5.0930795876
  - # 2
    frequency:   -4.9826417357
  - # 3
    frequency:    0.1272508730
  - # 4
    frequency:    0.5662153127
  - # 5
    frequency:    0.9446691402
  - # 6
    frequency:    1.3322343292
  - # 7
    frequency:    1.5596951151
  - # 8
    frequency:    3.7351846685
  - # 9
    frequency:    3.8207080665
  - # 10
    frequency:    4.5222382392
  - # 11
    frequency:    4.5371898018
  - # 12
    frequency:    5.2342960906
  - # 13
    frequency:    8.2105596612
  - # 14
    frequency:    8.7722393961
  - # 15
    frequency:    9.9217456075
  - # 16
    frequency:   10.0229329501
  - # 17
    frequency:   14.7179833953
  - # 18
    frequency:   14.7420575965
  - # 19
    frequency:   16.2346773902
  - # 20
    frequency:   34.1715938570
  - # 21
    frequency:   39.8224117857

- q-position: [    0.0505051,    0.0000000,    0.0000000 ]
  distance:    0.0172172
  band:
  - # 1
    frequency:   -5.0967560507
  - # 2
    frequency:   -4.9609316370
  - # 3
    frequency:    0.1557203691
  - # 4
    frequency:    0.6263310259
  - # 5
    frequency:    1.0403169404
  - # 6
    frequency:    1.3310064624
  - # 7
    frequency:    1.6116767680
  - # 8
    frequency:    3.7431233297
  - # 9
    frequency:    3.8475149476
  - # 10
    frequency:    4.5214531557
  - # 11
    frequency:    4.5397213325
  - # 12
    frequency:    5.2412938947
  - # 13
    frequency:    8.2011829734
  - # 14
    frequency:    8.7574110624
  - # 15
    frequency:    9.9201070973
  - # 16
    frequency:   10.0423235189
  - # 17
    frequency:   14.7215987447
  - # 18
    frequency:   14.7513650689
  - # 19
    frequency:   16.2333341379
  - # 20
    frequency:   34.1679123464
  - # 21
    frequency:   39.8088298354

- q-position: [    0.0555556,    0.0000000,    0.0000000 ]
  distance:    0.0189389
  band:
  - # 1
    frequency:   -5.1007883817
  - # 2
    frequency:   -4.9371250640
  - # 3
    frequency:    0.1866426457
  - # 4
    frequency:    0.6851893885
  - # 5
    frequency:    1.1322409910
  - # 6
    frequency:    1.3302154427
  - # 7
    frequency:    1.6697908613
  - # 8
    frequency:    3.7517941272
  - # 9
    frequency:    3.8765513537
  - # 10
    frequency:    4.5206927920
  - # 11
    frequency:    4.5425284832
  - # 12
    frequency:    5.2490425614
  - # 13
    frequency:    8.1909434352
  - # 14
    frequency:    8.7419613114
  - # 15
    frequency:    9.9183519571
  - # 16
    frequency:   10.0628526738
  - # 17
    frequency:   14.7255395737
  - # 18
    frequency:   14.7616172824
  - # 19
    frequency:   16.2318170060
  - # 20
    frequency:   34.1638689194
  - # 21
    frequency:   39.7939140898

- q-position: [    0.0606061,    0.0000000,    0.0000000 ]
  distance:    0.0206606
  band:
  - # 1
    frequency:   -5.1051664807
  - # 2
    frequency:   -4.9112720184
  - # 3
    frequency:    0.2198877277
  - # 4
    frequency:    0.7423955660
  - # 5
    frequency:    1.2199029672
  - # 6
    frequency:    1.3301887220
  - # 7
    frequency:    1.7342193736
  - # 8
    frequency:    3.7611666244
  - # 9
    frequency:    3.9076589617
  - # 10
    frequency:    4.5200000500
  - # 11
    frequency:    4.5456145733
  - # 12
    frequency:    5.2575465419
  - # 13
    frequency:    8.1798892789
  - # 14
    frequency:    8.7260484145
  - # 15
    frequency:    9.9164964588
  - # 16
    frequency:   10.0843580672
  - # 17
    frequency:   14.7297896894
  - # 18
    frequency:   14.7728040959
  - # 19
    frequency:   16.2301173714
  - # 20
    frequency:   34.1594710743
  - # 21
    frequency:   39.7776926785

- q-position: [    0.0656566,    0.0000000,    0.0000000 ]
  distance:    0.0223823
  band:
  - # 1
    frequency:   -5.1098789753
  - # 2
    frequency:   -4.8834241782
  - # 3
    frequency:    0.2553245554
  - # 4
    frequency:    0.7974056869
  - # 5
    frequency:    1.3029388823
  - # 6
    frequency:    1.3313987160
  - # 7
    frequency:    1.8049746609
  - # 8
    frequency:    3.7712077683
  - # 9
    frequency:    3.9406693973
  - # 10
    frequency:    4.5194284230
  - # 11
    frequency:    4.5489835051
  - # 12
    frequency:    5.2668109184
  - # 13
    frequency:    8.1680765925
  - # 14
    frequency:    8.7098103033
  - # 15
    frequency:    9.9145581864
  - # 16
    frequency:   10.1066922041
  - # 17
    frequency:   14.7343315214
  - # 18
    frequency:   14.7849145234
  - # 19
    frequency:   16.2282263123
  - # 20
    frequency:   34.1547269362
  - # 21
    frequency:   39.7601961106

- q-position: [    0.0707071,    0.0000000,    0.0000000 ]
  distance:    0.0241040
  band:
  - # 1
    frequency:   -5.1149131660
  - # 2
    frequency:   -4.8536341255
  - # 3
    frequency:    0.2928222650
  - # 4
    frequency:    0.8494707963
  - # 5
    frequency:    1.3345185322
  - # 6
    frequency:    1.3812519174
  - # 7
    frequency:    1.8818076421
  - # 8
    frequency:    3.7818819617
  - # 9
    frequency:    3.9754029174
  - # 10
    frequency:    4.5190450924
  - # 11
    frequency:    4.5526398294
  - # 12
    frequency:    5.2768415280
  - # 13
    frequency:    8.1555690786
  - # 14
    frequency:    8.6933634852
  - # 15
    frequency:    9.9125559665
  - # 16
    frequency:   10.1297233577
  - # 17
    frequency:   14.7391461703
  - # 18
    frequency:   14.7979367380
  - # 19
    frequency:   16.2261347444
  - # 20
    frequency:   34.1496452346
  - # 21
    frequency:   39.7414571945

- q-position: [    0.0757576,    0.0000000,    0.0000000 ]
  distance:    0.0258258
  band:
  - # 1
    frequency:   -5.1202549795
  - # 2
    frequency:   -4.8219545526
  - # 3
    frequency:    0.3322512517
  - # 4
    frequency:    0.8975816768
  - # 5
    frequency:    1.3404768187
  - # 6
    frequency:    1.4550410227
  - # 7
    frequency:    1.9641795005
  - # 8
    frequency:    3.7931511395
  - # 9
    frequency:    4.0116655759
  - # 10
    frequency:    4.5189353331
  - # 11
    frequency:    4.5565888135
  - # 12
    frequency:    5.2876451194
  - # 13
    frequency:    8.1424374434
  - # 14
    frequency:    8.6768030073
  - # 15
    frequency:    9.9105097915
  - # 16
    frequency:   10.1533358076
  - # 17
    frequency:   14.7442134620
  - # 18
    frequency:   14.8118580641
  - # 19
    frequency:   16.2238335659
  - # 20
    frequency:   34.1442352786
  - # 21
    frequency:   39.7215109526

- q-position: [    0.0808081,    0.0000000,    0.0000000 ]
  distance:    0.0275475
  band:
  - # 1
    frequency:   -5.1258889299
  - # 2
    frequency:   -4.7884374617
  - # 3
    frequency:    0.3734840261
  - # 4
    frequency:    0.9404566076
  - # 5
    frequency:    1.3504696454
  - # 6
    frequency:    1.5247455457
  - # 7
    frequency:    2.0513168297
  - # 8
    frequency:    3.8049748513
  - # 9
    frequency:    4.0492441648
  - # 10
    frequency:    4.5192089269
  - # 11
    frequency:    4.5608365087
  - # 12
    frequency:    5.2992295449
  - # 13
    frequency:    8.1287584290
  - # 14
    frequency:    8.6602032608
  - # 15
    frequency:    9.9084407355
  - # 16
    frequency:   10.1774296011
  - # 17
    frequency:   14.7495120068
  - # 18
    frequency:   14.8266649569
  - # 19
    frequency:   16.2213138129
  - # 20
    frequency:   34.1385069309
  - # 21
    frequency:   39.7003945288

- q-position: [    0.0858586,    0.0000000,    0.0000000 ]
  distance:    0.0292692
  band:
  - # 1
    frequency:   -5.1317980914
  - # 2
    frequency:   -4.7531333759
  - # 3
    frequency:    0.4163958777
  - # 4
    frequency:    0.9766570108
  - # 5
    frequency:    1.3658444464
  - # 6
    frequency:    1.5909355614
  - # 7
    frequency:    2.1423207179
  - # 8
    frequency:    3.8173103504
  - # 9
    frequency:    4.0878978247
  - # 10
    frequency:    4.5200096927
  - # 11
    frequency:    4.5653898161
  - # 12
    frequency:    5.3116039875
  - # 13
    frequency:    8.1146135361
  - # 14
    frequency:    8.6436194296
  - # 15
    frequency:    9.9063708624
  - # 16
    frequency:   10.2019199956
  - # 17
    frequency:   14.7550192652
  - # 18
    frequency:   14.8423429665
  - # 19
    frequency:   16.2185668226
  - # 20
    frequency:   34.1324705803
  - # 21
    frequency:   39.6781470915

- q-position: [    0.0909091,    0.0000000,    0.0000000 ]
  distance:    0.0309909
  band:
  - # 1
    frequency:   -5.1379640828
  - # 2
    frequency:   -4.7160905795
  - # 3
    frequency:    0.4608653627
  - # 4
    frequency:    1.0049118030
  - # 5
    frequency:    1.3877751779
  - # 6
    frequency:    1.6542006814
  - # 7
    frequency:    2.2362771388
  - # 8
    frequency:    3.8301126908
  - # 9
    frequency:    4.1273445996
  - # 10
    frequency:    4.5215298638
  - # 11
    frequency:    4.5702565475
  - # 12
    frequency:    5.3247792259
  - # 13
    frequency:    8.1000875065
  - # 14
    frequency:    8.6270893947
  - # 15
    frequency:    9.9043231271
  - # 16
    frequency:   10.2267367027
  - # 17
    frequency:   14.7607116186
  - # 18
    frequency:   14.8588766838
  - # 19
    frequency:   16.2155844079
  - # 20
    frequency:   34.1261371122
  - # 21
    frequency:   39.6548097303

- q-position: [    0.0959596,    0.0000000,    0.0000000 ]
  distance:    0.0327126
  band:
  - # 1
    frequency:   -5.1443670662
  - # 2
    frequency:   -4.6773544066
  - # 3
    frequency:    0.5067746298
  - # 4
    frequency:    1.0245675002
  - # 5
    frequency:    1.4168116147
  - # 6
    frequency:    1.7150734605
  - # 7
    frequency:    2.3323326422
  - # 8
    frequency:    3.8433348340
  - # 9
    frequency:    4.1672403809
  - # 10
    frequency:    4.5240318839
  - # 11
    frequency:    4.5754454775
  - # 12
    frequency:    5.3387679345
  - # 13
    frequency:    8.0852666599
  - # 14
    frequency:    8.6106359235
  - # 15
    frequency:    9.9023212699
  - # 16
    frequency:   10.2518230218
  - # 17
    frequency:   14.7665644455
  - # 18
    frequency:   14.8762496660
  - # 19
    frequency:   16.2123590405
  - # 20
    frequency:   34.1195178791
  - # 21
    frequency:   39.6304253485

- q-position: [    0.1010101,    0.0000000,    0.0000000 ]
  distance:    0.0344343
  band:
  - # 1
    frequency:   -5.1509857602
  - # 2
    frequency:   -4.6369665943
  - # 3
    frequency:    0.5540096024
  - # 4
    frequency:    1.0358405960
  - # 5
    frequency:    1.4526262210
  - # 6
    frequency:    1.7739939158
  - # 7
    frequency:    2.4297289173
  - # 8
    frequency:    3.8569277682
  - # 9
    frequency:    4.2071469516
  - # 10
    frequency:    4.5278809297
  - # 11
    frequency:    4.5809663852
  - # 12
    frequency:    5.3535850176
  - # 13
    frequency:    8.0702371782
  - # 14
    frequency:    8.5942689936
  - # 15
    frequency:    9.9003897035
  - # 16
    frequency:   10.2771349206
  - # 17
    frequency:   14.7725522041
  - # 18
    frequency:   14.8944443406
  - # 19
    frequency:   16.2088840460
  - # 20
    frequency:   34.1126246687
  - # 21
    frequency:   39.6050385496

- q-position: [    0.1060606,    0.0000000,    0.0000000 ]
  distance:    0.0361561
  band:
  - # 1
    frequency:   -5.1577974690
  - # 2
    frequency:   -4.5949647154
  - # 3
    frequency:    0.6024600312
  - # 4
    frequency:    1.0396361267
  - # 5
    frequency:    1.4941946323
  - # 6
    frequency:    1.8313039807
  - # 7
    frequency:    2.5278074641
  - # 8
    frequency:    3.8708406436
  - # 9
    frequency:    4.2464867588
  - # 10
    frequency:    4.5335905502
  - # 11
    frequency:    4.5868300779
  - # 12
    frequency:    5.3692479726
  - # 13
    frequency:    8.0550834307
  - # 14
    frequency:    8.5779881238
  - # 15
    frequency:    9.8985533944
  - # 16
    frequency:   10.3026401023
  - # 17
    frequency:   14.7786485190
  - # 18
    frequency:   14.9134418825
  - # 19
    frequency:   16.2051538104
  - # 20
    frequency:   34.1054696713
  - # 21
    frequency:   39.5786955201

- q-position: [    0.1111111,    0.0000000,    0.0000000 ]
  distance:    0.0378778
  band:
  - # 1
    frequency:   -5.1647781283
  - # 2
    frequency:   -4.5513817022
  - # 3
    frequency:    0.6520194345
  - # 4
    frequency:    1.0371147916
  - # 5
    frequency:    1.5402273084
  - # 6
    frequency:    1.8872577486
  - # 7
    frequency:    2.6259985518
  - # 8
    frequency:    3.8850209261
  - # 9
    frequency:    4.2844896772
  - # 10
    frequency:    4.5418761913
  - # 11
    frequency:    4.5930483951
  - # 12
    frequency:    5.3857772748
  - # 13
    frequency:    8.0398864161
  - # 14
    frequency:    8.5617846161
  - # 15
    frequency:    9.8968377390
  - # 16
    frequency:   10.3283170822
  - # 17
    frequency:   14.7848262742
  - # 18
    frequency:   14.9332220644
  - # 19
    frequency:   16.2011640020
  - # 20
    frequency:   34.0980654467
  - # 21
    frequency:   39.5514439077

- q-position: [    0.1161616,    0.0000000,    0.0000000 ]
  distance:    0.0395995
  band:
  - # 1
    frequency:   -5.1719023669
  - # 2
    frequency:   -4.5062454698
  - # 3
    frequency:    0.7025849405
  - # 4
    frequency:    1.0293427234
  - # 5
    frequency:    1.5895181701
  - # 6
    frequency:    1.9420373259
  - # 7
    frequency:    2.7238046669
  - # 8
    frequency:    3.8994145755
  - # 9
    frequency:    4.3201630169
  - # 10
    frequency:    4.5536853774
  - # 11
    frequency:    4.5996341845
  - # 12
    frequency:    5.4031967736
  - # 13
    frequency:    8.0247223813
  - # 14
    frequency:    8.5456436385
  - # 15
    frequency:    9.8952684339
  - # 16
    frequency:   10.3541542862
  - # 17
    frequency:   14.7910577101
  - # 18
    frequency:   14.9537630740
  - # 19
    frequency:   16.1969118089
  - # 20
    frequency:   34.0904248898
  - # 21
    frequency:   39.5233326961

- q-position: [    0.1212121,    0.0000000,    0.0000000 ]
  distance:    0.0413212
  band:
  - # 1
    frequency:   -5.1791435860
  - # 2
    frequency:   -4.4595786424
  - # 3
    frequency:    0.7540570425
  - # 4
    frequency:    1.0171426358
  - # 5
    frequency:    1.6410913612
  - # 6
    frequency:    1.9957688037
  - # 7
    frequency:    2.8207839429
  - # 8
    frequency:    3.9139662520
  - # 9
    frequency:    4.3523693920
  - # 10
    frequency:    4.5701199690
  - # 11
    frequency:    4.6066012457
  - # 12
    frequency:    5.4215340798
  - # 13
    frequency:    8.0096616512
  - # 14
    frequency:    8.5295461089
  - # 15
    frequency:    9.8938713428
  - # 16
    frequency:   10.3801491761
  - # 17
    frequency:   14.7973145255
  - # 18
    frequency:   14.9750412973
  - # 19
    frequency:   16.1923961983
  - # 20
    frequency:   34.0825611953
  - # 21
    frequency:   39.4944120751

- q-position: [    0.1262626,    0.0000000,    0.0000000 ]
  distance:    0.0430429
  band:
  - # 1
    frequency:   -5.1864740537
  - # 2
    frequency:   -4.4113983819
  - # 3
    frequency:    0.8063392827
  - # 4
    frequency:    1.0010821238
  - # 5
    frequency:    1.6942101796
  - # 6
    frequency:    2.0485360792
  - # 7
    frequency:    2.9165358415
  - # 8
    frequency:    3.9286195562
  - # 9
    frequency:    4.3801240142
  - # 10
    frequency:    4.5921389703
  - # 11
    frequency:    4.6139642344
  - # 12
    frequency:    5.4408209213
  - # 13
    frequency:    7.9947676865
  - # 14
    frequency:    8.5134703608
  - # 15
    frequency:    9.8926723601
  - # 16
    frequency:   10.4063074031
  - # 17
    frequency:   14.8035679836
  - # 18
    frequency:   14.9970310596
  - # 19
    frequency:   16.1876181996
  - # 20
    frequency:   34.0744878228
  - # 21
    frequency:   39.4647333090

- q-position: [    0.1313131,    0.0000000,    0.0000000 ]
  distance:    0.0447646
  band:
  - # 1
    frequency:   -5.1938650160
  - # 2
    frequency:   -4.3617163134
  - # 3
    frequency:    0.8593378708
  - # 4
    frequency:    0.9815138473
  - # 5
    frequency:    1.7483331790
  - # 6
    frequency:    2.1003919780
  - # 7
    frequency:    3.0106896325
  - # 8
    frequency:    3.9433173074
  - # 9
    frequency:    4.4030526511
  - # 10
    frequency:    4.6201006866
  - # 11
    frequency:    4.6217385227
  - # 12
    frequency:    5.4610934294
  - # 13
    frequency:    7.9800963668
  - # 14
    frequency:    8.4973935961
  - # 15
    frequency:    9.8916972718
  - # 16
    frequency:   10.4326419872
  - # 17
    frequency:   14.8097890212
  - # 18
    frequency:   15.0197043220
  - # 19
    frequency:   16.1825812200
  - # 20
    frequency:   34.0662184598
  - # 21
    frequency:   39.4343486014

- q-position: [    0.1363636,    0.0000000,    0.0000000 ]
  distance:    0.0464864
  band:
  - # 1
    frequency:   -5.2012868219
  - # 2
    frequency:   -4.3105385392
  - # 3
    frequency:    0.9129612488
  - # 4
    frequency:    0.9586210850
  - # 5
    frequency:    1.8030635687
  - # 6
    frequency:    2.1513668789
  - # 7
    frequency:    3.1028954848
  - # 8
    frequency:    3.9580018657
  - # 9
    frequency:    4.4216270044
  - # 10
    frequency:    4.6299400091
  - # 11
    frequency:    4.6535275113
  - # 12
    frequency:    5.4823923068
  - # 13
    frequency:    7.9656954849
  - # 14
    frequency:    8.4812931367
  - # 15
    frequency:    9.8909716151
  - # 16
    frequency:   10.4591725192
  - # 17
    frequency:   14.8159483619
  - # 18
    frequency:   15.0430303228
  - # 19
    frequency:   16.1772913986
  - # 20
    frequency:   34.0577669861
  - # 21
    frequency:   39.4033109575

- q-position: [    0.1414141,    0.0000000,    0.0000000 ]
  distance:    0.0482081
  band:
  - # 1
    frequency:   -5.2087090631
  - # 2
    frequency:   -4.2578657267
  - # 3
    frequency:    0.9324523739
  - # 4
    frequency:    0.9671196091
  - # 5
    frequency:    1.8581075952
  - # 6
    frequency:    2.2014752872
  - # 7
    frequency:    3.1928177658
  - # 8
    frequency:    3.9726154980
  - # 9
    frequency:    4.4369106398
  - # 10
    frequency:    4.6385848743
  - # 11
    frequency:    4.6913602301
  - # 12
    frequency:    5.5047628101
  - # 13
    frequency:    7.9516044244
  - # 14
    frequency:    8.4651475022
  - # 15
    frequency:    9.8905205378
  - # 16
    frequency:   10.4859243821
  - # 17
    frequency:   14.8220166313
  - # 18
    frequency:   15.0669751576
  - # 19
    frequency:   16.1717580090
  - # 20
    frequency:   34.0491474369
  - # 21
    frequency:   39.3716740450

- q-position: [    0.1464646,    0.0000000,    0.0000000 ]
  distance:    0.0499298
  band:
  - # 1
    frequency:   -5.2161007250
  - # 2
    frequency:   -4.2036932563
  - # 3
    frequency:    0.9029421293
  - # 4
    frequency:    1.0217243710
  - # 5
    frequency:    1.9132440842
  - # 6
    frequency:    2.2507208216
  - # 7
    frequency:    3.2801301853
  - # 8
    frequency:    3.9871007928
  - # 9
    frequency:    4.4501017147
  - # 10
    frequency:    4.6476892827
  - # 11
    frequency:    4.7324155739
  - # 12
    frequency:    5.5282544637
  - # 13
    frequency:    7.9378539942
  - # 14
    frequency:    8.4489373415
  - # 15
    frequency:    9.8903686584
  - # 16
    frequency:   10.5129279880
  - # 17
    frequency:   14.8279644749
  - # 18
    frequency:   15.0915012846
  - # 19
    frequency:   16.1659939235
  - # 20
    frequency:   34.0403739660
  - # 21
    frequency:   39.3394920533

- q-position: [    0.1515152,    0.0000000,    0.0000000 ]
  distance:    0.0516515
  band:
  - # 1
    frequency:   -5.2234303499
  - # 2
    frequency:   -4.1480114096
  - # 3
    frequency:    0.8699176950
  - # 4
    frequency:    1.0766876221
  - # 5
    frequency:    1.9683031692
  - # 6
    frequency:    2.2991000167
  - # 7
    frequency:    3.3645125863
  - # 8
    frequency:    4.0014011199
  - # 9
    frequency:    4.4622477665
  - # 10
    frequency:    4.6572690290
  - # 11
    frequency:    4.7756716545
  - # 12
    frequency:    5.5529204017
  - # 13
    frequency:    7.9244663845
  - # 14
    frequency:    8.4326462459
  - # 15
    frequency:    9.8905399279
  - # 16
    frequency:   10.5402180285
  - # 17
    frequency:   14.8337626771
  - # 18
    frequency:   15.1165669424
  - # 19
    frequency:   16.1600161541
  - # 20
    frequency:   34.0314608093
  - # 21
    frequency:   39.3068195516