nqpoint: 300    
npath: 3      
segment_nqpoint:
- 100
- 100
- 100
labels:
- [ 'G', 'M' ]
- [ 'M', 'K' ]
- [ 'K', 'G' ]
reciprocal_lattice:
- [   0.29522802,   0.17044997,   0.00000000 ] # a*
- [   0.00000000,   0.34089995,   0.00000000 ] # b*
- [   0.00000000,   0.00000000,   0.03778091 ] # c*
natom: 7      
lattice:
- [     3.387212407555127,     0.000000000000000,     0.000000000000000 ] # a
- [    -1.693606203777563,     2.933411992953014,     0.000000000000000 ] # b
- [     0.000000000000000,     0.000000000000000,    26.468394804862399 ] # c
points:
- symbol: C # 1
  coordinates: [  0.000000000000000,  0.000000000000000,  0.515704921183686 ]
  mass: 12.010700
- symbol: N # 2
  coordinates: [  0.333332985432214,  0.666666983183674,  0.610110348078992 ]
  mass: 14.006700
- symbol: O # 3
  coordinates: [  0.333332985432214,  0.666666983183674,  0.659971824269954 ]
  mass: 15.999400
- symbol: O # 4
  coordinates: [  0.666666984744047,  0.333332985985145,  0.340028175730046 ]
  mass: 15.999400
- symbol: P # 5
  coordinates: [  0.666666984744047,  0.333332985985145,  0.396434619592236 ]
  mass: 30.973762
- symbol: Zr # 6
  coordinates: [  0.333332985432214,  0.666666983183674,  0.471354469826037 ]
  mass: 91.224000
- symbol: Zr # 7
  coordinates: [  0.666666984744047,  0.333332985985145,  0.570586778792008 ]
  mass: 91.224000

phonon:
- q-position: [    0.0000000,    0.0000000,    0.0000000 ]
  distance:    0.0000000
  band:
  - # 1
    frequency:   -5.2846730048
  - # 2
    frequency:   -5.2846730048
  - # 3
    frequency:   -0.0000014273
  - # 4
    frequency:    0.0000002135
  - # 5
    frequency:    0.0000013552
  - # 6
    frequency:    0.9182722130
  - # 7
    frequency:    0.9182722130
  - # 8
    frequency:    3.7776434398
  - # 9
    frequency:    3.7776434398
  - # 10
    frequency:    4.5957410658
  - # 11
    frequency:    4.5957410658
  - # 12
    frequency:    5.1596365830
  - # 13
    frequency:    8.2056509119
  - # 14
    frequency:    8.8678976235
  - # 15
    frequency:    9.8143207043
  - # 16
    frequency:    9.8143207043
  - # 17
    frequency:   14.7573736845
  - # 18
    frequency:   14.7573736845
  - # 19
    frequency:   16.2457857925
  - # 20
    frequency:   34.1923708156
  - # 21
    frequency:   39.9464148500

- q-position: [    0.0050505,    0.0000000,    0.0000000 ]
  distance:    0.0017217
  band:
  - # 1
    frequency:   -5.2843091753
  - # 2
    frequency:   -5.2833776094
  - # 3
    frequency:   -0.0982227258
  - # 4
    frequency:    0.0605425270
  - # 5
    frequency:    0.1400525808
  - # 6
    frequency:    0.9188942353
  - # 7
    frequency:    0.9250330311
  - # 8
    frequency:    3.7779979411
  - # 9
    frequency:    3.7792246660
  - # 10
    frequency:    4.5954248655
  - # 11
    frequency:    4.5958114748
  - # 12
    frequency:    5.1600903413
  - # 13
    frequency:    8.2052070363
  - # 14
    frequency:    8.8666826634
  - # 15
    frequency:    9.8146048504
  - # 16
    frequency:    9.8160829302
  - # 17
    frequency:   14.7576348982
  - # 18
    frequency:   14.7579131720
  - # 19
    frequency:   16.2457143167
  - # 20
    frequency:   34.1921602388
  - # 21
    frequency:   39.9455300485

- q-position: [    0.0101010,    0.0000000,    0.0000000 ]
  distance:    0.0034434
  band:
  - # 1
    frequency:   -5.2832212446
  - # 2
    frequency:   -5.2794937874
  - # 3
    frequency:   -0.1174093878
  - # 4
    frequency:    0.1208242415
  - # 5
    frequency:    0.2313429135
  - # 6
    frequency:    0.9207843501
  - # 7
    frequency:    0.9450765853
  - # 8
    frequency:    3.7790597252
  - # 9
    frequency:    3.7839584397
  - # 10
    frequency:    4.5944810066
  - # 11
    frequency:    4.5960236467
  - # 12
    frequency:    5.1614493053
  - # 13
    frequency:    8.2038756671
  - # 14
    frequency:    8.8630743293
  - # 15
    frequency:    9.8154553434
  - # 16
    frequency:    9.8213324814
  - # 17
    frequency:   14.7584171954
  - # 18
    frequency:   14.7595306148
  - # 19
    frequency:   16.2454996721
  - # 20
    frequency:   34.1915289623
  - # 21
    frequency:   39.9428780710

- q-position: [    0.0151515,    0.0000000,    0.0000000 ]
  distance:    0.0051652
  band:
  - # 1
    frequency:   -5.2814198554
  - # 2
    frequency:   -5.2730286168
  - # 3
    frequency:   -0.1224473151
  - # 4
    frequency:    0.1805685202
  - # 5
    frequency:    0.3223031885
  - # 6
    frequency:    0.9240169864
  - # 7
    frequency:    0.9777428750
  - # 8
    frequency:    3.7808236482
  - # 9
    frequency:    3.7918152472
  - # 10
    frequency:    4.5929236137
  - # 11
    frequency:    4.5963804063
  - # 12
    frequency:    5.1637066662
  - # 13
    frequency:    8.2016576769
  - # 14
    frequency:    8.8571786699
  - # 15
    frequency:    9.8168663625
  - # 16
    frequency:    9.8299614582
  - # 17
    frequency:   14.7597165521
  - # 18
    frequency:   14.7622229637
  - # 19
    frequency:   16.2451412071
  - # 20
    frequency:   34.1904783454
  - # 21
    frequency:   39.9384661869

- q-position: [    0.0202020,    0.0000000,    0.0000000 ]
  distance:    0.0068869
  band:
  - # 1
    frequency:   -5.2789226424
  - # 2
    frequency:   -5.2639938449
  - # 3
    frequency:   -0.1189879563
  - # 4
    frequency:    0.2394660670
  - # 5
    frequency:    0.4133488833
  - # 6
    frequency:    0.9287238141
  - # 7
    frequency:    1.0220845844
  - # 8
    frequency:    3.7832811907
  - # 9
    frequency:    3.8027465572
  - # 10
    frequency:    4.5907759039
  - # 11
    frequency:    4.5968864295
  - # 12
    frequency:    5.1668514779
  - # 13
    frequency:    8.1985548507
  - # 14
    frequency:    8.8491612284
  - # 15
    frequency:    9.8188282560
  - # 16
    frequency:    9.8418008704
  - # 17
    frequency:   14.7615262895
  - # 18
    frequency:   14.7659851711
  - # 19
    frequency:   16.2446378339
  - # 20
    frequency:   34.1890106486
  - # 21
    frequency:   39.9323064735

- q-position: [    0.0252525,    0.0000000,    0.0000000 ]
  distance:    0.0086086
  band:
  - # 1
    frequency:   -5.2757540775
  - # 2
    frequency:   -5.2524058121
  - # 3
    frequency:   -0.1065362371
  - # 4
    frequency:    0.2971562751
  - # 5
    frequency:    0.5035087751
  - # 6
    frequency:    0.9351050288
  - # 7
    frequency:    1.0770037744
  - # 8
    frequency:    3.7864205369
  - # 9
    frequency:    3.8166857606
  - # 10
    frequency:    4.5880697442
  - # 11
    frequency:    4.5975481946
  - # 12
    frequency:    5.1708692217
  - # 13
    frequency:    8.1945703666
  - # 14
    frequency:    8.8392326116
  - # 15
    frequency:    9.8213276170
  - # 16
    frequency:    9.8566345411
  - # 17
    frequency:   14.7638371139
  - # 18
    frequency:   14.7708102415
  - # 19
    frequency:   16.2439880272
  - # 20
    frequency:   34.1871290243
  - # 21
    frequency:   39.9244157583

- q-position: [    0.0303030,    0.0000000,    0.0000000 ]
  distance:    0.0103303
  band:
  - # 1
    frequency:   -5.2719452557
  - # 2
    frequency:   -5.2382853446
  - # 3
    frequency:   -0.0797031662
  - # 4
    frequency:    0.3532070238
  - # 5
    frequency:    0.5920077729
  - # 6
    frequency:    0.9434441661
  - # 7
    frequency:    1.1413411823
  - # 8
    frequency:    3.7902266848
  - # 9
    frequency:    3.8335493967
  - # 10
    frequency:    4.5848451151
  - # 11
    frequency:    4.5983739150
  - # 12
    frequency:    5.1757425314
  - # 13
    frequency:    8.1897094391
  - # 14
    frequency:    8.8276321782
  - # 15
    frequency:    9.8243473881
  - # 16
    frequency:    9.8742147149
  - # 17
    frequency:   14.7666371740
  - # 18
    frequency:   14.7766893007
  - # 19
    frequency:   16.2431898215
  - # 20
    frequency:   34.1848375062
  - # 21
    frequency:   39.9148155398

- q-position: [    0.0353535,    0.0000000,    0.0000000 ]
  distance:    0.0120520
  band:
  - # 1
    frequency:   -5.2675336224
  - # 2
    frequency:   -5.2216576123
  - # 3
    frequency:    0.0334638381
  - # 4
    frequency:    0.4070952927
  - # 5
    frequency:    0.6784031349
  - # 6
    frequency:    0.9541235451
  - # 7
    frequency:    1.2139167952
  - # 8
    frequency:    3.7946815850
  - # 9
    frequency:    3.8532385807
  - # 10
    frequency:    4.5811495510
  - # 11
    frequency:    4.5993734533
  - # 12
    frequency:    5.1814520215
  - # 13
    frequency:    8.1839800923
  - # 14
    frequency:    8.8146121890
  - # 15
    frequency:    9.8278669970
  - # 16
    frequency:    9.8942770654
  - # 17
    frequency:   14.7699121320
  - # 18
    frequency:   14.7836116825
  - # 19
    frequency:   16.2422408094
  - # 20
    frequency:   34.1821409933
  - # 21
    frequency:   39.9035318850

- q-position: [    0.0404040,    0.0000000,    0.0000000 ]
  distance:    0.0137737
  band:
  - # 1
    frequency:   -5.2625626432
  - # 2
    frequency:   -5.2025519515
  - # 3
    frequency:    0.1065243170
  - # 4
    frequency:    0.4581952168
  - # 5
    frequency:    0.7625397779
  - # 6
    frequency:    0.9676333309
  - # 7
    frequency:    1.2935496790
  - # 8
    frequency:    3.7997643077
  - # 9
    frequency:    3.8756405311
  - # 10
    frequency:    4.5770376407
  - # 11
    frequency:    4.6005582163
  - # 12
    frequency:    5.1879771652
  - # 13
    frequency:    8.1773940196
  - # 14
    frequency:    8.8004240676
  - # 15
    frequency:    9.8318625225
  - # 16
    frequency:    9.9165534994
  - # 17
    frequency:   14.7736452500
  - # 18
    frequency:   14.7915650306
  - # 19
    frequency:   16.2411381405
  - # 20
    frequency:   34.1790452331
  - # 21
    frequency:   39.8905953062

- q-position: [    0.0454545,    0.0000000,    0.0000000 ]
  distance:    0.0154955
  band:
  - # 1
    frequency:   -5.2570814206
  - # 2
    frequency:   -5.1810016484
  - # 3
    frequency:    0.1567966620
  - # 4
    frequency:    0.5057867071
  - # 5
    frequency:    0.8444758554
  - # 6
    frequency:    0.9845608012
  - # 7
    frequency:    1.3790822297
  - # 8
    frequency:    3.8054512341
  - # 9
    frequency:    3.9006300770
  - # 10
    frequency:    4.5725706775
  - # 11
    frequency:    4.6019410333
  - # 12
    frequency:    5.1952971732
  - # 13
    frequency:    8.1699674742
  - # 14
    frequency:    8.7853076007
  - # 15
    frequency:    9.8363068894
  - # 16
    frequency:    9.9407819940
  - # 17
    frequency:   14.7778174900
  - # 18
    frequency:   14.8005354131
  - # 19
    frequency:   16.2398785213
  - # 20
    frequency:   34.1755567996
  - # 21
    frequency:   39.8760406176

- q-position: [    0.0505051,    0.0000000,    0.0000000 ]
  distance:    0.0172172
  band:
  - # 1
    frequency:   -5.2511442590
  - # 2
    frequency:   -5.1570436833
  - # 3
    frequency:    0.2026402200
  - # 4
    frequency:    0.5491034552
  - # 5
    frequency:    0.9244011293
  - # 6
    frequency:    1.0055407807
  - # 7
    frequency:    1.4694143820
  - # 8
    frequency:    3.8117162714
  - # 9
    frequency:    3.9280710085
  - # 10
    frequency:    4.5678165605
  - # 11
    frequency:    4.6035360167
  - # 12
    frequency:    5.2033918338
  - # 13
    frequency:    8.1617221254
  - # 14
    frequency:    8.7694832152
  - # 15
    frequency:    9.8411700951
  - # 16
    frequency:    9.9667133966
  - # 17
    frequency:   14.7824076258
  - # 18
    frequency:   14.8105074474
  - # 19
    frequency:   16.2384582185
  - # 20
    frequency:   34.1716830696
  - # 21
    frequency:   39.8599067707

- q-position: [    0.0555556,    0.0000000,    0.0000000 ]
  distance:    0.0189389
  band:
  - # 1
    frequency:   -5.2448101809
  - # 2
    frequency:   -5.1307184329
  - # 3
    frequency:    0.2469636921
  - # 4
    frequency:    0.5874343044
  - # 5
    frequency:    1.0025626086
  - # 6
    frequency:    1.0311530967
  - # 7
    frequency:    1.5635380586
  - # 8
    frequency:    3.8185310880
  - # 9
    frequency:    3.9578171013
  - # 10
    frequency:    4.5628500738
  - # 11
    frequency:    4.6053584072
  - # 12
    frequency:    5.2122422895
  - # 13
    frequency:    8.1526858099
  - # 14
    frequency:    8.7531470367
  - # 15
    frequency:    9.8464194640
  - # 16
    frequency:    9.9941155655
  - # 17
    frequency:   14.7873923678
  - # 18
    frequency:   14.8214644316
  - # 19
    frequency:   16.2368730656
  - # 20
    frequency:   34.1674321961
  - # 21
    frequency:   39.8422366724

- q-position: [    0.0606061,    0.0000000,    0.0000000 ]
  distance:    0.0206606
  band:
  - # 1
    frequency:   -5.2381424002
  - # 2
    frequency:   -5.1020693289
  - # 3
    frequency:    0.2907993610
  - # 4
    frequency:    0.6202641790
  - # 5
    frequency:    1.0617807338
  - # 6
    frequency:    1.0792090781
  - # 7
    frequency:    1.6605604206
  - # 8
    frequency:    3.8258653653
  - # 9
    frequency:    3.9897125988
  - # 10
    frequency:    4.5577537165
  - # 11
    frequency:    4.6074244046
  - # 12
    frequency:    5.2218317356
  - # 13
    frequency:    8.1428931065
  - # 14
    frequency:    8.7364682385
  - # 15
    frequency:    9.8520199311
  - # 16
    frequency:   10.0227754181
  - # 17
    frequency:   14.7927464973
  - # 18
    frequency:   14.8333884793
  - # 19
    frequency:   16.2351184742
  - # 20
    frequency:   34.1628130783
  - # 21
    frequency:   39.8230769841

- q-position: [    0.0656566,    0.0000000,    0.0000000 ]
  distance:    0.0223823
  band:
  - # 1
    frequency:   -5.2312077529
  - # 2
    frequency:   -5.0711424750
  - # 3
    frequency:    0.3346132508
  - # 4
    frequency:    0.6473971674
  - # 5
    frequency:    1.0974859931
  - # 6
    frequency:    1.1545580793
  - # 7
    frequency:    1.7597113679
  - # 8
    frequency:    3.8336870639
  - # 9
    frequency:    4.0235918383
  - # 10
    frequency:    4.5526193534
  - # 11
    frequency:    4.6097509852
  - # 12
    frequency:    5.2321460389
  - # 13
    frequency:    8.1323856705
  - # 14
    frequency:    8.7195881603
  - # 15
    frequency:    9.8579343533
  - # 16
    frequency:   10.0524994790
  - # 17
    frequency:   14.7984430106
  - # 18
    frequency:   14.8462606535
  - # 19
    frequency:   16.2331894523
  - # 20
    frequency:   34.1578353300
  - # 21
    frequency:   39.8024779050

- q-position: [    0.0707071,    0.0000000,    0.0000000 ]
  distance:    0.0241040
  band:
  - # 1
    frequency:   -5.2240760937
  - # 2
    frequency:   -5.0379862202
  - # 3
    frequency:    0.3786419085
  - # 4
    frequency:    0.6689895184
  - # 5
    frequency:    1.1379768112
  - # 6
    frequency:    1.2287817467
  - # 7
    frequency:    1.8603376462
  - # 8
    frequency:    3.8419626996
  - # 9
    frequency:    4.0592775291
  - # 10
    frequency:    4.5475511368
  - # 11
    frequency:    4.6123557084
  - # 12
    frequency:    5.2431742821
  - # 13
    frequency:    8.1212122784
  - # 14
    frequency:    8.7026207386
  - # 15
    frequency:    9.8641238466
  - # 16
    frequency:   10.0831134429
  - # 17
    frequency:   14.8044532707
  - # 18
    frequency:   14.8600610952
  - # 19
    frequency:   16.2310806310
  - # 20
    frequency:   34.1525092445
  - # 21
    frequency:   39.7804929399

- q-position: [    0.0757576,    0.0000000,    0.0000000 ]
  distance:    0.0258258
  band:
  - # 1
    frequency:   -5.2168196602
  - # 2
    frequency:   -5.0026506928
  - # 3
    frequency:    0.4230120156
  - # 4
    frequency:    0.6854703883
  - # 5
    frequency:    1.1826853329
  - # 6
    frequency:    1.3020050463
  - # 7
    frequency:    1.9618888503
  - # 8
    frequency:    3.8506576248
  - # 9
    frequency:    4.0965768495
  - # 10
    frequency:    4.5426704998
  - # 11
    frequency:    4.6152565151
  - # 12
    frequency:    5.2549092453
  - # 13
    frequency:    8.1094285570
  - # 14
    frequency:    8.6856538765
  - # 15
    frequency:    9.8705481467
  - # 16
    frequency:   10.1144611559
  - # 17
    frequency:   14.8107471660
  - # 18
    frequency:   14.8747691422
  - # 19
    frequency:   16.2287863010
  - # 20
    frequency:   34.1468457584
  - # 21
    frequency:   39.7571786528

- q-position: [    0.0808081,    0.0000000,    0.0000000 ]
  distance:    0.0275475
  band:
  - # 1
    frequency:   -5.2095124108
  - # 2
    frequency:   -4.9651872985
  - # 3
    frequency:    0.4677913767
  - # 4
    frequency:    0.6974011627
  - # 5
    frequency:    1.2309078471
  - # 6
    frequency:    1.3743105178
  - # 7
    frequency:    2.0639002549
  - # 8
    frequency:    3.8597363134
  - # 9
    frequency:    4.1352738477
  - # 10
    frequency:    4.5381247049
  - # 11
    frequency:    4.6184715190
  - # 12
    frequency:    5.2673478411
  - # 13
    frequency:    8.0970963981
  - # 14
    frequency:    8.6687514644
  - # 15
    frequency:    9.8771659927
  - # 16
    frequency:   10.1464033083
  - # 17
    frequency:   14.8172932744
  - # 18
    frequency:   14.8903634335
  - # 19
    frequency:   16.2263004622
  - # 20
    frequency:   34.1408564127
  - # 21
    frequency:   39.7325944087

- q-position: [    0.0858586,    0.0000000,    0.0000000 ]
  distance:    0.0292692
  band:
  - # 1
    frequency:   -5.2022293430
  - # 2
    frequency:   -4.9256481857
  - # 3
    frequency:    0.5130135392
  - # 4
    frequency:    0.7053458250
  - # 5
    frequency:    1.2819335531
  - # 6
    frequency:    1.4457454752
  - # 7
    frequency:    2.1659757568
  - # 8
    frequency:    3.8691626424
  - # 9
    frequency:    4.1751152687
  - # 10
    frequency:    4.5341018057
  - # 11
    frequency:    4.6220187962
  - # 12
    frequency:    5.2804915170
  - # 13
    frequency:    8.0842830854
  - # 14
    frequency:    8.6519558312
  - # 15
    frequency:    9.8839355280
  - # 16
    frequency:   10.1788160356
  - # 17
    frequency:   14.8240590312
  - # 18
    frequency:   14.9068219938
  - # 19
    frequency:   16.2236168878
  - # 20
    frequency:   34.1345533120
  - # 21
    frequency:   39.7068021043

- q-position: [    0.0909091,    0.0000000,    0.0000000 ]
  distance:    0.0309909
  band:
  - # 1
    frequency:   -5.1950457957
  - # 2
    frequency:   -4.8840856877
  - # 3
    frequency:    0.5586908799
  - # 4
    frequency:    0.7097908381
  - # 5
    frequency:    1.3351236195
  - # 6
    frequency:    1.5163294017
  - # 7
    frequency:    2.2677726118
  - # 8
    frequency:    3.8789001675
  - # 9
    frequency:    4.2157840990
  - # 10
    frequency:    4.5308577123
  - # 11
    frequency:    4.6259161733
  - # 12
    frequency:    5.2943466430
  - # 13
    frequency:    8.0710601873
  - # 14
    frequency:    8.6352904488
  - # 15
    frequency:    9.8908147182
  - # 16
    frequency:   10.2115895545
  - # 17
    frequency:   14.8310108996
  - # 18
    frequency:   14.9241222930
  - # 19
    frequency:   16.2207292062
  - # 20
    frequency:   34.1279490825
  - # 21
    frequency:   39.6798658891

- q-position: [    0.0959596,    0.0000000,    0.0000000 ]
  distance:    0.0327126
  band:
  - # 1
    frequency:   -5.1880367436
  - # 2
    frequency:   -4.8405517465
  - # 3
    frequency:    0.6048221295
  - # 4
    frequency:    0.7111132311
  - # 5
    frequency:    1.3899417658
  - # 6
    frequency:    1.5860605056
  - # 7
    frequency:    2.3689885669
  - # 8
    frequency:    3.8889123879
  - # 9
    frequency:    4.2568492574
  - # 10
    frequency:    4.5287669245
  - # 11
    frequency:    4.6301810205
  - # 12
    frequency:    5.3089248956
  - # 13
    frequency:    8.0575022852
  - # 14
    frequency:    8.6187627487
  - # 15
    frequency:    9.8977617796
  - # 16
    frequency:   10.2446269050
  - # 17
    frequency:   14.8381145435
  - # 18
    frequency:   14.9422412770
  - # 19
    frequency:   16.2176310036
  - # 20
    frequency:   34.1210568283
  - # 21
    frequency:   39.6518518795

- q-position: [    0.1010101,    0.0000000,    0.0000000 ]
  distance:    0.0344343
  band:
  - # 1
    frequency:   -5.1812760895
  - # 2
    frequency:   -4.7950973308
  - # 3
    frequency:    0.6513969872
  - # 4
    frequency:    0.7095788011
  - # 5
    frequency:    1.4459543530
  - # 6
    frequency:    1.6549211122
  - # 7
    frequency:    2.4693513909
  - # 8
    frequency:    3.8991629964
  - # 9
    frequency:    4.2976684490
  - # 10
    frequency:    4.5284199120
  - # 11
    frequency:    4.6348300507
  - # 12
    frequency:    5.3242436475
  - # 13
    frequency:    8.0436856135
  - # 14
    frequency:    8.6023669363
  - # 15
    frequency:    9.9047356157
  - # 16
    frequency:   10.2778428373
  - # 17
    frequency:   14.8453349994
  - # 18
    frequency:   14.9611553619
  - # 19
    frequency:   16.2143159504
  - # 20
    frequency:   34.1138900861
  - # 21
    frequency:   39.6228278670

- q-position: [    0.1060606,    0.0000000,    0.0000000 ]
  distance:    0.0361561
  band:
  - # 1
    frequency:   -5.1748359607
  - # 2
    frequency:   -4.7477718549
  - # 3
    frequency:    0.6983990920
  - # 4
    frequency:    0.7053535196
  - # 5
    frequency:    1.5028167577
  - # 6
    frequency:    1.7228819131
  - # 7
    frequency:    2.5686105443
  - # 8
    frequency:    3.9096161107
  - # 9
    frequency:    4.3372057370
  - # 10
    frequency:    4.5308055891
  - # 11
    frequency:    4.6398791298
  - # 12
    frequency:    5.3403263685
  - # 13
    frequency:    8.0296866881
  - # 14
    frequency:    8.5860867074
  - # 15
    frequency:    9.9116962566
  - # 16
    frequency:   10.3111628545
  - # 17
    frequency:   14.8526368487
  - # 18
    frequency:   14.9808403894
  - # 19
    frequency:   16.2107779546
  - # 20
    frequency:   34.1064627798
  - # 21
    frequency:   39.5928630221

- q-position: [    0.1111111,    0.0000000,    0.0000000 ]
  distance:    0.0378778
  band:
  - # 1
    frequency:   -5.1687860177
  - # 2
    frequency:   -4.6986226118
  - # 3
    frequency:    0.6985177692
  - # 4
    frequency:    0.7458079995
  - # 5
    frequency:    1.5602562068
  - # 6
    frequency:    1.7899052343
  - # 7
    frequency:    2.6665306539
  - # 8
    frequency:    3.9202364826
  - # 9
    frequency:    4.3737488399
  - # 10
    frequency:    4.5375938858
  - # 11
    frequency:    4.6453431015
  - # 12
    frequency:    5.3572030330
  - # 13
    frequency:    8.0155809903
  - # 14
    frequency:    8.5698977995
  - # 15
    frequency:    9.9186052956
  - # 16
    frequency:   10.3445224118
  - # 17
    frequency:   14.8599843867
  - # 18
    frequency:   15.0012715365
  - # 19
    frequency:   16.2070113470
  - # 20
    frequency:   34.0987891736
  - # 21
    frequency:   39.5620275960

- q-position: [    0.1161616,    0.0000000,    0.0000000 ]
  distance:    0.0395995
  band:
  - # 1
    frequency:   -5.1631927800
  - # 2
    frequency:   -4.6476942299
  - # 3
    frequency:    0.6890784165
  - # 4
    frequency:    0.7936005133
  - # 5
    frequency:    1.6180557874
  - # 6
    frequency:    1.8559475171
  - # 7
    frequency:    2.7628864696
  - # 8
    frequency:    3.9309896822
  - # 9
    frequency:    4.4047908115
  - # 10
    frequency:    4.5512537775
  - # 11
    frequency:    4.6512356282
  - # 12
    frequency:    5.3749105212
  - # 13
    frequency:    8.0014417558
  - # 14
    frequency:    8.5537703280
  - # 15
    frequency:    9.9254263192
  - # 16
    frequency:   10.3778662586
  - # 17
    frequency:   14.8673417901
  - # 18
    frequency:   15.0224231748
  - # 19
    frequency:   16.2030111025
  - # 20
    frequency:   34.0908838243
  - # 21
    frequency:   39.5303926222

- q-position: [    0.1212121,    0.0000000,    0.0000000 ]
  distance:    0.0413212
  band:
  - # 1
    frequency:   -5.1581189790
  - # 2
    frequency:   -4.5950281627
  - # 3
    frequency:    0.6769767162
  - # 4
    frequency:    0.8417515723
  - # 5
    frequency:    1.6760412053
  - # 6
    frequency:    1.9209611961
  - # 7
    frequency:    2.8574590291
  - # 8
    frequency:    3.9418422541
  - # 9
    frequency:    4.4280364053
  - # 10
    frequency:    4.5740464953
  - # 11
    frequency:    4.6575690534
  - # 12
    frequency:    5.3934929895
  - # 13
    frequency:    7.9873389026
  - # 14
    frequency:    8.5376708810
  - # 15
    frequency:    9.9321253237
  - # 16
    frequency:   10.4111479104
  - # 17
    frequency:   14.8746732803
  - # 18
    frequency:   15.0442686741
  - # 19
    frequency:   16.1987731016
  - # 20
    frequency:   34.0827615344
  - # 21
    frequency:   39.4980296192

- q-position: [    0.1262626,    0.0000000,    0.0000000 ]
  distance:    0.0430429
  band:
  - # 1
    frequency:   -5.1536229416
  - # 2
    frequency:   -4.5406622217
  - # 3
    frequency:    0.6620912471
  - # 4
    frequency:    0.8902348190
  - # 5
    frequency:    1.7340704258
  - # 6
    frequency:    1.9848961284
  - # 7
    frequency:    2.9500328123
  - # 8
    frequency:    3.9527618455
  - # 9
    frequency:    4.4435172855
  - # 10
    frequency:    4.6059097962
  - # 11
    frequency:    4.6643542856
  - # 12
    frequency:    5.4130021639
  - # 13
    frequency:    7.9733381133
  - # 14
    frequency:    8.5215643650
  - # 15
    frequency:    9.9386711142
  - # 16
    frequency:   10.4443292294
  - # 17
    frequency:   14.8819432814
  - # 18
    frequency:   15.0667801443
  - # 19
    frequency:   16.1942944405
  - # 20
    frequency:   34.0744373040
  - # 21
    frequency:   39.4650102962

- q-position: [    0.1313131,    0.0000000,    0.0000000 ]
  distance:    0.0447646
  band:
  - # 1
    frequency:   -5.1497580140
  - # 2
    frequency:   -4.4846301597
  - # 3
    frequency:    0.6442352010
  - # 4
    frequency:    0.9390229289
  - # 5
    frequency:    1.7920258006
  - # 6
    frequency:    2.0477007006
  - # 7
    frequency:    3.0403937269
  - # 8
    frequency:    3.9637173031
  - # 9
    frequency:    4.4535875799
  - # 10
    frequency:    4.6444618477
  - # 11
    frequency:    4.6716007054
  - # 12
    frequency:    5.4334974914
  - # 13
    frequency:    7.9595000703
  - # 14
    frequency:    8.5054156087
  - # 15
    frequency:    9.9450356786
  - # 16
    frequency:   10.4773800951
  - # 17
    frequency:   14.8891165748
  - # 18
    frequency:   15.0899281085
  - # 19
    frequency:   16.1895737951
  - # 20
    frequency:   34.0659262829
  - # 21
    frequency:   39.4314062638

- q-position: [    0.1363636,    0.0000000,    0.0000000 ]
  distance:    0.0464864
  band:
  - # 1
    frequency:   -5.1465720293
  - # 2
    frequency:   -4.4269613087
  - # 3
    frequency:    0.6231467293
  - # 4
    frequency:    0.9880877579
  - # 5
    frequency:    1.8498081720
  - # 6
    frequency:    2.1093227130
  - # 7
    frequency:    3.1283278220
  - # 8
    frequency:    3.9746787421
  - # 9
    frequency:    4.4607960101
  - # 10
    frequency:    4.6793160978
  - # 11
    frequency:    4.6871285489
  - # 12
    frequency:    5.4550460523
  - # 13
    frequency:    7.9458798310
  - # 14
    frequency:    8.4891907447
  - # 15
    frequency:    9.9511945339
  - # 16
    frequency:   10.5102781444
  - # 17
    frequency:   14.8961584465
  - # 18
    frequency:   15.1136811008
  - # 19
    frequency:   16.1846118495
  - # 20
    frequency:   34.0572437241
  - # 21
    frequency:   39.3972887516

- q-position: [    0.1414141,    0.0000000,    0.0000000 ]
  distance:    0.0482081
  band:
  - # 1
    frequency:   -5.1441068276
  - # 2
    frequency:   -4.3676802763
  - # 3
    frequency:    0.5984696416
  - # 4
    frequency:    1.0374003490
  - # 5
    frequency:    1.9073324903
  - # 6
    frequency:    2.1697101179
  - # 7
    frequency:    3.2136206872
  - # 8
    frequency:    3.9856175853
  - # 9
    frequency:    4.4668778444
  - # 10
    frequency:    4.6875066073
  - # 11
    frequency:    4.7321511094
  - # 12
    frequency:    5.4777221035
  - # 13
    frequency:    7.9325263213
  - # 14
    frequency:    8.4728583952
  - # 15
    frequency:    9.9571270372
  - # 16
    frequency:   10.5430085614
  - # 17
    frequency:   14.9030348294
  - # 18
    frequency:   15.1380051762
  - # 19
    frequency:   16.1794117992
  - # 20
    frequency:   34.0484049363
  - # 21
    frequency:   39.3627283337

- q-position: [    0.1464646,    0.0000000,    0.0000000 ]
  distance:    0.0499298
  band:
  - # 1
    frequency:   -5.1423978307
  - # 2
    frequency:   -4.3068067006
  - # 3
    frequency:    0.5697189477
  - # 4
    frequency:    1.0869308314
  - # 5
    frequency:    1.9645245684
  - # 6
    frequency:    2.2288116752
  - # 7
    frequency:    3.2960575680
  - # 8
    frequency:    3.9965065768
  - # 9
    frequency:    4.4728823598
  - # 10
    frequency:    4.6961767162
  - # 11
    frequency:    4.7784582452
  - # 12
    frequency:    5.5016060877
  - # 13
    frequency:    7.9194819181
  - # 14
    frequency:    8.4563906947
  - # 15
    frequency:    9.9628166579
  - # 16
    frequency:   10.5755638976
  - # 17
    frequency:   14.9097124389
  - # 18
    frequency:   15.1628633240
  - # 19
    frequency:   16.1739799445
  - # 20
    frequency:   34.0394252387
  - # 21
    frequency:   39.3277946640

- q-position: [    0.1515152,    0.0000000,    0.0000000 ]
  distance:    0.0516515
  band:
  - # 1
    frequency:   -5.1414736791
  - # 2
    frequency:   -4.2443550605
  - # 3
    frequency:    0.5362198079
  - # 4
    frequency:    1.1366482330
  - # 5
    frequency:    2.0213186873
  - # 6
    frequency:    2.2865775718
  - # 7
    frequency:    3.3754243113
  - # 8
    frequency:    4.0073197725
  - # 9
    frequency:    4.4794625919
  - # 10
    frequency:    4.7053292432
  - # 11
    frequency:    4.8253762242
  - # 12
    frequency:    5.5267829155
  - # 13
    frequency:    7.9067820940
  - # 14
    frequency:    8.4397641808
  - # 15
    frequency:    9.9682512068
  - # 16
    frequency:   10.6079439053
  - # 17
    frequency:   14.9161589015
  - # 18
    frequency:   15.1882147647
  - # 19
    frequency:   16.1683263911
  - # 20
    frequency:   34.0303199154
  - # 21
    frequency:   39.2925562237