nqpoint: 300    
npath: 3      
segment_nqpoint:
- 100
- 100
- 100
labels:
- [ 'G', 'M' ]
- [ 'M', 'K' ]
- [ 'K', 'G' ]
reciprocal_lattice:
- [   0.30166866,   0.17416848,   0.00000000 ] # a*
- [   0.00000000,   0.34833697,   0.00000000 ] # b*
- [   0.00000000,   0.00000000,   0.03738539 ] # c*
natom: 8      
lattice:
- [     3.314895205805541,     0.000000000000000,     0.000000000000000 ] # a
- [    -1.657447602902770,     2.870783459101963,     0.000000000000000 ] # b
- [     0.000000000000000,     0.000000000000000,    26.748418147795601 ] # c
points:
- symbol: C # 1
  coordinates: [  0.333332985432215,  0.666666983183674,  0.605625530941651 ]
  mass: 12.010700
- symbol: H # 2
  coordinates: [  0.666666984744047,  0.333332985985145,  0.336468495081520 ]
  mass: 1.007940
- symbol: Hf # 3
  coordinates: [  0.333332985432215,  0.666666983183674,  0.421694429378127 ]
  mass: 178.490000
- symbol: Hf # 4
  coordinates: [  0.666666984744047,  0.333332985985145,  0.508435900415542 ]
  mass: 178.490000
- symbol: N # 5
  coordinates: [  0.000000000000000,  0.000000000000000,  0.463831927512867 ]
  mass: 14.006700
- symbol: N # 6
  coordinates: [  0.333332985432215,  0.666666983183674,  0.558286269748771 ]
  mass: 14.006700
- symbol: O # 7
  coordinates: [  0.666666984744047,  0.333332985985145,  0.373646575881369 ]
  mass: 15.999400
- symbol: S # 8
  coordinates: [  0.333332985432215,  0.666666983183674,  0.663531504918480 ]
  mass: 32.065000

phonon:
- q-position: [    0.0000000,    0.0000000,    0.0000000 ]
  distance:    0.0000000
  band:
  - # 1
    frequency:   -1.3564202864
  - # 2
    frequency:   -1.3564202863
  - # 3
    frequency:   -0.0000156541
  - # 4
    frequency:    0.0000006305
  - # 5
    frequency:    0.0000111767
  - # 6
    frequency:    3.1375549133
  - # 7
    frequency:    3.1375549133
  - # 8
    frequency:    4.8806586152
  - # 9
    frequency:    7.0430662300
  - # 10
    frequency:    7.5525950140
  - # 11
    frequency:    7.5525950141
  - # 12
    frequency:    7.7141473509
  - # 13
    frequency:    7.7141473509
  - # 14
    frequency:   12.0949769678
  - # 15
    frequency:   13.2333315990
  - # 16
    frequency:   13.2333315991
  - # 17
    frequency:   14.4330930461
  - # 18
    frequency:   17.0511946589
  - # 19
    frequency:   17.0511946589
  - # 20
    frequency:   19.4368220304
  - # 21
    frequency:   19.4368220304
  - # 22
    frequency:   26.8536145748
  - # 23
    frequency:   54.7929128483
  - # 24
    frequency:  107.5316257650

- q-position: [    0.0050505,    0.0000000,    0.0000000 ]
  distance:    0.0017593
  band:
  - # 1
    frequency:   -1.3553814694
  - # 2
    frequency:   -1.3535060473
  - # 3
    frequency:    0.0013940101
  - # 4
    frequency:    0.0456176891
  - # 5
    frequency:    0.0865805513
  - # 6
    frequency:    3.1378505709
  - # 7
    frequency:    3.1380613281
  - # 8
    frequency:    4.8805899501
  - # 9
    frequency:    7.0425655161
  - # 10
    frequency:    7.5526187914
  - # 11
    frequency:    7.5528471898
  - # 12
    frequency:    7.7146542583
  - # 13
    frequency:    7.7146732966
  - # 14
    frequency:   12.0943956287
  - # 15
    frequency:   13.2332851887
  - # 16
    frequency:   13.2337205979
  - # 17
    frequency:   14.4331321061
  - # 18
    frequency:   17.0507589336
  - # 19
    frequency:   17.0508211453
  - # 20
    frequency:   19.4309990947
  - # 21
    frequency:   19.4352566469
  - # 22
    frequency:   26.8530341245
  - # 23
    frequency:   54.7919282864
  - # 24
    frequency:  107.5280705505

- q-position: [    0.0101010,    0.0000000,    0.0000000 ]
  distance:    0.0035186
  band:
  - # 1
    frequency:   -1.3522630486
  - # 2
    frequency:   -1.3447433896
  - # 3
    frequency:    0.0054683241
  - # 4
    frequency:    0.0912705200
  - # 5
    frequency:    0.1731952696
  - # 6
    frequency:    3.1387349774
  - # 7
    frequency:    3.1395772664
  - # 8
    frequency:    4.8803847833
  - # 9
    frequency:    7.0410643858
  - # 10
    frequency:    7.5526899638
  - # 11
    frequency:    7.5536005617
  - # 12
    frequency:    7.7161734104
  - # 13
    frequency:    7.7162514433
  - # 14
    frequency:   12.0926537556
  - # 15
    frequency:   13.2331466463
  - # 16
    frequency:   13.2348862075
  - # 17
    frequency:   14.4332482908
  - # 18
    frequency:   17.0494489566
  - # 19
    frequency:   17.0497007195
  - # 20
    frequency:   19.4135412358
  - # 21
    frequency:   19.4305646000
  - # 22
    frequency:   26.8512945640
  - # 23
    frequency:   54.7889773371
  - # 24
    frequency:  107.5174135046

- q-position: [    0.0151515,    0.0000000,    0.0000000 ]
  distance:    0.0052778
  band:
  - # 1
    frequency:   -1.3470590145
  - # 2
    frequency:   -1.3300712560
  - # 3
    frequency:    0.0122866811
  - # 4
    frequency:    0.1369929101
  - # 5
    frequency:    0.2598768962
  - # 6
    frequency:    3.1402004907
  - # 7
    frequency:    3.1420928571
  - # 8
    frequency:    4.8800456042
  - # 9
    frequency:    7.0385658627
  - # 10
    frequency:    7.5528080706
  - # 11
    frequency:    7.5548458082
  - # 12
    frequency:    7.7187000833
  - # 13
    frequency:    7.7188825854
  - # 14
    frequency:   12.0897577951
  - # 15
    frequency:   13.2329180300
  - # 16
    frequency:   13.2368242515
  - # 17
    frequency:   14.4334386313
  - # 18
    frequency:   17.0472560606
  - # 19
    frequency:   17.0478337247
  - # 20
    frequency:   19.3844814703
  - # 21
    frequency:   19.4227581978
  - # 22
    frequency:   26.8484012576
  - # 23
    frequency:   54.7840682010
  - # 24
    frequency:  107.4996804113

- q-position: [    0.0202020,    0.0000000,    0.0000000 ]
  distance:    0.0070371
  band:
  - # 1
    frequency:   -1.3397590175
  - # 2
    frequency:   -1.3093836408
  - # 3
    frequency:    0.0218958987
  - # 4
    frequency:    0.1828178308
  - # 5
    frequency:    0.3466552856
  - # 6
    frequency:    3.1422345629
  - # 7
    frequency:    3.1455918069
  - # 8
    frequency:    4.8795765760
  - # 9
    frequency:    7.0350749546
  - # 10
    frequency:    7.5529724011
  - # 11
    frequency:    7.5565678662
  - # 12
    frequency:    7.7222263613
  - # 13
    frequency:    7.7225676102
  - # 14
    frequency:   12.0857185372
  - # 15
    frequency:   13.2326027418
  - # 16
    frequency:   13.2395277189
  - # 17
    frequency:   14.4336982377
  - # 18
    frequency:   17.0441648906
  - # 19
    frequency:   17.0452207281
  - # 20
    frequency:   19.3438754307
  - # 21
    frequency:   19.4118579424
  - # 22
    frequency:   26.8443631231
  - # 23
    frequency:   54.7772145153
  - # 24
    frequency:  107.4749142139

- q-position: [    0.0252525,    0.0000000,    0.0000000 ]
  distance:    0.0087964
  band:
  - # 1
    frequency:   -1.3303478493
  - # 2
    frequency:   -1.2825227844
  - # 3
    frequency:    0.0343696502
  - # 4
    frequency:    0.2287761038
  - # 5
    frequency:    0.4335558626
  - # 6
    frequency:    3.1448200160
  - # 7
    frequency:    3.1500516324
  - # 8
    frequency:    4.8789835551
  - # 9
    frequency:    7.0305986072
  - # 10
    frequency:    7.5531820701
  - # 11
    frequency:    7.5587466078
  - # 12
    frequency:    7.7267410850
  - # 13
    frequency:    7.7273068730
  - # 14
    frequency:   12.0805511808
  - # 15
    frequency:   13.2322054870
  - # 16
    frequency:   13.2429866900
  - # 17
    frequency:   14.4340203845
  - # 18
    frequency:   17.0401519293
  - # 19
    frequency:   17.0418625123
  - # 20
    frequency:   19.2918023883
  - # 21
    frequency:   19.3978925136
  - # 22
    frequency:   26.8391925980
  - # 23
    frequency:   54.7684353093
  - # 24
    frequency:  107.4431749693

- q-position: [    0.0303030,    0.0000000,    0.0000000 ]
  distance:    0.0105557
  band:
  - # 1
    frequency:   -1.3188046867
  - # 2
    frequency:   -1.2492687416
  - # 3
    frequency:    0.0498191818
  - # 4
    frequency:    0.2748957172
  - # 5
    frequency:    0.5205979841
  - # 6
    frequency:    3.1479354162
  - # 7
    frequency:    3.1554439770
  - # 8
    frequency:    4.8782741178
  - # 9
    frequency:    7.0251456424
  - # 10
    frequency:    7.5534361065
  - # 11
    frequency:    7.5613577201
  - # 12
    frequency:    7.7322297956
  - # 13
    frequency:    7.7330993844
  - # 14
    frequency:   12.0742754198
  - # 15
    frequency:   13.2317322169
  - # 16
    frequency:   13.2471882355
  - # 17
    frequency:   14.4343966278
  - # 18
    frequency:   17.0351831899
  - # 19
    frequency:   17.0377600636
  - # 20
    frequency:   19.2283669379
  - # 21
    frequency:   19.3808987450
  - # 22
    frequency:   26.8329055923
  - # 23
    frequency:   54.7577549413
  - # 24
    frequency:  107.4045397816

- q-position: [    0.0353535,    0.0000000,    0.0000000 ]
  distance:    0.0123149
  band:
  - # 1
    frequency:   -1.3051020599
  - # 2
    frequency:   -1.2093244025
  - # 3
    frequency:    0.0684104154
  - # 4
    frequency:    0.3212011740
  - # 5
    frequency:    0.6077932093
  - # 6
    frequency:    3.1515555327
  - # 7
    frequency:    3.1617350033
  - # 8
    frequency:    4.8774575910
  - # 9
    frequency:    7.0187266847
  - # 10
    frequency:    7.5537335426
  - # 11
    frequency:    7.5643737248
  - # 12
    frequency:    7.7386746903
  - # 13
    frequency:    7.7399418702
  - # 14
    frequency:   12.0669155434
  - # 15
    frequency:   13.2311900574
  - # 16
    frequency:   13.2521162906
  - # 17
    frequency:   14.4348169509
  - # 18
    frequency:   17.0292107738
  - # 19
    frequency:   17.0329145534
  - # 20
    frequency:   19.1537016581
  - # 21
    frequency:   19.3609215954
  - # 22
    frequency:   26.8255214282
  - # 23
    frequency:   54.7452030178
  - # 24
    frequency:  107.3591027135

- q-position: [    0.0404040,    0.0000000,    0.0000000 ]
  distance:    0.0140742
  band:
  - # 1
    frequency:   -1.2892044977
  - # 2
    frequency:   -1.1622948895
  - # 3
    frequency:    0.0903919306
  - # 4
    frequency:    0.3677128823
  - # 5
    frequency:    0.6951435125
  - # 6
    frequency:    3.1556518682
  - # 7
    frequency:    3.1688858508
  - # 8
    frequency:    4.8765450861
  - # 9
    frequency:    7.0113540793
  - # 10
    frequency:    7.5540734954
  - # 11
    frequency:    7.5677650583
  - # 12
    frequency:    7.7460545998
  - # 13
    frequency:    7.7478277756
  - # 14
    frequency:   12.0585005446
  - # 15
    frequency:   13.2305872240
  - # 16
    frequency:   13.2577515087
  - # 17
    frequency:   14.4352699342
  - # 18
    frequency:   17.0221678019
  - # 19
    frequency:   17.0273273146
  - # 20
    frequency:   19.0679712523
  - # 21
    frequency:   19.3380141122
  - # 22
    frequency:   26.8170627671
  - # 23
    frequency:   54.7308142962
  - # 24
    frequency:  107.3069746729

- q-position: [    0.0454545,    0.0000000,    0.0000000 ]
  distance:    0.0158335
  band:
  - # 1
    frequency:   -1.2710667837
  - # 2
    frequency:   -1.1076606543
  - # 3
    frequency:    0.1161418158
  - # 4
    frequency:    0.4144466002
  - # 5
    frequency:    0.7826395145
  - # 6
    frequency:    3.1601932437
  - # 7
    frequency:    3.1768531475
  - # 8
    frequency:    4.8755495328
  - # 9
    frequency:    7.0030418085
  - # 10
    frequency:    7.5544552326
  - # 11
    frequency:    7.5715011266
  - # 12
    frequency:    7.7543449940
  - # 13
    frequency:    7.7567462905
  - # 14
    frequency:   12.0490642277
  - # 15
    frequency:   13.2299329245
  - # 16
    frequency:   13.2640710951
  - # 17
    frequency:   14.4357429450
  - # 18
    frequency:   17.0139609155
  - # 19
    frequency:   17.0209998086
  - # 20
    frequency:   18.9713789920
  - # 21
    frequency:   19.3122373902
  - # 22
    frequency:   26.8075555241
  - # 23
    frequency:   54.7146285696
  - # 24
    frequency:  107.2482832721

- q-position: [    0.0505051,    0.0000000,    0.0000000 ]
  distance:    0.0175928
  band:
  - # 1
    frequency:   -1.2506317320
  - # 2
    frequency:   -1.0447459788
  - # 3
    frequency:    0.1462484809
  - # 4
    frequency:    0.4614129518
  - # 5
    frequency:    0.8702588462
  - # 6
    frequency:    3.1651464225
  - # 7
    frequency:    3.1855895635
  - # 8
    frequency:    4.8744857103
  - # 9
    frequency:    6.9938054091
  - # 10
    frequency:    7.5548782221
  - # 11
    frequency:    7.5755512552
  - # 12
    frequency:    7.7635180208
  - # 13
    frequency:    7.7666814697
  - # 14
    frequency:   12.0386453070
  - # 15
    frequency:   13.2292372505
  - # 16
    frequency:   13.2710486268
  - # 17
    frequency:   14.4362223398
  - # 18
    frequency:   17.0044590213
  - # 19
    frequency:   17.0139335834
  - # 20
    frequency:   18.8641768095
  - # 21
    frequency:   19.2836605242
  - # 22
    frequency:   26.7970287701
  - # 23
    frequency:   54.6966905352
  - # 24
    frequency:  107.1831726552

- q-position: [    0.0555556,    0.0000000,    0.0000000 ]
  distance:    0.0193521
  band:
  - # 1
    frequency:   -1.2278273585
  - # 2
    frequency:   -0.9726936560
  - # 3
    frequency:    0.1816542321
  - # 4
    frequency:    0.5086170282
  - # 5
    frequency:    0.9579647950
  - # 6
    frequency:    3.1704767558
  - # 7
    frequency:    3.1950443922
  - # 8
    frequency:    4.8733702729
  - # 9
    frequency:    6.9836618991
  - # 10
    frequency:    7.5553421663
  - # 11
    frequency:    7.5798854656
  - # 12
    frequency:    7.7735425787
  - # 13
    frequency:    7.7776115039
  - # 14
    frequency:   12.0272874850
  - # 15
    frequency:   13.2285110604
  - # 16
    frequency:   13.2786538570
  - # 17
    frequency:   14.4366936702
  - # 18
    frequency:   16.9934760409
  - # 19
    frequency:   17.0061302198
  - # 20
    frequency:   18.7466813065
  - # 21
    frequency:   19.2523605563
  - # 22
    frequency:   26.7855146228
  - # 23
    frequency:   54.6770496467
  - # 24
    frequency:  107.1118032917

- q-position: [    0.0606061,    0.0000000,    0.0000000 ]
  distance:    0.0211113
  band:
  - # 1
    frequency:   -1.2025632737
  - # 2
    frequency:   -0.8904877713
  - # 3
    frequency:    0.2239144024
  - # 4
    frequency:    0.5560580932
  - # 5
    frequency:    1.0457054011
  - # 6
    frequency:    3.1761488345
  - # 7
    frequency:    3.2051641484
  - # 8
    frequency:    4.8722217655
  - # 9
    frequency:    6.9726297157
  - # 10
    frequency:    7.5558470243
  - # 11
    frequency:    7.5844750333
  - # 12
    frequency:    7.7843844191
  - # 13
    frequency:    7.7895081797
  - # 14
    frequency:   12.0150395024
  - # 15
    frequency:   13.2277658545
  - # 16
    frequency:   13.2868525093
  - # 17
    frequency:   14.4371418819
  - # 18
    frequency:   16.9807437945
  - # 19
    frequency:   16.9975912645
  - # 20
    frequency:   18.6192995834
  - # 21
    frequency:   19.2184224177
  - # 22
    frequency:   26.7730481261
  - # 23
    frequency:   54.6557599504
  - # 24
    frequency:  107.0343517302

- q-position: [    0.0656566,    0.0000000,    0.0000000 ]
  distance:    0.0228706
  band:
  - # 1
    frequency:   -1.1747260481
  - # 2
    frequency:   -0.7971677370
  - # 3
    frequency:    0.2756479125
  - # 4
    frequency:    0.6037294121
  - # 5
    frequency:    1.1334131635
  - # 6
    frequency:    3.1821271336
  - # 7
    frequency:    3.2158931689
  - # 8
    frequency:    4.8710606269
  - # 9
    frequency:    6.9607286685
  - # 10
    frequency:    7.5563930271
  - # 11
    frequency:    7.5892928063
  - # 12
    frequency:    7.7960062767
  - # 13
    frequency:    7.8023365366
  - # 14
    frequency:   12.0019551460
  - # 15
    frequency:   13.2270136454
  - # 16
    frequency:   13.2956060595
  - # 17
    frequency:   14.4375514897
  - # 18
    frequency:   16.9658681542
  - # 19
    frequency:   16.9883181482
  - # 20
    frequency:   18.4825717918
  - # 21
    frequency:   19.1819388656
  - # 22
    frequency:   26.7596671192
  - # 23
    frequency:   54.6328799064
  - # 24
    frequency:  106.9510103101

- q-position: [    0.0707071,    0.0000000,    0.0000000 ]
  distance:    0.0246299
  band:
  - # 1
    frequency:   -1.1441731811
  - # 2
    frequency:   -0.6926615981
  - # 3
    frequency:    0.3411476108
  - # 4
    frequency:    0.6516182199
  - # 5
    frequency:    1.2210054712
  - # 6
    frequency:    3.1883766370
  - # 7
    frequency:    3.2271742060
  - # 8
    frequency:    4.8699091745
  - # 9
    frequency:    6.9479799091
  - # 10
    frequency:    7.5569806902
  - # 11
    frequency:    7.5943132900
  - # 12
    frequency:    7.8083680239
  - # 13
    frequency:    7.8160547076
  - # 14
    frequency:   11.9880932077
  - # 15
    frequency:   13.2262668240
  - # 16
    frequency:   13.3048715025
  - # 17
    frequency:   14.4379067070
  - # 18
    frequency:   16.9482560368
  - # 19
    frequency:   16.9783120872
  - # 20
    frequency:   18.3372428967
  - # 21
    frequency:   19.1430104153
  - # 22
    frequency:   26.7454120957
  - # 23
    frequency:   54.6084721954
  - # 24
    frequency:  106.8619868252

- q-position: [    0.0757576,    0.0000000,    0.0000000 ]
  distance:    0.0263892
  band:
  - # 1
    frequency:   -1.1107251163
  - # 2
    frequency:   -0.5800428883
  - # 3
    frequency:    0.4262278268
  - # 4
    frequency:    0.6997058447
  - # 5
    frequency:    1.3083857990
  - # 6
    frequency:    3.1948634343
  - # 7
    frequency:    3.2389490017
  - # 8
    frequency:    4.8687915684
  - # 9
    frequency:    6.9344059172
  - # 10
    frequency:    7.5576108275
  - # 11
    frequency:    7.5995125200
  - # 12
    frequency:    7.8214268451
  - # 13
    frequency:    7.8306139096
  - # 14
    frequency:   11.9735173801
  - # 15
    frequency:   13.2255380252
  - # 16
    frequency:   13.3146011010
  - # 17
    frequency:   14.4381914976
  - # 18
    frequency:   16.9269904558
  - # 19
    frequency:   16.9675739668
  - # 20
    frequency:   18.1843864938
  - # 21
    frequency:   19.1017452664
  - # 22
    frequency:   26.7303260529
  - # 23
    frequency:   54.5826035105
  - # 24
    frequency:  106.7675041356

- q-position: [    0.0808081,    0.0000000,    0.0000000 ]
  distance:    0.0281484
  band:
  - # 1
    frequency:   -1.0741544278
  - # 2
    frequency:   -0.4680443882
  - # 3
    frequency:    0.5340668271
  - # 4
    frequency:    0.7479679982
  - # 5
    frequency:    1.3954456106
  - # 6
    frequency:    3.2015552840
  - # 7
    frequency:    3.2511588351
  - # 8
    frequency:    4.8677337482
  - # 9
    frequency:    6.9200305002
  - # 10
    frequency:    7.5582845702
  - # 11
    frequency:    7.6048677578
  - # 12
    frequency:    7.8351374282
  - # 13
    frequency:    7.8459585376
  - # 14
    frequency:   11.9582960815
  - # 15
    frequency:   13.2248399926
  - # 16
    frequency:   13.3247421028
  - # 17
    frequency:   14.4383895000
  - # 18
    frequency:   16.9006126045
  - # 19
    frequency:   16.9561042063
  - # 20
    frequency:   18.0256218056
  - # 21
    frequency:   19.0582592245
  - # 22
    frequency:   26.7144543330
  - # 23
    frequency:   54.5553443369
  - # 24
    frequency:  106.6677997231

- q-position: [    0.0858586,    0.0000000,    0.0000000 ]
  distance:    0.0299077
  band:
  - # 1
    frequency:   -1.0341707591
  - # 2
    frequency:   -0.3656066044
  - # 3
    frequency:    0.6579743576
  - # 4
    frequency:    0.7963752379
  - # 5
    frequency:    1.4820668133
  - # 6
    frequency:    3.2084221422
  - # 7
    frequency:    3.2637450339
  - # 8
    frequency:    4.8667633399
  - # 9
    frequency:    6.9048788044
  - # 10
    frequency:    7.5590033917
  - # 11
    frequency:    7.6103570434
  - # 12
    frequency:    7.8494521714
  - # 13
    frequency:    7.8620263125
  - # 14
    frequency:   11.9425021982
  - # 15
    frequency:   13.2241854475
  - # 16
    frequency:   13.3352364098
  - # 17
    frequency:   14.4384837483
  - # 18
    frequency:   16.8667438484
  - # 19
    frequency:   16.9439026045
  - # 20
    frequency:   17.8634911116
  - # 21
    frequency:   19.0126756148
  - # 22
    frequency:   26.6978444554
  - # 23
    frequency:   54.5267687174
  - # 24
    frequency:  106.5631251863

- q-position: [    0.0909091,    0.0000000,    0.0000000 ]
  distance:    0.0316670
  band:
  - # 1
    frequency:   -0.9903991293
  - # 2
    frequency:   -0.2694869345
  - # 3
    frequency:    0.7855006073
  - # 4
    frequency:    0.8448936000
  - # 5
    frequency:    1.5681245305
  - # 6
    frequency:    3.2154366593
  - # 7
    frequency:    3.2766494455
  - # 8
    frequency:    4.8659095269
  - # 9
    frequency:    6.8889773319
  - # 10
    frequency:    7.5597691399
  - # 11
    frequency:    7.6159586362
  - # 12
    frequency:    7.8643214024
  - # 13
    frequency:    7.8787484339
  - # 14
    frequency:   11.9262127345
  - # 15
    frequency:   13.2235869612
  - # 16
    frequency:   13.3460201681
  - # 17
    frequency:   14.4384560634
  - # 18
    frequency:   16.8214751996
  - # 19
    frequency:   16.9309681659
  - # 20
    frequency:   17.7020702386
  - # 21
    frequency:   18.9651251901
  - # 22
    frequency:   26.6805459428
  - # 23
    frequency:   54.4969540079
  - # 24
    frequency:  106.4537456709

- q-position: [    0.0959596,    0.0000000,    0.0000000 ]
  distance:    0.0334263
  band:
  - # 1
    frequency:   -0.9423474091
  - # 2
    frequency:   -0.1571193504
  - # 3
    frequency:    0.8934853939
  - # 4
    frequency:    0.9089083270
  - # 5
    frequency:    1.6534899223
  - # 6
    frequency:    3.2225746542
  - # 7
    frequency:    3.2898148620
  - # 8
    frequency:    4.8652028815
  - # 9
    frequency:    6.8723539598
  - # 10
    frequency:    7.5605840769
  - # 11
    frequency:    7.6216503614
  - # 12
    frequency:    7.8796936096
  - # 13
    frequency:    7.8960496936
  - # 14
    frequency:   11.9095083617
  - # 15
    frequency:   13.2230568339
  - # 16
    frequency:   13.3570232255
  - # 17
    frequency:   14.4382858982
  - # 18
    frequency:   16.7586221914
  - # 19
    frequency:   16.9172989105
  - # 20
    frequency:   17.5477145138
  - # 21
    frequency:   18.9157460266
  - # 22
    frequency:   26.6626101396
  - # 23
    frequency:   54.4659806200
  - # 24
    frequency:  106.3399392309

- q-position: [    0.1010101,    0.0000000,    0.0000000 ]
  distance:    0.0351856
  band:
  - # 1
    frequency:   -0.8893551848
  - # 2
    frequency:    0.1334487468
  - # 3
    frequency:    0.9421101405
  - # 4
    frequency:    1.0258997697
  - # 5
    frequency:    1.7380327846
  - # 6
    frequency:    3.2298155804
  - # 7
    frequency:    3.3031853962
  - # 8
    frequency:    4.8646751526
  - # 9
    frequency:    6.8550379553
  - # 10
    frequency:    7.5614509253
  - # 11
    frequency:    7.6274088679
  - # 12
    frequency:    7.8955156826
  - # 13
    frequency:    7.9138485119
  - # 14
    frequency:   11.8924728524
  - # 15
    frequency:   13.2226069815
  - # 16
    frequency:   13.3681683710
  - # 17
    frequency:   14.4379482506
  - # 18
    frequency:   16.6697029976
  - # 19
    frequency:   16.9028916668
  - # 20
    frequency:   17.4090828698
  - # 21
    frequency:   18.8646834090
  - # 22
    frequency:   26.6440900252
  - # 23
    frequency:   54.4339317545
  - # 24
    frequency:  106.2219961190

- q-position: [    0.1060606,    0.0000000,    0.0000000 ]
  distance:    0.0369448
  band:
  - # 1
    frequency:   -0.8305085955
  - # 2
    frequency:    0.2432496716
  - # 3
    frequency:    0.9907256323
  - # 4
    frequency:    1.1365133091
  - # 5
    frequency:    1.8216236990
  - # 6
    frequency:    3.2371430076
  - # 7
    frequency:    3.3167068085
  - # 8
    frequency:    4.8643590054
  - # 9
    frequency:    6.8370599829
  - # 10
    frequency:    7.5623729190
  - # 11
    frequency:    7.6332087833
  - # 12
    frequency:    7.9117331613
  - # 13
    frequency:    7.9320568611
  - # 14
    frequency:   11.8751923906
  - # 15
    frequency:   13.2222488324
  - # 16
    frequency:   13.3793702016
  - # 17
    frequency:   14.4374099089
  - # 18
    frequency:   16.5466114951
  - # 19
    frequency:   16.8877418561
  - # 20
    frequency:   17.2944693648
  - # 21
    frequency:   18.8120896967
  - # 22
    frequency:   26.6250400221
  - # 23
    frequency:   54.4008931248
  - # 24
    frequency:  106.1002180016

- q-position: [    0.1111111,    0.0000000,    0.0000000 ]
  distance:    0.0387041
  band:
  - # 1
    frequency:   -0.7644879342
  - # 2
    frequency:    0.3191226654
  - # 3
    frequency:    1.0392890833
  - # 4
    frequency:    1.2414189823
  - # 5
    frequency:    1.9041355602
  - # 6
    frequency:    3.2445451517
  - # 7
    frequency:    3.3303267822
  - # 8
    frequency:    4.8642877102
  - # 9
    frequency:    6.8184520994
  - # 10
    frequency:    7.5633538575
  - # 11
    frequency:    7.6390217349
  - # 12
    frequency:    7.9282904926
  - # 13
    frequency:    7.9505800455
  - # 14
    frequency:   11.8577547393
  - # 15
    frequency:   13.2219932346
  - # 16
    frequency:   13.3905333478
  - # 17
    frequency:   14.4366225511
  - # 18
    frequency:   16.3866856726
  - # 19
    frequency:   16.8718432700
  - # 20
    frequency:   17.2067435604
  - # 21
    frequency:   18.7581241680
  - # 22
    frequency:   26.6055157995
  - # 23
    frequency:   54.3669526729
  - # 24
    frequency:  105.9749170972

- q-position: [    0.1161616,    0.0000000,    0.0000000 ]
  distance:    0.0404634
  band:
  - # 1
    frequency:   -0.6892680784
  - # 2
    frequency:    0.3838004864
  - # 3
    frequency:    1.0877583397
  - # 4
    frequency:    1.3413394569
  - # 5
    frequency:    1.9854443588
  - # 6
    frequency:    3.2520155019
  - # 7
    frequency:    3.3439951501
  - # 8
    frequency:    4.8644947784
  - # 9
    frequency:    6.7992477329
  - # 10
    frequency:    7.5643981613
  - # 11
    frequency:    7.6448151832
  - # 12
    frequency:    7.9451312915
  - # 13
    frequency:    7.9693163018
  - # 14
    frequency:   11.8402482420
  - # 15
    frequency:   13.2218503750
  - # 16
    frequency:   13.4015495539
  - # 17
    frequency:   14.4355094871
  - # 18
    frequency:   16.1941199844
  - # 19
    frequency:   16.8551878535
  - # 20
    frequency:   17.1419549963
  - # 21
    frequency:   18.7029528322
  - # 22
    frequency:   26.5855740737
  - # 23
    frequency:   54.3322002765
  - # 24
    frequency:  105.8464152375

- q-position: [    0.1212121,    0.0000000,    0.0000000 ]
  distance:    0.0422227
  band:
  - # 1
    frequency:   -0.6014473745
  - # 2
    frequency:    0.4433379609
  - # 3
    frequency:    1.1360931166
  - # 4
    frequency:    1.4368945352
  - # 5
    frequency:    2.0654291345
  - # 6
    frequency:    3.2595536108
  - # 7
    frequency:    3.3576640733
  - # 8
    frequency:    4.8650135426
  - # 9
    frequency:    6.7794816426
  - # 10
    frequency:    7.5655109250
  - # 11
    frequency:    7.6505509854
  - # 12
    frequency:    7.9621986066
  - # 13
    frequency:    7.9881561790
  - # 14
    frequency:   11.8227606222
  - # 15
    frequency:   13.2218297121
  - # 16
    frequency:   13.4122926358
  - # 17
    frequency:   14.4339384465
  - # 18
    frequency:   15.9758776265
  - # 19
    frequency:   16.8377655020
  - # 20
    frequency:   17.0934545311
  - # 21
    frequency:   18.6467482010
  - # 22
    frequency:   26.5652724054
  - # 23
    frequency:   54.2967274506
  - # 24
    frequency:  105.7150428486

- q-position: [    0.1262626,    0.0000000,    0.0000000 ]
  distance:    0.0439819
  band:
  - # 1
    frequency:   -0.4944112490
  - # 2
    frequency:    0.5002830188
  - # 3
    frequency:    1.1842562315
  - # 4
    frequency:    1.5285771817
  - # 5
    frequency:    2.1439710098
  - # 6
    frequency:    3.2671661441
  - # 7
    frequency:    3.3712881755
  - # 8
    frequency:    4.8658766815
  - # 9
    frequency:    6.7591898601
  - # 10
    frequency:    7.5666979668
  - # 11
    frequency:    7.6561835723
  - # 12
    frequency:    7.9794351868
  - # 13
    frequency:    8.0069816476
  - # 14
    frequency:   11.8053775193
  - # 15
    frequency:   13.2219399214
  - # 16
    frequency:   13.4226093056
  - # 17
    frequency:   14.4316603199
  - # 18
    frequency:   15.7380889434
  - # 19
    frequency:   16.8195638888
  - # 20
    frequency:   17.0555686845
  - # 21
    frequency:   18.5896890036
  - # 22
    frequency:   26.5446689956
  - # 23
    frequency:   54.2606270434
  - # 24
    frequency:  105.5811378552

- q-position: [    0.1313131,    0.0000000,    0.0000000 ]
  distance:    0.0457412
  band:
  - # 1
    frequency:   -0.3510962062
  - # 2
    frequency:    0.5559145551
  - # 3
    frequency:    1.2322148045
  - # 4
    frequency:    1.6167655493
  - # 5
    frequency:    2.2209511819
  - # 6
    frequency:    3.2748683268
  - # 7
    frequency:    3.3848246352
  - # 8
    frequency:    4.8671156899
  - # 9
    frequency:    6.7384096092
  - # 10
    frequency:    7.5679658698
  - # 11
    frequency:    7.6616575680
  - # 12
    frequency:    7.9967837479
  - # 13
    frequency:    8.0256648686
  - # 14
    frequency:   11.7881806549
  - # 15
    frequency:   13.2221888552
  - # 16
    frequency:   13.4323014098
  - # 17
    frequency:   14.4281526084
  - # 18
    frequency:   15.4853753830
  - # 19
    frequency:   16.8005683415
  - # 20
    frequency:   17.0244536127
  - # 21
    frequency:   18.5319598311
  - # 22
    frequency:   26.5238224796
  - # 23
    frequency:   54.2239929272
  - # 24
    frequency:  105.4450445080

- q-position: [    0.1363636,    0.0000000,    0.0000000 ]
  distance:    0.0475005
  band:
  - # 1
    frequency:    0.0412010801
  - # 2
    frequency:    0.6109336552
  - # 3
    frequency:    1.2799414027
  - # 4
    frequency:    1.7017418799
  - # 5
    frequency:    2.2962476657
  - # 6
    frequency:    3.2826859818
  - # 7