nqpoint: 300    
npath: 3      
segment_nqpoint:
- 100
- 100
- 100
labels:
- [ 'G', 'M' ]
- [ 'M', 'K' ]
- [ 'K', 'G' ]
reciprocal_lattice:
- [   0.29818604,   0.17215779,   0.00000000 ] # a*
- [   0.00000000,   0.34431558,   0.00000000 ] # b*
- [   0.00000000,   0.00000000,   0.03938167 ] # c*
natom: 7      
lattice:
- [     3.353611103221425,     0.000000000000000,     0.000000000000000 ] # a
- [    -1.676805551610712,     2.904312409803664,     0.000000000000000 ] # b
- [     0.000000000000000,     0.000000000000000,    25.392525359457451 ] # c
points:
- symbol: C # 1
  coordinates: [  0.000000000000000,  0.000000000000000,  0.556123130443716 ]
  mass: 12.010700
- symbol: C # 2
  coordinates: [  0.666666984744047,  0.333332985985145,  0.401216810406153 ]
  mass: 12.010700
- symbol: H # 3
  coordinates: [  0.333332985432215,  0.666666983183674,  0.645564989200732 ]
  mass: 1.007940
- symbol: N # 4
  coordinates: [  0.666666984744047,  0.333332985985145,  0.354435010799268 ]
  mass: 14.006700
- symbol: O # 5
  coordinates: [  0.666666984744047,  0.333332985985145,  0.453797603922651 ]
  mass: 15.999400
- symbol: Zr # 6
  coordinates: [  0.333332985432215,  0.666666983183674,  0.508701421205789 ]
  mass: 91.224000
- symbol: Zr # 7
  coordinates: [  0.666666984744047,  0.333332985985145,  0.606387151865544 ]
  mass: 91.224000

phonon:
- q-position: [    0.0000000,    0.0000000,    0.0000000 ]
  distance:    0.0000000
  band:
  - # 1
    frequency:   -0.0000029860
  - # 2
    frequency:    0.0000001597
  - # 3
    frequency:    0.0000039142
  - # 4
    frequency:    1.8438747491
  - # 5
    frequency:    1.8438747491
  - # 6
    frequency:    4.9430777256
  - # 7
    frequency:    4.9430777256
  - # 8
    frequency:    6.1047646859
  - # 9
    frequency:    6.5869141994
  - # 10
    frequency:    6.5869141994
  - # 11
    frequency:    9.3277629600
  - # 12
    frequency:   13.8883876470
  - # 13
    frequency:   13.8883876470
  - # 14
    frequency:   16.5239925925
  - # 15
    frequency:   17.3733595225
  - # 16
    frequency:   17.3733595225
  - # 17
    frequency:   27.2139108386
  - # 18
    frequency:   30.6378898209
  - # 19
    frequency:   30.6378898209
  - # 20
    frequency:   31.9994109317
  - # 21
    frequency:   67.9089059290

- q-position: [    0.0050505,    0.0000000,    0.0000000 ]
  distance:    0.0017390
  band:
  - # 1
    frequency:    0.0015620774
  - # 2
    frequency:    0.0350998141
  - # 3
    frequency:    0.1043670429
  - # 4
    frequency:    1.8431728616
  - # 5
    frequency:    1.8447839905
  - # 6
    frequency:    4.9428498997
  - # 7
    frequency:    4.9434145304
  - # 8
    frequency:    6.1044887720
  - # 9
    frequency:    6.5868180540
  - # 10
    frequency:    6.5873995359
  - # 11
    frequency:    9.3271709134
  - # 12
    frequency:   13.8884296617
  - # 13
    frequency:   13.8885873206
  - # 14
    frequency:   16.5236025216
  - # 15
    frequency:   17.3728335013
  - # 16
    frequency:   17.3730707220
  - # 17
    frequency:   27.2131610548
  - # 18
    frequency:   30.6364281430
  - # 19
    frequency:   30.6369464820
  - # 20
    frequency:   31.9989820029
  - # 21
    frequency:   67.9086689623

- q-position: [    0.0101010,    0.0000000,    0.0000000 ]
  distance:    0.0034779
  band:
  - # 1
    frequency:    0.0062415279
  - # 2
    frequency:    0.0703300790
  - # 3
    frequency:    0.2087085881
  - # 4
    frequency:    1.8410691677
  - # 5
    frequency:    1.8475087255
  - # 6
    frequency:    4.9421687711
  - # 7
    frequency:    4.9444274813
  - # 8
    frequency:    6.1036643631
  - # 9
    frequency:    6.5865303705
  - # 10
    frequency:    6.5888516251
  - # 11
    frequency:    9.3253957655
  - # 12
    frequency:   13.8885558512
  - # 13
    frequency:   13.8891860700
  - # 14
    frequency:   16.5224333097
  - # 15
    frequency:   17.3712562174
  - # 16
    frequency:   17.3722034525
  - # 17
    frequency:   27.2109140910
  - # 18
    frequency:   30.6320475682
  - # 19
    frequency:   30.6341187037
  - # 20
    frequency:   31.9976961272
  - # 21
    frequency:   67.9079585330

- q-position: [    0.0151515,    0.0000000,    0.0000000 ]
  distance:    0.0052169
  band:
  - # 1
    frequency:    0.0140183262
  - # 2
    frequency:    0.1058204417
  - # 3
    frequency:    0.3129974124
  - # 4
    frequency:    1.8375695785
  - # 5
    frequency:    1.8520404144
  - # 6
    frequency:    4.9410413676
  - # 7
    frequency:    4.9461240746
  - # 8
    frequency:    6.1023014411
  - # 9
    frequency:    6.5860534028
  - # 10
    frequency:    6.5912587366
  - # 11
    frequency:    9.3224404904
  - # 12
    frequency:   13.8887666466
  - # 13
    frequency:   13.8901830781
  - # 14
    frequency:   16.5204879514
  - # 15
    frequency:   17.3686300156
  - # 16
    frequency:   17.3707551382
  - # 17
    frequency:   27.2071770996
  - # 18
    frequency:   30.6247614583
  - # 19
    frequency:   30.6294132038
  - # 20
    frequency:   31.9955560354
  - # 21
    frequency:   67.9067760509

- q-position: [    0.0202020,    0.0000000,    0.0000000 ]
  distance:    0.0069559
  band:
  - # 1
    frequency:    0.0248598508
  - # 2
    frequency:    0.1416989510
  - # 3
    frequency:    0.4172027293
  - # 4
    frequency:    1.8326839635
  - # 5
    frequency:    1.8583662477
  - # 6
    frequency:    4.9394793388
  - # 7
    frequency:    4.9485164315
  - # 8
    frequency:    6.1004165843
  - # 9
    frequency:    6.5853908939
  - # 10
    frequency:    6.5946014247
  - # 11
    frequency:    9.3183100376
  - # 12
    frequency:   13.8890627496
  - # 13
    frequency:   13.8915769736
  - # 14
    frequency:   16.5177714119
  - # 15
    frequency:   17.3649588231
  - # 16
    frequency:   17.3687215824
  - # 17
    frequency:   27.2019619671
  - # 18
    frequency:   30.6145920369
  - # 19
    frequency:   30.6228411877
  - # 20
    frequency:   31.9925662730
  - # 21
    frequency:   67.9051238614

- q-position: [    0.0252525,    0.0000000,    0.0000000 ]
  distance:    0.0086948
  band:
  - # 1
    frequency:    0.0387219702
  - # 2
    frequency:    0.1780912823
  - # 3
    frequency:    0.5212881146
  - # 4
    frequency:    1.8264261780
  - # 5
    frequency:    1.8664712782
  - # 6
    frequency:    4.9374988618
  - # 7
    frequency:    4.9516207581
  - # 8
    frequency:    6.0980328642
  - # 9
    frequency:    6.5845480543
  - # 10
    frequency:    6.5988526965
  - # 11
    frequency:    9.3130113226
  - # 12
    frequency:   13.8894451075
  - # 13
    frequency:   13.8933658173
  - # 14
    frequency:   16.5142905874
  - # 15
    frequency:   17.3602481782
  - # 16
    frequency:   17.3660971088
  - # 17
    frequency:   27.1952852633
  - # 18
    frequency:   30.6015703189
  - # 19
    frequency:   30.6144183606
  - # 20
    frequency:   31.9887331926
  - # 21
    frequency:   67.9030052375

- q-position: [    0.0303030,    0.0000000,    0.0000000 ]
  distance:    0.0104338
  band:
  - # 1
    frequency:    0.0555504187
  - # 2
    frequency:    0.2151199877
  - # 3
    frequency:    0.6252090277
  - # 4
    frequency:    1.8188141031
  - # 5
    frequency:    1.8763414261
  - # 6
    frequency:    4.9351205099
  - # 7
    frequency:    4.9554566254
  - # 8
    frequency:    6.0951796727
  - # 9
    frequency:    6.5835315307
  - # 10
    frequency:    6.6039782632
  - # 11
    frequency:    9.3065532121
  - # 12
    frequency:   13.8899148793
  - # 13
    frequency:   13.8955470839
  - # 14
    frequency:   16.5100542507
  - # 15
    frequency:   17.3545052704
  - # 16
    frequency:   17.3628747573
  - # 17
    frequency:   27.1871681704
  - # 18
    frequency:   30.5857360131
  - # 19
    frequency:   30.6041649441
  - # 20
    frequency:   31.9840649423
  - # 21
    frequency:   67.9004243704

- q-position: [    0.0353535,    0.0000000,    0.0000000 ]
  distance:    0.0121728
  band:
  - # 1
    frequency:    0.0752823579
  - # 2
    frequency:    0.2529037787
  - # 3
    frequency:    0.7289096963
  - # 4
    frequency:    1.8098697006
  - # 5
    frequency:    1.8879674371
  - # 6
    frequency:    4.9323690868
  - # 7
    frequency:    4.9600461028
  - # 8
    frequency:    6.0918924608
  - # 9
    frequency:    6.5823493632
  - # 10
    frequency:    6.6099368864
  - # 11
    frequency:    9.2989465066
  - # 12
    frequency:   13.8904733929
  - # 13
    frequency:   13.8981176396
  - # 14
    frequency:   16.5050729815
  - # 15
    frequency:   17.3477389917
  - # 16
    frequency:   17.3590465281
  - # 17
    frequency:   27.1776363914
  - # 18
    frequency:   30.5671373965
  - # 19
    frequency:   30.5921056957
  - # 20
    frequency:   31.9785714499
  - # 21
    frequency:   67.8973863563

- q-position: [    0.0404040,    0.0000000,    0.0000000 ]
  distance:    0.0139117
  band:
  - # 1
    frequency:    0.0978480078
  - # 2
    frequency:    0.2915568425
  - # 3
    frequency:    0.8323190234
  - # 4
    frequency:    1.7996190854
  - # 5
    frequency:    1.9013499875
  - # 6
    frequency:    4.9292734277
  - # 7
    frequency:    4.9654127843
  - # 8
    frequency:    6.0882123733
  - # 9
    frequency:    6.5810109302
  - # 10
    frequency:    6.6166808244
  - # 11
    frequency:    9.2902039188
  - # 12
    frequency:   13.8911220950
  - # 13
    frequency:   13.9010737173
  - # 14
    frequency:   16.4993590818
  - # 15
    frequency:   17.3399599992
  - # 16
    frequency:   17.3546036712
  - # 17
    frequency:   27.1667200391
  - # 18
    frequency:   30.5458311610
  - # 19
    frequency:   30.5782699288
  - # 20
    frequency:   31.9722644043
  - # 21
    frequency:   67.8938971809

- q-position: [    0.0454545,    0.0000000,    0.0000000 ]
  distance:    0.0156507
  band:
  - # 1
    frequency:    0.1231722416
  - # 2
    frequency:    0.3311881952
  - # 3
    frequency:    0.9353449900
  - # 4
    frequency:    1.7880926189
  - # 5
    frequency:    1.9165063263
  - # 6
    frequency:    4.9258661675
  - # 7
    frequency:    4.9715807495
  - # 8
    frequency:    6.0841857708
  - # 9
    frequency:    6.5795268785
  - # 10
    frequency:    6.6241563770
  - # 11
    frequency:    9.2803400483
  - # 12
    frequency:   13.8918624948
  - # 13
    frequency:   13.9044108899
  - # 14
    frequency:   16.4929264771
  - # 15
    frequency:   17.3311807882
  - # 16
    frequency:   17.3495370156
  - # 17
    frequency:   27.1544535052
  - # 18
    frequency:   30.5218822323
  - # 19
    frequency:   30.5626915328
  - # 20
    frequency:   31.9651572320
  - # 21
    frequency:   67.8899637009

- q-position: [    0.0505051,    0.0000000,    0.0000000 ]
  distance:    0.0173897
  band:
  - # 1
    frequency:    0.1511760547
  - # 2
    frequency:    0.3719010655
  - # 3
    frequency:    1.0378667384
  - # 4
    frequency:    1.7753250277
  - # 5
    frequency:    1.9334791585
  - # 6
    frequency:    4.9221834798
  - # 7
    frequency:    4.9785735039
  - # 8
    frequency:    6.0798636414
  - # 9
    frequency:    6.5779090388
  - # 10
    frequency:    6.6323045220
  - # 11
    frequency:    9.2693713535
  - # 12
    frequency:   13.8926961018
  - # 13
    frequency:   13.9081240426
  - # 14
    frequency:   16.4857906049
  - # 15
    frequency:   17.3214157762
  - # 16
    frequency:   17.3438373309
  - # 17
    frequency:   27.1408753100
  - # 18
    frequency:   30.4953635616
  - # 19
    frequency:   30.5454089903
  - # 20
    frequency:   31.9572650690
  - # 21
    frequency:   67.8855936233

- q-position: [    0.0555556,    0.0000000,    0.0000000 ]
  distance:    0.0191286
  band:
  - # 1
    frequency:    0.1817778431
  - # 2
    frequency:    0.4137923061
  - # 3
    frequency:    1.1397230441
  - # 4
    frequency:    1.7613555560
  - # 5
    frequency:    1.9523489764
  - # 6
    frequency:    4.9182647883
  - # 7
    frequency:    4.9864129406
  - # 8
    frequency:    6.0753009122
  - # 9
    frequency:    6.5761703238
  - # 10
    frequency:    6.6410616265
  - # 11
    frequency:    9.2573161197
  - # 12
    frequency:   13.8936243602
  - # 13
    frequency:   13.9122073468
  - # 14
    frequency:   16.4779682906
  - # 15
    frequency:   17.3106813964
  - # 16
    frequency:   17.3374957166
  - # 17
    frequency:   27.1260279330
  - # 18
    frequency:   30.4663558898
  - # 19
    frequency:   30.5264653906
  - # 20
    frequency:   31.9486047290
  - # 21
    frequency:   67.8807954821

- q-position: [    0.0606061,    0.0000000,    0.0000000 ]
  distance:    0.0208676
  band:
  - # 1
    frequency:    0.2148944532
  - # 2
    frequency:    0.4569518203
  - # 3
    frequency:    1.2406951395
  - # 4
    frequency:    1.7462281582
  - # 5
    frequency:    1.9732518195
  - # 6
    frequency:    4.9141524515
  - # 7
    frequency:    4.9951183633
  - # 8
    frequency:    6.0705556800
  - # 9
    frequency:    6.5743246108
  - # 10
    frequency:    6.6503602140
  - # 11
    frequency:    9.2441944238
  - # 12
    frequency:   13.8946485809
  - # 13
    frequency:   13.9166542351
  - # 14
    frequency:   16.4694776129
  - # 15
    frequency:   17.2989962013
  - # 16
    frequency:   17.3305040096
  - # 17
    frequency:   27.1099576237
  - # 18
    frequency:   30.4349474848
  - # 19
    frequency:   30.5059084350
  - # 20
    frequency:   31.9391946655
  - # 21
    frequency:   67.8755786120

- q-position: [    0.0656566,    0.0000000,    0.0000000 ]
  distance:    0.0226066
  band:
  - # 1
    frequency:    0.2504419873
  - # 2
    frequency:    0.5014619887
  - # 3
    frequency:    1.3404807477
  - # 4
    frequency:    1.7299917465
  - # 5
    frequency:    1.9964055780
  - # 6
    frequency:    4.9098914231
  - # 7
    frequency:    5.0047056049
  - # 8
    frequency:    6.0656883853
  - # 9
    frequency:    6.5723866065
  - # 10
    frequency:    6.6601297657
  - # 11
    frequency:    9.2300280955
  - # 12
    frequency:   13.8957698717
  - # 13
    frequency:   13.9214573800
  - # 14
    frequency:   16.4603377607
  - # 15
    frequency:   17.2863809746
  - # 16
    frequency:   17.3228552032
  - # 17
    frequency:   27.0927141956
  - # 18
    frequency:   30.4012338517
  - # 19
    frequency:   30.4837904338
  - # 20
    frequency:   31.9290549292
  - # 21
    frequency:   67.8699531207

- q-position: [    0.0707071,    0.0000000,    0.0000000 ]
  distance:    0.0243455
  band:
  - # 1
    frequency:    0.2883363723
  - # 2
    frequency:    0.5473970751
  - # 3
    frequency:    1.4386548194
  - # 4
    frequency:    1.7127005134
  - # 5
    frequency:    2.0221493430
  - # 6
    frequency:    4.9055288908
  - # 7
    frequency:    5.0151862727
  - # 8
    frequency:    6.0607609589
  - # 9
    frequency:    6.5703716962
  - # 10
    frequency:    6.6702975327
  - # 11
    frequency:    9.2148406754
  - # 12
    frequency:   13.8969890694
  - # 13
    frequency:   13.9266086764
  - # 14
    frequency:   16.4505688837
  - # 15
    frequency:   17.2728588518
  - # 16
    frequency:   17.3145438693
  - # 17
    frequency:   27.0743507999
  - # 18
    frequency:   30.3653174173
  - # 19
    frequency:   30.4601682911
  - # 20
    frequency:   31.9182071201
  - # 21
    frequency:   67.8639298580

- q-position: [    0.0757576,    0.0000000,    0.0000000 ]
  distance:    0.0260845
  band:
  - # 1
    frequency:    0.3284937125
  - # 2
    frequency:    0.5948225755
  - # 3
    frequency:    1.5346117894
  - # 4
    frequency:    1.6944143566
  - # 5
    frequency:    2.0510010002
  - # 6
    frequency:    4.9011138947
  - # 7
    frequency:    5.0265671416
  - # 8
    frequency:    6.0558359687
  - # 9
    frequency:    6.5682957783
  - # 10
    frequency:    6.6807893409
  - # 11
    frequency:    9.1986573684
  - # 12
    frequency:   13.8983066731
  - # 13
    frequency:   13.9320992302
  - # 14
    frequency:   16.4401919387
  - # 15
    frequency:   17.2584554465
  - # 16
    frequency:   17.3055665759
  - # 17
    frequency:   27.0549236831
  - # 18
    frequency:   30.3273071880
  - # 19
    frequency:   30.4351034757
  - # 20
    frequency:   31.9066743340
  - # 21
    frequency:   67.8575203837

- q-position: [    0.0808081,    0.0000000,    0.0000000 ]
  distance:    0.0278235
  band:
  - # 1
    frequency:    0.3708304587
  - # 2
    frequency:    0.6437944601
  - # 3
    frequency:    1.6274880678
  - # 4
    frequency:    1.6751994571
  - # 5
    frequency:    2.0837343829
  - # 6
    frequency:    4.8966969269
  - # 7
    frequency:    5.0388497123
  - # 8
    frequency:    6.0509757948
  - # 9
    frequency:    6.5661750869
  - # 10
    frequency:    6.6915303708
  - # 11
    frequency:    9.1815049933
  - # 12
    frequency:   13.8997227808
  - # 13
    frequency:   13.9379193521
  - # 14
    frequency:   16.4292285351
  - # 15
    frequency:   17.2431989840
  - # 16
    frequency:   17.2959222902
  - # 17
    frequency:   27.0344919267
  - # 18
    frequency:   30.2873183825
  - # 19
    frequency:   30.4086619750
  - # 20
    frequency:   31.8944811031
  - # 21
    frequency:   67.8507369330

- q-position: [    0.0858586,    0.0000000,    0.0000000 ]
  distance:    0.0295624
  band:
  - # 1
    frequency:    0.4152634334
  - # 2
    frequency:    0.6943582240
  - # 3
    frequency:    1.6551290902
  - # 4
    frequency:    1.7160833691
  - # 5
    frequency:    2.1214574163
  - # 6
    frequency:    4.8923295161
  - # 7
    frequency:    5.0520299459
  - # 8
    frequency:    6.0462418575
  - # 9
    frequency:    6.5640260036
  - # 10
    frequency:    6.7024459018
  - # 11
    frequency:    9.1634119273
  - # 12
    frequency:   13.9012370322
  - # 13
    frequency:   13.9440585595
  - # 14
    frequency:   16.4177007826
  - # 15
    frequency:   17.2271204376
  - # 16
    frequency:   17.2856127604
  - # 17
    frequency:   27.0131171701
  - # 18
    frequency:   30.2454720407
  - # 19
    frequency:   30.3809142302
  - # 20
    frequency:   31.8816533310
  - # 21
    frequency:   67.8435923800

- q-position: [    0.0909091,    0.0000000,    0.0000000 ]
  distance:    0.0313014
  band:
  - # 1
    frequency:    0.4617097502
  - # 2
    frequency:    0.7465475990
  - # 3
    frequency:    1.6342848117
  - # 4
    frequency:    1.7988567844
  - # 5
    frequency:    2.1656153896
  - # 6
    frequency:    4.8880637981
  - # 7
    frequency:    5.0660981777
  - # 8
    frequency:    6.0416939189
  - # 9
    frequency:    6.5618648636
  - # 10
    frequency:    6.7134620120
  - # 11
    frequency:    9.1444080461
  - # 12
    frequency:   13.9028485572
  - # 13
    frequency:   13.9505055852
  - # 14
    frequency:   16.4056311446
  - # 15
    frequency:   17.2102536683
  - # 16
    frequency:   17.2746428675
  - # 17
    frequency:   26.9908633179
  - # 18
    frequency:   30.2018946069
  - # 19
    frequency:   30.3519350508
  - # 20
    frequency:   31.8682182225
  - # 21
    frequency:   67.8361001999

- q-position: [    0.0959596,    0.0000000,    0.0000000 ]
  distance:    0.0330404
  band:
  - # 1
    frequency:    0.5100866672
  - # 2
    frequency:    0.8003826652
  - # 3
    frequency:    1.6127582792
  - # 4
    frequency:    1.8741632438
  - # 5
    frequency:    2.2177537522
  - # 6
    frequency:    4.8839520764
  - # 7
    frequency:    5.0810392116
  - # 8
    frequency:    6.0373894746
  - # 9
    frequency:    6.5597077586
  - # 10
    frequency:    6.7245062304
  - # 11
    frequency:    9.1245246569
  - # 12
    frequency:   13.9045559320
  - # 13
    frequency:   13.9572483949
  - # 14
    frequency:   16.3930423003
  - # 15
    frequency:   17.1926355655
  - # 16
    frequency:   17.2630209389
  - # 17
    frequency:   26.9677962315
  - # 18
    frequency:   30.1567174918
  - # 19
    frequency:   30.3218035054
  - # 20
    frequency:   31.8542042074
  - # 21
    frequency:   67.8282744297

- q-position: [    0.1010101,    0.0000000,    0.0000000 ]
  distance:    0.0347794
  band:
  - # 1
    frequency:    0.5603114094
  - # 2
    frequency:    0.8558668515
  - # 3
    frequency:    1.5906542168
  - # 4
    frequency:    1.9408572904
  - # 5
    frequency:    2.2789135501
  - # 6
    frequency:    4.8800463757
  - # 7
    frequency:    5.0968325890
  - # 8
    frequency:    6.0333832462
  - # 9
    frequency:    6.5575703413
  - # 10
    frequency:    6.7355081392
  - # 11
    frequency:    9.1037944266
  - # 12
    frequency:   13.9063571445
  - # 13
    frequency:   13.9642742124
  - # 14
    frequency:   16.3799570202
  - # 15
    frequency:   17.1743061851
  - # 16
    frequency:   17.2507590164
  - # 17
    frequency:   26.9439834074
  - # 18
    frequency:   30.1100766114
  - # 19
    frequency:   30.2906027889
  - # 20
    frequency:   31.8396408590
  - # 21
    frequency:   67.8201296268

- q-position: [    0.1060606,    0.0000000,    0.0000000 ]
  distance:    0.0365183
  band:
  - # 1
    frequency:    0.6123009895
  - # 2
    frequency:    0.9129817817
  - # 3
    frequency:    1.5680955611
  - # 4
    frequency:    1.9989629303
  - # 5
    frequency:    2.3489607779
  - # 6
    frequency:    4.8763979914
  - # 7
    frequency:    5.1134530267
  - # 8
    frequency:    6.0297267818
  - # 9
    frequency:    6.5554676346
  - # 10
    frequency:    6.7463999300
  - # 11
    frequency:    9.0822513019
  - # 12
    frequency:   13.9082495697
  - # 13
    frequency:   13.9715695539
  - # 14
    frequency:   16.3663980568
  - # 15
    frequency:   17.1553088851
  - # 16
    frequency:   17.2378730719
  - # 17
    frequency:   26.9194936415
  - # 18
    frequency:   30.0621119055
  - # 19
    frequency:   30.2584200635
  - # 20
    frequency:   31.8245588077
  - # 21
    frequency:   67.8116808271

- q-position: [    0.1111111,    0.0000000,    0.0000000 ]
  distance:    0.0382573
  band:
  - # 1
    frequency:    0.6659720522
  - # 2
    frequency:    0.9716776580
  - # 3
    frequency:    1.5452330956
  - # 4
    frequency:    2.0497285151
  - # 5
    frequency:    2.4265307182
  - # 6
    frequency:    4.8730570403
  - # 7
    frequency:    5.1308710122
  - # 8
    frequency:    6.0264681643
  - # 9
    frequency:    6.5534138509
  - # 10
    frequency:    6.7571169143
  - # 11
    frequency:    9.0599304233
  - # 12
    frequency:   13.9102299551
  - # 13
    frequency:   13.9791202707
  - # 14
    frequency:   16.3523880562
  - # 15
    frequency:   17.1356904532
  - # 16
    frequency:   17.2243831638
  - # 17
    frequency:   26.8943966820
  - # 18
    frequency:   30.0129668366
  - # 19
    frequency:   30.2253462726
  - # 20
    frequency:   31.8089896492
  - # 21
    frequency:   67.8029435018

- q-position: [    0.1161616,    0.0000000,    0.0000000 ]
  distance:    0.0399963
  band:
  - # 1
    frequency:    0.7212407610
  - # 2
    frequency:    1.0318536126
  - # 3
    frequency:    1.5222651366
  - # 4
    frequency:    2.0949805757
  - # 5
    frequency:    2.5096733798
  - # 6
    frequency:    4.8700720170
  - # 7
    frequency:    5.1490535476
  - # 8
    frequency:    6.0236518259
  - # 9
    frequency:    6.5514222239
  - # 10
    frequency:    6.7675979934
  - # 11
    frequency:    9.0368680301
  - # 12
    frequency:   13.9122944187
  - # 13
    frequency:   13.9869116002
  - # 14
    frequency:   16.3379494905
  - # 15
    frequency:   17.1155012260
  - # 16
    frequency:   17.2103135290
  - # 17
    frequency:   26.8687628720
  - # 18
    frequency:   29.9627878713
  - # 19
    frequency:   30.1914759282
  - # 20
    frequency:   31.7929658492
  - # 21
    frequency:   67.7939335134

- q-position: [    0.1212121,    0.0000000,    0.0000000 ]
  distance:    0.0417352
  band:
  - # 1
    frequency:    0.7780227385
  - # 2
    frequency:    1.0933130331
  - # 3
    frequency:    1.4994822600
  - # 4
    frequency:    2.1364463812
  - # 5
    frequency:    2.5965302808
  - # 6
    frequency:    4.8674893601
  - # 7
    frequency:    5.1679650292
  - # 8
    frequency:    6.0213184586
  - # 9
    frequency:    6.5495048576
  - # 10
    frequency:    6.7777860909
  - # 11
    frequency:    9.0131013589
  - # 12
    frequency:   13.9144384576
  - # 13
    frequency:   13.9949282250
  - # 14
    frequency:   16.3231046164
  - # 15
    frequency:   17.0947951951
  - # 16
    frequency:   17.1956926056
  - # 17
    frequency:   26.8426627832
  - # 18
    frequency:   29.9117239446
  - # 19
    frequency:   30.1569068697
  - # 20
    frequency:   31.7765206430
  - # 21
    frequency:   67.7846670704

- q-position: [    0.1262626,    0.0000000,    0.0000000 ]
  distance:    0.0434742
  band:
  - # 1
    frequency:    0.8362330710
  - # 2
    frequency:    1.1556475360
  - # 3
    frequency:    1.4773833849
  - # 4
    frequency:    2.1754603031
  - # 5
    frequency:    2.6856275165
  - # 6
    frequency:    4.8653530339
  - # 7
    frequency:    5.1875682506
  - # 8
    frequency:    6.0195050087
  - # 9
    frequency:    6.5476725950
  - # 10
    frequency:    6.7876285511
  - # 11
    frequency:    8.9886685326
  - # 12
    frequency:   13.9166569703
  - # 13
    frequency:   14.0031543395
  - # 14
    frequency:   16.3078754603
  - # 15
    frequency:   17.0736300977
  - # 16
    frequency:   17.1805529828
  - # 17
    frequency:   26.8161668436
  - # 18
    frequency:   29.8599259109
  - # 19
    frequency:   30.1217399968
  - # 20
    frequency:   31.7596879316
  - # 21
    frequency:   67.7751606824

- q-position: [    0.1313131,    0.0000000,    0.0000000 ]
  distance:    0.0452132
  band:
  - # 1
    frequency:    0.8957863771
  - # 2
    frequency:    1.2178794338
  - # 3
    frequency:    1.4570333593
  - # 4
    frequency:    2.2129593836
  - # 5
    frequency:    2.7758797284
  - # 6
    frequency:    4.8637041305
  - # 7
    frequency:    5.2078255157
  - # 8
    frequency:    6.0182447389
  - # 9
    frequency:    6.5459349089
  - # 10
    frequency:    6.7970775048
  - # 11
    frequency:    8.9636084427
  - # 12
    frequency:   13.9189442902
  - # 13
    frequency:   14.0115737237
  - # 14
    frequency:   16.2922838296
  - # 15
    frequency:   17.0520674868
  - # 16
    frequency:   17.1649312753
  - # 17
    frequency:   26.7893449598
  - # 18
    frequency:   29.8075459819
  - # 19
    frequency:   30.0860789743
  - # 20
    frequency:   31.7425021759
  - # 21
    frequency:   67.7654311139

- q-position: [    0.1363636,    0.0000000,    0.0000000 ]
  distance:    0.0469521
  band:
  - # 1
    frequency:    0.9565969430
  - # 2
    frequency:    1.2771111971
  - # 3
    frequency:    1.4414135302
  - # 4
    frequency:    2.2495762830
  - # 5
    frequency:    2.8664968161
  - # 6
    frequency:    4.8625804976
  - # 7
    frequency:    5.2286998463
  - # 8
    frequency:    6.0175673379
  - # 9
    frequency:    6.5442998163
  - # 10
    frequency:    6.8060902052
  - # 11
    frequency:    8.9379606231
  - # 12
    frequency:   13.9212942323
  - # 13
    frequency:   14.0201698230
  - # 14
    frequency:   16.2763513529
  - # 15
    frequency:   17.0301727786
  - # 16
    frequency:   17.1488679232
  - # 17
    frequency:   26.7622661385
  - # 18
    frequency:   29.7547371545
  - # 19
    frequency:   30.0500299131
  - # 20
    frequency:   31.7249982858
  - # 21
    frequency:   67.7554953383

- q-position: [    0.1414141,    0.0000000,    0.0000000 ]
  distance:    0.0486911
  band:
  - # 1
    frequency:    1.0185789181
  - # 2
    frequency:    1.3232699453
  - # 3
    frequency:    1.4406772446
  - # 4
    frequency:    2.2857331032
  - # 5
    frequency:    2.9568899103
  - # 6
    frequency:    4.8620163961
  - # 7
    frequency:    5.2501562642
  - # 8
    frequency:    6.0174990545
  - # 9
    frequency:    6.5427738176
  - # 10
    frequency:    6.8146293312
  - # 11
    frequency:    8.9117651172
  - # 12
    frequency:   13.9237001515
  - # 13
    frequency:   14.0289258337
  - # 14
    frequency:   16.2600995448
  - # 15
    frequency:   17.0080152733
  - # 16
    frequency:   17.1324069164
  - # 17
    frequency:   26.7349981076
  - # 18
    frequency:   29.7016526316
  - # 19
    frequency:   30.0137010258
  - # 20
    frequency:   31.7072115100
  - # 21
    frequency:   67.7453704918

- q-position: [    0.1464646,    0.0000000,    0.0000000 ]
  distance:    0.0504301
  band:
  - # 1
    frequency:    1.0816465660
  - # 2
    frequency:    1.3379940659
  - # 3
    frequency:    1.4732631587
  - # 4
    frequency:    2.3217111580
  - # 5
    frequency:    3.0466015590
  - # 6
    frequency:    4.8620421918
  - # 7
    frequency:    5.2721631224
  - # 8
    frequency:    6.0180628344
  - # 9
    frequency:    6.5413618618
  - # 10
    frequency:    6.8226632584
  - # 11
    frequency:    8.8850623388
  - # 12
    frequency:   13.9261550128
  - # 13
    frequency:   14.0378247925
  - # 14
    frequency:   16.2435498945
  - # 15
    frequency:   16.9856681438
  - # 16
    frequency:   17.1155954476
  - # 17
    frequency:   26.7076069418
  - # 18
    frequency:   29.6484452366
  - # 19
    frequency:   29.9772022608
  - # 20
    frequency:   31.6891773218
  - # 21
    frequency:   67.7350738271

- q-position: [    0.1515152,    0.0000000,    0.0000000 ]
  distance:    0.0521690
  band:
  - # 1
    frequency:    1.1457145630
  - # 2
    frequency:    1.3288786291
  - # 3
    frequency:    1.5316496578
  - # 4
    frequency:    2.3576978957
  - # 5
    frequency:    3.1352589487
  - # 6
    frequency:    4.8626840844
  - # 7
    frequency:    5.2946934504
  - # 8
    frequency:    6.0192784340
  - # 9
    frequency:    6.5400673349
  - # 10
    frequency:    6.8301662929
  - # 11
    frequency:    8.8578929275
  - # 12
    frequency:   13.9286514721
  - # 13
    frequency:   14.0468496696
  - # 14
    frequency:   16.2267239719
  - # 15
    frequency:   16.9632083901
  - # 16
    frequency:   17.0984834996
  - # 17
    frequency:   26.6801566949
  - # 18
    frequency:   29.5952668268
  - # 19
    frequency:   29.9406449163
  - # 20
    frequency:   31.6709313053
  - # 21
    frequency:   67.7246226681
