nqpoint: 300    
npath: 3      
segment_nqpoint:
- 100
- 100
- 100
labels:
- [ 'G', 'M' ]
- [ 'M', 'K' ]
- [ 'K', 'G' ]
reciprocal_lattice:
- [   0.30433350,   0.17570703,  -0.00000000 ] # a*
- [   0.00000000,   0.35141405,  -0.00000000 ] # b*
- [   0.00000000,   0.00000000,   0.03097504 ] # c*
natom: 5      
lattice:
- [     3.285868984995642,    -0.000000000000000,     0.000000000000000 ] # a
- [    -1.642934492497821,     2.845646014510706,     0.000000000000000 ] # b
- [     0.000000000000002,     0.000000000000004,    32.284059725128103 ] # c
points:
- symbol: C # 1
  coordinates: [  0.000000000000000,  0.000000000000000,  0.500000026799995 ]
  mass: 12.010700
- symbol: F # 2
  coordinates: [  0.333332985432215,  0.666666983183674,  0.574751157180275 ]
  mass: 18.998403
- symbol: F # 3
  coordinates: [  0.666666984744048,  0.333332985985145,  0.425248842819725 ]
  mass: 18.998403
- symbol: Sc # 4
  coordinates: [  0.333332985432215,  0.666666983183674,  0.460719401408843 ]
  mass: 44.955912
- symbol: Sc # 5
  coordinates: [  0.666666984744048,  0.333332985985145,  0.539280598191150 ]
  mass: 44.955912

phonon:
- q-position: [    0.0000000,    0.0000000,    0.0000000 ]
  distance:    0.0000000
  band:
  - # 1
    frequency:   -0.0000135797
  - # 2
    frequency:    0.0000002537
  - # 3
    frequency:    0.0000118181
  - # 4
    frequency:    5.1872490236
  - # 5
    frequency:    5.1872490236
  - # 6
    frequency:    7.3630675674
  - # 7
    frequency:    7.3630675674
  - # 8
    frequency:    7.7123845698
  - # 9
    frequency:    7.7123845698
  - # 10
    frequency:    7.7517744356
  - # 11
    frequency:   11.9281644776
  - # 12
    frequency:   13.2952556719
  - # 13
    frequency:   13.2952556719
  - # 14
    frequency:   13.8233266504
  - # 15
    frequency:   20.4406180329

- q-position: [    0.0050505,    0.0000000,    0.0000000 ]
  distance:    0.0017748
  band:
  - # 1
    frequency:    0.0227808076
  - # 2
    frequency:    0.0867151141
  - # 3
    frequency:    0.1478954791
  - # 4
    frequency:    5.1870782281
  - # 5
    frequency:    5.1884361849
  - # 6
    frequency:    7.3625013640
  - # 7
    frequency:    7.3663311418
  - # 8
    frequency:    7.7124895461
  - # 9
    frequency:    7.7125296645
  - # 10
    frequency:    7.7519272337
  - # 11
    frequency:   11.9276567245
  - # 12
    frequency:   13.2950293787
  - # 13
    frequency:   13.3000710834
  - # 14
    frequency:   13.8225364163
  - # 15
    frequency:   20.4393240851

- q-position: [    0.0101010,    0.0000000,    0.0000000 ]
  distance:    0.0035496
  band:
  - # 1
    frequency:    0.0459677920
  - # 2
    frequency:    0.1734033868
  - # 3
    frequency:    0.2957491063
  - # 4
    frequency:    5.1865672474
  - # 5
    frequency:    5.1919938607
  - # 6
    frequency:    7.3608097293
  - # 7
    frequency:    7.3759697452
  - # 8
    frequency:    7.7128040189
  - # 9
    frequency:    7.7129592171
  - # 10
    frequency:    7.7524629458
  - # 11
    frequency:   11.9261346009
  - # 12
    frequency:   13.2943512265
  - # 13
    frequency:   13.3144218779
  - # 14
    frequency:   13.8202597829
  - # 15
    frequency:   20.4354443375

- q-position: [    0.0151515,    0.0000000,    0.0000000 ]
  distance:    0.0053245
  band:
  - # 1
    frequency:    0.0699519319
  - # 2
    frequency:    0.2600379934
  - # 3
    frequency:    0.4435187588
  - # 4
    frequency:    5.1857202926
  - # 5
    frequency:    5.1979106833
  - # 6
    frequency:    7.3580132028
  - # 7
    frequency:    7.3915170552
  - # 8
    frequency:    7.7133157209
  - # 9
    frequency:    7.7136564161
  - # 10
    frequency:    7.7536377083
  - # 11
    frequency:   11.9236015169
  - # 12
    frequency:   13.2932233972
  - # 13
    frequency:   13.3379893043
  - # 14
    frequency:   13.8168103586
  - # 15
    frequency:   20.4289850735

- q-position: [    0.0202020,    0.0000000,    0.0000000 ]
  distance:    0.0070993
  band:
  - # 1
    frequency:    0.0950956499
  - # 2
    frequency:    0.3465921393
  - # 3
    frequency:    0.5911617762
  - # 4
    frequency:    5.1845443603
  - # 5
    frequency:    5.2061678971
  - # 6
    frequency:    7.3541447812
  - # 7
    frequency:    7.4121615659
  - # 8
    frequency:    7.7139668361
  - # 9
    frequency:    7.7145944610
  - # 10
    frequency:    7.7559609337
  - # 11
    frequency:   11.9200631625
  - # 12
    frequency:   13.2916495226
  - # 13
    frequency:   13.3701163698
  - # 14
    frequency:   13.8128331954
  - # 15
    frequency:   20.4199567491

- q-position: [    0.0252525,    0.0000000,    0.0000000 ]
  distance:    0.0088741
  band:
  - # 1
    frequency:    0.1217226692
  - # 2
    frequency:    0.4330390773
  - # 3
    frequency:    0.7386346962
  - # 4
    frequency:    5.1830491999
  - # 5
    frequency:    5.2167396380
  - # 6
    frequency:    7.3492482491
  - # 7
    frequency:    7.4366948971
  - # 8
    frequency:    7.7146054850
  - # 9
    frequency:    7.7157382071
  - # 10
    frequency:    7.7603110239
  - # 11
    frequency:   11.9155275165
  - # 12
    frequency:   13.2896346790
  - # 13
    frequency:   13.4095464609
  - # 14
    frequency:   13.8095613363
  - # 15
    frequency:   20.4083739702

- q-position: [    0.0303030,    0.0000000,    0.0000000 ]
  distance:    0.0106489
  band:
  - # 1
    frequency:    0.1501117253
  - # 2
    frequency:    0.5193521245
  - # 3
    frequency:    0.8858929958
  - # 4
    frequency:    5.1812472681
  - # 5
    frequency:    5.2295933140
  - # 6
    frequency:    7.3433761613
  - # 7
    frequency:    7.4634559841
  - # 8
    frequency:    7.7149680228
  - # 9
    frequency:    7.7170461485
  - # 10
    frequency:    7.7680291462
  - # 11
    frequency:   11.9100048533
  - # 12
    frequency:   13.2871853774
  - # 13
    frequency:   13.4538792149
  - # 14
    frequency:   13.8093536213
  - # 15
    frequency:   20.3942554608

- q-position: [    0.0353535,    0.0000000,    0.0000000 ]
  distance:    0.0124237
  band:
  - # 1
    frequency:    0.1804940322
  - # 2
    frequency:    0.6055046811
  - # 3
    frequency:    1.0328908409
  - # 4
    frequency:    5.1791536714
  - # 5
    frequency:    5.2446900760
  - # 6
    frequency:    7.3365877062
  - # 7
    frequency:    7.4903378955
  - # 8
    frequency:    7.7147596579
  - # 9
    frequency:    7.7184725119
  - # 10
    frequency:    7.7808555277
  - # 11
    frequency:   11.9035077468
  - # 12
    frequency:   13.2843095511
  - # 13
    frequency:   13.4985999223
  - # 14
    frequency:   13.8166578972
  - # 15
    frequency:   20.3776240238

- q-position: [    0.0404040,    0.0000000,    0.0000000 ]
  distance:    0.0141985
  band:
  - # 1
    frequency:    0.2130538725
  - # 2
    frequency:    0.6914702501
  - # 3
    frequency:    1.1795808457
  - # 4
    frequency:    5.1767860962
  - # 5
    frequency:    5.2619853625
  - # 6
    frequency:    7.3289466478
  - # 7
    frequency:    7.5150027374
  - # 8
    frequency:    7.7137949957
  - # 9
    frequency:    7.7199692614
  - # 10
    frequency:    7.8005997537
  - # 11
    frequency:   11.8960510692
  - # 12
    frequency:   13.2810165393
  - # 13
    frequency:   13.5362751394
  - # 14
    frequency:   13.8388074725
  - # 15
    frequency:   20.3585064960

- q-position: [    0.0454545,    0.0000000,    0.0000000 ]
  distance:    0.0159734
  band:
  - # 1
    frequency:    0.2479314310
  - # 2
    frequency:    0.7772224589
  - # 3
    frequency:    1.3259138445
  - # 4
    frequency:    5.1741647269
  - # 5
    frequency:    5.2814295037
  - # 6
    frequency:    7.3205194931
  - # 7
    frequency:    7.5354214702
  - # 8
    frequency:    7.7120495774
  - # 9
    frequency:    7.7214878726
  - # 10
    frequency:    7.8285756787
  - # 11
    frequency:   11.8876519826
  - # 12
    frequency:   13.2773170661
  - # 13
    frequency:   13.5588792861
  - # 14
    frequency:   13.8836866273
  - # 15
    frequency:   20.3369336985

- q-position: [    0.0505051,    0.0000000,    0.0000000 ]
  distance:    0.0177482
  band:
  - # 1
    frequency:    0.2852269909
  - # 2
    frequency:    0.8627350825
  - # 3
    frequency:    1.4718386773
  - # 4
    frequency:    5.1713121541
  - # 5
    frequency:    5.3029683630
  - # 6
    frequency:    7.3113739626
  - # 7
    frequency:    7.5505099823
  - # 8
    frequency:    7.7095979852
  - # 9
    frequency:    7.7229807935
  - # 10
    frequency:    7.8650526045
  - # 11
    frequency:   11.8783299242
  - # 12
    frequency:   13.2732232146
  - # 13
    frequency:   13.5638590021
  - # 14
    frequency:   13.9536590145
  - # 15
    frequency:   20.3129403853

- q-position: [    0.0555556,    0.0000000,    0.0000000 ]
  distance:    0.0195230
  band:
  - # 1
    frequency:    0.3250057564
  - # 2
    frequency:    0.9479820698
  - # 3
    frequency:    1.6173019935
  - # 4
    frequency:    5.1682532716
  - # 5
    frequency:    5.3265439988
  - # 6
    frequency:    7.3015777947
  - # 7
    frequency:    7.5603101889
  - # 8
    frequency:    7.7065391279
  - # 9
    frequency:    7.7244025676
  - # 10
    frequency:    7.9091720871
  - # 11
    frequency:   11.8681065848
  - # 12
    frequency:   13.2687483953
  - # 13
    frequency:   13.5546936855
  - # 14
    frequency:   14.0450011097
  - # 15
    frequency:   20.2865651918

- q-position: [    0.0606061,    0.0000000,    0.0000000 ]
  distance:    0.0212978
  band:
  - # 1
    frequency:    0.3673027699
  - # 2
    frequency:    1.0329375704
  - # 3
    frequency:    1.7622480747
  - # 4
    frequency:    5.1650151632
  - # 5
    frequency:    5.3520953259
  - # 6
    frequency:    7.2911978644
  - # 7
    frequency:    7.5655813630
  - # 8
    frequency:    7.7029592457
  - # 9
    frequency:    7.7257106349
  - # 10
    frequency:    7.9594136171
  - # 11
    frequency:   11.8570058811
  - # 12
    frequency:   13.2639073074
  - # 13
    frequency:   13.5357987784
  - # 14
    frequency:   14.1529946417
  - # 15
    frequency:   20.2578505887

- q-position: [    0.0656566,    0.0000000,    0.0000000 ]
  distance:    0.0230726
  band:
  - # 1
    frequency:    0.4121275815
  - # 2
    frequency:    1.1175759647
  - # 3
    frequency:    1.9066186799
  - # 4
    frequency:    5.1616269817
  - # 5
    frequency:    5.3795587583
  - # 6
    frequency:    7.2802995790
  - # 7
    frequency:    7.5672681161
  - # 8
    frequency:    7.6989228309
  - # 9
    frequency:    7.7268658521
  - # 10
    frequency:    8.0141518596
  - # 11
    frequency:   11.8450539230
  - # 12
    frequency:   13.2587158944
  - # 13
    frequency:   13.5101532243
  - # 14
    frequency:   14.2742969491
  - # 15
    frequency:   20.2268428430

- q-position: [    0.0707071,    0.0000000,    0.0000000 ]
  distance:    0.0248475
  band:
  - # 1
    frequency:    0.4594684893
  - # 2
    frequency:    1.2018718964
  - # 3
    frequency:    2.0503529169
  - # 4
    frequency:    5.1581198180
  - # 5
    frequency:    5.4088688190
  - # 6
    frequency:    7.2689464981
  - # 7
    frequency:    7.5662013291
  - # 8
    frequency:    7.6944744521
  - # 9
    frequency:    7.7278327841
  - # 10
    frequency:    8.0719657853
  - # 11
    frequency:   11.8322789759
  - # 12
    frequency:   13.2531912903
  - # 13
    frequency:   13.4794793497
  - # 14
    frequency:   14.4067611994
  - # 15
    frequency:   20.1935919952

- q-position: [    0.0757576,    0.0000000,    0.0000000 ]
  distance:    0.0266223
  band:
  - # 1
    frequency:    0.5092962718
  - # 2
    frequency:    1.2858003058
  - # 3
    frequency:    2.1933871423
  - # 4
    frequency:    5.1545265632
  - # 5
    frequency:    5.4399587017
  - # 6
    frequency:    7.2572001246
  - # 7
    frequency:    7.5630208506
  - # 8
    frequency:    7.6896430822
  - # 9
    frequency:    7.7285798207
  - # 10
    frequency:    8.1317192260
  - # 11
    frequency:   11.8187114190
  - # 12
    frequency:   13.2473517587
  - # 13
    frequency:   13.4447719368
  - # 14
    frequency:   14.5489097094
  - # 15
    frequency:   20.1581518568

- q-position: [    0.0808081,    0.0000000,    0.0000000 ]
  distance:    0.0283971
  band:
  - # 1
    frequency:    0.5615674054
  - # 2
    frequency:    1.3693364668
  - # 3
    frequency:    2.3356548946
  - # 4
    frequency:    5.1508817636
  - # 5
    frequency:    5.4727607759
  - # 6
    frequency:    7.2451198198
  - # 7
    frequency:    7.5581972097
  - # 8
    frequency:    7.6844462060
  - # 9
    frequency:    7.7290791668
  - # 10
    frequency:    8.1925385626
  - # 11
    frequency:   11.8043836996
  - # 12
    frequency:   13.2412166229
  - # 13
    frequency:   13.4066360337
  - # 14
    frequency:   14.6996006392
  - # 15
    frequency:   20.1205800406

- q-position: [    0.0858586,    0.0000000,    0.0000000 ]
  distance:    0.0301719
  band:
  - # 1
    frequency:    0.6162267988
  - # 2
    frequency:    1.4524560246
  - # 3
    frequency:    2.4770868629
  - # 4
    frequency:    5.1472214691
  - # 5
    frequency:    5.5072070252
  - # 6
    frequency:    7.2327628009
  - # 7
    frequency:    7.5520755280
  - # 8
    frequency:    7.6788931389
  - # 9
    frequency:    7.7293067473
  - # 10
    frequency:    8.2537653862
  - # 11
    frequency:   11.7893302850
  - # 12
    frequency:   13.2348061865
  - # 13
    frequency:   13.3654658817
  - # 14
    frequency:   14.8578553408
  - # 15
    frequency:   20.0809380351

- q-position: [    0.0909091,    0.0000000,    0.0000000 ]
  distance:    0.0319467
  band:
  - # 1
    frequency:    0.6732100938
  - # 2
    frequency:    1.5351350353
  - # 3
    frequency:    2.6176108964
  - # 4
    frequency:    5.1435830757
  - # 5
    frequency:    5.5432294162
  - # 6
    frequency:    7.2201841906
  - # 7
    frequency:    7.5449140965
  - # 8
    frequency:    7.6729876045
  - # 9
    frequency:    7.7292420588
  - # 10
    frequency:    8.3149122323
  - # 11
    frequency:   11.7735876116
  - # 12
    frequency:   13.2281416454
  - # 13
    frequency:   13.3215378836
  - # 14
    frequency:   15.0227729852
  - # 15
    frequency:   20.0392913407

- q-position: [    0.0959596,    0.0000000,    0.0000000 ]
  distance:    0.0337216
  band:
  - # 1
    frequency:    0.7324455870
  - # 2
    frequency:    1.6173500076
  - # 3
    frequency:    2.7571520588
  - # 4
    frequency:    5.1400051632
  - # 5
    frequency:    5.5807601931
  - # 6
    frequency:    7.2074370934
  - # 7
    frequency:    7.5369123959
  - # 8
    frequency:    7.6667297288
  - # 9
    frequency:    7.7288679930
  - # 10
    frequency:    8.3756271422
  - # 11
    frequency:   11.7571940332
  - # 12
    frequency:   13.2212449905
  - # 13
    frequency:   13.2750602149
  - # 14
    frequency:   15.1934893563
  - # 15
    frequency:   19.9957096918

- q-position: [    0.1010101,    0.0000000,    0.0000000 ]
  distance:    0.0354964
  band:
  - # 1
    frequency:    0.7938558292
  - # 2
    frequency:    1.6990779444
  - # 3
    frequency:    2.8956327313
  - # 4
    frequency:    5.1365273281
  - # 5
    frequency:    5.6197320964
  - # 6
    frequency:    7.1945726817
  - # 7
    frequency:    7.5282300899
  - # 8
    frequency:    7.6601175940
  - # 9
    frequency:    7.7281706484
  - # 10
    frequency:    8.4356660698
  - # 11
    frequency:   11.7401897687
  - # 12
    frequency:   13.2141389005
  - # 13
    frequency:   13.2262003458
  - # 14
    frequency:   15.3691580175
  - # 15
    frequency:   19.9502673971

- q-position: [    0.1060606,    0.0000000,    0.0000000 ]
  distance:    0.0372712
  band:
  - # 1
    frequency:    0.8573589516
  - # 2
    frequency:    1.7802963864
  - # 3
    frequency:    3.0329727685
  - # 4
    frequency:    5.1331900126
  - # 5
    frequency:    5.6600785069
  - # 6
    frequency:    7.1816402804
  - # 7
    frequency:    7.5189995806
  - # 8
    frequency:    7.6531484648
  - # 9
    frequency:    7.7271391435
  - # 10
    frequency:    8.4948710818
  - # 11
    frequency:   11.7226168515
  - # 12
    frequency:   13.1751009319
  - # 13
    frequency:   13.2068466276
  - # 14
    frequency:   15.5489429036
  - # 15
    frequency:   19.9030438444

- q-position: [    0.1111111,    0.0000000,    0.0000000 ]
  distance:    0.0390460
  band:
  - # 1
    frequency:    0.9228697640
  - # 2
    frequency:    1.8609834551
  - # 3
    frequency:    3.1690897132
  - # 4
    frequency:    5.1300343294
  - # 5
    frequency:    5.7017335153
  - # 6
    frequency:    7.1686874419
  - # 7
    frequency:    7.5093342571
  - # 8
    frequency:    7.6458197691
  - # 9
    frequency:    7.7257654375
  - # 10
    frequency:    8.5531526885
  - # 11
    frequency:   11.7045190825
  - # 12
    frequency:   13.1218893365
  - # 13
    frequency:   13.1993918734
  - # 14
    frequency:   15.7320166343
  - # 15
    frequency:   19.8541242369

- q-position: [    0.1161616,    0.0000000,    0.0000000 ]
  distance:    0.0408208
  band:
  - # 1
    frequency:    0.9903006625
  - # 2
    frequency:    1.9411178962
  - # 3
    frequency:    3.3038990718
  - # 4
    frequency:    5.1271018846
  - # 5
    frequency:    5.7446319178
  - # 6
    frequency:    7.1557600070
  - # 7
    frequency:    7.4993339235
  - # 8
    frequency:    7.6381298959
  - # 9
    frequency:    7.7240441638
  - # 10
    frequency:    8.6104752008
  - # 11
    frequency:   11.6859419882
  - # 12
    frequency:   13.0666835326
  - # 13
    frequency:   13.1917986593
  - # 14
    frequency:   15.9175614251
  - # 15
    frequency:   19.8036006572

- q-position: [    0.1212121,    0.0000000,    0.0000000 ]
  distance:    0.0425956
  band:
  - # 1
    frequency:    1.0595623815
  - # 2
    frequency:    2.0206791226
  - # 3
    frequency:    3.4373146556
  - # 4
    frequency:    5.1244345963
  - # 5
    frequency:    5.7887091414
  - # 6
    frequency:    7.1429021496
  - # 7
    frequency:    7.4890883852
  - # 8
    frequency:    7.6300788601
  - # 9
    frequency:    7.7219724784
  - # 10
    frequency:    8.6668444123
  - # 11
    frequency:   11.6669327880
  - # 12
    frequency:   13.0095958728
  - # 13
    frequency:   13.1840911889
  - # 14
    frequency:   16.1047707748
  - # 15
    frequency:   19.7515736057

- q-position: [    0.1262626,    0.0000000,    0.0000000 ]
  distance:    0.0443705
  band:
  - # 1
    frequency:    1.1305646147
  - # 2
    frequency:    2.0996472562
  - # 3
    frequency:    3.5692489909
  - # 4
    frequency:    5.1220745116
  - # 5
    frequency:    5.8339010990
  - # 6
    frequency:    7.1301564046
  - # 7
    frequency:    7.4786798250
  - # 8
    frequency:    7.6216688690
  - # 9
    frequency:    7.7195499227
  - # 10
    frequency:    8.7222971572
  - # 11
    frequency:   11.6475403722
  - # 12
    frequency:   12.9507355649
  - # 13
    frequency:   13.1762937074
  - # 14
    frequency:   16.2928507750
  - # 15
    frequency:   19.6981542328

- q-position: [    0.1313131,    0.0000000,    0.0000000 ]
  distance:    0.0461453
  band:
  - # 1
    frequency:    1.2032165304
  - # 2
    frequency:    2.1780031683
  - # 3
    frequency:    3.6996137982
  - # 4
    frequency:    5.1200636211
  - # 5
    frequency:    5.8801439770
  - # 6
    frequency:    7.1175636786
  - # 7
    frequency:    7.4681843753
  - # 8
    frequency:    7.6129048196
  - # 9
    frequency:    7.7167782998
  - # 10
    frequency:    8.7768924315
  - # 11
    frequency:   11.6278152960
  - # 12
    frequency:   12.8902103424
  - # 13
    frequency:   13.1684303556
  - # 14
    frequency:   16.4810201812
  - # 15
    frequency:   19.6434676124

- q-position: [    0.1363636,    0.0000000,    0.0000000 ]
  distance:    0.0479201
  band:
  - # 1
    frequency:    1.2774271986
  - # 2
    frequency:    2.2557285184
  - # 3
    frequency:    3.8283205428
  - # 4
    frequency:    5.1184436711
  - # 5
    frequency:    5.9273739566
  - # 6
    frequency:    7.1051632456
  - # 7
    frequency:    7.4576731531
  - # 8
    frequency:    7.6037947465
  - # 9
    frequency:    7.7136615635
  - # 10
    frequency:    8.8307038422
  - # 11
    frequency:   11.6078097919
  - # 12
    frequency:   12.8281276244
  - # 13
    frequency:   13.1605250231
  - # 14
    frequency:   16.6685084344
  - # 15
    frequency:   19.5876576086

- q-position: [    0.1414141,    0.0000000,    0.0000000 ]
  distance:    0.0496949
  band:
  - # 1
    frequency:    1.3531059471
  - # 2
    frequency:    2.3328057903
  - # 3
    frequency:    3.9552810532
  - # 4
    frequency:    5.1172559746
  - # 5
    frequency:    5.9755268703
  - # 6
    frequency:    7.0929927280
  - # 7
    frequency:    7.4472129308
  - # 8
    frequency:    7.5943502377
  - # 9
    frequency:    7.7102057167
  - # 10
    frequency:    8.8838131844
  - # 11
    frequency:   11.5875778055
  - # 12
    frequency:   12.7645953498
  - # 13
    frequency:   13.1526012011
  - # 14
    frequency:   16.8545506140
  - # 15
    frequency:   19.5308942448

- q-position: [    0.1464646,    0.0000000,    0.0000000 ]
  distance:    0.0514697
  band:
  - # 1
    frequency:    1.4301626572
  - # 2
    frequency:    2.4092183258
  - # 3
    frequency:    4.0804082045
  - # 4
    frequency:    5.1165412193
  - # 5
    frequency:    6.0245377940
  - # 6
    frequency:    7.0810880660
  - # 7
    frequency:    7.4368665635
  - # 8
    frequency:    7.5845868292
  - # 9
    frequency:    7.7064187173
  - # 10
    frequency:    8.9363049714
  - # 11
    frequency:   11.5671750581
  - # 12
    frequency:   12.6997226065
  - # 13
    frequency:   13.1446818370
  - # 14
    frequency:   17.0383777661
  - # 15
    frequency:   19.4733851132

- q-position: [    0.1515152,    0.0000000,    0.0000000 ]
  distance:    0.0532446
  band:
  - # 1
    frequency:    1.5085080121
  - # 2
    frequency:    2.4849503554
  - # 3
    frequency:    4.2036166582
  - # 4
    frequency:    5.1163392752
  - # 5
    frequency:    6.0743405755
  - # 6
    frequency:    7.0694834752
  - # 7
    frequency:    7.4266932526
  - # 8
    frequency:    7.5745243894
  - # 9
    frequency:    7.7023103888
  - # 10
    frequency:    8.9882617598
  - # 11
    frequency:   11.5466591403
  - # 12
    frequency:   12.6336201385
  - # 13
    frequency:   13.1367891921
  - # 14
    frequency:   17.2191999540
  - # 15
    frequency:   19.4153935127

- q-position: [    0.1565657,    0.0000000,    0.0000000 ]
  distance:    0.0550194
  band:
  - # 1
    frequency:    1.5880537049
  - # 2
    frequency:    2.5599870251
  - # 3
    frequency:    4.3248236484
  - # 4
    frequency:    5.1166889999
  - # 5
    frequency:    6.1248672980
  - # 6
    frequency:    7.0582113967
  - # 7
    frequency:    7.4167487069
  - # 8
    frequency:    7.5641875018
  - # 9
    frequency:    7.6978923327
  - # 10
    frequency:    9.0397601218
  - # 11
    frequency:   11.5260896385
  - # 12
    frequency:   12.5664007916
  - # 13
    frequency:   13.1289447058
  - # 14
    frequency:   17.3961772425
  - # 15
    frequency:   19.3572681631

- q-position: [    0.1616162,    0.0000000,    0.0000000 ]
  distance:    0.0567942
  band:
  - # 1
    frequency:    1.6687126131
  - # 2
    frequency:    2.6343144199
  - # 3
    frequency:    4.4439497974
  - # 4
    frequency:    5.1176280428
  - # 5
    frequency:    6.1760476763
  - # 6
    frequency:    7.0473024398
  - # 7
    frequency:    7.4070852446
  - # 8
    frequency:    7.5536058557
  - # 9
    frequency:    7.6931778411
  - # 10
    frequency:    9.0908671360
  - # 11
    frequency:   11.5055282949
  - # 12
    frequency:   12.4981799478
  - # 13
    frequency:   13.1211688663
  - # 14
    frequency:   17.5683696310
  - # 15
    frequency:   19.2994935553

- q-position: [    0.1666667,    0.0000000,    0.0000000 ]
  distance:    0.0585690
  band:
  - # 1
    frequency:    1.7503989468
  - # 2
    frequency:    2.7079195833
  - # 3
    frequency:    4.5609199429
  - # 4
    frequency:    5.1191926482
  - # 5
    frequency:    6.2278083810
  - # 6
    frequency:    7.0367853199
  - # 7
    frequency:    7.3977518755
  - # 8
    frequency:    7.5428146538
  - # 9
    frequency:    7.6881818055
  - # 10
    frequency:    9.1416372758
  - # 11
    frequency:   11.4850391969
  - # 12
    frequency:   12.4290759939
  - # 13
    frequency:   13.1134810925
  - # 14
    frequency:   17.7346485666
  - # 15
    frequency:   19.2427783798

- q-position: [    0.1717172,    0.0000000,    0.0000000 ]
  distance:    0.0603438
  band:
  - # 1
    frequency:    1.8330283725
  - # 2
    frequency:    2.7807905325
  - # 3
    frequency:    4.6756639489
  - # 4
    frequency:    5.1214174567
  - # 5
    frequency:    6.2800722797
  - # 6
    frequency:    7.0266867942
  - # 7
    frequency:    7.3887943979
  - # 8
    frequency:    7.5318550473
  - # 9
    frequency:    7.6829206208
  - # 10
    frequency:    9.1921095937
  - # 11
    frequency:   11.4646889868
  - # 12
    frequency:   12.3592108730
  - # 13
    frequency:   13.1058996252
  - # 14
    frequency:   17.8935358480
  - # 15
    frequency:   19.1882162929

- q-position: [    0.1767677,    0.0000000,    0.0000000 ]
  distance:    0.0621186
  band:
  - # 1
    frequency:    1.9165181183
  - # 2
    frequency:    2.8529162700
  - # 3
    frequency:    4.7881174732
  - # 4
    frequency:    5.1243353064
  - # 5
    frequency:    6.3327575770
  - # 6
    frequency:    7.0170315947
  - # 7
    frequency:    7.3802555513
  - # 8
    frequency:    7.5207746103
  - # 9
    frequency:    7.6774120828
  - # 10
    frequency:    9.2423051088
  - # 11
    frequency:   11.4445470654
  - # 12
    frequency:   12.2887107771
  - # 13
    frequency:   13.0984414332
  - # 14
    frequency:   18.0429036962
  - # 15
    frequency:   19.1375853088

- q-position: [    0.1818182,    0.0000000,    0.0000000 ]
  distance:    0.0638935
  band:
  - # 1
    frequency:    2.0007870622
  - # 2
    frequency:    2.9242867908
  - # 3
    frequency:    4.8982226554
  - # 4
    frequency:    5.1279770333
  - # 5
    frequency:    6.3857768224
  - # 6
    frequency:    7.0078423633
  - # 7
    frequency:    7.3721752749
  - # 8
    frequency:    7.5096278664
  - # 9
    frequency:    7.6716752763
  - # 10
    frequency:    9.2922243174
  - # 11
    frequency:   11.4246857499
  - # 12
    frequency:   12.2177070600
  - # 13
    frequency:   13.0911221330
  - # 14
    frequency:   18.1794231009
  - # 15
    frequency:   19.0938987618

- q-position: [    0.1868687,    0.0000000,    0.0000000 ]
  distance:    0.0656683
  band:
  - # 1
    frequency:    2.0857558054
  - # 2
    frequency:    2.9948930853
  - # 3
    frequency:    5.0059286874
  - # 4
    frequency:    5.1323712720
  - # 5
    frequency:    6.4390357335
  - # 6
    frequency:    6.9991395880
  - # 7
    frequency:    7.3645911460
  - # 8
    frequency:    7.4984768768
  - # 9
    frequency:    7.6657304534
  - # 10
    frequency:    9.3418447610
  - # 11
    frequency:   11.4051803017
  - # 12
    frequency:   12.1463374838
  - # 13
    frequency:   13.0839559243
  - # 14
    frequency:   18.2976705009
  - # 15
    frequency:   19.0622978273

- q-position: [    0.1919192,    0.0000000,    0.0000000 ]
  distance:    0.0674431
  band:
  - # 1
    frequency:    2.1713467333
  - # 2
    frequency:    3.0647271388
  - # 3
    frequency:    5.1111922266
  - # 4
    frequency:    5.1375442558
  - # 5
    frequency:    6.4924317483
  - # 6
    frequency:    6.9909415435
  - # 7
    frequency:    7.3575391084
  - # 8
    frequency:    7.4873918966
  - # 9
    frequency:    7.6595989014
  - # 10
    frequency:    9.3911185925
  - # 11
    frequency:   11.3861086814
  - # 12
    frequency:   12.0747479748
  - # 13
    frequency:   13.0769555431
  - # 14
    frequency:   18.3893780330
  - # 15
    frequency:   19.0508004038

- q-position: [    0.1969697,    0.0000000,    0.0000000 ]
  distance:    0.0692179
  band:
  - # 1
    frequency:    2.2574840647
  - # 2
    frequency:    3.1337819276
  - # 3
    frequency:    5.1435196190
  - # 4
    frequency:    5.2139776082
  - # 5
    frequency:    6.5458521699
  - # 6
    frequency:    6.9832642367
  - # 7
    frequency:    7.3510546642
  - # 8
    frequency:    7.4764520944
  - # 9
    frequency:    7.6533027989
  - # 10
    frequency:    9.4399701001
  - # 11
    frequency:   11.3675507699
  - # 12
    frequency:   12.0030951763
  - # 13
    frequency:   13.0701322311
  - # 14
    frequency:   18.4453479317
  - # 15
    frequency:   19.0683858023

- q-position: [    0.2020202,    0.0000000,    0.0000000 ]
  distance:    0.0709927
  band:
  - # 1
    frequency:    2.3440938905
  - # 2
    frequency:    3.2020514111
  - # 3
    frequency:    5.1503182003
  - # 4
    frequency:    5.3142568172
  - # 5
    frequency:    6.5991716850
  - # 6
    frequency:    6.9761213587
  - # 7
    frequency:    7.3451748008
  - # 8
    frequency:    7.4657463110
  - # 9
    frequency:    7.6468650607
  - # 10
    frequency:    9.4882931591
  - # 11
    frequency:   11.3495865809
  - # 12
    frequency:   11.9315502841
  - # 13
    frequency:   13.0634957242
  - # 14
    frequency:   18.4624495778
  - # 15
    frequency:   19.1179967704

- q-position: [    0.2070707,    0.0000000,    0.0000000 ]
  distance:    0.0727676
  band:
  - # 1
    frequency:    2.4311042038
  - # 2
    frequency:    3.2695305219
  - # 3
    frequency:    5.1579578486
  - # 4
    frequency:    5.4120091784
  - # 5
    frequency:    6.6522489148
  - # 6
    frequency:    6.9695242452
  - # 7
    frequency:    7.3399410805
  - # 8
    frequency:    7.4553737997
  - # 9
    frequency:    7.6403091719
  - # 10
    frequency:    9.5359486089
  - # 11
    frequency:   11.3322925874
  - # 12
    frequency:   11.8603050445
  - # 13
    frequency:   13.0570542581
  - # 14
    frequency:   18.4476416639
  - # 15
    frequency:   19.1925163979

- q-position: [    0.2121212,    0.0000000,    0.0000000 ]
  distance:    0.0745424
  band:
  - # 1
    frequency:    2.5184449197
  - # 2