nqpoint: 300    
npath: 3      
segment_nqpoint:
- 100
- 100
- 100
labels:
- [ 'G', 'M' ]
- [ 'M', 'K' ]
- [ 'K', 'G' ]
reciprocal_lattice:
- [   0.29704613,   0.17149966,   0.00000000 ] # a*
- [   0.00000000,   0.34299932,   0.00000000 ] # b*
- [   0.00000000,   0.00000000,   0.03567081 ] # c*
natom: 9      
lattice:
- [     3.366480507815468,     0.000000000000000,     0.000000000000000 ] # a
- [    -1.683240253907734,     2.915457641115121,     0.000000000000000 ] # b
- [     0.000000000000000,     0.000000000000000,    28.034126669620605 ] # c
points:
- symbol: C # 1
  coordinates: [  0.000000000000000,  0.000000000000000,  0.499382551182496 ]
  mass: 12.010700
- symbol: C # 2
  coordinates: [  0.333332985432215,  0.666666983183674,  0.636020520524959 ]
  mass: 12.010700
- symbol: C # 3
  coordinates: [  0.666666984744047,  0.333332985985145,  0.363423960107855 ]
  mass: 12.010700
- symbol: N # 4
  coordinates: [  0.333332985432215,  0.666666983183674,  0.591549584426717 ]
  mass: 14.006700
- symbol: N # 5
  coordinates: [  0.666666984744047,  0.333332985985145,  0.321037288090480 ]
  mass: 14.006700
- symbol: O # 6
  coordinates: [  0.333332985432215,  0.666666983183674,  0.678962711909520 ]
  mass: 15.999400
- symbol: O # 7
  coordinates: [  0.666666984744047,  0.333332985985145,  0.411110843187764 ]
  mass: 15.999400
- symbol: Sc # 8
  coordinates: [  0.333332985432215,  0.666666983183674,  0.454797956294317 ]
  mass: 44.955912
- symbol: Sc # 9
  coordinates: [  0.666666984744047,  0.333332985985145,  0.544122804799363 ]
  mass: 44.955912

phonon:
- q-position: [    0.0000000,    0.0000000,    0.0000000 ]
  distance:    0.0000000
  band:
  - # 1
    frequency:   -0.9726356557
  - # 2
    frequency:   -0.9726356557
  - # 3
    frequency:   -0.6408260473
  - # 4
    frequency:   -0.6408260473
  - # 5
    frequency:   -0.0000074186
  - # 6
    frequency:    0.0000006184
  - # 7
    frequency:    0.0000087643
  - # 8
    frequency:    4.5427860755
  - # 9
    frequency:    4.5427860755
  - # 10
    frequency:    5.4350488745
  - # 11
    frequency:    6.3218805546
  - # 12
    frequency:    6.3218805546
  - # 13
    frequency:    6.7932656918
  - # 14
    frequency:    6.7932656918
  - # 15
    frequency:    8.9305641835
  - # 16
    frequency:   12.0273907926
  - # 17
    frequency:   12.0273907926
  - # 18
    frequency:   12.1008026823
  - # 19
    frequency:   13.7356015814
  - # 20
    frequency:   13.7356015814
  - # 21
    frequency:   17.7376975607
  - # 22
    frequency:   17.7376975607
  - # 23
    frequency:   19.1049247252
  - # 24
    frequency:   32.0159945859
  - # 25
    frequency:   38.8588655115
  - # 26
    frequency:   67.8860524265
  - # 27
    frequency:   69.3044837002

- q-position: [    0.0050505,    0.0000000,    0.0000000 ]
  distance:    0.0017323
  band:
  - # 1
    frequency:   -0.9719363153
  - # 2
    frequency:   -0.9686747515
  - # 3
    frequency:   -0.6401066352
  - # 4
    frequency:   -0.6370980782
  - # 5
    frequency:    0.0023480441
  - # 6
    frequency:    0.0732436691
  - # 7
    frequency:    0.1305561520
  - # 8
    frequency:    4.5429737600
  - # 9
    frequency:    4.5441259683
  - # 10
    frequency:    5.4345642159
  - # 11
    frequency:    6.3216732629
  - # 12
    frequency:    6.3256011303
  - # 13
    frequency:    6.7933444809
  - # 14
    frequency:    6.7936138191
  - # 15
    frequency:    8.9304663868
  - # 16
    frequency:   12.0267459256
  - # 17
    frequency:   12.0271354819
  - # 18
    frequency:   12.1060193192
  - # 19
    frequency:   13.7356509671
  - # 20
    frequency:   13.7358400415
  - # 21
    frequency:   17.7377287531
  - # 22
    frequency:   17.7379369696
  - # 23
    frequency:   19.1036285282
  - # 24
    frequency:   32.0155536214
  - # 25
    frequency:   38.8588108624
  - # 26
    frequency:   67.8858134577
  - # 27
    frequency:   69.3032822269

- q-position: [    0.0101010,    0.0000000,    0.0000000 ]
  distance:    0.0034646
  band:
  - # 1
    frequency:   -0.9698712185
  - # 2
    frequency:   -0.9569649172
  - # 3
    frequency:   -0.6380169593
  - # 4
    frequency:   -0.6263164985
  - # 5
    frequency:    0.0094071219
  - # 6
    frequency:    0.1470174625
  - # 7
    frequency:    0.2632549128
  - # 8
    frequency:    4.5435369759
  - # 9
    frequency:    4.5481365250
  - # 10
    frequency:    5.4331322070
  - # 11
    frequency:    6.3210532614
  - # 12
    frequency:    6.3366494786
  - # 13
    frequency:    6.7935794492
  - # 14
    frequency:    6.7946805387
  - # 15
    frequency:    8.9301736405
  - # 16
    frequency:   12.0244266676
  - # 17
    frequency:   12.0263702244
  - # 18
    frequency:   12.1220448656
  - # 19
    frequency:   13.7357991725
  - # 20
    frequency:   13.7365550463
  - # 21
    frequency:   17.7378223281
  - # 22
    frequency:   17.7386535030
  - # 23
    frequency:   19.0997434398
  - # 24
    frequency:   32.0142318022
  - # 25
    frequency:   38.8586470286
  - # 26
    frequency:   67.8850970290
  - # 27
    frequency:   69.2996802806

- q-position: [    0.0151515,    0.0000000,    0.0000000 ]
  distance:    0.0051970
  band:
  - # 1
    frequency:   -0.9665338671
  - # 2
    frequency:   -0.9379505909
  - # 3
    frequency:   -0.6347457775
  - # 4
    frequency:   -0.6094050326
  - # 5
    frequency:    0.0212098498
  - # 6
    frequency:    0.2217644202
  - # 7
    frequency:    0.3994154021
  - # 8
    frequency:    4.5444762091
  - # 9
    frequency:    4.5547906036
  - # 10
    frequency:    5.4308150045
  - # 11
    frequency:    6.3200261316
  - # 12
    frequency:    6.3546892875
  - # 13
    frequency:    6.7939664352
  - # 14
    frequency:    6.7965361284
  - # 15
    frequency:    8.9296878918
  - # 16
    frequency:   12.0198362891
  - # 17
    frequency:   12.0250970432
  - # 18
    frequency:   12.1494480515
  - # 19
    frequency:   13.7360463408
  - # 20
    frequency:   13.7377455045
  - # 21
    frequency:   17.7379782795
  - # 22
    frequency:   17.7398420563
  - # 23
    frequency:   19.0932799993
  - # 24
    frequency:   32.0120323474
  - # 25
    frequency:   38.8583743504
  - # 26
    frequency:   67.8839045721
  - # 27
    frequency:   69.2936852743

- q-position: [    0.0202020,    0.0000000,    0.0000000 ]
  distance:    0.0069293
  band:
  - # 1
    frequency:   -0.9620636797
  - # 2
    frequency:   -0.9121571385
  - # 3
    frequency:   -0.6305565995
  - # 4
    frequency:   -0.5871963431
  - # 5
    frequency:    0.0378226556
  - # 6
    frequency:    0.2977762725
  - # 7
    frequency:    0.5392389718
  - # 8
    frequency:    4.5457922667
  - # 9
    frequency:    4.5640436997
  - # 10
    frequency:    5.4277049805
  - # 11
    frequency:    6.3186010437
  - # 12
    frequency:    6.3791704961
  - # 13
    frequency:    6.7944986164
  - # 14
    frequency:    6.7993093748
  - # 15
    frequency:    8.9290124342
  - # 16
    frequency:   12.0127337146
  - # 17
    frequency:   12.0233193092
  - # 18
    frequency:   12.1884202435
  - # 19
    frequency:   13.7363927074
  - # 20
    frequency:   13.7394097208
  - # 21
    frequency:   17.7381965963
  - # 22
    frequency:   17.7414940355
  - # 23
    frequency:   19.0842558784
  - # 24
    frequency:   32.0089606074
  - # 25
    frequency:   38.8579933939
  - # 26
    frequency:   67.8822384682
  - # 27
    frequency:   69.2853095394

- q-position: [    0.0252525,    0.0000000,    0.0000000 ]
  distance:    0.0086616
  band:
  - # 1
    frequency:   -0.9566251655
  - # 2
    frequency:   -0.8799684884
  - # 3
    frequency:   -0.6257287842
  - # 4
    frequency:   -0.5599695640
  - # 5
    frequency:    0.0593602060
  - # 6
    frequency:    0.3751680502
  - # 7
    frequency:    0.6821120901
  - # 8
    frequency:    4.5474862718
  - # 9
    frequency:    4.5758350022
  - # 10
    frequency:    5.4239116297
  - # 11
    frequency:    6.3167905663
  - # 12
    frequency:    6.4093375184
  - # 13
    frequency:    6.7951666740
  - # 14
    frequency:    6.8032079139
  - # 15
    frequency:    8.9281519787
  - # 16
    frequency:   12.0031397231
  - # 17
    frequency:   12.0210417379
  - # 18
    frequency:   12.2388649217
  - # 19
    frequency:   13.7368385949
  - # 20
    frequency:   13.7415455945
  - # 21
    frequency:   17.7384772622
  - # 22
    frequency:   17.7435972234
  - # 23
    frequency:   19.0726960463
  - # 24
    frequency:   32.0050240422
  - # 25
    frequency:   38.8575049487
  - # 26
    frequency:   67.8801020400
  - # 27
    frequency:   69.2745702904

- q-position: [    0.0303030,    0.0000000,    0.0000000 ]
  distance:    0.0103939
  band:
  - # 1
    frequency:   -0.9503854768
  - # 2
    frequency:   -0.8414653381
  - # 3
    frequency:   -0.6205050029
  - # 4
    frequency:   -0.5273404975
  - # 5
    frequency:    0.0860108581
  - # 6
    frequency:    0.4538937731
  - # 7
    frequency:    0.8271107184
  - # 8
    frequency:    4.5495596573
  - # 9
    frequency:    4.5900887934
  - # 10
    frequency:    5.4195488364
  - # 11
    frequency:    6.3146104123
  - # 12
    frequency:    6.4442274318
  - # 13
    frequency:    6.7959590097
  - # 14
    frequency:    6.8085527941
  - # 15
    frequency:    8.9271127505
  - # 16
    frequency:   11.9911420714
  - # 17
    frequency:   12.0182703862
  - # 18
    frequency:   12.3005869728
  - # 19
    frequency:   13.7373844059
  - # 20
    frequency:   13.7441509326
  - # 21
    frequency:   17.7388202545
  - # 22
    frequency:   17.7461355782
  - # 23
    frequency:   19.0586330145
  - # 24
    frequency:   32.0002321917
  - # 25
    frequency:   38.8569100254
  - # 26
    frequency:   67.8774995419
  - # 27
    frequency:   69.2614895749

- q-position: [    0.0353535,    0.0000000,    0.0000000 ]
  distance:    0.0121262
  band:
  - # 1
    frequency:   -0.9434949127
  - # 2
    frequency:   -0.7963644900
  - # 3
    frequency:   -0.6150601206
  - # 4
    frequency:   -0.4882957074
  - # 5
    frequency:    0.1180740047
  - # 6
    frequency:    0.5337904517
  - # 7
    frequency:    0.9733508681
  - # 8
    frequency:    4.5520141566
  - # 9
    frequency:    4.6067161231
  - # 10
    frequency:    5.4147250122
  - # 11
    frequency:    6.3120791347
  - # 12
    frequency:    6.4826481635
  - # 13
    frequency:    6.7968620053
  - # 14
    frequency:    6.8158332914
  - # 15
    frequency:    8.9259026069
  - # 16
    frequency:   11.9768232822
  - # 17
    frequency:   12.0150126461
  - # 18
    frequency:   12.3733584704
  - # 19
    frequency:   13.7380306141
  - # 20
    frequency:   13.7472239249
  - # 21
    frequency:   17.7392255428
  - # 22
    frequency:   17.7490889546
  - # 23
    frequency:   19.0421071737
  - # 24
    frequency:   31.9945966368
  - # 25
    frequency:   38.8562098523
  - # 26
    frequency:   67.8744361456
  - # 27
    frequency:   69.2460942109

- q-position: [    0.0404040,    0.0000000,    0.0000000 ]
  distance:    0.0138586
  band:
  - # 1
    frequency:   -0.9360735962
  - # 2
    frequency:   -0.7440400958
  - # 3
    frequency:   -0.6094946084
  - # 4
    frequency:   -0.4410611533
  - # 5
    frequency:    0.1560081491
  - # 6
    frequency:    0.6146305220
  - # 7
    frequency:    1.1201267448
  - # 8
    frequency:    4.5548517938
  - # 9
    frequency:    4.6256166778
  - # 10
    frequency:    5.4095371158
  - # 11
    frequency:    6.3092177841
  - # 12
    frequency:    6.5231307455
  - # 13
    frequency:    6.7978603122
  - # 14
    frequency:    6.8257853219
  - # 15
    frequency:    8.9245311753
  - # 16
    frequency:   11.9602504640
  - # 17
    frequency:   12.0112772364
  - # 18
    frequency:   12.4569220209
  - # 19
    frequency:   13.7387777539
  - # 20
    frequency:   13.7507638747
  - # 21
    frequency:   17.7396930876
  - # 22
    frequency:   17.7524327259
  - # 23
    frequency:   19.0231672429
  - # 24
    frequency:   31.9881309535
  - # 25
    frequency:   38.8554058711
  - # 26
    frequency:   67.8709179248
  - # 27
    frequency:   69.2284157092

- q-position: [    0.0454545,    0.0000000,    0.0000000 ]
  distance:    0.0155909
  band:
  - # 1
    frequency:   -0.9282053698
  - # 2
    frequency:   -0.6836049835
  - # 3
    frequency:   -0.6038452100
  - # 4
    frequency:   -0.3824275344
  - # 5
    frequency:    0.2004723398
  - # 6
    frequency:    0.6961666168
  - # 7
    frequency:    1.2669219200
  - # 8
    frequency:    4.5580748701
  - # 9
    frequency:    4.6466807665
  - # 10
    frequency:    5.4040683097
  - # 11
    frequency:    6.3060495419
  - # 12
    frequency:    6.5638710080
  - # 13
    frequency:    6.7989371586
  - # 14
    frequency:    6.8394767653
  - # 15
    frequency:    8.9230100074
  - # 16
    frequency:   11.9414796135
  - # 17
    frequency:   12.0070741906
  - # 18
    frequency:   12.5509796173
  - # 19
    frequency:   13.7396264083
  - # 20
    frequency:   13.7547723647
  - # 21
    frequency:   17.7402228383
  - # 22
    frequency:   17.7561372852
  - # 23
    frequency:   19.0018708579
  - # 24
    frequency:   31.9808506589
  - # 25
    frequency:   38.8544997323
  - # 26
    frequency:   67.8669518351
  - # 27
    frequency:   69.2084901833

- q-position: [    0.0505051,    0.0000000,    0.0000000 ]
  distance:    0.0173232
  band:
  - # 1
    frequency:   -0.9199379261
  - # 2
    frequency:   -0.6141070835
  - # 3
    frequency:   -0.5981024913
  - # 4
    frequency:   -0.3052357736
  - # 5
    frequency:    0.2522978332
  - # 6
    frequency:    0.7781616746
  - # 7
    frequency:    1.4133723446
  - # 8
    frequency:    4.5616859492
  - # 9
    frequency:    4.6697913434
  - # 10
    frequency:    5.3983883317
  - # 11
    frequency:    6.3025993431
  - # 12
    frequency:    6.6027413715
  - # 13
    frequency:    6.8000746626
  - # 14
    frequency:    6.8583185379
  - # 15
    frequency:    8.9213527472
  - # 16
    frequency:   11.9205606142
  - # 17
    frequency:   12.0024148411
  - # 18
    frequency:   12.6551809714
  - # 19
    frequency:   13.7405771947
  - # 20
    frequency:   13.7592552193
  - # 21
    frequency:   17.7408147314
  - # 22
    frequency:   17.7601673893
  - # 23
    frequency:   18.9782853338
  - # 24
    frequency:   31.9727731503
  - # 25
    frequency:   38.8534932899
  - # 26
    frequency:   67.8625456926
  - # 27
    frequency:   69.1863582455

- q-position: [    0.0555556,    0.0000000,    0.0000000 ]
  distance:    0.0190555
  band:
  - # 1
    frequency:   -0.9112870524
  - # 2
    frequency:   -0.5922276709
  - # 3
    frequency:   -0.5350356671
  - # 4
    frequency:   -0.1844552181
  - # 5
    frequency:    0.3122730119
  - # 6
    frequency:    0.8604048886
  - # 7
    frequency:    1.5592217979
  - # 8
    frequency:    4.5656878398
  - # 9
    frequency:    4.6948259976
  - # 10
    frequency:    5.3925555175
  - # 11
    frequency:    6.2988934993
  - # 12
    frequency:    6.6375584766
  - # 13
    frequency:    6.8012541418
  - # 14
    frequency:    6.8838155629
  - # 15
    frequency:    8.9195753108
  - # 16
    frequency:   11.8975406630
  - # 17
    frequency:   11.9973117977
  - # 18
    frequency:   12.7691132946
  - # 19
    frequency:   13.7416307504
  - # 20
    frequency:   13.7642260416
  - # 21
    frequency:   17.7414686882
  - # 22
    frequency:   17.7644813036
  - # 23
    frequency:   18.9524886497
  - # 24
    frequency:   31.9639176375
  - # 25
    frequency:   38.8523885954
  - # 26
    frequency:   67.8577081494
  - # 27
    frequency:   69.1620648908

- q-position: [    0.0606061,    0.0000000,    0.0000000 ]
  distance:    0.0207878
  band:
  - # 1
    frequency:   -0.9022427330
  - # 2
    frequency:   -0.5861653575
  - # 3
    frequency:   -0.4471963520
  - # 4
    frequency:    0.1842993661
  - # 5
    frequency:    0.3808264498
  - # 6
    frequency:    0.9427173633
  - # 7
    frequency:    1.7042846518
  - # 8
    frequency:    4.5700835764
  - # 9
    frequency:    4.7216588477
  - # 10
    frequency:    5.3866195861
  - # 11
    frequency:    6.2949593322
  - # 12
    frequency:    6.6667316501
  - # 13
    frequency:    6.8024564109
  - # 14
    frequency:    6.9169326770
  - # 15
    frequency:    8.9176960779
  - # 16
    frequency:   11.8724663448
  - # 17
    frequency:   11.9917789206
  - # 18
    frequency:   12.8922908618
  - # 19
    frequency:   13.7427877163
  - # 20
    frequency:   13.7697131157
  - # 21
    frequency:   17.7421846124
  - # 22
    frequency:   17.7690296888
  - # 23
    frequency:   18.9245707184
  - # 24
    frequency:   31.9543050686
  - # 25
    frequency:   38.8511878915
  - # 26
    frequency:   67.8524486665
  - # 27
    frequency:   69.1356593676

- q-position: [    0.0656566,    0.0000000,    0.0000000 ]
  distance:    0.0225202
  band:
  - # 1
    frequency:   -0.8927753811
  - # 2
    frequency:   -0.5798517911
  - # 3
    frequency:   -0.3520149643
  - # 4
    frequency:    0.3364063075
  - # 5
    frequency:    0.4584490999
  - # 6
    frequency:    1.0249516229
  - # 7
    frequency:    1.8484187780
  - # 8
    frequency:    4.5748763974
  - # 9
    frequency:    4.7501622873
  - # 10
    frequency:    5.3806245846
  - # 11
    frequency:    6.2908248254
  - # 12
    frequency:    6.6899030841
  - # 13
    frequency:    6.8036620605
  - # 14
    frequency:    6.9574647030
  - # 15
    frequency:    8.9157360933
  - # 16
    frequency:   11.8453848364
  - # 17
    frequency:   11.9858312863
  - # 18
    frequency:   13.0241394814
  - # 19
    frequency:   13.7440487199
  - # 20
    frequency:   13.7757742640
  - # 21
    frequency:   17.7429623872
  - # 22
    frequency:   17.7737541520
  - # 23
    frequency:   18.8946350224
  - # 24
    frequency:   31.9439580508
  - # 25
    frequency:   38.8498936051
  - # 26
    frequency:   67.8467774845
  - # 27
    frequency:   69.1071950374

- q-position: [    0.0707071,    0.0000000,    0.0000000 ]
  distance:    0.0242525
  band:
  - # 1
    frequency:   -0.8828411948
  - # 2
    frequency:   -0.5732194777
  - # 3
    frequency:   -0.2434662771
  - # 4
    frequency:    0.4469732965
  - # 5
    frequency:    0.5464791284
  - # 6
    frequency:    1.1069881121
  - # 7
    frequency:    1.9915071142
  - # 8
    frequency:    4.5800697205
  - # 9
    frequency:    4.7802085364
  - # 10
    frequency:    5.3746116606
  - # 11
    frequency:    6.2865182996
  - # 12
    frequency:    6.7078811856
  - # 13
    frequency:    6.8048517152
  - # 14
    frequency:    7.0041094238
  - # 15
    frequency:    8.9137192792
  - # 16
    frequency:   11.8163445914
  - # 17
    frequency:   11.9794851462
  - # 18
    frequency:   13.1639621496
  - # 19
    frequency:   13.7454143573
  - # 20
    frequency:   13.7825330406
  - # 21
    frequency:   17.7438018730
  - # 22
    frequency:   17.7785853658
  - # 23
    frequency:   18.8628007259
  - # 24
    frequency:   31.9329007649
  - # 25
    frequency:   38.8485083403
  - # 26
    frequency:   67.8407055917
  - # 27
    frequency:   69.0767292216

- q-position: [    0.0757576,    0.0000000,    0.0000000 ]
  distance:    0.0259848
  band:
  - # 1
    frequency:   -0.8723862373
  - # 2
    frequency:   -0.5661993482
  - # 3
    frequency:   -0.0430225214
  - # 4
    frequency:    0.5358644207
  - # 5
    frequency:    0.6430123496
  - # 6
    frequency:    1.1887306599
  - # 7
    frequency:    2.1334455110
  - # 8
    frequency:    4.5856671172
  - # 9
    frequency:    4.8116709551
  - # 10
    frequency:    5.3686215354
  - # 11
    frequency:    6.2820681160
  - # 12
    frequency:    6.7219626346
  - # 13
    frequency:    6.8060062666
  - # 14
    frequency:    7.0551482273
  - # 15
    frequency:    8.9116726610
  - # 16
    frequency:   11.7853957231
  - # 17
    frequency:   11.9727578754
  - # 18
    frequency:   13.3108387202
  - # 19
    frequency:   13.7468851751
  - # 20
    frequency:   13.7902830506
  - # 21
    frequency:   17.7447029040
  - # 22
    frequency:   17.7834406250
  - # 23
    frequency:   18.8292053994
  - # 24
    frequency:   31.9211588768
  - # 25
    frequency:   38.8470348704
  - # 26
    frequency:   67.8342446906
  - # 27
    frequency:   69.0443230383

- q-position: [    0.0808081,    0.0000000,    0.0000000 ]
  distance:    0.0277171
  band:
  - # 1
    frequency:   -0.8613492279
  - # 2
    frequency:   -0.5587213572
  - # 3
    frequency:    0.2318204027
  - # 4
    frequency:    0.6125862116
  - # 5
    frequency:    0.7414926615
  - # 6
    frequency:    1.2701019798
  - # 7
    frequency:    2.2741347854
  - # 8
    frequency:    4.5916722830
  - # 9
    frequency:    4.8444250735
  - # 10
    frequency:    5.3626966974
  - # 11
    frequency:    6.2775024073
  - # 12
    frequency:    6.7333551506
  - # 13
    frequency:    6.8071070831
  - # 14
    frequency:    7.1090228526
  - # 15
    frequency:    8.9096266058
  - # 16
    frequency:   11.7525902135
  - # 17
    frequency:   11.9656679142
  - # 18
    frequency:   13.4632466542
  - # 19
    frequency:   13.7484616515
  - # 20
    frequency:   13.7998729004
  - # 21
    frequency:   17.7456652856
  - # 22
    frequency:   17.7882206823
  - # 23
    frequency:   18.7940085355
  - # 24
    frequency:   31.9087594433
  - # 25
    frequency:   38.8454761304
  - # 26
    frequency:   67.8274071618
  - # 27
    frequency:   69.0100412279

- q-position: [    0.0858586,    0.0000000,    0.0000000 ]
  distance:    0.0294494
  band:
  - # 1
    frequency:   -0.8496632108
  - # 2
    frequency:   -0.5507141455
  - # 3
    frequency:    0.3339232287
  - # 4
    frequency:    0.6830067994
  - # 5
    frequency:    0.8377159141
  - # 6
    frequency:    1.3510396977
  - # 7
    frequency:    2.4134754611
  - # 8
    frequency:    4.5980890079
  - # 9
    frequency:    4.8783492676
  - # 10
    frequency:    5.3568834296
  - # 11
    frequency:    6.2728488403
  - # 12
    frequency:    6.7429735121
  - # 13
    frequency:    6.8081361962
  - # 14
    frequency:    7.1645362272
  - # 15
    frequency:    8.9076150793
  - # 16
    frequency:   11.7179820242
  - # 17
    frequency:   11.9582346975
  - # 18
    frequency:   13.6169520223
  - # 19
    frequency:   13.7501441775
  - # 20
    frequency:   13.8148221136
  - # 21
    frequency:   17.7466887907
  - # 22
    frequency:   17.7928056671
  - # 23
    frequency:   18.7573960696
  - # 24
    frequency:   31.8957308152
  - # 25
    frequency:   38.8438352086
  - # 26
    frequency:   67.8202060263
  - # 27
    frequency:   68.9739519690

- q-position: [    0.0909091,    0.0000000,    0.0000000 ]
  distance:    0.0311818
  band:
  - # 1
    frequency:   -0.8372563190
  - # 2
    frequency:   -0.5421041318
  - # 3
    frequency:    0.4172025965
  - # 4
    frequency:    0.7497078670
  - # 5
    frequency:    0.9305531567
  - # 6
    frequency:    1.4314930668
  - # 7
    frequency:    2.5513641638
  - # 8
    frequency:    4.6049211427
  - # 9
    frequency:    4.9133249714
  - # 10
    frequency:    5.3512338763
  - # 11
    frequency:    6.2681344058
  - # 12
    frequency:    6.7514546708
  - # 13
    frequency:    6.8090764655
  - # 14
    frequency:    7.2208321487
  - # 15
    frequency:    8.9056759219
  - # 16
    frequency:   11.6816271524
  - # 17
    frequency:   11.9504785758
  - # 18
    frequency:   13.7463420900
  - # 19
    frequency:   13.7519330384
  - # 20
    frequency:   13.8599961692
  - # 21
    frequency:   17.7477731572
  - # 22
    frequency:   17.7970498684
  - # 23
    frequency:   18.7195861571
  - # 24
    frequency:   31.8821025383
  - # 25
    frequency:   38.8421153384
  - # 26
    frequency:   67.8126549064
  - # 27
    frequency:   68.9361266848

- q-position: [    0.0959596,    0.0000000,    0.0000000 ]
  distance:    0.0329141
  band:
  - # 1
    frequency:   -0.8240518279
  - # 2
    frequency:   -0.5328142179
  - # 3
    frequency:    0.4930887319
  - # 4
    frequency:    0.8138612983
  - # 5
    frequency:    1.0200463608
  - # 6
    frequency:    1.5114203582
  - # 7
    frequency:    2.6876909913
  - # 8
    frequency:    4.6121725647
  - # 9
    frequency:    4.9492362097
  - # 10
    frequency:    5.3458084665
  - # 11
    frequency:    6.2633852370
  - # 12
    frequency:    6.7592305818
  - # 13
    frequency:    6.8099117243
  - # 14
    frequency:    7.2773157943
  - # 15
    frequency:    8.9038511494
  - # 16
    frequency:   11.6435836608
  - # 17
    frequency:   11.9424207246
  - # 18
    frequency:   13.7538283947
  - # 19
    frequency:   13.7937735140
  - # 20
    frequency:   13.9922661214
  - # 21
    frequency:   17.7489180839
  - # 22
    frequency:   17.8007751640
  - # 23
    frequency:   18.6808364623
  - # 24
    frequency:   31.8679052506
  - # 25
    frequency:   38.8403198895
  - # 26
    frequency:   67.8047679841
  - # 27
    frequency:   68.8966398403

- q-position: [    0.1010101,    0.0000000,    0.0000000 ]
  distance:    0.0346464
  band:
  - # 1
    frequency:   -0.8099676364
  - # 2
    frequency:   -0.5227621633
  - # 3
    frequency:    0.5656490326
  - # 4
    frequency:    0.8760959614
  - # 5
    frequency:    1.1065341690
  - # 6
    frequency:    1.5907868455
  - # 7
    frequency:    2.8223374099
  - # 8
    frequency:    4.6198471415
  - # 9
    frequency:    4.9859680344
  - # 10
    frequency:    5.3406792306
  - # 11
    frequency:    6.2586264538
  - # 12
    frequency:    6.7665943062
  - # 13
    frequency:    6.8106269094
  - # 14
    frequency:    7.3335800711
  - # 15
    frequency:    8.9021872819
  - # 16
    frequency:   11.6039116955
  - # 17
    frequency:   11.9340830434
  - # 18
    frequency:   13.7558302645
  - # 19
    frequency:   13.8100279527
  - # 20
    frequency:   14.1600605210
  - # 21
    frequency:   17.7501232278
  - # 22
    frequency:   17.8037629638
  - # 23
    frequency:   18.6414531482
  - # 24
    frequency:   31.8531705791
  - # 25
    frequency:   38.8384523596
  - # 26
    frequency:   67.7965599593
  - # 27
    frequency:   68.8555687321

- q-position: [    0.1060606,    0.0000000,    0.0000000 ]
  distance:    0.0363787
  band:
  - # 1
    frequency:   -0.7949152531
  - # 2
    frequency:   -0.5118585944
  - # 3
    frequency:    0.6367323905
  - # 4
    frequency:    0.9368050171
  - # 5
    frequency:    1.1903821893
  - # 6
    frequency:    1.6695632764
  - # 7
    frequency:    2.9551743796
  - # 8
    frequency:    4.6279486933
  - # 9
    frequency:    5.0234029762
  - # 10
    frequency:    5.3359350062
  - # 11
    frequency:    6.2538820301
  - # 12
    frequency:    6.7737469832
  - # 13
    frequency:    6.8112081767
  - # 14
    frequency:    7.3893507034
  - # 15
    frequency:    8.9007357062
  - # 16
    frequency:   11.5626735054
  - # 17
    frequency:   11.9254880450
  - # 18
    frequency:   13.7579385057
  - # 19
    frequency:   13.8213237148
  - # 20
    frequency:   14.3363605860
  - # 21
    frequency:   17.7513882007
  - # 22
    frequency:   17.8057447840
  - # 23
    frequency:   18.6018015307
  - # 24
    frequency:   31.8379310345
  - # 25
    frequency:   38.8365163654
  - # 26
    frequency:   67.7880460054
  - # 27
    frequency:   68.8129932705

- q-position: [    0.1111111,    0.0000000,    0.0000000 ]
  distance:    0.0381110
  band:
  - # 1
    frequency:   -0.7787983040
  - # 2
    frequency:   -0.5000045312
  - # 3
    frequency:    0.7072748155
  - # 4
    frequency:    0.9962637269
  - # 5
    frequency:    1.2719116749
  - # 6
    frequency:    1.7477247304
  - # 7
    frequency:    3.0860604898
  - # 8
    frequency:    4.6364809539
  - # 9
    frequency:    5.0614135447
  - # 10
    frequency:    5.3316906215
  - # 11
    frequency:    6.2491746835
  - # 12
    frequency:    6.7808287377
  - # 13
    frequency:    6.8116430046
  - # 14
    frequency:    7.4444473911
  - # 15
    frequency:    8.8995530757
  - # 16
    frequency:   11.5199334677
  - # 17
    frequency:   11.9166587337
  - # 18
    frequency:   13.7601527997
  - # 19
    frequency:   13.8313796756
  - # 20
    frequency:   14.5166420210
  - # 21
    frequency:   17.7527125657
  - # 22
    frequency:   17.8063921363
  - # 23
    frequency:   18.5623178238
  - # 24
    frequency:   31.8222199062
  - # 25
    frequency:   38.8345156340
  - # 26
    frequency:   67.7792417246
  - # 27
    frequency:   68.7689957545

- q-position: [    0.1161616,    0.0000000,    0.0000000 ]
  distance:    0.0398434
  band:
  - # 1
    frequency:   -0.7615105094
  - # 2
    frequency:   -0.4870882273
  - # 3
    frequency:    0.7777687474
  - # 4
    frequency:    1.0546823535
  - # 5
    frequency:    1.3513878170
  - # 6
    frequency:    1.8252497727
  - # 7
    frequency:    3.2148399445
  - # 8
    frequency:    4.6454475310
  - # 9
    frequency:    5.0998460432
  - # 10
    frequency:    5.3281049049
  - # 11
    frequency:    6.2445257837
  - # 12
    frequency:    6.7879386476
  - # 13
    frequency:    6.8119202884
  - # 14
    frequency:    7.4987562147
  - # 15
    frequency:    8.8987017520
  - # 16
    frequency:   11.4757581281
  - # 17
    frequency:   11.9076184755
  - # 18
    frequency:   13.7624726349
  - # 19
    frequency:   13.8410784414
  - # 20
    frequency:   14.6992161643
  - # 21
    frequency:   17.7540958339
  - # 22
    frequency:   17.8053075414
  - # 23
    frequency:   18.5235203330
  - # 24
    frequency:   31.8060711558
  - # 25
    frequency:   38.8324539936
  - # 26
    frequency:   67.7701631018
  - # 27
    frequency:   68.7236606413

- q-position: [    0.1212121,    0.0000000,    0.0000000 ]
  distance:    0.0415757
  band:
  - # 1
    frequency:   -0.7429330091
  - # 2
    frequency:   -0.4729809924
  - # 3
    frequency:    0.8484647236
  - # 4
    frequency:    1.1122345336
  - # 5
    frequency:    1.4290248171
  - # 6
    frequency:    1.9021198335
  - # 7
    frequency:    3.3413402561
  - # 8
    frequency:    4.6548518651
  - # 9
    frequency:    5.1384832413
  - # 10
    frequency:    5.3254200986