nqpoint: 300    
npath: 3      
segment_nqpoint:
- 100
- 100
- 100
labels:
- [ 'G', 'M' ]
- [ 'M', 'K' ]
- [ 'K', 'G' ]
reciprocal_lattice:
- [   0.29704613,   0.17149966,   0.00000000 ] # a*
- [   0.00000000,   0.34299932,   0.00000000 ] # b*
- [   0.00000000,   0.00000000,   0.03567081 ] # c*
natom: 9      
lattice:
- [     3.366480507815468,     0.000000000000000,     0.000000000000000 ] # a
- [    -1.683240253907734,     2.915457641115121,     0.000000000000000 ] # b
- [     0.000000000000000,     0.000000000000000,    28.034126669620605 ] # c
points:
- symbol: C # 1
  coordinates: [  0.000000000000000,  0.000000000000000,  0.499382551182496 ]
  mass: 12.010700
- symbol: C # 2
  coordinates: [  0.333332985432215,  0.666666983183674,  0.636020520524959 ]
  mass: 12.010700
- symbol: C # 3
  coordinates: [  0.666666984744047,  0.333332985985145,  0.363423960107855 ]
  mass: 12.010700
- symbol: N # 4
  coordinates: [  0.333332985432215,  0.666666983183674,  0.591549584426717 ]
  mass: 14.006700
- symbol: N # 5
  coordinates: [  0.666666984744047,  0.333332985985145,  0.321037288090480 ]
  mass: 14.006700
- symbol: O # 6
  coordinates: [  0.333332985432215,  0.666666983183674,  0.678962711909520 ]
  mass: 15.999400
- symbol: O # 7
  coordinates: [  0.666666984744047,  0.333332985985145,  0.411110843187764 ]
  mass: 15.999400
- symbol: Sc # 8
  coordinates: [  0.333332985432215,  0.666666983183674,  0.454797956294317 ]
  mass: 44.955912
- symbol: Sc # 9
  coordinates: [  0.666666984744047,  0.333332985985145,  0.544122804799363 ]
  mass: 44.955912

phonon:
- q-position: [    0.0000000,    0.0000000,    0.0000000 ]
  distance:    0.0000000
  band:
  - # 1
    frequency:   -1.4008370260
  - # 2
    frequency:   -1.4008370260
  - # 3
    frequency:   -0.9827914288
  - # 4
    frequency:   -0.9827914288
  - # 5
    frequency:   -0.0000008982
  - # 6
    frequency:    0.0000001742
  - # 7
    frequency:    0.0000012666
  - # 8
    frequency:    4.5605240816
  - # 9
    frequency:    4.5605240816
  - # 10
    frequency:    5.5435091076
  - # 11
    frequency:    5.8275917409
  - # 12
    frequency:    5.8275917409
  - # 13
    frequency:    6.7962957713
  - # 14
    frequency:    6.7962957713
  - # 15
    frequency:    8.9957475553
  - # 16
    frequency:   11.3017580232
  - # 17
    frequency:   11.3017580232
  - # 18
    frequency:   12.1858292921
  - # 19
    frequency:   13.7331402514
  - # 20
    frequency:   13.7331402514
  - # 21
    frequency:   17.7184309606
  - # 22
    frequency:   17.7184309606
  - # 23
    frequency:   19.2168722087
  - # 24
    frequency:   32.0821367717
  - # 25
    frequency:   38.8674470189
  - # 26
    frequency:   67.9017715119
  - # 27
    frequency:   69.4287399792

- q-position: [    0.0050505,    0.0000000,    0.0000000 ]
  distance:    0.0017323
  band:
  - # 1
    frequency:   -1.3999267168
  - # 2
    frequency:   -1.3978044858
  - # 3
    frequency:   -0.9820867992
  - # 4
    frequency:   -0.9805035624
  - # 5
    frequency:   -0.0238819836
  - # 6
    frequency:    0.0782410177
  - # 7
    frequency:    0.1224007026
  - # 8
    frequency:    4.5609092248
  - # 9
    frequency:    4.5618505363
  - # 10
    frequency:    5.5425308222
  - # 11
    frequency:    5.8281106048
  - # 12
    frequency:    5.8351778111
  - # 13
    frequency:    6.7963352732
  - # 14
    frequency:    6.7965035238
  - # 15
    frequency:    8.9954936055
  - # 16
    frequency:   11.3024149376
  - # 17
    frequency:   11.3087777547
  - # 18
    frequency:   12.1850337756
  - # 19
    frequency:   13.7331906931
  - # 20
    frequency:   13.7333845865
  - # 21
    frequency:   17.7184867231
  - # 22
    frequency:   17.7187180811
  - # 23
    frequency:   19.2153103980
  - # 24
    frequency:   32.0815352886
  - # 25
    frequency:   38.8673734207
  - # 26
    frequency:   67.9014939081
  - # 27
    frequency:   69.4272473825

- q-position: [    0.0101010,    0.0000000,    0.0000000 ]
  distance:    0.0034646
  band:
  - # 1
    frequency:   -1.3972090453
  - # 2
    frequency:   -1.3887428988
  - # 3
    frequency:   -0.9799894012
  - # 4
    frequency:   -0.9737027264
  - # 5
    frequency:   -0.0334426463
  - # 6
    frequency:    0.1566974612
  - # 7
    frequency:    0.2432495206
  - # 8
    frequency:    4.5620634409
  - # 9
    frequency:    4.5658207118
  - # 10
    frequency:    5.5398294918
  - # 11
    frequency:    5.8296627919
  - # 12
    frequency:    5.8574938062
  - # 13
    frequency:    6.7964528337
  - # 14
    frequency:    6.7971361723
  - # 15
    frequency:    8.9947339136
  - # 16
    frequency:   11.3043810396
  - # 17
    frequency:   11.3297749965
  - # 18
    frequency:   12.1827110285
  - # 19
    frequency:   13.7333420516
  - # 20
    frequency:   13.7341170059
  - # 21
    frequency:   17.7186538608
  - # 22
    frequency:   17.7195774538
  - # 23
    frequency:   19.2106302663
  - # 24
    frequency:   32.0797330791
  - # 25
    frequency:   38.8671528584
  - # 26
    frequency:   67.9006618556
  - # 27
    frequency:   69.4227740872

- q-position: [    0.0151515,    0.0000000,    0.0000000 ]
  distance:    0.0051970
  band:
  - # 1
    frequency:   -1.3927228260
  - # 2
    frequency:   -1.3737540533
  - # 3
    frequency:   -0.9765468613
  - # 4
    frequency:   -0.9625600623
  - # 5
    frequency:   -0.0426718683
  - # 6
    frequency:    0.2355677969
  - # 7
    frequency:    0.3659139366
  - # 8
    frequency:    4.5639830959
  - # 9
    frequency:    4.5724072948
  - # 10
    frequency:    5.5359339695
  - # 11
    frequency:    5.8322351520
  - # 12
    frequency:    5.8933967756
  - # 13
    frequency:    6.7966456300
  - # 14
    frequency:    6.7982231321
  - # 15
    frequency:    8.9934749617
  - # 16
    frequency:   11.3076424391
  - # 17
    frequency:   11.3645438244
  - # 18
    frequency:   12.1790695020
  - # 19
    frequency:   13.7335944277
  - # 20
    frequency:   13.7353357782
  - # 21
    frequency:   17.7189319255
  - # 22
    frequency:   17.7210030890
  - # 23
    frequency:   19.2028477407
  - # 24
    frequency:   32.0767368492
  - # 25
    frequency:   38.8667860270
  - # 26
    frequency:   67.8992776272
  - # 27
    frequency:   69.4153335544

- q-position: [    0.0202020,    0.0000000,    0.0000000 ]
  distance:    0.0069293
  band:
  - # 1
    frequency:   -1.3865296415
  - # 2
    frequency:   -1.3529869482
  - # 3
    frequency:   -0.9718326545
  - # 4
    frequency:   -0.9473082579
  - # 5
    frequency:   -0.0488100689
  - # 6
    frequency:    0.3150184556
  - # 7
    frequency:    0.4904803320
  - # 8
    frequency:    4.5666621561
  - # 9
    frequency:    4.5815655806
  - # 10
    frequency:    5.5313622773
  - # 11
    frequency:    5.8358059785
  - # 12
    frequency:    5.9413833139
  - # 13
    frequency:    6.7969090012
  - # 14
    frequency:    6.7998178855
  - # 15
    frequency:    8.9917275805
  - # 16
    frequency:   11.3121760951
  - # 17
    frequency:   11.4126657418
  - # 18
    frequency:   12.1745220431
  - # 19
    frequency:   13.7339479892
  - # 20
    frequency:   13.7370381065
  - # 21
    frequency:   17.7193201735
  - # 22
    frequency:   17.7229849231
  - # 23
    frequency:   19.1919894529
  - # 24
    frequency:   32.0725577267
  - # 25
    frequency:   38.8662740815
  - # 26
    frequency:   67.8973449975
  - # 27
    frequency:   69.4049481427

- q-position: [    0.0252525,    0.0000000,    0.0000000 ]
  distance:    0.0086616
  band:
  - # 1
    frequency:   -1.3787094501
  - # 2
    frequency:   -1.3266085340
  - # 3
    frequency:   -0.9659381214
  - # 4
    frequency:   -0.9281781819
  - # 5
    frequency:   -0.0488432896
  - # 6
    frequency:    0.3951723264
  - # 7
    frequency:    0.6171063432
  - # 8
    frequency:    4.5700922232
  - # 9
    frequency:    4.5932346094
  - # 10
    frequency:    5.5264593512
  - # 11
    frequency:    5.8403453185
  - # 12
    frequency:    5.9998028587
  - # 13
    frequency:    6.7972365121
  - # 14
    frequency:    6.8020059023
  - # 15
    frequency:    8.9895069862
  - # 16
    frequency:   11.3179499798
  - # 17
    frequency:   11.4733609494
  - # 18
    frequency:   12.1698205962
  - # 19
    frequency:   13.7344029706
  - # 20
    frequency:   13.7392202663
  - # 21
    frequency:   17.7198175700
  - # 22
    frequency:   17.7255086912
  - # 23
    frequency:   19.1780928772
  - # 24
    frequency:   32.0672111899
  - # 25
    frequency:   38.8656186309
  - # 26
    frequency:   67.8948692234
  - # 27
    frequency:   69.3916489935

- q-position: [    0.0303030,    0.0000000,    0.0000000 ]
  distance:    0.0103939
  band:
  - # 1
    frequency:   -1.3693549755
  - # 2
    frequency:   -1.2947670097
  - # 3
    frequency:   -0.9589629753
  - # 4
    frequency:   -0.9053367294
  - # 5
    frequency:   -0.0359987932
  - # 6
    frequency:    0.4761020622
  - # 7
    frequency:    0.7457912073
  - # 8
    frequency:    4.5742625840
  - # 9
    frequency:    4.6073386127
  - # 10
    frequency:    5.5213974847
  - # 11
    frequency:    5.8458153931
  - # 12
    frequency:    6.0669168440
  - # 13
    frequency:    6.7976200426
  - # 14
    frequency:    6.8049186854
  - # 15
    frequency:    8.9868328227
  - # 16
    frequency:   11.3249233076
  - # 17
    frequency:   11.5451802850
  - # 18
    frequency:   12.1663461676
  - # 19
    frequency:   13.7349596725
  - # 20
    frequency:   13.7418778078
  - # 21
    frequency:   17.7204227960
  - # 22
    frequency:   17.7285557343
  - # 23
    frequency:   19.1612065377
  - # 24
    frequency:   32.0607169675
  - # 25
    frequency:   38.8648217311
  - # 26
    frequency:   67.8918570160
  - # 27
    frequency:   69.3754758718

- q-position: [    0.0353535,    0.0000000,    0.0000000 ]
  distance:    0.0121262
  band:
  - # 1
    frequency:   -1.3585654022
  - # 2
    frequency:   -1.2575527389
  - # 3
    frequency:   -0.9510057457
  - # 4
    frequency:   -0.8788400276
  - # 5
    frequency:    0.0392270942
  - # 6
    frequency:    0.5578287247
  - # 7
    frequency:    0.8763772064
  - # 8
    frequency:    4.5791602766
  - # 9
    frequency:    4.6237886728
  - # 10
    frequency:    5.5162373619
  - # 11
    frequency:    5.8521711191
  - # 12
    frequency:    6.1408943559
  - # 13
    frequency:    6.7980499007
  - # 14
    frequency:    6.8087582767
  - # 15
    frequency:    8.9837292029
  - # 16
    frequency:   11.3330468303
  - # 17
    frequency:   11.6253553810
  - # 18
    frequency:   12.1667380510
  - # 19
    frequency:   13.7356184604
  - # 20
    frequency:   13.7450058425
  - # 21
    frequency:   17.7211342562
  - # 22
    frequency:   17.7321027269
  - # 23
    frequency:   19.1413903032
  - # 24
    frequency:   32.0530989119
  - # 25
    frequency:   38.8638858748
  - # 26
    frequency:   67.8883165059
  - # 27
    frequency:   69.3564769630

- q-position: [    0.0404040,    0.0000000,    0.0000000 ]
  distance:    0.0138586
  band:
  - # 1
    frequency:   -1.3464399868
  - # 2
    frequency:   -1.2149625363
  - # 3
    frequency:   -0.9421555489
  - # 4
    frequency:   -0.8486049761
  - # 5
    frequency:    0.0830061030
  - # 6
    frequency:    0.6403254287
  - # 7
    frequency:    1.0085953842
  - # 8
    frequency:    4.5847701728
  - # 9
    frequency:    4.6424845116
  - # 10
    frequency:    5.5109844305
  - # 11
    frequency:    5.8593607164
  - # 12
    frequency:    6.2197941517
  - # 13
    frequency:    6.7985149570
  - # 14
    frequency:    6.8138404741
  - # 15
    frequency:    8.9802247436
  - # 16
    frequency:   11.3422631967
  - # 17
    frequency:   11.7084740055
  - # 18
    frequency:   12.1761972597
  - # 19
    frequency:   13.7363797629
  - # 20
    frequency:   13.7485994455
  - # 21
    frequency:   17.7219500897
  - # 22
    frequency:   17.7361213022
  - # 23
    frequency:   19.1187157924
  - # 24
    frequency:   32.0443848471
  - # 25
    frequency:   38.8628139796
  - # 26
    frequency:   67.8842572010
  - # 27
    frequency:   69.3347086277

- q-position: [    0.0454545,    0.0000000,    0.0000000 ]
  distance:    0.0155909
  band:
  - # 1
    frequency:   -1.3330721954
  - # 2
    frequency:   -1.1668720258
  - # 3
    frequency:   -0.9324861764
  - # 4
    frequency:   -0.8143894919
  - # 5
    frequency:    0.1251215129
  - # 6
    frequency:    0.7235248584
  - # 7
    frequency:    1.1421180126
  - # 8
    frequency:    4.5910750785
  - # 9
    frequency:    4.6633163421
  - # 10
    frequency:    5.5056244272
  - # 11
    frequency:    5.8673263860
  - # 12
    frequency:    6.3015273822
  - # 13
    frequency:    6.7990028003
  - # 14
    frequency:    6.8206722680
  - # 15
    frequency:    8.9763525875
  - # 16
    frequency:   11.3525073766
  - # 17
    frequency:   11.7845404510
  - # 18
    frequency:   12.2044064060
  - # 19
    frequency:   13.7372440683
  - # 20
    frequency:   13.7526542424
  - # 21
    frequency:   17.7228681811
  - # 22
    frequency:   17.7405775473
  - # 23
    frequency:   19.0932669222
  - # 24
    frequency:   32.0346063914
  - # 25
    frequency:   38.8616093744
  - # 26
    frequency:   67.8796899371
  - # 27
    frequency:   69.3102351150

- q-position: [    0.0505051,    0.0000000,    0.0000000 ]
  distance:    0.0173232
  band:
  - # 1
    frequency:   -1.3185448753
  - # 2
    frequency:   -1.1130188469
  - # 3
    frequency:   -0.9220528804
  - # 4
    frequency:   -0.7757621307
  - # 5
    frequency:    0.1699103233
  - # 6
    frequency:    0.8073290558
  - # 7
    frequency:    1.2766024218
  - # 8
    frequency:    4.5980558512
  - # 9
    frequency:    4.6861667230
  - # 10
    frequency:    5.5001418224
  - # 11
    frequency:    5.8760050428
  - # 12
    frequency:    6.3837650497
  - # 13
    frequency:    6.7994999116
  - # 14
    frequency:    6.8300907324
  - # 15
    frequency:    8.9721504100
  - # 16
    frequency:   11.3637071478
  - # 17
    frequency:   11.8399500289
  - # 18
    frequency:   12.2645389910
  - # 19
    frequency:   13.7382119198
  - # 20
    frequency:   13.7571673151
  - # 21
    frequency:   17.7238861742
  - # 22
    frequency:   17.7454313273
  - # 23
    frequency:   19.0651406430
  - # 24
    frequency:   32.0237987584
  - # 25
    frequency:   38.8602757834
  - # 26
    frequency:   67.8746268223
  - # 27
    frequency:   69.2831282378

- q-position: [    0.0555556,    0.0000000,    0.0000000 ]
  distance:    0.0190555
  band:
  - # 1
    frequency:   -1.3029267833
  - # 2
    frequency:   -1.0529992065
  - # 3
    frequency:   -0.9108916274
  - # 4
    frequency:   -0.7320314358
  - # 5
    frequency:    0.2184515452
  - # 6
    frequency:    0.8916198318
  - # 7
    frequency:    1.4117209017
  - # 8
    frequency:    4.6056915373
  - # 9
    frequency:    4.7109123666
  - # 10
    frequency:    5.4945279893
  - # 11
    frequency:    5.8853290857
  - # 12
    frequency:    6.4637445676
  - # 13
    frequency:    6.7999918536
  - # 14
    frequency:    6.8434989105
  - # 15
    frequency:    8.9676604076
  - # 16
    frequency:   11.3757836443
  - # 17
    frequency:   11.8672962058
  - # 18
    frequency:   12.3634411226
  - # 19
    frequency:   13.7392839094
  - # 20
    frequency:   13.7621387034
  - # 21
    frequency:   17.7250014865
  - # 22
    frequency:   17.7506353856
  - # 23
    frequency:   19.0344479220
  - # 24
    frequency:   32.0120005364
  - # 25
    frequency:   38.8588173087
  - # 26
    frequency:   67.8690811755
  - # 27
    frequency:   69.2534670102

- q-position: [    0.0606061,    0.0000000,    0.0000000 ]
  distance:    0.0207878
  band:
  - # 1
    frequency:   -1.2862705610
  - # 2
    frequency:   -0.9862855150
  - # 3
    frequency:   -0.8990201907
  - # 4
    frequency:   -0.6820816581
  - # 5
    frequency:    0.2712489765
  - # 6
    frequency:    0.9762684555
  - # 7
    frequency:    1.5471771302
  - # 8
    frequency:    4.6139595260
  - # 9
    frequency:    4.7374258532
  - # 10
    frequency:    5.4887840755
  - # 11
    frequency:    5.8952271902
  - # 12
    frequency:    6.5379877192
  - # 13
    frequency:    6.8004634742
  - # 14
    frequency:    6.8631798927
  - # 15
    frequency:    8.9629292678
  - # 16
    frequency:   11.3886519641
  - # 17
    frequency:   11.8713507297
  - # 18
    frequency:   12.4956459196
  - # 19
    frequency:   13.7404606686
  - # 20
    frequency:   13.7675741151
  - # 21
    frequency:   17.7262113253
  - # 22
    frequency:   17.7561341505
  - # 23
    frequency:   19.0013150523
  - # 24
    frequency:   31.9992534491
  - # 25
    frequency:   38.8572384104
  - # 26
    frequency:   67.8630674588
  - # 27
    frequency:   69.2213372514

- q-position: [    0.0656566,    0.0000000,    0.0000000 ]
  distance:    0.0225202
  band:
  - # 1
    frequency:   -1.2686120370
  - # 2
    frequency:   -0.9122892002
  - # 3
    frequency:   -0.8864403102
  - # 4
    frequency:   -0.6239964844
  - # 5
    frequency:    0.3286437296
  - # 6
    frequency:    1.0611437617
  - # 7
    frequency:    1.6827121587
  - # 8
    frequency:    4.6228357216
  - # 9
    frequency:    4.7655772119
  - # 10
    frequency:    5.4829214600
  - # 11
    frequency:    5.9056251063
  - # 12
    frequency:    6.6022729612
  - # 13
    frequency:    6.8008991197
  - # 14
    frequency:    6.8923433760
  - # 15
    frequency:    8.9580081187
  - # 16
    frequency:   11.4022218315
  - # 17
    frequency:   11.8603930274
  - # 18
    frequency:   12.6520432573
  - # 19
    frequency:   13.7417428571
  - # 20
    frequency:   13.7734902939
  - # 21
    frequency:   17.7275127052
  - # 22
    frequency:   17.7618621517
  - # 23
    frequency:   18.9658853968
  - # 24
    frequency:   31.9856020995
  - # 25
    frequency:   38.8555438858
  - # 26
    frequency:   67.8566012054
  - # 27
    frequency:   69.1868311572

- q-position: [    0.0707071,    0.0000000,    0.0000000 ]
  distance:    0.0242525
  band:
  - # 1
    frequency:   -1.2499705752
  - # 2
    frequency:   -0.8731402266
  - # 3
    frequency:   -0.8305244322
  - # 4
    frequency:   -0.5541706917
  - # 5
    frequency:    0.3909348129
  - # 6
    frequency:    1.1461183082
  - # 7
    frequency:    1.8181035187
  - # 8
    frequency:    4.6322947313
  - # 9
    frequency:    4.7952353311
  - # 10
    frequency:    5.4769612869
  - # 11
    frequency:    5.9164464499
  - # 12
    frequency:    6.6528597419
  - # 13
    frequency:    6.8012828555
  - # 14
    frequency:    6.9339070487
  - # 15
    frequency:    8.9529524608
  - # 16
    frequency:   11.4163983117
  - # 17
    frequency:   11.8400783836
  - # 18
    frequency:   12.8260110043
  - # 19
    frequency:   13.7431311480
  - # 20
    frequency:   13.7799268926
  - # 21
    frequency:   17.7289024664
  - # 22
    frequency:   17.7677419236
  - # 23
    frequency:   18.9283217083
  - # 24
    frequency:   31.9710936994
  - # 25
    frequency:   38.8537388465
  - # 26
    frequency:   67.8496989421
  - # 27
    frequency:   69.1500468422

- q-position: [    0.0757576,    0.0000000,    0.0000000 ]
  distance:    0.0259848
  band:
  - # 1
    frequency:   -1.2303501205
  - # 2
    frequency:   -0.8590970840
  - # 3
    frequency:   -0.7409381695
  - # 4
    frequency:   -0.4650195984
  - # 5
    frequency:    0.4584414825
  - # 6
    frequency:    1.2310725923
  - # 7
    frequency:    1.9531604964
  - # 8
    frequency:    4.6423100687
  - # 9
    frequency:    4.8262691666
  - # 10
    frequency:    5.4709337983
  - # 11
    frequency:    5.9276134756
  - # 12
    frequency:    6.6890268452
  - # 13
    frequency:    6.8015986898
  - # 14
    frequency:    6.9879525664
  - # 15
    frequency:    8.9478220799
  - # 16
    frequency:   11.4310825720
  - # 17
    frequency:   11.8135199467
  - # 18
    frequency:   13.0133196429
  - # 19
    frequency:   13.7446262100
  - # 20
    frequency:   13.7869766503
  - # 21
    frequency:   17.7303772942
  - # 22
    frequency:   17.7736812290
  - # 23
    frequency:   18.8888092136
  - # 24
    frequency:   31.9557777863
  - # 25
    frequency:   38.8518286945
  - # 26
    frequency:   67.8423781090
  - # 27
    frequency:   69.1110878567

- q-position: [    0.0808081,    0.0000000,    0.0000000 ]
  distance:    0.0277171
  band:
  - # 1
    frequency:   -1.2097405860
  - # 2
    frequency:   -0.8442788995
  - # 3
    frequency:   -0.6442008688
  - # 4
    frequency:   -0.3371869524
  - # 5
    frequency:    0.5315703302
  - # 6
    frequency:    1.3158975737
  - # 7
    frequency:    2.0877177602
  - # 8
    frequency:    4.6528543679
  - # 9
    frequency:    4.8585487149
  - # 10
    frequency:    5.4648778040
  - # 11
    frequency:    5.9390478208
  - # 12
    frequency:    6.7136020291
  - # 13
    frequency:    6.8018307976
  - # 14
    frequency:    7.0511815575
  - # 15
    frequency:    8.9426809428
  - # 16
    frequency:   11.4461726839
  - # 17
    frequency:   11.7824167241
  - # 18
    frequency:   13.2109318503
  - # 19
    frequency:   13.7462286857
  - # 20
    frequency:   13.7948783461
  - # 21
    frequency:   17.7319337391
  - # 22
    frequency:   17.7795693926
  - # 23
    frequency:   18.8475597062
  - # 24
    frequency:   31.9397059311
  - # 25
    frequency:   38.8498190964
  - # 26
    frequency:   67.8346569745
  - # 27
    frequency:   69.0700626798

- q-position: [    0.0858586,    0.0000000,    0.0000000 ]
  distance:    0.0294494
  band:
  - # 1
    frequency:   -1.1881192784
  - # 2
    frequency:   -0.8286459577
  - # 3
    frequency:   -0.5406883582
  - # 4
    frequency:    0.0499673270
  - # 5
    frequency:    0.6108642065
  - # 6
    frequency:    1.4004958552
  - # 7
    frequency:    2.2216286859
  - # 8
    frequency:    4.6638996095
  - # 9
    frequency:    4.8919457113
  - # 10
    frequency:    5.4588404540
  - # 11
    frequency:    5.9506712145
  - # 12
    frequency:    6.7304338331
  - # 13
    frequency:    6.8019637401
  - # 14
    frequency:    7.1194237857
  - # 15
    frequency:    8.9375970776
  - # 16
    frequency:   11.4615644582
  - # 17
    frequency:   11.7477503187
  - # 18
    frequency:   13.4159423015
  - # 19
    frequency:   13.7479391658
  - # 20
    frequency:   13.8044025309
  - # 21
    frequency:   17.7335682377
  - # 22
    frequency:   17.7852724777
  - # 23
    frequency:   18.8048169571
  - # 24
    frequency:   31.9229314377
  - # 25
    frequency:   38.8477159564
  - # 26
    frequency:   67.8265545485
  - # 27
    frequency:   69.0270841931

- q-position: [    0.0909091,    0.0000000,    0.0000000 ]
  distance:    0.0311818
  band:
  - # 1
    frequency:   -1.1654521295
  - # 2
    frequency:   -0.8121515939
  - # 3
    frequency:   -0.4261703619
  - # 4
    frequency:    0.3602263104
  - # 5
    frequency:    0.6968245613
  - # 6
    frequency:    1.4847818845
  - # 7
    frequency:    2.3547590829
  - # 8
    frequency:    4.6754173524
  - # 9
    frequency:    4.9263339941
  - # 10
    frequency:    5.4528774281
  - # 11
    frequency:    5.9624061469
  - # 12
    frequency:    6.7424734886
  - # 13
    frequency:    6.8019826763
  - # 14
    frequency:    7.1895323388
  - # 15
    frequency:    8.9326424395
  - # 16
    frequency:   11.4771523083
  - # 17
    frequency:   11.7101318623
  - # 18
    frequency:   13.6224809994
  - # 19
    frequency:   13.7497581603
  - # 20
    frequency:   13.8196233714
  - # 21
    frequency:   17.7352771339
  - # 22
    frequency:   17.7906269978
  - # 23
    frequency:   18.7608638151
  - # 24
    frequency:   31.9055090388
  - # 25
    frequency:   38.8455253895
  - # 26
    frequency:   67.8180904926
  - # 27
    frequency:   68.9822691388

- q-position: [    0.0959596,    0.0000000,    0.0000000 ]
  distance:    0.0329141
  band:
  - # 1
    frequency:   -1.1416945717
  - # 2
    frequency:   -0.7947423771
  - # 3
    frequency:   -0.2810252333
  - # 4
    frequency:    0.5115013504
  - # 5
    frequency:    0.7891967695
  - # 6
    frequency:    1.5686815026
  - # 7
    frequency:    2.4869815992
  - # 8
    frequency:    4.6873789701
  - # 9
    frequency:    4.9615894355
  - # 10
    frequency:    5.4470536693
  - # 11
    frequency:    5.9741764952
  - # 12
    frequency:    6.7515630696
  - # 13
    frequency:    6.8018735619
  - # 14
    frequency:    7.2595720426
  - # 15
    frequency:    8.9278927662
  - # 16
    frequency:   11.4928301298
  - # 17
    frequency:   11.6699724198
  - # 18
    frequency:   13.7516860650
  - # 19
    frequency:   13.7780080160
  - # 20
    frequency:   13.8914738596
  - # 21
    frequency:   17.7370567012
  - # 22
    frequency:   17.7954318415
  - # 23
    frequency:   18.7160314023
  - # 24
    frequency:   31.8874945881
  - # 25
    frequency:   38.8432536918
  - # 26
    frequency:   67.8092850289
  - # 27
    frequency:   68.9357375639

- q-position: [    0.1010101,    0.0000000,    0.0000000 ]
  distance:    0.0346464
  band:
  - # 1
    frequency:   -1.1167919496
  - # 2
    frequency:   -0.7763577132
  - # 3
    frequency:    0.1439121467
  - # 4
    frequency:    0.6268766483
  - # 5
    frequency:    0.8861864938
  - # 6
    frequency:    1.6521310958
  - # 7
    frequency:    2.6181708265
  - # 8
    frequency:    4.6997558878
  - # 9
    frequency:    4.9975892598
  - # 10
    frequency:    5.4414448670
  - # 11
    frequency:    5.9859081073
  - # 12
    frequency:    6.7587918965
  - # 13
    frequency:    6.8016233332
  - # 14
    frequency:    7.3284408053
  - # 15
    frequency:    8.9234274229
  - # 16
    frequency:   11.5084921910
  - # 17
    frequency:   11.6275698052
  - # 18
    frequency:   13.7537231255
  - # 19
    frequency:   13.8104211069
  - # 20
    frequency:   14.0905687944
  - # 21
    frequency:   17.7389031638
  - # 22
    frequency:   17.7994381938
  - # 23
    frequency:   18.6707107459
  - # 24
    frequency:   31.8689447535
  - # 25
    frequency:   38.8409073117
  - # 26
    frequency:   67.8001588476
  - # 27
    frequency:   68.8876122565

- q-position: [    0.1060606,    0.0000000,    0.0000000 ]
  distance:    0.0363787
  band:
  - # 1
    frequency:   -1.0906793923
  - # 2
    frequency:   -0.7569288649
  - # 3
    frequency:    0.3487666750
  - # 4
    frequency:    0.7230238944
  - # 5
    frequency:    0.9849642658
  - # 6
    frequency:    1.7350765464
  - # 7
    frequency:    2.7481990013
  - # 8
    frequency:    4.7125198176
  - # 9
    frequency:    5.0342104161
  - # 10
    frequency:    5.4361400550
  - # 11
    frequency:    5.9975293431
  - # 12
    frequency:    6.7648106701
  - # 13
    frequency:    6.8012200706
  - # 14
    frequency:    7.3955355162
  - # 15
    frequency:    8.9193292433
  - # 16
    frequency:   11.5240340220
  - # 17
    frequency:   11.5831549735
  - # 18
    frequency:   13.7558693971
  - # 19
    frequency:   13.8232252259
  - # 20
    frequency:   14.3120025734
  - # 21
    frequency:   17.7408127190
  - # 22
    frequency:   17.8023375807
  - # 23
    frequency:   18.6253668955
  - # 24
    frequency:   31.8499167125
  - # 25
    frequency:   38.8384928197
  - # 26
    frequency:   67.7907330141
  - # 27
    frequency:   68.8380181764

- q-position: [    0.1111111,    0.0000000,    0.0000000 ]
  distance:    0.0381110
  band:
  - # 1
    frequency:   -1.0632810808
  - # 2
    frequency:   -0.7363773448
  - # 3
    frequency:    0.4762507263
  - # 4
    frequency:    0.8077510853
  - # 5
    frequency:    1.0830816660
  - # 6
    frequency:    1.8174721149
  - # 7
    frequency:    2.8769321375
  - # 8
    frequency:    4.7256429878
  - # 9
    frequency:    5.0713263662
  - # 10
    frequency:    5.4312460077
  - # 11
    frequency:    6.0089715763
  - # 12
    frequency:    6.7700218935
  - # 13
    frequency:    6.8006531393
  - # 14
    frequency:    7.4605445103
  - # 15
    frequency:    8.9156843667
  - # 16
    frequency:   11.5369180049
  - # 17
    frequency:   11.5393532949
  - # 18
    frequency:   13.7581247035
  - # 19
    frequency:   13.8336174808
  - # 20
    frequency:   14.5372477754
  - # 21
    frequency:   17.7427815587
  - # 22
    frequency:   17.8037490180
  - # 23
    frequency:   18.5805548033
  - # 24
    frequency:   31.8304678518
  - # 25
    frequency:   38.8360168781
  - # 26
    frequency:   67.7810288756
  - # 27
    frequency:   68.7870818834

- q-position: [    0.1161616,    0.0000000,    0.0000000 ]
  distance:    0.0398434
  band:
  - # 1
    frequency:   -1.0345088218
  - # 2
    frequency:   -0.7146125712
  - # 3
    frequency:    0.5816894979
  - # 4
    frequency:    0.8853408517
  - # 5
    frequency:    1.1791226622
  - # 6
    frequency:    1.8992793386
  - # 7
    frequency:    3.0042264132
  - # 8
    frequency:    4.7390983642
  - # 9
    frequency:    5.1088010214
  - # 10
    frequency:    5.4268947528
  - # 11
    frequency:    6.0201696603
  - # 12
    frequency:    6.7746860213
  - # 13
    frequency:    6.7999133049
  - # 14
    frequency:    7.5233273090
  - # 15
    frequency:    8.9125820745
  - # 16
    frequency:   11.4890232979
  - # 17
    frequency:   11.5543506839
  - # 18
    frequency:   13.7604885937
  - # 19
    frequency:   13.8434628066
  - # 20
    frequency:   14.7631693662
  - # 21
    frequency:   17.7448058909
  - # 22
    frequency:   17.8032080152
  - # 23
    frequency:   18.5369346087
  - # 24
    frequency:   31.8106554744
  - # 25
    frequency:   38.8334862104
  - # 26
    frequency:   67.7710679683
  - # 27
    frequency:   68.7349309689

- q-position: [    0.1212121,    0.0000000,    0.0000000 ]
  distance:    0.0415757
  band:
  - # 1
    frequency:   -1.0042598020
  - # 2
    frequency:   -0.6915285833
  - # 3
    frequency:    0.6766143716
  - # 4
    frequency:    0.9581860718
  - # 5
    frequency:    1.2724982436
  - # 6
    frequency:    1.9804659998
  - # 7
    frequency:    3.1299246340
  - # 8
    frequency:    4.7528598605
  - # 9
    frequency:    5.1464772131
  - # 10
    frequency:    5.4232568803