nqpoint: 300    
npath: 3      
segment_nqpoint:
- 100
- 100
- 100
labels:
- [ 'G', 'M' ]
- [ 'M', 'K' ]
- [ 'K', 'G' ]
reciprocal_lattice:
- [   0.29601642,   0.17090516,   0.00000000 ] # a*
- [   0.00000000,   0.34181032,   0.00000000 ] # b*
- [   0.00000000,   0.00000000,   0.03546484 ] # c*
natom: 8      
lattice:
- [     3.378190944195675,     0.000000000000000,     0.000000000000000 ] # a
- [    -1.689095472097837,     2.925599176509618,     0.000000000000000 ] # b
- [     0.000000000000000,     0.000000000000000,    28.196943461644413 ] # c
points:
- symbol: C # 1
  coordinates: [  0.000000000000000,  0.000000000000000,  0.487612498839312 ]
  mass: 12.010700
- symbol: C # 2
  coordinates: [  0.333332985432215,  0.666666983183674,  0.625762418818258 ]
  mass: 12.010700
- symbol: N # 3
  coordinates: [  0.333332985432215,  0.666666983183674,  0.581268062506074 ]
  mass: 14.006700
- symbol: O # 4
  coordinates: [  0.666666984744048,  0.333332985985145,  0.319183531798135 ]
  mass: 15.999400
- symbol: P # 5
  coordinates: [  0.666666984744048,  0.333332985985145,  0.372153040005639 ]
  mass: 30.973762
- symbol: S # 6
  coordinates: [  0.333332985432215,  0.666666983183674,  0.680816468201865 ]
  mass: 32.065000
- symbol: Zr # 7
  coordinates: [  0.333332985432215,  0.666666983183674,  0.442583146341474 ]
  mass: 91.224000
- symbol: Zr # 8
  coordinates: [  0.666666984744048,  0.333332985985145,  0.532305521044089 ]
  mass: 91.224000

phonon:
- q-position: [    0.0000000,    0.0000000,    0.0000000 ]
  distance:    0.0000000
  band:
  - # 1
    frequency:   -3.6354951902
  - # 2
    frequency:   -3.6354951902
  - # 3
    frequency:   -0.0000053011
  - # 4
    frequency:   -0.0000001500
  - # 5
    frequency:    0.0000072166
  - # 6
    frequency:    1.3115167815
  - # 7
    frequency:    1.3115167815
  - # 8
    frequency:    3.6900104418
  - # 9
    frequency:    3.6900104418
  - # 10
    frequency:    4.7032410722
  - # 11
    frequency:    4.7391555809
  - # 12
    frequency:    4.7391555809
  - # 13
    frequency:    7.0613133801
  - # 14
    frequency:    7.3179747468
  - # 15
    frequency:    7.3179747468
  - # 16
    frequency:    8.4534254782
  - # 17
    frequency:   13.7119174395
  - # 18
    frequency:   13.7119174395
  - # 19
    frequency:   15.6502897790
  - # 20
    frequency:   16.7369582060
  - # 21
    frequency:   16.7369582060
  - # 22
    frequency:   27.0314252404
  - # 23
    frequency:   34.1694002128
  - # 24
    frequency:   57.2363269780

- q-position: [    0.0050505,    0.0000000,    0.0000000 ]
  distance:    0.0017263
  band:
  - # 1
    frequency:   -3.6344639085
  - # 2
    frequency:   -3.6338518753
  - # 3
    frequency:    0.0018038837
  - # 4
    frequency:    0.0573785883
  - # 5
    frequency:    0.0867423430
  - # 6
    frequency:    1.3119875102
  - # 7
    frequency:    1.3142038687
  - # 8
    frequency:    3.6902910126
  - # 9
    frequency:    3.6907238229
  - # 10
    frequency:    4.6911638794
  - # 11
    frequency:    4.7391731115
  - # 12
    frequency:    4.7510710714
  - # 13
    frequency:    7.0605960471
  - # 14
    frequency:    7.3178318305
  - # 15
    frequency:    7.3184269966
  - # 16
    frequency:    8.4531391506
  - # 17
    frequency:   13.7119838388
  - # 18
    frequency:   13.7119860575
  - # 19
    frequency:   15.6501820043
  - # 20
    frequency:   16.7364378778
  - # 21
    frequency:   16.7369301970
  - # 22
    frequency:   27.0312301766
  - # 23
    frequency:   34.1691608238
  - # 24
    frequency:   57.2354782416

- q-position: [    0.0101010,    0.0000000,    0.0000000 ]
  distance:    0.0034526
  band:
  - # 1
    frequency:   -3.6313741988
  - # 2
    frequency:   -3.6289304855
  - # 3
    frequency:    0.0071787020
  - # 4
    frequency:    0.1147330879
  - # 5
    frequency:    0.1735586860
  - # 6
    frequency:    1.3133994268
  - # 7
    frequency:    1.3222195794
  - # 8
    frequency:    3.6911338999
  - # 9
    frequency:    3.6928606869
  - # 10
    frequency:    4.6697242387
  - # 11
    frequency:    4.7392265804
  - # 12
    frequency:    4.7720330144
  - # 13
    frequency:    7.0584688720
  - # 14
    frequency:    7.3174039202
  - # 15
    frequency:    7.3197620647
  - # 16
    frequency:    8.4522797987
  - # 17
    frequency:   13.7121830585
  - # 18
    frequency:   13.7121930756
  - # 19
    frequency:   15.6498564973
  - # 20
    frequency:   16.7348789566
  - # 21
    frequency:   16.7368450905
  - # 22
    frequency:   27.0306456440
  - # 23
    frequency:   34.1684431033
  - # 24
    frequency:   57.2329335513

- q-position: [    0.0151515,    0.0000000,    0.0000000 ]
  distance:    0.0051789
  band:
  - # 1
    frequency:   -3.6262384644
  - # 2
    frequency:   -3.6207567079
  - # 3
    frequency:    0.0160149509
  - # 4
    frequency:    0.1720391145
  - # 5
    frequency:    0.2605213083
  - # 6
    frequency:    1.3157517538
  - # 7
    frequency:    1.3354316986
  - # 8
    frequency:    3.6925425970
  - # 9
    frequency:    3.6964109765
  - # 10
    frequency:    4.6465543543
  - # 11
    frequency:    4.7393186149
  - # 12
    frequency:    4.7944315480
  - # 13
    frequency:    7.0550030786
  - # 14
    frequency:    7.3166935259
  - # 15
    frequency:    7.3219181248
  - # 16
    frequency:    8.4508463236
  - # 17
    frequency:   13.7125151628
  - # 18
    frequency:   13.7125419677
  - # 19
    frequency:   15.6493067538
  - # 20
    frequency:   16.7322876185
  - # 21
    frequency:   16.7366996578
  - # 22
    frequency:   27.0296736148
  - # 23
    frequency:   34.1672483904
  - # 24
    frequency:   57.2286974600

- q-position: [    0.0202020,    0.0000000,    0.0000000 ]
  distance:    0.0069053
  band:
  - # 1
    frequency:   -3.6190773640
  - # 2
    frequency:   -3.6093734219
  - # 3
    frequency:    0.0281441191
  - # 4
    frequency:    0.2292716925
  - # 5
    frequency:    0.3476989939
  - # 6
    frequency:    1.3190432998
  - # 7
    frequency:    1.3536337083
  - # 8
    frequency:    3.6945228190
  - # 9
    frequency:    3.7013571943
  - # 10
    frequency:    4.6229034012
  - # 11
    frequency:    4.7394535768
  - # 12
    frequency:    4.8170551305
  - # 13
    frequency:    7.0503075443
  - # 14
    frequency:    7.3157048109
  - # 15
    frequency:    7.3248018597
  - # 16
    frequency:    8.4488369193
  - # 17
    frequency:   13.7129802561
  - # 18
    frequency:   13.7130384632
  - # 19
    frequency:   15.6485220801
  - # 20
    frequency:   16.7286741123
  - # 21
    frequency:   16.7364885497
  - # 22
    frequency:   27.0283173626
  - # 23
    frequency:   34.1655789123
  - # 24
    frequency:   57.2227775423

- q-position: [    0.0252525,    0.0000000,    0.0000000 ]
  distance:    0.0086316
  band:
  - # 1
    frequency:   -3.6099197931
  - # 2
    frequency:   -3.5948407819
  - # 3
    frequency:    0.0433555210
  - # 4
    frequency:    0.2864049557
  - # 5
    frequency:    0.4351551518
  - # 6
    frequency:    1.3232726201
  - # 7
    frequency:    1.3765625792
  - # 8
    frequency:    3.6970823420
  - # 9
    frequency:    3.7076732792
  - # 10
    frequency:    4.5991430821
  - # 11
    frequency:    4.7396375387
  - # 12
    frequency:    4.8395856083
  - # 13
    frequency:    7.0445170224
  - # 14
    frequency:    7.3144435613
  - # 15
    frequency:    7.3283000882
  - # 16
    frequency:    8.4462491109
  - # 17
    frequency:   13.7135784791
  - # 18
    frequency:   13.7136904578
  - # 19
    frequency:   15.6474878105
  - # 20
    frequency:   16.7240526920
  - # 21
    frequency:   16.7362043446
  - # 22
    frequency:   27.0265814417
  - # 23
    frequency:   34.1634377784
  - # 24
    frequency:   57.2151843749

- q-position: [    0.0303030,    0.0000000,    0.0000000 ]
  distance:    0.0103579
  band:
  - # 1
    frequency:   -3.5988028564
  - # 2
    frequency:   -3.5772362970
  - # 3
    frequency:    0.0614154233
  - # 4
    frequency:    0.3434118429
  - # 5
    frequency:    0.5229457778
  - # 6
    frequency:    1.3284382490
  - # 7
    frequency:    1.4039188225
  - # 8
    frequency:    3.7002307782
  - # 9
    frequency:    3.7153229920
  - # 10
    frequency:    4.5754686463
  - # 11
    frequency:    4.7398782498
  - # 12
    frequency:    4.8618981398
  - # 13
    frequency:    7.0377800930
  - # 14
    frequency:    7.3129171444
  - # 15
    frequency:    7.3322916072
  - # 16
    frequency:    8.4430798090
  - # 17
    frequency:   13.7143100028
  - # 18
    frequency:   13.7145078920
  - # 19
    frequency:   15.6461856051
  - # 20
    frequency:   16.7184415221
  - # 21
    frequency:   16.7358376147
  - # 22
    frequency:   27.0244716592
  - # 23
    frequency:   34.1608289713
  - # 24
    frequency:   57.2059315088

- q-position: [    0.0353535,    0.0000000,    0.0000000 ]
  distance:    0.0120842
  band:
  - # 1
    frequency:   -3.5857718332
  - # 2
    frequency:   -3.5566548684
  - # 3
    frequency:    0.0820851858
  - # 4
    frequency:    0.4002637799
  - # 5
    frequency:    0.6111172086
  - # 6
    frequency:    1.3345390130
  - # 7
    frequency:    1.4353859034
  - # 8
    frequency:    3.7039792857
  - # 9
    frequency:    3.7242577651
  - # 10
    frequency:    4.5520306822
  - # 11
    frequency:    4.7401850940
  - # 12
    frequency:    4.8839307308
  - # 13
    frequency:    7.0302488810
  - # 14
    frequency:    7.3111344554
  - # 15
    frequency:    7.3366572139
  - # 16
    frequency:    8.4393253810
  - # 17
    frequency:   13.7151750219
  - # 18
    frequency:   13.7155025990
  - # 19
    frequency:   15.6445938253
  - # 20
    frequency:   16.7118625576
  - # 21
    frequency:   16.7353770102
  - # 22
    frequency:   27.0219950397
  - # 23
    frequency:   34.1577573357
  - # 24
    frequency:   57.1950354333

- q-position: [    0.0404040,    0.0000000,    0.0000000 ]
  distance:    0.0138105
  band:
  - # 1
    frequency:   -3.5708801345
  - # 2
    frequency:   -3.5332087390
  - # 3
    frequency:    0.1051363547
  - # 4
    frequency:    0.4569303380
  - # 5
    frequency:    0.6997036198
  - # 6
    frequency:    1.3415744384
  - # 7
    frequency:    1.4706470052
  - # 8
    frequency:    3.7083402142
  - # 9
    frequency:    3.7344139571
  - # 10
    frequency:    4.5289727266
  - # 11
    frequency:    4.7405690397
  - # 12
    frequency:    4.9056484261
  - # 13
    frequency:    7.0220714732
  - # 14
    frequency:    7.3091058518
  - # 15
    frequency:    7.3412869826
  - # 16
    frequency:    8.4349817380
  - # 17
    frequency:   13.7161737464
  - # 18
    frequency:   13.7166881274
  - # 19
    frequency:   15.6426879775
  - # 20
    frequency:   16.7043413965
  - # 21
    frequency:   16.7348093609
  - # 22
    frequency:   27.0191597822
  - # 23
    frequency:   34.1542285645
  - # 24
    frequency:   57.1825155333

- q-position: [    0.0454545,    0.0000000,    0.0000000 ]
  distance:    0.0155368
  band:
  - # 1
    frequency:   -3.5541892531
  - # 2
    frequency:   -3.5070272964
  - # 3
    frequency:    0.1303617068
  - # 4
    frequency:    0.5133788510
  - # 5
    frequency:    0.7887242267
  - # 6
    frequency:    1.3495452697
  - # 7
    frequency:    1.5093981984
  - # 8
    frequency:    3.7133266863
  - # 9
    frequency:    3.7457094394
  - # 10
    frequency:    4.5064463085
  - # 11
    frequency:    4.7410425821
  - # 12
    frequency:    4.9270306479
  - # 13
    frequency:    7.0133870492
  - # 14
    frequency:    7.3068430784
  - # 15
    frequency:    7.3460847836
  - # 16
    frequency:    8.4300444393
  - # 17
    frequency:   13.7173063915
  - # 18
    frequency:   13.7180795401
  - # 19
    frequency:   15.6404412188
  - # 20
    frequency:   16.6959071076
  - # 21
    frequency:   16.7341197933
  - # 22
    frequency:   27.0159752114
  - # 23
    frequency:   34.1502491828
  - # 24
    frequency:   57.1683940379

- q-position: [    0.0505051,    0.0000000,    0.0000000 ]
  distance:    0.0172631
  band:
  - # 1
    frequency:   -3.5357687054
  - # 2
    frequency:   -3.4782566667
  - # 3
    frequency:    0.1575821381
  - # 4
    frequency:    0.5695739658
  - # 5
    frequency:    0.8781801590
  - # 6
    frequency:    1.3584541258
  - # 7
    frequency:    1.5513579605
  - # 8
    frequency:    3.7189521173
  - # 9
    frequency:    3.7580394419
  - # 10
    frequency:    4.4846194065
  - # 11
    frequency:    4.7416196795
  - # 12
    frequency:    4.9480658066
  - # 13
    frequency:    7.0043232348
  - # 14
    frequency:    7.3043591807
  - # 15
    frequency:    7.3509705455
  - # 16
    frequency:    8.4245088142
  - # 17
    frequency:   13.7185731672
  - # 18
    frequency:   13.7196931957
  - # 19
    frequency:   15.6378249162
  - # 20
    frequency:   16.6865920340
  - # 21
    frequency:   16.7332918633
  - # 22
    frequency:   27.0124517231
  - # 23
    frequency:   34.1458265298
  - # 24
    frequency:   57.1526959621

- q-position: [    0.0555556,    0.0000000,    0.0000000 ]
  distance:    0.0189895
  band:
  - # 1
    frequency:   -3.5156959668
  - # 2
    frequency:   -3.4470590292
  - # 3
    frequency:    0.1866498670
  - # 4
    frequency:    0.6254770903
  - # 5
    frequency:    0.9680509940
  - # 6
    frequency:    1.3683063257
  - # 7
    frequency:    1.5962735546
  - # 8
    frequency:    3.7252296740
  - # 9
    frequency:    3.7712716107
  - # 10
    frequency:    4.4636829623
  - # 11
    frequency:    4.7423156847
  - # 12
    frequency:    4.9687486316
  - # 13
    frequency:    6.9949950376
  - # 14
    frequency:    7.3016684088
  - # 15
    frequency:    7.3558809035
  - # 16
    frequency:    8.4183700988
  - # 17
    frequency:   13.7199742661
  - # 18
    frequency:   13.7215465149
  - # 19
    frequency:   15.6348092483
  - # 20
    frequency:   16.6764315729
  - # 21
    frequency:   16.7323077027
  - # 22
    frequency:   27.0086007229
  - # 23
    frequency:   34.1409687373
  - # 24
    frequency:   57.1354490412

- q-position: [    0.0606061,    0.0000000,    0.0000000 ]
  distance:    0.0207158
  band:
  - # 1
    frequency:   -3.4940563994
  - # 2
    frequency:   -3.4136115876
  - # 3
    frequency:    0.2174486896
  - # 4
    frequency:    0.6810456893
  - # 5
    frequency:    1.0582909631
  - # 6
    frequency:    1.3791109305
  - # 7
    frequency:    1.6439250255
  - # 8
    frequency:    3.7321716796
  - # 9
    frequency:    3.7852403138
  - # 10
    frequency:    4.4438570137
  - # 11
    frequency:    4.7431472702
  - # 12
    frequency:    4.9890786552
  - # 13
    frequency:    6.9855047912
  - # 14
    frequency:    7.2987861118
  - # 15
    frequency:    7.3607688141
  - # 16
    frequency:    8.4116235900
  - # 17
    frequency:   13.7215098508
  - # 18
    frequency:   13.7236577378
  - # 19
    frequency:   15.6313638410
  - # 20
    frequency:   16.6654639354
  - # 21
    frequency:   16.7311481778
  - # 22
    frequency:   27.0044345621
  - # 23
    frequency:   34.1356847079
  - # 24
    frequency:   57.1166836581

- q-position: [    0.0656566,    0.0000000,    0.0000000 ]
  distance:    0.0224421
  band:
  - # 1
    frequency:   -3.4709431726
  - # 2
    frequency:   -3.3781051384
  - # 3
    frequency:    0.2498920750
  - # 4
    frequency:    0.7362323613
  - # 5
    frequency:    1.1488248944
  - # 6
    frequency:    1.3908820599
  - # 7
    frequency:    1.6941275753
  - # 8
    frequency:    3.7397889670
  - # 9
    frequency:    3.7997404315
  - # 10
    frequency:    4.4253968590
  - # 11
    frequency:    4.7441323523
  - # 12
    frequency:    5.0090592391
  - # 13
    frequency:    6.9759426767
  - # 14
    frequency:    7.2957286235
  - # 15
    frequency:    7.3656025747
  - # 16
    frequency:    8.4042648125
  - # 17
    frequency:   13.7231800399
  - # 18
    frequency:   13.7260456741
  - # 19
    frequency:   15.6274584244
  - # 20
    frequency:   16.6537298873
  - # 21
    frequency:   16.7297930598
  - # 22
    frequency:   26.9999664686
  - # 23
    frequency:   34.1299840889
  - # 24
    frequency:   57.0964327631

- q-position: [    0.0707071,    0.0000000,    0.0000000 ]
  distance:    0.0241684
  band:
  - # 1
    frequency:   -3.4464571774
  - # 2
    frequency:   -3.3407421983
  - # 3
    frequency:    0.2839198107
  - # 4
    frequency:    0.7909836115
  - # 5
    frequency:    1.2395440278
  - # 6
    frequency:    1.4036405589
  - # 7
    frequency:    1.7467329339
  - # 8
    frequency:    3.7480901914
  - # 9
    frequency:    3.8145212638
  - # 10
    frequency:    4.4085989166
  - # 11
    frequency:    4.7452900093
  - # 12
    frequency:    5.0286968781
  - # 13
    frequency:    6.9663875318
  - # 14
    frequency:    7.2925131401
  - # 15
    frequency:    7.3703645392
  - # 16
    frequency:    8.3962896985
  - # 17
    frequency:   13.7249848942
  - # 18
    frequency:   13.7287294517
  - # 19
    frequency:   15.6230635012
  - # 20
    frequency:   16.6412724756
  - # 21
    frequency:   16.7282212037
  - # 22
    frequency:   26.9952104745
  - # 23
    frequency:   34.1238772463
  - # 24
    frequency:   57.0747317880

- q-position: [    0.0757576,    0.0000000,    0.0000000 ]
  distance:    0.0258947
  band:
  - # 1
    frequency:   -3.4207069308
  - # 2
    frequency:   -3.3017346772
  - # 3
    frequency:    0.3194937852
  - # 4
    frequency:    0.8452382130
  - # 5
    frequency:    1.3303019812
  - # 6
    frequency:    1.4174161067
  - # 7
    frequency:    1.8016300813
  - # 8
    frequency:    3.7570811119
  - # 9
    frequency:    3.8292818841
  - # 10
    frequency:    4.3938051034
  - # 11
    frequency:    4.7466403999
  - # 12
    frequency:    5.0480006589
  - # 13
    frequency:    6.9569077768
  - # 14
    frequency:    7.2891575911
  - # 15
    frequency:    7.3750497090
  - # 16
    frequency:    8.3876947779
  - # 17
    frequency:   13.7269244018
  - # 18
    frequency:   13.7317282664
  - # 19
    frequency:   15.6181510142
  - # 20
    frequency:   16.6281367439
  - # 21
    frequency:   16.7264107368
  - # 22
    frequency:   26.9901813415
  - # 23
    frequency:   34.1173752349
  - # 24
    frequency:   57.0516185527

- q-position: [    0.0808081,    0.0000000,    0.0000000 ]
  distance:    0.0276210
  band:
  - # 1
    frequency:   -3.3938084727
  - # 2
    frequency:   -3.2613011223
  - # 3
    frequency:    0.3565933648
  - # 4
    frequency:    0.8989250350
  - # 5
    frequency:    1.4209113721
  - # 6
    frequency:    1.4322498740
  - # 7
    frequency:    1.8587453191
  - # 8
    frequency:    3.7667638545
  - # 9
    frequency:    3.8436703326
  - # 10
    frequency:    4.3814034202
  - # 11
    frequency:    4.7482046777
  - # 12
    frequency:    5.0669818136
  - # 13
    frequency:    6.9475623608
  - # 14
    frequency:    7.2856805031
  - # 15
    frequency:    7.3796642962
  - # 16
    frequency:    8.3784773756
  - # 17
    frequency:   13.7289984629
  - # 18
    frequency:   13.7350611351
  - # 19
    frequency:   15.6126950001
  - # 20
    frequency:   16.6143694431
  - # 21
    frequency:   16.7243392519
  - # 22
    frequency:   26.9848944845
  - # 23
    frequency:   34.1104897682
  - # 24
    frequency:   57.0271331666

- q-position: [    0.0858586,    0.0000000,    0.0000000 ]
  distance:    0.0293474
  band:
  - # 1
    frequency:   -3.3658852477
  - # 2
    frequency:   -3.2196636009
  - # 3
    frequency:    0.3952107069
  - # 4
    frequency:    0.9519602121
  - # 5
    frequency:    1.4481978308
  - # 6
    frequency:    1.5111419816
  - # 7
    frequency:    1.9180411871
  - # 8
    frequency:    3.7771361733
  - # 9
    frequency:    3.8572903293
  - # 10
    frequency:    4.3718211145
  - # 11
    frequency:    4.7500049035
  - # 12
    frequency:    5.0856533374
  - # 13
    frequency:    6.9384016848
  - # 14
    frequency:    7.2821008594
  - # 15
    frequency:    7.3842243059
  - # 16
    frequency:    8.3686358148
  - # 17
    frequency:   13.7312068746
  - # 18
    frequency:   13.7387466562
  - # 19
    frequency:   15.6066722193
  - # 20
    frequency:   16.6000187414
  - # 21
    frequency:   16.7219840068
  - # 22
    frequency:   26.9793658942
  - # 23
    frequency:   34.1032331853
  - # 24
    frequency:   57.0013179234

- q-position: [    0.0909091,    0.0000000,    0.0000000 ]
  distance:    0.0310737
  band:
  - # 1
    frequency:   -3.3370679709
  - # 2
    frequency:   -3.1770443342
  - # 3
    frequency:    0.4353462572
  - # 4
    frequency:    1.0042435698
  - # 5
    frequency:    1.4653347661
  - # 6
    frequency:    1.6007219039
  - # 7
    frequency:    1.9795130516
  - # 8
    frequency:    3.7881907296
  - # 9
    frequency:    3.8697200627
  - # 10
    frequency:    4.3655058931
  - # 11
    frequency:    4.7520639548
  - # 12
    frequency:    5.1040296573
  - # 13
    frequency:    6.9294684880
  - # 14
    frequency:    7.2784379548
  - # 15
    frequency:    7.3887541558
  - # 16
    frequency:    8.3581696217
  - # 17
    frequency:   13.7335493156
  - # 18
    frequency:   13.7428027778
  - # 19
    frequency:   15.6000627474
  - # 20
    frequency:   16.5851339418
  - # 21
    frequency:   16.7193221258
  - # 22
    frequency:   26.9736120585
  - # 23
    frequency:   34.0956184170
  - # 24
    frequency:   56.9742171906

- q-position: [    0.0959596,    0.0000000,    0.0000000 ]
  distance:    0.0328000
  band:
  - # 1
    frequency:   -3.3074944689
  - # 2
    frequency:   -3.1336622368
  - # 3
    frequency:    0.4770046053
  - # 4
    frequency:    1.0556543395
  - # 5
    frequency:    1.4837589564
  - # 6
    frequency:    1.6893438155
  - # 7
    frequency:    2.0431814009
  - # 8
    frequency:    3.7999144083
  - # 9
    frequency:    3.8805466699
  - # 10
    frequency:    4.3628915896
  - # 11
    frequency:    4.7544054306
  - # 12
    frequency:    5.1221263429
  - # 13
    frequency:    6.9207986957
  - # 14
    frequency:    7.2747112469
  - # 15
    frequency:    7.3932853324
  - # 16
    frequency:    8.3470797312
  - # 17
    frequency:   13.7360253311
  - # 18
    frequency:   13.7472465767
  - # 19
    frequency:   15.5928505184
  - # 20
    frequency:   16.5697652146
  - # 21
    frequency:   16.7163308038
  - # 22
    frequency:   26.9676498852
  - # 23
    frequency:   34.0876589502
  - # 24
    frequency:   56.9458772937

- q-position: [    0.1010101,    0.0000000,    0.0000000 ]
  distance:    0.0345263
  band:
  - # 1
    frequency:   -3.2773094855
  - # 2
    frequency:   -3.0897295460
  - # 3
    frequency:    0.5201908105
  - # 4
    frequency:    1.1060464806
  - # 5
    frequency:    1.5035971379
  - # 6
    frequency:    1.7766789940
  - # 7
    frequency:    2.1090772877
  - # 8
    frequency:    3.8122876972
  - # 9
    frequency:    3.8894155680
  - # 10
    frequency:    4.3643491387
  - # 11
    frequency:    4.7570535488
  - # 12
    frequency:    5.1399598576
  - # 13
    frequency:    6.9124222383
  - # 14
    frequency:    7.2709402063
  - # 15
    frequency:    7.3978550775
  - # 16
    frequency:    8.3353686905
  - # 17
    frequency:   13.7386343172
  - # 18
    frequency:   13.7520940481
  - # 19
    frequency:   15.5850238064
  - # 20
    frequency:   16.5539633499
  - # 21
    frequency:   16.7129875089
  - # 22
    frequency:   26.9614966245
  - # 23
    frequency:   34.0793687905
  - # 24
    frequency:   56.9163463954

- q-position: [    0.1060606,    0.0000000,    0.0000000 ]
  distance:    0.0362526
  band:
  - # 1
    frequency:   -3.2466644419
  - # 2
    frequency:   -3.0454487363
  - # 3
    frequency:    0.5649072656
  - # 4
    frequency:    1.1552444803
  - # 5
    frequency:    1.5250088783
  - # 6
    frequency:    1.8624012794
  - # 7
    frequency:    2.1772186980
  - # 8
    frequency:    3.8252841551
  - # 9
    frequency:    3.8960856988
  - # 10
    frequency:    4.3701318108
  - # 11
    frequency:    4.7600330342
  - # 12
    frequency:    5.1575473487
  - # 13
    frequency:    6.9043638504
  - # 14
    frequency:    7.2671441654
  - # 15
    frequency:    7.4025050950
  - # 16
    frequency:    8.3230408600
  - # 17
    frequency:   13.7413755070
  - # 18
    frequency:   13.7573599081
  - # 19
    frequency:   15.5765756359
  - # 20
    frequency:   16.5377795411
  - # 21
    frequency:   16.7092701847
  - # 22
    frequency:   26.9551697936
  - # 23
    frequency:   34.0707624240
  - # 24
    frequency:   56.8856743709

- q-position: [    0.1111111,    0.0000000,    0.0000000 ]
  distance:    0.0379789
  band:
  - # 1
    frequency:   -3.2157171324
  - # 2
    frequency:   -3.0010099054
  - # 3
    frequency:    0.6111511254
  - # 4
    frequency:    1.2030414352
  - # 5
    frequency:    1.5481885176
  - # 6
    frequency:    1.9462206945
  - # 7
    frequency:    2.2475780159
  - # 8
    frequency:    3.8388699926
  - # 9
    frequency:    3.9004739972
  - # 10
    frequency:    4.3803314150
  - # 11
    frequency:    4.7633689922
  - # 12
    frequency:    5.1749064765
  - # 13
    frequency:    6.8966438596
  - # 14
    frequency:    7.2633421675
  - # 15
    frequency:    7.4072802668
  - # 16
    frequency:    8.3101026112
  - # 17
    frequency:   13.7442479555
  - # 18
    frequency:   13.7630574082
  - # 19
    frequency:   15.5675041106
  - # 20
    frequency:   16.5212652040
  - # 21
    frequency:   16.7051574486
  - # 22
    frequency:   26.9486871024
  - # 23
    frequency:   34.0618547782
  - # 24
    frequency:   56.8539126779

- q-position: [    0.1161616,    0.0000000,    0.0000000 ]
  distance:    0.0397052
  band:
  - # 1
    frequency:   -3.1846313393
  - # 2
    frequency:   -2.9565887869
  - # 3
    frequency:    0.6589122997
  - # 4
    frequency:    1.2492024749
  - # 5
    frequency:    1.5733615896
  - # 6
    frequency:    2.0279214677
  - # 7
    frequency:    2.3200456432
  - # 8
    frequency:    3.8530037952
  - # 9
    frequency:    3.9026721595
  - # 10
    frequency:    4.3948624215
  - # 11
    frequency:    4.7670867631
  - # 12
    frequency:    5.1920552804
  - # 13
    frequency:    6.8892789727
  - # 14
    frequency:    7.2595528184
  - # 15
    frequency:    7.4122273701
  - # 16
    frequency:    8.2965625237
  - # 17
    frequency:   13.7472505264
  - # 18
    frequency:   13.7691981631
  - # 19
    frequency:   15.5578126523
  - # 20
    frequency:   16.5044718398
  - # 21
    frequency:   16.7006287853
  - # 22
    frequency:   26.9420663821
  - # 23
    frequency:   34.0526611811
  - # 24
    frequency:   56.8211142244

- q-position: [    0.1212121,    0.0000000,    0.0000000 ]
  distance:    0.0414316
  band:
  - # 1
    frequency:   -3.1535763425
  - # 2
    frequency:   -2.9123454942
  - # 3
    frequency:    0.7081719846
  - # 4
    frequency:    1.2934776309
  - # 5
    frequency:    1.6007716027
  - # 6
    frequency:    2.1073936355
  - # 7
    frequency:    2.3944003400
  - # 8
    frequency:    3.8676364110
  - # 9
    frequency:    3.9029294218
  - # 10
    frequency:    4.4134803336
  - # 11
    frequency:    4.7712117507
  - # 12
    frequency:    5.2090120832
  - # 13
    frequency:    6.8822830642
  - # 14
    frequency:    7.2557941401
  - # 15
    frequency:    7.4173937873
  - # 16
    frequency:    8.2824315832
  - # 17
    frequency:   13.7503818789
  - # 18
    frequency:   13.7757919913
  - # 19
    frequency:   15.5475101423
  - # 20
    frequency:   16.4874509457
  - # 21
    frequency:   16.6956647340
  - # 22
    frequency:   26.9353255156
  - # 23
    frequency:   34.0431973204
  - # 24
    frequency:   56.7873332316

- q-position: [    0.1262626,    0.0000000,    0.0000000 ]
  distance:    0.0431579
  band:
  - # 1
    frequency:   -3.1227263039
  - # 2
    frequency:   -2.8684240397
  - # 3
    frequency:    0.7589016937
  - # 4
    frequency:    1.3356276414
  - # 5
    frequency:    1.6306536771
  - # 6
    frequency:    2.1846459223
  - # 7
    frequency:    2.4702982882
  - # 8
    frequency:    3.8827110283
  - # 9
    frequency:    3.9016101695
  - # 10
    frequency:    4.4358255509
  - # 11
    frequency:    4.7757692183
  - # 12
    frequency:    5.2257954279
  - # 13
    frequency:    6.8756679682
  - # 14
    frequency:    7.2520834292
  - # 15
    frequency:    7.4228262031
  - # 16
    frequency:    8.2677233869
  - # 17
    frequency:   13.7536404552
  - # 18
    frequency:   13.7828467683
  - # 19
    frequency:   15.5366109623
  - # 20
    frequency:   16.4702539783
  - # 21
    frequency:   16.6902470691
  - # 22
    frequency:   26.9284823717
  - # 23
    frequency:   34.0334792015
  - # 24
    frequency:   56.7526250955

- q-position: [    0.1313131,    0.0000000,    0.0000000 ]
  distance:    0.0448842
  band:
  - # 1
    frequency:   -3.0922595006
  - # 2
    frequency:   -2.8249526116
  - # 3
    frequency:    0.8110627387
  - # 4
    frequency:    1.3754619507
  - # 5
    frequency:    1.6631957802
  - # 6
    frequency:    2.2597937945
  - # 7
    frequency:    2.5472866630
  - # 8
    frequency:    3.8981634601
  - # 9
    frequency:    3.8991438370
  - # 10
    frequency:    4.4614753414
  - # 11
    frequency:    4.7807840444
  - # 12
    frequency:    5.2424240468
  - # 13
    frequency:    6.8694442718
  - # 14
    frequency:    7.2484371212
  - # 15
    frequency:    7.4285692852
  - # 16
    frequency:    8.2524543636
  - # 17
    frequency:   13.7570244693
  - # 18
    frequency:   13.7903682931
  - # 19
    frequency:   15.5251349316
  - # 20
    frequency:   16.4529323706
  - # 21
    frequency:   16.6843589702
  - # 22
    frequency:   26.9215547414
  - # 23
    frequency:   34.0235231047
  - # 24
    frequency:   56.7170462450

- q-position: [    0.1363636,    0.0000000,    0.0000000 ]
  distance:    0.0466105
  band:
  - # 1
    frequency:   -3.0623573888
  - # 2
    frequency:   -2.7820445334
  - # 3
    frequency:    0.8646061024
  - # 4
    frequency:    1.4128800516
  - # 5
    frequency:    1.6984964236
  - # 6
    frequency:    2.3330275776
  - # 7