nqpoint: 300    
npath: 3      
segment_nqpoint:
- 100
- 100
- 100
labels:
- [ 'G', 'M' ]
- [ 'M', 'K' ]
- [ 'K', 'G' ]
reciprocal_lattice:
- [   0.27750156,   0.16021560,   0.00000000 ] # a*
- [   0.00000000,   0.32043120,   0.00000000 ] # b*
- [   0.00000000,   0.00000000,   0.03703669 ] # c*
natom: 8      
lattice:
- [     3.603583398453950,     0.000000000000000,     0.000000000000000 ] # a
- [    -1.801791699226975,     3.120794767715674,     0.000000000000000 ] # b
- [     0.000000000000000,     0.000000000000000,    27.000249459148563 ] # c
points:
- symbol: C # 1
  coordinates: [  0.666666984744047,  0.333332985985145,  0.377968809508707 ]
  mass: 12.010700
- symbol: N # 2
  coordinates: [  0.000000000000000,  0.000000000000000,  0.519369321679411 ]
  mass: 14.006700
- symbol: N # 3
  coordinates: [  0.333332985432215,  0.666666983183674,  0.617110113754373 ]
  mass: 14.006700
- symbol: N # 4
  coordinates: [  0.666666984744047,  0.333332985985145,  0.424118761722919 ]
  mass: 14.006700
- symbol: O # 5
  coordinates: [  0.333332985432215,  0.666666983183674,  0.666669746380787 ]
  mass: 15.999400
- symbol: O # 6
  coordinates: [  0.666666984744047,  0.333332985985145,  0.333330253619213 ]
  mass: 15.999400
- symbol: Y # 7
  coordinates: [  0.333332985432215,  0.666666983183674,  0.477460399986143 ]
  mass: 88.905850
- symbol: Y # 8
  coordinates: [  0.666666984744047,  0.333332985985145,  0.581979207216646 ]
  mass: 88.905850

phonon:
- q-position: [    0.0000000,    0.0000000,    0.0000000 ]
  distance:    0.0000000
  band:
  - # 1
    frequency:   -5.4284214337
  - # 2
    frequency:   -5.4284214337
  - # 3
    frequency:   -0.0000061967
  - # 4
    frequency:    0.0000003524
  - # 5
    frequency:    0.0000051948
  - # 6
    frequency:    0.6184410670
  - # 7
    frequency:    0.6184410670
  - # 8
    frequency:    2.4680533449
  - # 9
    frequency:    2.4680533449
  - # 10
    frequency:    4.4352843938
  - # 11
    frequency:    5.7567759542
  - # 12
    frequency:    5.7567759542
  - # 13
    frequency:    6.0290495698
  - # 14
    frequency:    7.9313167988
  - # 15
    frequency:    9.7319192270
  - # 16
    frequency:    9.7319192270
  - # 17
    frequency:   10.7724909183
  - # 18
    frequency:   10.7724909183
  - # 19
    frequency:   13.5627808232
  - # 20
    frequency:   18.2893091276
  - # 21
    frequency:   18.2893091276
  - # 22
    frequency:   37.5605740666
  - # 23
    frequency:   38.8155985754
  - # 24
    frequency:   69.0616099575

- q-position: [    0.0050505,    0.0000000,    0.0000000 ]
  distance:    0.0016183
  band:
  - # 1
    frequency:   -5.4280077083
  - # 2
    frequency:   -5.4270094659
  - # 3
    frequency:   -0.2294528873
  - # 4
    frequency:   -0.2177457592
  - # 5
    frequency:    0.0022557450
  - # 6
    frequency:    0.6480338966
  - # 7
    frequency:    0.6489633254
  - # 8
    frequency:    2.4683460419
  - # 9
    frequency:    2.4698086188
  - # 10
    frequency:    4.4348047999
  - # 11
    frequency:    5.7558543279
  - # 12
    frequency:    5.7583410531
  - # 13
    frequency:    6.0323375696
  - # 14
    frequency:    7.9305737105
  - # 15
    frequency:    9.7318623634
  - # 16
    frequency:    9.7346451020
  - # 17
    frequency:   10.7725222295
  - # 18
    frequency:   10.7726068589
  - # 19
    frequency:   13.5623351527
  - # 20
    frequency:   18.2893729068
  - # 21
    frequency:   18.2896142370
  - # 22
    frequency:   37.5599048273
  - # 23
    frequency:   38.8155615914
  - # 24
    frequency:   69.0605237445

- q-position: [    0.0101010,    0.0000000,    0.0000000 ]
  distance:    0.0032367
  band:
  - # 1
    frequency:   -5.4267663998
  - # 2
    frequency:   -5.4227776237
  - # 3
    frequency:   -0.4217643956
  - # 4
    frequency:   -0.3994630703
  - # 5
    frequency:    0.0089496702
  - # 6
    frequency:    0.7071294255
  - # 7
    frequency:    0.7123339739
  - # 8
    frequency:    2.4692189228
  - # 9
    frequency:    2.4750460118
  - # 10
    frequency:    4.4333801544
  - # 11
    frequency:    5.7531793566
  - # 12
    frequency:    5.7630054641
  - # 13
    frequency:    6.0420627502
  - # 14
    frequency:    7.9283501100
  - # 15
    frequency:    9.7316919849
  - # 16
    frequency:    9.7428133388
  - # 17
    frequency:   10.7726164379
  - # 18
    frequency:   10.7729541649
  - # 19
    frequency:   13.5610004344
  - # 20
    frequency:   18.2895637002
  - # 21
    frequency:   18.2905284711
  - # 22
    frequency:   37.5578982353
  - # 23
    frequency:   38.8154507194
  - # 24
    frequency:   69.0572673951

- q-position: [    0.0151515,    0.0000000,    0.0000000 ]
  distance:    0.0048550
  band:
  - # 1
    frequency:   -5.4246971175
  - # 2
    frequency:   -5.4157380796
  - # 3
    frequency:   -0.5849997782
  - # 4
    frequency:   -0.5522303871
  - # 5
    frequency:    0.0198764099
  - # 6
    frequency:    0.7683053436
  - # 7
    frequency:    0.7814285345
  - # 8
    frequency:    2.4706568071
  - # 9
    frequency:    2.4836825141
  - # 10
    frequency:    4.4310515120
  - # 11
    frequency:    5.7489840074
  - # 12
    frequency:    5.7706780057
  - # 13
    frequency:    6.0578485271
  - # 14
    frequency:    7.9246627390
  - # 15
    frequency:    9.7314087236
  - # 16
    frequency:    9.7563958777
  - # 17
    frequency:   10.7727743723
  - # 18
    frequency:   10.7735313138
  - # 19
    frequency:   13.5587835367
  - # 20
    frequency:   18.2898798832
  - # 21
    frequency:   18.2920485560
  - # 22
    frequency:   37.5545576658
  - # 23
    frequency:   38.8152661985
  - # 24
    frequency:   69.0518477715

- q-position: [    0.0202020,    0.0000000,    0.0000000 ]
  distance:    0.0064734
  band:
  - # 1
    frequency:   -5.4217992306
  - # 2
    frequency:   -5.4059110858
  - # 3
    frequency:   -0.7308449692
  - # 4
    frequency:   -0.6874431359
  - # 5
    frequency:    0.0347263095
  - # 6
    frequency:    0.8251701706
  - # 7
    frequency:    0.8492395678
  - # 8
    frequency:    2.4726357906
  - # 9
    frequency:    2.4955868552
  - # 10
    frequency:    4.4278830430
  - # 11
    frequency:    5.7435625813
  - # 12
    frequency:    5.7812114784
  - # 13
    frequency:    6.0791712019
  - # 14
    frequency:    7.9195386936
  - # 15
    frequency:    9.7310136183
  - # 16
    frequency:    9.7753462780
  - # 17
    frequency:   10.7729974260
  - # 18
    frequency:   10.7743358531
  - # 19
    frequency:   13.5556958689
  - # 20
    frequency:   18.2903187744
  - # 21
    frequency:   18.2941690645
  - # 22
    frequency:   37.5498887353
  - # 23
    frequency:   38.8150084267
  - # 24
    frequency:   69.0442762886

- q-position: [    0.0252525,    0.0000000,    0.0000000 ]
  distance:    0.0080917
  band:
  - # 1
    frequency:   -5.4180718994
  - # 2
    frequency:   -5.3933249203
  - # 3
    frequency:   -0.8657321765
  - # 4
    frequency:   -0.8115822589
  - # 5
    frequency:    0.0531250627
  - # 6
    frequency:    0.8775152415
  - # 7
    frequency:    0.9150360904
  - # 8
    frequency:    2.4751250245
  - # 9
    frequency:    2.5105885388
  - # 10
    frequency:    4.4239564787
  - # 11
    frequency:    5.7371967737
  - # 12
    frequency:    5.7944093181
  - # 13
    frequency:    6.1054474774
  - # 14
    frequency:    7.9130143124
  - # 15
    frequency:    9.7305080925
  - # 16
    frequency:    9.7996001247
  - # 17
    frequency:   10.7732875758
  - # 18
    frequency:   10.7753645387
  - # 19
    frequency:   13.5517533241
  - # 20
    frequency:   18.2908766751
  - # 21
    frequency:   18.2968824593
  - # 22
    frequency:   37.5438992871
  - # 23
    frequency:   38.8146779593
  - # 24
    frequency:   69.0345688805

- q-position: [    0.0303030,    0.0000000,    0.0000000 ]
  distance:    0.0097100
  band:
  - # 1
    frequency:   -5.4135141178
  - # 2
    frequency:   -5.3780158113
  - # 3
    frequency:   -0.9929450087
  - # 4
    frequency:   -0.9280291628
  - # 5
    frequency:    0.0746729373
  - # 6
    frequency:    0.9263290889
  - # 7
    frequency:    0.9793896582
  - # 8
    frequency:    2.4780886888
  - # 9
    frequency:    2.5284879367
  - # 10
    frequency:    4.4193647407
  - # 11
    frequency:    5.7301176785
  - # 12
    frequency:    5.8100340004
  - # 13
    frequency:    6.1360890514
  - # 14
    frequency:    7.9051338004
  - # 15
    frequency:    9.7298939237
  - # 16
    frequency:    9.8290754529
  - # 17
    frequency:   10.7736474066
  - # 18
    frequency:   10.7766135488
  - # 19
    frequency:   13.5469761996
  - # 20
    frequency:   18.2915489233
  - # 21
    frequency:   18.3001791529
  - # 22
    frequency:   37.5365993725
  - # 23
    frequency:   38.8142755071
  - # 24
    frequency:   69.0227459539

- q-position: [    0.0353535,    0.0000000,    0.0000000 ]
  distance:    0.0113284
  band:
  - # 1
    frequency:   -5.4081247674
  - # 2
    frequency:   -5.3600278399
  - # 3
    frequency:   -1.1141486409
  - # 4
    frequency:   -1.0385389591
  - # 5
    frequency:    0.0989767800
  - # 6
    frequency:    0.9726584010
  - # 7
    frequency:    1.0429923032
  - # 8
    frequency:    2.4814878535
  - # 9
    frequency:    2.5490659715
  - # 10
    frequency:    4.4142056877
  - # 11
    frequency:    5.7225001146
  - # 12
    frequency:    5.8278164722
  - # 13
    frequency:    6.1705261600
  - # 14
    frequency:    7.8959477303
  - # 15
    frequency:    9.7291732042
  - # 16
    frequency:    9.8636730716
  - # 17
    frequency:   10.7740801423
  - # 18
    frequency:   10.7780788023
  - # 19
    frequency:   13.5413890949
  - # 20
    frequency:   18.2923299609
  - # 21
    frequency:   18.3040475820
  - # 22
    frequency:   37.5280012263
  - # 23
    frequency:   38.8138019341
  - # 24
    frequency:   69.0088323285

- q-position: [    0.0404040,    0.0000000,    0.0000000 ]
  distance:    0.0129467
  band:
  - # 1
    frequency:   -5.4019026842
  - # 2
    frequency:   -5.3394128198
  - # 3
    frequency:   -1.2301577851
  - # 4
    frequency:   -1.1440048082
  - # 5
    frequency:    0.1256717051
  - # 6
    frequency:    1.0173637730
  - # 7
    frequency:    1.1063964375
  - # 8
    frequency:    2.4852820240
  - # 9
    frequency:    2.5720924352
  - # 10
    frequency:    4.4085767113
  - # 11
    frequency:    5.7144737578
  - # 12
    frequency:    5.8474658884
  - # 13
    frequency:    6.2082140064
  - # 14
    frequency:    7.8855115632
  - # 15
    frequency:    9.7283482941
  - # 16
    frequency:    9.9032766699
  - # 17
    frequency:   10.7745896810
  - # 18
    frequency:   10.7797564279
  - # 19
    frequency:   13.5350207877
  - # 20
    frequency:   18.2932134143
  - # 21
    frequency:   18.3084742975
  - # 22
    frequency:   37.5181192361
  - # 23
    frequency:   38.8132582546
  - # 24
    frequency:   68.9928571647

- q-position: [    0.0454545,    0.0000000,    0.0000000 ]
  distance:    0.0145651
  band:
  - # 1
    frequency:   -5.3948467345
  - # 2
    frequency:   -5.3162301539
  - # 3
    frequency:   -1.3413289755
  - # 4
    frequency:   -1.2448551001
  - # 5
    frequency:    0.1544327750
  - # 6
    frequency:    1.0610931120
  - # 7
    frequency:    1.1699839272
  - # 8
    frequency:    2.4894302886
  - # 9
    frequency:    2.5973325589
  - # 10
    frequency:    4.4025706189
  - # 11
    frequency:    5.7061385947
  - # 12
    frequency:    5.8686790255
  - # 13
    frequency:    6.2486333495
  - # 14
    frequency:    7.8738843130
  - # 15
    frequency:    9.7274217664
  - # 16
    frequency:    9.9477525828
  - # 17
    frequency:   10.7751806349
  - # 18
    frequency:   10.7816434579
  - # 19
    frequency:   13.5279040874
  - # 20
    frequency:   18.2941921852
  - # 21
    frequency:   18.3134440659
  - # 22
    frequency:   37.5069699077
  - # 23
    frequency:   38.8126456303
  - # 24
    frequency:   68.9748538782

- q-position: [    0.0505051,    0.0000000,    0.0000000 ]
  distance:    0.0161834
  band:
  - # 1
    frequency:   -5.3869559019
  - # 2
    frequency:   -5.2905466670
  - # 3
    frequency:   -1.4477716266
  - # 4
    frequency:   -1.3412685860
  - # 5
    frequency:    0.1849788467
  - # 6
    frequency:    1.1043090809
  - # 7
    frequency:    1.2339913191
  - # 8
    frequency:    2.4938920923
  - # 9
    frequency:    2.6245518966
  - # 10
    frequency:    4.3962729378
  - # 11
    frequency:    5.6975785064
  - # 12
    frequency:    5.8911488860
  - # 13
    frequency:    6.2912906636
  - # 14
    frequency:    7.8611274512
  - # 15
    frequency:    9.7263963452
  - # 16
    frequency:    9.9969490771
  - # 17
    frequency:   10.7758583716
  - # 18
    frequency:   10.7837388817
  - # 19
    frequency:   13.5200756681
  - # 20
    frequency:   18.2952585507
  - # 21
    frequency:   18.3189399829
  - # 22
    frequency:   37.4945718243
  - # 23
    frequency:   38.8119653665
  - # 24
    frequency:   68.9548600426

- q-position: [    0.0555556,    0.0000000,    0.0000000 ]
  distance:    0.0178017
  band:
  - # 1
    frequency:   -5.3782293845
  - # 2
    frequency:   -5.2624364130
  - # 3
    frequency:   -1.5494662500
  - # 4
    frequency:   -1.4332945838
  - # 5
    frequency:    0.2170712394
  - # 6
    frequency:    1.1473264185
  - # 7
    frequency:    1.2985439680
  - # 8
    frequency:    2.4986277218
  - # 9
    frequency:    2.6535198338
  - # 10
    frequency:    4.3897605448
  - # 11
    frequency:    5.6888711401
  - # 12
    frequency:    5.9145721745
  - # 13
    frequency:    6.3357193199
  - # 14
    frequency:    7.8473041176
  - # 15
    frequency:    9.7252748364
  - # 16
    frequency:   10.0506949511
  - # 17
    frequency:   10.7766290571
  - # 18
    frequency:   10.7860452912
  - # 19
    frequency:   13.5115758797
  - # 20
    frequency:   18.2964042715
  - # 21
    frequency:   18.3249435966
  - # 22
    frequency:   37.4809456011
  - # 23
    frequency:   38.8112189078
  - # 24
    frequency:   68.9329172798

- q-position: [    0.0606061,    0.0000000,    0.0000000 ]
  distance:    0.0194201
  band:
  - # 1
    frequency:   -5.3686666998
  - # 2
    frequency:   -5.2319804577
  - # 3
    frequency:   -1.6463321514
  - # 4
    frequency:   -1.5209210752
  - # 5
    frequency:    0.2505095336
  - # 6
    frequency:    1.1903465496
  - # 7
    frequency:    1.3636861133
  - # 8
    frequency:    2.5035986127
  - # 9
    frequency:    2.6840121094
  - # 10
    frequency:    4.3831013833
  - # 11
    frequency:    5.6800942585
  - # 12
    frequency:    5.9386554822
  - # 13
    frequency:    6.3814815227
  - # 14
    frequency:    7.8324786770
  - # 15
    frequency:    9.7240600538
  - # 16
    frequency:   10.1087970683
  - # 17
    frequency:   10.7774996982
  - # 18
    frequency:   10.7885715552
  - # 19
    frequency:   13.5024485382
  - # 20
    frequency:   18.2976207051
  - # 21
    frequency:   18.3314350380
  - # 22
    frequency:   37.4661138346
  - # 23
    frequency:   38.8104078342
  - # 24
    frequency:   68.9090711385

- q-position: [    0.0656566,    0.0000000,    0.0000000 ]
  distance:    0.0210384
  band:
  - # 1
    frequency:   -5.3582677985
  - # 2
    frequency:   -5.1992666335
  - # 3
    frequency:   -1.7382663644
  - # 4
    frequency:   -1.6041131420
  - # 5
    frequency:    0.2851261815
  - # 6
    frequency:    1.2334862919
  - # 7
    frequency:    1.4294042192
  - # 8
    frequency:    2.5087675829
  - # 9
    frequency:    2.7158127078
  - # 10
    frequency:    4.3763549757
  - # 11
    frequency:    5.6713293790
  - # 12
    frequency:    5.9631201517
  - # 13
    frequency:    6.4281703022
  - # 14
    frequency:    7.8167166427
  - # 15
    frequency:    9.7227547391
  - # 16
    frequency:   10.1710360487
  - # 17
    frequency:   10.7784781825
  - # 18
    frequency:   10.7913373702
  - # 19
    frequency:   13.4927406963
  - # 20
    frequency:   18.2988989232
  - # 21
    frequency:   18.3383931581
  - # 22
    frequency:   37.4501010477
  - # 23
    frequency:   38.8095338557
  - # 24
    frequency:   68.8833709615

- q-position: [    0.0707071,    0.0000000,    0.0000000 ]
  distance:    0.0226568
  band:
  - # 1
    frequency:   -5.3470331851
  - # 2
    frequency:   -5.1643892675
  - # 3
    frequency:   -1.8251657411
  - # 4
    frequency:   -1.6828341635
  - # 5
    frequency:    0.3207809776
  - # 6
    frequency:    1.2768004751
  - # 7
    frequency:    1.4956439968
  - # 8
    frequency:    2.5140990785
  - # 9
    frequency:    2.7487154040
  - # 10
    frequency:    4.3695734503
  - # 11
    frequency:    5.6626635314
  - # 12
    frequency:    5.9877058890
  - # 13
    frequency:    6.4754109602
  - # 14
    frequency:    7.8000849778
  - # 15
    frequency:    9.7213614782
  - # 16
    frequency:   10.2371584377
  - # 17
    frequency:   10.7795733153
  - # 18
    frequency:   10.7943814463
  - # 19
    frequency:   13.4825023942
  - # 20
    frequency:   18.3002298299
  - # 21
    frequency:   18.3457956694
  - # 22
    frequency:   37.4329336298
  - # 23
    frequency:   38.8085988080
  - # 24
    frequency:   68.8558697417

- q-position: [    0.0757576,    0.0000000,    0.0000000 ]
  distance:    0.0242751
  band:
  - # 1
    frequency:   -5.3349640444
  - # 2
    frequency:   -5.1274488801
  - # 3
    frequency:   -1.9069390333
  - # 4
    frequency:   -1.7570569132
  - # 5
    frequency:    0.3573559616
  - # 6
    frequency:    1.3202992225
  - # 7
    frequency:    1.5623223086
  - # 8
    frequency:    2.5195594937
  - # 9
    frequency:    2.7825251602
  - # 10
    frequency:    4.3628028442
  - # 11
    frequency:    5.6541897812
  - # 12
    frequency:    6.0121732519
  - # 13
    frequency:    6.5228615805
  - # 14
    frequency:    7.7826527900
  - # 15
    frequency:    9.7198826145
  - # 16
    frequency:   10.3068615088
  - # 17
    frequency:   10.7807948504
  - # 18
    frequency:   10.7977772399
  - # 19
    frequency:   13.4717863915
  - # 20
    frequency:   18.3016042802
  - # 21
    frequency:   18.3536192900
  - # 22
    frequency:   37.4146397724
  - # 23
    frequency:   38.8076046466
  - # 24
    frequency:   68.8266239681

- q-position: [    0.0808081,    0.0000000,    0.0000000 ]
  distance:    0.0258934
  band:
  - # 1
    frequency:   -5.3220623732
  - # 2
    frequency:   -5.0885518559
  - # 3
    frequency:   -1.9835130164
  - # 4
    frequency:   -1.8267687605
  - # 5
    frequency:    0.3947509981
  - # 6
    frequency:    1.3639608639
  - # 7
    frequency:    1.6293351792
  - # 8
    frequency:    2.5251176064
  - # 9
    frequency:    2.8170595064
  - # 10
    frequency:    4.3560845057
  - # 11
    frequency:    5.6460069660
  - # 12
    frequency:    6.0363051783
  - # 13
    frequency:    6.5702124013
  - # 14
    frequency:    7.7644924477
  - # 15
    frequency:    9.7183201612
  - # 16
    frequency:   10.3797612815
  - # 17
    frequency:   10.7821535142
  - # 18
    frequency:   10.8016657039
  - # 19
    frequency:   13.4606478820
  - # 20
    frequency:   18.3030131956
  - # 21
    frequency:   18.3618398879
  - # 22
    frequency:   37.3952494006
  - # 23
    frequency:   38.8065534416
  - # 24
    frequency:   68.7956934614

- q-position: [    0.0858586,    0.0000000,    0.0000000 ]
  distance:    0.0275118
  band:
  - # 1
    frequency:   -5.3083311152
  - # 2
    frequency:   -5.0478100850
  - # 3
    frequency:   -2.0548350996
  - # 4
    frequency:   -1.8919734849
  - # 5
    frequency:    0.4328800886
  - # 6
    frequency:    1.4077413885
  - # 7
    frequency:    1.6965629334
  - # 8
    frequency:    2.5307451557
  - # 9
    frequency:    2.8521499870
  - # 10
    frequency:    4.3494564763
  - # 11
    frequency:    5.6382189322
  - # 12
    frequency:    6.0599077225
  - # 13
    frequency:    6.6171839623
  - # 14
    frequency:    7.7456811734
  - # 15
    frequency:    9.7166757128
  - # 16
    frequency:   10.4553183469
  - # 17
    frequency:   10.7836610208
  - # 18
    frequency:   10.8063304932
  - # 19
    frequency:   13.4491441916
  - # 20
    frequency:   18.3044476757
  - # 21
    frequency:   18.3704326261
  - # 22
    frequency:   37.3747941002
  - # 23
    frequency:   38.8054473716
  - # 24
    frequency:   68.7631412000

- q-position: [    0.0909091,    0.0000000,    0.0000000 ]
  distance:    0.0291301
  band:
  - # 1
    frequency:   -5.2937742982
  - # 2
    frequency:   -5.0053405757
  - # 3
    frequency:   -2.1208739123
  - # 4
    frequency:   -1.9526912099
  - # 5
    frequency:    0.4716683680
  - # 6
    frequency:    1.4515812116
  - # 7
    frequency:    1.7638732524
  - # 8
    frequency:    2.5364175790
  - # 9
    frequency:    2.8876437198
  - # 10
    frequency:    4.3429547840
  - # 11
    frequency:    5.6309334479
  - # 12
    frequency:    6.0828101634
  - # 13
    frequency:    6.6635239853
  - # 14
    frequency:    7.7263032118
  - # 15
    frequency:    9.7149503589
  - # 16
    frequency:   10.5326444532
  - # 17
    frequency:   10.7853300767
  - # 18
    frequency:   10.8123926748
  - # 19
    frequency:   13.4373344626
  - # 20
    frequency:   18.3058991038
  - # 21
    frequency:   18.3793721039
  - # 22
    frequency:   37.3533070419
  - # 23
    frequency:   38.8042887181
  - # 24
    frequency:   68.7290331370

- q-position: [    0.0959596,    0.0000000,    0.0000000 ]
  distance:    0.0307484
  band:
  - # 1
    frequency:   -5.2783971715
  - # 2
    frequency:   -4.9612650404
  - # 3
    frequency:   -2.1816187746
  - # 4
    frequency:   -2.0089573565
  - # 5
    frequency:    0.5110496985
  - # 6
    frequency:    1.4954098733
  - # 7
    frequency:    1.8311227411
  - # 8
    frequency:    2.5421149213
  - # 9
    frequency:    2.9234050894
  - # 10
    frequency:    4.3366146176
  - # 11
    frequency:    5.6242608926
  - # 12
    frequency:    6.1048646306
  - # 13
    frequency:    6.7090029380
  - # 14
    frequency:    7.7064527237
  - # 15
    frequency:    9.7131446015
  - # 16
    frequency:   10.6099261819
  - # 17
    frequency:   10.7871743731
  - # 18
    frequency:   10.8213885955
  - # 19
    frequency:   13.4252793263
  - # 20
    frequency:   18.3073592443
  - # 21
    frequency:   18.3886324962
  - # 22
    frequency:   37.3308229006
  - # 23
    frequency:   38.8030798587
  - # 24
    frequency:   68.6934380095

- q-position: [    0.1010101,    0.0000000,    0.0000000 ]
  distance:    0.0323668
  band:
  - # 1
    frequency:   -5.2622063434
  - # 2
    frequency:   -4.9157094566
  - # 3
    frequency:   -2.2370785984
  - # 4
    frequency:   -2.0608211512
  - # 5
    frequency:    0.5509647590
  - # 6
    frequency:    1.5391491432
  - # 7
    frequency:    1.8981574472
  - # 8
    frequency:    2.5478229293
  - # 9
    frequency:    2.9593175691
  - # 10
    frequency:    4.3304713775
  - # 11
    frequency:    5.6183127817
  - # 12
    frequency:    6.1259453701
  - # 13
    frequency:    6.7534081747
  - # 14
    frequency:    7.6862376388
  - # 15
    frequency:    9.7112582773
  - # 16
    frequency:   10.6825647426
  - # 17
    frequency:   10.7892085656
  - # 18
    frequency:   10.8376318387
  - # 19
    frequency:   13.4130405673
  - # 20
    frequency:   18.3088203321
  - # 21
    frequency:   18.3981876874
  - # 22
    frequency:   37.3073777720
  - # 23
    frequency:   38.8018232617
  - # 24
    frequency:   68.6564271388

- q-position: [    0.1060606,    0.0000000,    0.0000000 ]
  distance:    0.0339851
  band:
  - # 1
    frequency:   -5.2452099146
  - # 2
    frequency:   -4.8688036062
  - # 3
    frequency:   -2.2872805466
  - # 4
    frequency:   -2.1083439940
  - # 5
    frequency:    0.5913595394
  - # 6
    frequency:    1.5827148901
  - # 7
    frequency:    1.9648126726
  - # 8
    frequency:    2.5535343440
  - # 9
    frequency:    2.9952856377
  - # 10
    frequency:    4.3245616209
  - # 11
    frequency:    5.6132001588
  - # 12
    frequency:    6.1459477539
  - # 13
    frequency:    6.7965364475
  - # 14
    frequency:    7.6657847988
  - # 15
    frequency:    9.7092904884
  - # 16
    frequency:   10.7393790037
  - # 17
    frequency:   10.7914482375
  - # 18
    frequency:   10.8720120991
  - # 19
    frequency:   13.4006807850
  - # 20
    frequency:   18.3102751512
  - # 21
    frequency:   18.4080113998
  - # 22
    frequency:   37.2830090865
  - # 23
    frequency:   38.8005214786
  - # 24
    frequency:   68.6180742248

- q-position: [    0.1111111,    0.0000000,    0.0000000 ]
  distance:    0.0356035
  band:
  - # 1
    frequency:   -5.2274176087
  - # 2
    frequency:   -4.8206805967
  - # 3
    frequency:   -2.3322686356
  - # 4
    frequency:   -2.1515978583
  - # 5
    frequency:    0.6321841579
  - # 6
    frequency:    1.6260179754
  - # 7
    frequency:    2.0309123564
  - # 8
    frequency:    2.5592504080
  - # 9
    frequency:    3.0312367174
  - # 10
    frequency:    4.3189239274
  - # 11
    frequency:    5.6090318791
  - # 12
    frequency:    6.1647871117
  - # 13
    frequency:    6.8381844523
  - # 14
    frequency:    7.6452468511
  - # 15
    frequency:    9.7072395417
  - # 16
    frequency:   10.7708163610
  - # 17
    frequency:   10.7939098483
  - # 18
    frequency:   10.9337863120
  - # 19
    frequency:   13.3882630577
  - # 20
    frequency:   18.3117171020
  - # 21
    frequency:   18.4180773154
  - # 22
    frequency:   37.2577555192
  - # 23
    frequency:   38.7991771386
  - # 24
    frequency:   68.5784551329

- q-position: [    0.1161616,    0.0000000,    0.0000000 ]
  distance:    0.0372218
  band:
  - # 1
    frequency:   -5.2088408951
  - # 2
    frequency:   -4.7714763725
  - # 3
    frequency:   -2.3721023814
  - # 4
    frequency:   -2.1906638056
  - # 5
    frequency:    0.6733919378
  - # 6
    frequency:    1.6689643578
  - # 7
    frequency:    2.0962682849
  - # 8
    frequency:    2.5649826043
  - # 9
    frequency:    3.0671230055
  - # 10
    frequency:    4.3135997196
  - # 11
    frequency:    5.6059128070
  - # 12
    frequency:    6.1823974464
  - # 13
    frequency:    6.8781369178
  - # 14
    frequency:    7.6248114900
  - # 15
    frequency:    9.7051029007
  - # 16
    frequency:   10.7857487854
  - # 17
    frequency:   10.7966106644
  - # 18
    frequency:   11.0137846275
  - # 19
    frequency:   13.3758506170
  - # 20
    frequency:   18.3131402570
  - # 21
    frequency:   18.4283591915
  - # 22
    frequency:   37.2316568981
  - # 23
    frequency:   38.7977929409
  - # 24
    frequency:   68.5376476755

- q-position: [    0.1212121,    0.0000000,    0.0000000 ]
  distance:    0.0388401
  band:
  - # 1
    frequency:   -5.1894931051
  - # 2
    frequency:   -4.7213292189
  - # 3
    frequency:   -2.4068555373
  - # 4
    frequency:   -2.2256306514
  - # 5
    frequency:    0.7149386925
  - # 6
    frequency:    1.7114545419
  - # 7
    frequency:    2.1606793946
  - # 8
    frequency:    2.5707546439
  - # 9
    frequency:    3.1029230025
  - # 10
    frequency:    4.3086340778
  - # 11
    frequency:    5.6039419558
  - # 12
    frequency:    6.1987300801
  - # 13
    frequency:    6.9161516396
  - # 14
    frequency:    7.6047137395
  - # 15
    frequency:    9.7028771509
  - # 16
    frequency:   10.7939950211
  - # 17
    frequency:   10.7995686724
  - # 18
    frequency:   11.1018901958
  - # 19
    frequency:   13.3635065450
  - # 20
    frequency:   18.3145394048
  - # 21
    frequency:   18.4388309673
  - # 22
    frequency:   37.2047541098
  - # 23
    frequency:   38.7963716485
  - # 24
    frequency:   68.4957313890

- q-position: [    0.1262626,    0.0000000,    0.0000000 ]
  distance:    0.0404585
  band:
  - # 1
    frequency:   -5.1693895373
  - # 2
    frequency:   -4.6703792708
  - # 3
    frequency:   -2.4366149402
  - # 4
    frequency:   -2.2565937866
  - # 5
    frequency:    0.7567821787
  - # 6
    frequency:    1.7533824690
  - # 7
    frequency:    2.2239314730
  - # 8
    frequency:    2.5766047090
  - # 9
    frequency:    3.1386424518
  - # 10
    frequency:    4.3040765883
  - # 11
    frequency:    5.6032106085
  - # 12
    frequency:    6.2137522626
  - # 13
    frequency:    6.9519409378
  - # 14
    frequency:    7.5852518730
  - # 15
    frequency:    9.7005579795
  - # 16
    frequency:   10.7994096121
  - # 17
    frequency:   10.8028024733
  - # 18
    frequency:   11.1939520198
  - # 19
    frequency:   13.3512935060
  - # 20
    frequency:   18.3159100803
  - # 21
    frequency:   18.4494668632
  - # 22
    frequency:   37.1770890029
  - # 23
    frequency:   38.7949160813
  - # 24
    frequency:   68.4527873050

- q-position: [    0.1313131,    0.0000000,    0.0000000 ]
  distance:    0.0420768
  band:
  - # 1
    frequency:   -5.1485475524
  - # 2
    frequency:   -4.6187680310
  - # 3
    frequency:   -2.4614794606
  - # 4
    frequency:   -2.2836541433
  - # 5
    frequency:    0.7988816896
  - # 6
    frequency:    1.7946339347
  - # 7
    frequency:    2.2857976208
  - # 8
    frequency:    2.5825879430
  - # 9
    frequency:    3.1743143074
  - # 10
    frequency:    4.2999822664
  - # 11
    frequency:    5.6038004658
  - # 12
    frequency:    6.2274457665
  - # 13
    frequency:    6.9851496557
  - # 14
    frequency:    7.5668069092
  - # 15
    frequency:    9.6981401738
  - # 16
    frequency:   10.8033911721
  - # 17
    frequency:   10.8063311591
  - # 18
    frequency:   11.2882784071
  - # 19
    frequency:   13.3392735319
  - # 20
    frequency:   18.3172485841
  - # 21
    frequency:   18.4602414727
  - # 22
    frequency:   37.1487042902
  - # 23
    frequency:   38.7934291089
  - # 24
    frequency:   68.4088977194

- q-position: [    0.1363636,    0.0000000,    0.0000000 ]
  distance:    0.0436952
  band:
  - # 1
    frequency:   -5.1269866535
  - # 2
    frequency:   -4.5666379090
  - # 3
    frequency:   -2.4815590459
  - # 4
    frequency:   -2.3069172858
  - # 5
    frequency:    0.8411977649
  - # 6
    frequency:    1.8350846313
  - # 7